Membrane in water
40347
    1TMC1    C1    1   1.738   4.394  11.258 -0.0388  0.5753 -0.5428
    1TMC1    C2    2   1.714   4.335  11.130  0.2081  0.3849 -0.8791
    1TMC1    C3    3   1.648   4.410  11.039  1.0027 -0.3683 -0.1500
    1TMC1    C4    4   1.720   4.529  11.281 -0.8391 -0.3361  0.8320
    1TMC1    C5    5   1.664   4.601  11.179 -0.2274 -0.8702 -0.0727
    1TMC1    C6    6   1.636   4.545  11.060 -0.0522 -0.2246  0.5613
    1TMC1     C    7   1.729   4.306  11.377 -0.2415 -0.5653 -0.0254
    1TMC1     O    8   1.726   4.191  11.343  0.3796  0.1420 -0.0012
    1TMC1     H    9   1.748   4.233  11.114 -0.3275  0.0135  0.3689
    1TMC1    H1   10   1.739   4.573  11.379 -2.3075  1.9903  0.0699
    1TMC1    H2   11   1.586   4.592  10.977  0.3779  1.2056  1.1133
    1TMC1    C7   12   1.612   4.734  11.203  0.0541 -0.5188 -0.0407
    1TMC1    C8   13   1.631   4.351  10.909 -0.3310  0.2917  0.0044
    1TMC1    O1   14   1.538   0.045  11.121  0.0469 -0.1021 -0.4558
    1TMC1    O2   15   1.604   4.417  10.807 -0.5741  0.2855 -0.2941
    1TMC1    O3   16   1.695   0.073  11.279  0.2611  0.2133 -0.7918
    1TMC1    H3   17   1.764   0.029  11.333  0.8720 -1.5312 -2.9880
    1TMC1    O5   18   1.651   4.218  10.914  0.0727 -0.4115  0.9749
    1TMC1    H5   19   1.633   4.185  11.005  1.2007 -1.3636  0.8499
    2MPD2     C   20   1.575   4.177  11.855  0.0061 -0.2757  0.5234
    2MPD2    C1   21   1.561   4.317  11.839 -0.2166  0.2260  0.1561
    2MPD2    C2   22   1.596   4.372  11.719  0.1984  0.2405 -0.7597
    2MPD2    C3   23   1.647   4.298  11.612  0.5556 -0.7768  0.0526
    2MPD2    C4   24   1.636   4.157  11.622  1.5790  0.3311 -0.4289
    2MPD2    C5   25   1.594   4.098  11.743 -0.3142 -0.1119 -0.2251
    2MPD2     H   26   1.595   4.478  11.701 -1.4032  0.5466  1.0905
    2MPD2    H1   27   1.674   4.093  11.543  0.2623 -0.0854 -0.7151
    2MPD2    H2   28   1.546   4.126  11.946 -1.7269 -0.0392  0.1186
    2MPD2    H3   29   1.581   3.991  11.760  1.8892 -0.2522  0.5226
    2MPD2     N   30   1.697   4.364  11.493 -0.1023  0.0196 -0.0953
    2MPD2    H5   31   1.698   4.465  11.504 -2.5291  0.0767 -0.4444
    2MPD2    N1   32   1.508   4.400  11.940 -0.2812  0.0311  0.2483
    2MPD2    H7   33   1.501   4.500  11.922  0.7410 -0.0148 -0.3593
    3TMC1    C1   34   0.340   1.132  10.822  0.1889  0.5109 -0.1573
    3TMC1    C2   35   0.273   1.019  10.778  0.0691  0.5040  0.6964
    3TMC1    C3   36   0.284   0.987  10.647  0.0475  0.1956  0.1408
    3TMC1    C4   37   0.403   1.224  10.738  0.4068  0.1855  0.1935
    3TMC1    C5   38   0.421   1.176  10.608  0.2988 -0.3770 -0.3619
    3TMC1    C6   39   0.357   1.066  10.564  0.4925  0.4772 -0.5565
    3TMC1     C   40   0.308   1.177  10.951 -0.2987  0.2275  0.5306
    3TMC1     O   41   0.229   1.109  11.015 -0.0707  0.1673  0.2093
    3TMC1     H   42   0.221   0.952  10.845  0.3348 -0.0280  0.3655
    3TMC1    H1   43   0.471   1.300  10.776 -0.4168  1.2309 -0.4258
    3TMC1    H2   44   0.345   1.056  10.457  0.2899 -0.4815 -0.4437
    3TMC1    C7   45   0.456   1.283  10.514  0.0099 -0.3550  0.2401
    3TMC1    C8   46   0.215   0.874  10.591 -0.1071  0.2246  0.3615
    3TMC1    O1   47   0.418   1.399  10.531 -0.5178  0.0503  0.2203
    3TMC1    O2   48   0.250   0.835  10.482 -0.4271  0.1093 -0.0011
    3TMC1    O3   49   0.493   1.221  10.396 -0.3832  0.3515  0.5066
    3TMC1    H3   50   0.507   1.127  10.422  0.6546 -0.1271 -1.7631
    3TMC1    O5   51   0.140   0.809  10.680 -0.2226 -0.0255  0.5425
    3TMC1    H5   52   0.088   0.863  10.744 -0.1221  2.0738 -1.1538
    4MPD2     C   53   0.224   1.563  11.261  0.1806  0.1845 -0.9119
    4MPD2    C1   54   0.279   1.613  11.145  0.0990  0.1397  0.3186
    4MPD2    C2   55   0.332   1.521  11.060 -0.4682  0.3837 -0.7992
    4MPD2    C3   56   0.313   1.390  11.078  0.4890 -0.3149 -0.0514
    4MPD2    C4   57   0.267   1.341  11.198  0.1034  0.3032 -0.9250
    4MPD2    C5   58   0.212   1.427  11.293 -0.0262  0.3580 -0.3896
    4MPD2     H   59   0.383   1.561  10.973  1.4582 -1.1415 -0.3649
    4MPD2    H1   60   0.261   1.235  11.216 -0.6609  0.2901 -1.2595
    4MPD2    H2   61   0.177   1.624  11.337 -0.3539  0.2101 -1.2624
    4MPD2    H3   62   0.149   1.395  11.375  1.6115 -0.8229  0.4272
    4MPD2     N   63   0.340   1.306  10.964  0.0343  0.1535 -0.0130
    4MPD2    H5   64   0.370   1.353  10.880  2.2597  1.8174  1.7159
    4MPD2    N1   65   0.289   1.753  11.110 -0.5152  0.2267 -0.3758
    4MPD2    H7   66   0.333   1.793  11.028 -0.7284  0.9882 -0.1147
    5TCq1    O1   67   0.416   3.365  11.019  1.0041 -0.4452 -0.6802
    5TCq1    C1   68   0.359   3.444  10.925  0.4499 -0.2457 -0.3772
    5TCq1    O2   69   0.241   3.466  10.906 -0.1942 -0.3208 -0.6288
    5TCq1    C2   70   0.459   3.509  10.857 -0.8523  0.0372  0.0490
    5TCq1    C3   71   0.428   3.628  10.803  0.2127  0.2098 -0.3167
    5TCq1    C4   72   0.518   3.692  10.719 -0.2160 -0.6936 -0.1063
    5TCq1    C5   73   0.646   3.641  10.703 -0.4918  0.2200  0.0980
    5TCq1    C6   74   0.675   3.519  10.757 -0.3274  1.2243 -0.3208
    5TCq1    C7   75   0.580   3.452  10.828 -0.3432 -0.3187 -0.1135
    5TCq1    C8   76   0.774   3.433  10.701  0.6741 -0.2394  0.0580
    5TCq1    O4   77   0.792   3.318  10.743  0.0640 -0.2490 -0.1206
    5TCq1    C9   78   0.480   3.816  10.657  0.1580  0.2663  0.6953
    5TCq1    O5   79   0.358   3.844  10.672 -0.4086  0.2376 -0.1350
    5TCq1    O6   80   0.569   3.892  10.609 -0.1471  0.3206  0.2863
    5TCq1    H1   81   0.510   3.389  11.035  0.3029  0.7609  1.6031
    5TCq1    H2   82   0.329   3.670  10.814  0.9155  1.4476  1.2403
    5TCq1    H3   83   0.706   3.698  10.632  0.7043  1.0235  1.7547
    5TCq1    H4   84   0.590   3.350  10.863  2.3161  0.0166  0.1505
    6MPD2     C   85   1.046   3.521  10.462  0.0411 -0.0100 -0.1114
    6MPD2    C1   86   0.985   3.449  10.562 -0.4327  0.1893 -0.0883
    6MPD2    C2   87   1.044   3.333  10.603  0.0845 -0.2749  0.1376
    6MPD2    C3   88   1.144   3.272  10.534  0.0568  0.2303 -0.3156
    6MPD2    C4   89   1.203   3.340  10.429 -0.4430  0.2599 -0.8132
    6MPD2    C5   90   1.158   3.462  10.393  1.0123 -0.1679  0.0898
    6MPD2     H   91   1.008   3.280  10.690 -1.2667  0.7090  0.1701
    6MPD2    H1   92   1.287   3.304  10.370  0.6964 -1.7116  2.0276
    6MPD2    H2   93   1.019   3.618  10.422 -1.6759 -0.4974 -0.1544
    6MPD2    H3   94   1.202   3.516  10.309  2.4893 -2.2411 -0.4876
    6MPD2     N   95   1.190   3.153  10.586  0.1650  0.4537  0.5144
    6MPD2    H5   96   1.154   3.120  10.675  0.7237 -1.4944  0.0250
    6MPD2    N1   97   0.864   3.501  10.622 -0.0973  0.2326 -0.5208
    6MPD2    H7   98   0.835   3.596  10.601  0.7328  0.1600 -2.0042
    7TCq1    O1   99   3.424   2.602  13.911 -0.2719 -0.3655  0.0986
    7TCq1    C1  100   3.349   2.572  13.798  0.4760  0.2141 -0.0961
    7TCq1    O2  101   3.247   2.506  13.797  0.0744  0.4021  1.1388
    7TCq1    C2  102   3.438   2.548  13.684  0.1720  0.4704 -0.5928
    7TCq1    C3  103   3.530   2.640  13.654  0.5917  0.6150 -0.0203
    7TCq1    C4  104   3.630   2.611  13.563  0.6193 -0.0067  0.6220
    7TCq1    C5  105   3.635   2.478  13.518  0.4286 -0.2626 -0.7602
    7TCq1    C6  106   3.546   2.387  13.568  0.6736  0.5367 -0.0664
    7TCq1    C7  107   3.438   2.420  13.648  0.2194  0.1026 -0.7611
    7TCq1    C8  108   3.562   2.247  13.544 -0.9940  0.1330 -0.0613
    7TCq1    O4  109   3.667   2.190  13.566  0.0960 -0.2708  0.1129
    7TCq1    C9  110   3.709   2.712  13.510  0.8851 -0.0070 -0.2061
    7TCq1    O5  111   3.689   2.826  13.554 -0.0280  0.0089 -0.8390
    7TCq1    O6  112   3.775   2.686  13.403  0.0000 -0.2921  0.1856
    7TCq1    H1  113   3.514   2.625  13.879  0.2386 -0.1609  1.6848
    7TCq1    H2  114   3.514   2.739  13.695 -0.4098 -0.5572  2.4174
    7TCq1    H3  115   3.704   2.439  13.444  0.6277 -1.5934  0.1183
    7TCq1    H4  116   3.365   2.349  13.687 -0.2650  0.6749 -0.6113
    8MPD2     C  117   3.341   1.834  13.327  0.3921  0.3124 -0.5172
    8MPD2    C1  118   3.437   1.838  13.420  0.1383  0.7350  0.1137
    8MPD2    C2  119   3.476   1.958  13.477 -0.5110 -0.6287  0.2101
    8MPD2    C3  120   3.411   2.075  13.442 -0.2270 -0.2384 -0.4656
    8MPD2    C4  121   3.305   2.056  13.349  0.4715  0.2886 -0.2204
    8MPD2    C5  122   3.281   1.940  13.284 -0.2646  0.1339 -0.0109
    8MPD2     H  123   3.539   1.964  13.565  0.1014  0.2184 -0.2937
    8MPD2    H1  124   3.247   2.138  13.309 -0.5444 -0.6651 -0.6656
    8MPD2    H2  125   3.322   1.740  13.276 -0.3154  1.5740 -2.5819
    8MPD2    H3  126   3.196   1.929  13.218 -2.0787  0.3431  2.3013
    8MPD2     N  127   3.449   2.202  13.485 -0.4131 -0.9955  0.1846
    8MPD2    H5  128   3.379   2.269  13.455 -0.6556 -0.2591  2.4008
    8MPD2    N1  129   3.489   1.705  13.453 -0.7605  0.4018  0.1949
    8MPD2    H7  130   3.442   1.628  13.407  0.5158 -0.3481  0.1593
    9TMC1    C1  131   1.348   1.051  11.005  0.0921 -0.5930  0.0875
    9TMC1    C2  132   1.271   0.995  10.907  0.4830  0.2146 -0.8883
    9TMC1    C3  133   1.336   0.965  10.788  0.1061  0.2050  0.1488
    9TMC1    C4  134   1.480   1.074  10.994 -0.8919 -0.4548 -0.4162
    9TMC1    C5  135   1.535   1.045  10.876 -0.1000  0.0146  0.3000
    9TMC1    C6  136   1.459   1.011  10.769  0.2911 -0.3193 -0.5181
    9TMC1     C  137   1.275   1.112  11.115 -0.6650 -0.2592 -0.5610
    9TMC1     O  138   1.325   1.214  11.153 -0.1597  0.4621 -0.1633
    9TMC1     H  139   1.163   0.998  10.916  0.7454  0.3930  2.1844
    9TMC1    H1  140   1.534   1.126  11.072 -0.6698 -0.8305 -0.3199
    9TMC1    H2  141   1.510   1.008  10.673  0.7224 -0.2911 -0.2924
    9TMC1    C7  142   1.677   1.075  10.862 -0.0284 -0.0324 -0.5019
    9TMC1    C8  143   1.281   0.910  10.672  0.3230 -0.0149  0.2919
    9TMC1    O1  144   1.734   1.090  10.756  0.5032 -0.7464  0.4720
    9TMC1    O2  145   1.164   0.919  10.634  0.2346  0.1058  0.5247
    9TMC1    O3  146   1.740   1.040  10.975  0.0623 -0.7125  0.6236
    9TMC1    H3  147   1.677   1.016  11.047 -0.3310 -2.8870 -0.4289
    9TMC1    O5  148   1.362   0.802  10.633 -0.5868  0.3020  0.0681
    9TMC1    H5  149   1.446   0.785  10.680 -0.3714 -1.0067 -0.8012
   10MPD2     C  150   1.074   1.227  11.291 -0.1592  0.4936  0.4404
   10MPD2    C1  151   1.076   1.095  11.257 -0.1246  0.1521 -0.7419
   10MPD2    C2  152   0.999   1.012  11.331  0.7452 -0.0733  0.2767
   10MPD2    C3  153   0.921   1.053  11.439 -0.0992 -0.3222  0.1138
   10MPD2    C4  154   0.907   1.183  11.457 -0.3407 -0.1906  0.7544
   10MPD2    C5  155   0.988   1.269  11.389 -0.1280  0.5449 -0.1327
   10MPD2     H  156   1.004   0.906  11.307  1.0276 -0.3121  1.3948
   10MPD2    H1  157   0.851   1.229  11.537  0.5399 -0.8314  1.7372
   10MPD2    H2  158   1.133   1.301  11.238  1.8330 -1.0328  0.5153
   10MPD2    H3  159   0.988   1.374  11.415 -0.0109  0.1488  1.4305
   10MPD2     N  160   0.841   0.965  11.519 -0.0417 -0.3814 -0.3425
   10MPD2    H5  161   0.817   1.003  11.610  0.3690 -0.1754 -0.3210
   10MPD2    N1  162   1.165   1.043  11.160 -0.4891 -0.1165 -0.7755
   10MPD2    H7  163   1.151   0.943  11.145 -2.2347  0.2454 -1.6594
   11TCq1    O1  164   1.294   0.985  14.503 -0.0242 -0.4000 -0.2183
   11TCq1    C1  165   1.414   0.934  14.482 -0.3858  0.0963  0.7187
   11TCq1    O2  166   1.515   0.962  14.548 -0.4709 -0.3121 -0.5047
   11TCq1    C2  167   1.404   0.840  14.379  0.0824 -0.0854  0.3464
   11TCq1    C3  168   1.526   0.812  14.328  0.0148  0.0165  0.5044
   11TCq1    C4  169   1.527   0.703  14.242 -0.4587  0.2806 -0.1035
   11TCq1    C5  170   1.419   0.631  14.205  1.4437 -0.1853 -0.6572
   11TCq1    C6  171   1.297   0.659  14.262 -0.7287 -0.0633 -0.1280
   11TCq1    C7  172   1.287   0.764  14.348 -0.4392 -0.1114  0.0114
   11TCq1    C8  173   1.198   0.553  14.269  0.0177 -0.8782 -0.2173
   11TCq1    O4  174   1.100   0.582  14.337 -0.3299 -0.8969  0.5523
   11TCq1    C9  175   1.646   0.684  14.173 -0.2178  0.0037  0.6431
   11TCq1    O5  176   1.721   0.783  14.187 -0.5502  0.3433  0.3151
   11TCq1    O6  177   1.676   0.566  14.147  0.7011  0.5120 -0.2092
   11TCq1    H1  178   1.236   0.972  14.424  0.4632 -2.4051 -0.2472
   11TCq1    H2  179   1.608   0.881  14.346  0.4328 -0.3781  0.1250
   11TCq1    H3  180   1.428   0.554  14.129 -0.6868 -0.4667 -0.6148
   11TCq1    H4  181   1.192   0.772  14.399 -0.4871 -2.9713  0.3718
   12MPD2     C  182   0.999   0.343  14.139 -0.0623  0.1752 -0.6191
   12MPD2    C1  183   1.136   0.335  14.161 -0.3656  0.3620 -0.2940
   12MPD2    C2  184   1.201   0.219  14.115 -0.1786 -0.7316  0.1708
   12MPD2    C3  185   1.128   0.120  14.053  0.1073 -1.1522  0.2485
   12MPD2    C4  186   0.998   0.135  14.029 -0.0474 -0.7799  0.7278
   12MPD2    C5  187   0.924   0.241  14.077  0.8726  0.9719  0.4839
   12MPD2     H  188   1.308   0.218  14.130 -0.1362  0.6167 -0.1177
   12MPD2    H1  189   0.941   0.063  13.973  0.0044  0.2579 -0.6547
   12MPD2    H2  190   0.947   0.427  14.184  1.1606  0.2891  0.5879
   12MPD2    H3  191   0.818   0.261  14.075  0.9766  1.3251 -1.2446
   12MPD2     N  192   1.178   0.002  13.994 -1.0152  0.1847  0.4314
   12MPD2    H5  193   1.125   4.701  13.917  1.2169 -0.1312 -0.9320
   12MPD2    N1  194   1.223   0.441  14.187 -0.2000 -0.0692 -0.0883
   12MPD2    H7  195   1.319   0.422  14.162 -0.0997 -0.4822  0.6089
   13TCq1    O1  196   1.594   0.604  11.409 -0.3680  0.0572  0.2886
   13TCq1    C1  197   1.663   0.571  11.298 -0.2667 -0.5899 -0.3486
   13TCq1    O2  198   1.723   0.466  11.286  0.1579  0.2406 -0.4542
   13TCq1    C2  199   1.590   0.639  11.191 -0.3079  0.7447  0.7630
   13TCq1    C3  200   1.656   0.657  11.068  0.2051  0.8859 -0.5393
   13TCq1    C4  201   1.585   0.658  10.957 -0.7810 -1.2634 -0.2799
   13TCq1    C5  202   1.445   0.670  10.965  0.3498  0.1031 -0.8010
   13TCq1    C6  203   1.390   0.681  11.087  0.3511  1.2939 -0.5801
   13TCq1    C7  204   1.452   0.650  11.206 -0.8956 -0.8443  0.0797
   13TCq1    C8  205   1.246   0.711  11.105  0.4586  0.4503  0.3119
   13TCq1    O4  206   1.204   0.771  11.204  0.7657  0.3846  0.7156
   13TCq1    C9  207   1.649   0.667  10.833  0.5585 -0.1278 -0.2114
   13TCq1    O5  208   1.755   0.603  10.822  0.3723 -0.1157  0.3554
   13TCq1    O6  209   1.595   0.741  10.742 -0.9405  0.2492 -0.0374
   13TCq1    H1  210   1.557   0.694  11.396  0.7651  0.4669 -0.0511
   13TCq1    H2  211   1.764   0.658  11.057  0.0956  0.9409 -1.5748
   13TCq1    H3  212   1.398   0.683  10.868  1.3199 -0.9893 -1.4170
   13TCq1    H4  213   1.392   0.629  11.294 -2.2612  1.1368 -0.3911
   14MPD2     C  214   1.000   0.735  10.826 -0.1757 -0.4849 -0.6670
   14MPD2    C1  215   1.049   0.742  10.956  0.1155  0.1084 -0.5718
   14MPD2    C2  216   0.956   0.778  11.053  0.1251 -0.7723 -0.6909
   14MPD2    C3  217   0.830   0.820  11.020  0.5865  0.0045 -0.0325
   14MPD2    C4  218   0.788   0.825  10.890  1.2846 -0.1284  0.1516
   14MPD2    C5  219   0.875   0.785  10.789  0.4494 -0.0625 -0.4257
   14MPD2     H  220   0.988   0.765  11.156  1.3280 -1.8558 -1.1977
   14MPD2    H1  221   0.687   0.851  10.858  2.0425  1.0502 -1.2745
   14MPD2    H2  222   1.055   0.706  10.738 -0.3616 -1.4103 -0.4733
   14MPD2    H3  223   0.839   0.786  10.687  0.2947 -0.3040 -0.3733
   14MPD2     N  224   0.745   0.862  11.123 -0.4100  0.4296 -0.1188
   14MPD2    H5  225   0.770   0.832  11.217  0.7115 -3.2907 -1.6042
   14MPD2    N1  226   1.177   0.694  10.985  0.8017 -0.1657 -0.0694
   14MPD2    H7  227   1.230   0.656  10.907  1.0297  0.8933 -0.4255
   15TCq1    O1  228   3.041   0.411   0.674 -0.4891  0.0042 -0.1844
   15TCq1    C1  229   3.008   0.285   0.629 -0.2958 -0.4403 -0.5426
   15TCq1    O2  230   2.981   0.254   0.514  0.2584  0.1406 -0.0834
   15TCq1    C2  231   3.061   0.192   0.729 -0.6322  0.3567  0.2744
   15TCq1    C3  232   3.039   0.217   0.867  0.2629  0.3618 -0.6630
   15TCq1    C4  233   3.099   0.128   0.951 -0.6474 -0.3899 -0.0036
   15TCq1    C5  234   3.179   0.023   0.913 -0.2530 -0.5495 -0.7276
   15TCq1    C6  235   3.185   0.000   0.780 -0.5975 -0.2896 -0.3438
   15TCq1    C7  236   3.127   0.078   0.684 -0.5241  0.1881  0.3371
   15TCq1    C8  237   3.266   4.625   0.745  0.5129 -0.7485 -0.2837
   15TCq1    O4  238   3.349   4.585   0.825 -0.1635  0.2437 -0.1385
   15TCq1    C9  239   3.081   0.143   1.098 -0.0736 -0.0749  0.3176
   15TCq1    O5  240   3.014   0.241   1.140  0.4396 -0.2158 -0.0587
   15TCq1    O6  241   3.117   0.058   1.180 -0.3376 -0.0619 -0.1918
   15TCq1    H1  242   3.085   0.409   0.762  0.4122 -2.7298 -0.6777
   15TCq1    H2  243   2.981   0.294   0.916  0.6110 -0.9267  1.7821
   15TCq1    H3  244   3.230   4.697   0.985 -0.0107  2.2293  1.4980
   15TCq1    H4  245   3.147   0.066   0.579  0.0344  0.7588  0.3757
   16MPD2     C  246   3.186   4.386   0.475  0.7596  0.0358  0.3211
   16MPD2    C1  247   3.252   4.434   0.580 -0.2067 -0.9559 -0.4301
   16MPD2    C2  248   3.350   4.349   0.641 -0.1025  0.5778  0.0827
   16MPD2    C3  249   3.368   4.216   0.603 -0.5165 -0.5324 -0.2456
   16MPD2    C4  250   3.293   4.174   0.494 -0.8676 -0.1678 -0.8062
   16MPD2    C5  251   3.199   4.257   0.441 -0.2770 -0.5281  0.5445
   16MPD2     H  252   3.411   4.378   0.726  0.4288 -3.5438  1.1018
   16MPD2    H1  253   3.294   4.073   0.456  0.4247  0.1720 -1.6598
   16MPD2    H2  254   3.120   4.458   0.429 -1.2813 -1.9561  0.1632
   16MPD2    H3  255   3.141   4.225   0.356 -0.7168 -2.1883  1.4689
   16MPD2     N  256   3.476   4.143   0.660  0.0138 -0.3748  0.7624
   16MPD2    H5  257   3.526   4.192   0.733  1.0497 -2.4443  1.4450
   16MPD2    N1  258   3.219   4.561   0.630  0.3613  0.4169  0.2651
   16MPD2    H7  259   3.135   4.601   0.588 -1.0347  0.1016  2.7588
   17TMC1    C1  260   0.688   0.484  11.203 -0.0698  0.0064  0.3967
   17TMC1    C2  261   0.577   0.464  11.285  0.3631  0.2196 -0.1526
   17TMC1    C3  262   0.458   0.498  11.235  0.0573 -0.1736  0.5276
   17TMC1    C4  263   0.672   0.533  11.075  0.0264  0.6361 -0.0289
   17TMC1    C5  264   0.544   0.574  11.042 -0.0137 -0.5833 -0.7682
   17TMC1    C6  265   0.428   0.559  11.118  0.1505  0.6957 -0.4313
   17TMC1     C  266   0.810   0.417  11.243  0.1015 -0.0219  0.2394
   17TMC1     O  267   0.810   0.382  11.364 -0.0515  0.0513 -0.5342
   17TMC1     H  268   0.584   0.431  11.388 -1.4554 -3.1454 -1.1058
   17TMC1    H1  269   0.756   0.544  11.007  0.4417 -0.3007  0.3333
   17TMC1    H2  270   0.331   0.597  11.090 -1.0048 -2.2368 -0.4388
   17TMC1    C7  271   0.515   0.596  10.905  0.1932  0.2201 -0.2279
   17TMC1    C8  272   0.350   0.495  11.331 -0.2174  0.6455 -0.1257
   17TMC1    O1  273   0.584   0.548  10.816 -0.1032  0.0639 -0.1633
   17TMC1    O2  274   0.256   0.576  11.328  0.4145 -0.4234 -0.1617
   17TMC1    O3  275   0.449   0.712  10.892  0.1593 -0.5028 -0.2848
   17TMC1    H3  276   0.409   0.751  10.973  3.0799  0.9246  0.4706
   17TMC1    O5  277   0.349   0.370  11.380  0.0280 -0.3555 -0.0326
   17TMC1    H5  278   0.403   0.311  11.323 -0.7615 -1.9336  0.8278
   18MPD2     C  279   1.081   0.340  11.304 -0.0535 -0.6915 -0.1194
   18MPD2    C1  280   1.039   0.361  11.171  0.7080  0.0887  0.1284
   18MPD2    C2  281   1.127   0.369  11.065  1.0991  0.0700 -0.2976
   18MPD2    C3  282   1.260   0.348  11.090  0.1222 -0.4998 -0.0347
   18MPD2    C4  283   1.302   0.320  11.215 -0.0462 -0.2781  0.2889
   18MPD2    C5  284   1.219   0.321  11.325 -0.4604  0.4245  0.0669
   18MPD2     H  285   1.090   0.372  10.963 -0.2189  0.7763  0.2078
   18MPD2    H1  286   1.403   0.287  11.237  0.0411 -0.5121 -0.4892
   18MPD2    H2  287   1.017   0.341  11.392 -1.4772  0.3185 -1.1832
   18MPD2    H3  288   1.274   0.322  11.418 -1.4020  0.1878  0.6172
   18MPD2     N  289   1.350   0.333  10.984  0.1645  0.0850 -0.4654
   18MPD2    H5  290   1.441   0.296  11.009  0.4310  1.1370  0.1157
   18MPD2    N1  291   0.908   0.406  11.146  0.1636 -0.5573 -0.4991
   18MPD2    H7  292   0.886   0.425  11.049  0.0256  1.9962  0.0491
   19TMC2    C1  293   2.805   0.586  13.721 -0.5074  0.5048  0.8365
   19TMC2    C2  294   2.734   0.625  13.608 -0.4603  0.2025 -0.3104
   19TMC2    C3  295   2.600   0.644  13.620  0.6442 -0.4914 -0.1792
   19TMC2    C4  296   2.746   0.560  13.843 -1.0122  0.1087 -0.6022
   19TMC2    C5  297   2.609   0.565  13.842 -0.0943 -0.5569  0.3793
   19TMC2    C6  298   2.541   0.603  13.729  0.4361  0.2228  0.3018
   19TMC2     C  299   2.946   0.549  13.699 -0.5581  0.5697  0.3634
   19TMC2     O  300   2.980   0.579  13.586  0.2630 -0.2343  0.5056
   19TMC2     H  301   2.785   0.656  13.517 -1.5536  0.1989 -0.9243
   19TMC2    H1  302   2.801   0.536  13.933 -0.7537 -0.7244 -0.9807
   19TMC2    H2  303   2.434   0.592  13.716  0.9556 -2.0868 -2.2830
   19TMC2    C7  304   2.537   0.474  13.929 -0.7369  0.0155 -0.4767
   19TMC2    C8  305   2.534   0.622  13.490  0.0861 -0.4265 -0.1244
   19TMC2    O1  306   2.607   0.384  13.974 -0.6443 -0.3004 -0.1496
   19TMC2    O2  307   2.453   0.528  13.474  0.2403 -0.3986 -0.5823
   19TMC2    O5  308   2.587   0.699  13.389  0.5461 -0.5530  0.4071
   19TMC2    H5  309   2.622   0.784  13.425 -1.7230  0.7563 -0.5048
   20MPD2     C  310   3.208   0.426  13.706 -0.0656 -0.2499 -0.4245
   20MPD2    C1  311   3.135   0.464  13.818 -1.2408 -0.2049  0.6961
   20MPD2    C2  312   3.184   0.446  13.947 -0.4012  0.3706  0.0220
   20MPD2    C3  313   3.311   0.388  13.961  0.1365  0.1110 -0.5249
   20MPD2    C4  314   3.379   0.339  13.854  0.3184 -0.1538 -0.3529
   20MPD2    C5  315   3.328   0.360  13.728 -0.5888  0.2264 -0.3702
   20MPD2     H  316   3.128   0.488  14.030  0.9739  2.1581  0.0493
   20MPD2    H1  317   3.479   0.300  13.870  1.7202  4.2824  1.6532
   20MPD2    H2  318   3.174   0.431  13.604  0.0371  0.1657 -0.4369
   20MPD2    H3  319   3.388   0.335  13.640  1.5426  0.0528  1.1213
   20MPD2     N  320   3.383   0.402  14.081  0.2348  0.6082  0.7640
   20MPD2    H5  321   3.475   0.360  14.082  0.2374  0.5899 -3.4030
   20MPD2    N1  322   3.005   0.512  13.812 -0.8131 -0.1995  0.0469
   20MPD2    H7  323   2.949   0.507  13.896  0.7264  0.1495  1.0926
   21TMC2    C1  324   0.349   0.773  14.085  0.7463  0.3520 -0.1332
   21TMC2    C2  325   0.445   0.677  14.074  0.4840  0.7821  0.2175
   21TMC2    C3  326   0.460   0.589  14.177 -0.5440  0.1820 -0.0552
   21TMC2    C4  327   0.269   0.789  14.196  0.5255  0.1656  0.0634
   21TMC2    C5  328   0.292   0.706  14.301  0.3364  0.1935  0.7225
   21TMC2    C6  329   0.384   0.609  14.291  1.2816  0.3879  0.4096
   21TMC2     C  330   0.344   0.878  13.994 -0.0503 -0.0645  0.1325
   21TMC2     O  331   0.323   0.849  13.876  0.3486 -0.2609 -0.0659
   21TMC2     H  332   0.525   0.687  14.002 -0.4424 -3.4866 -1.3628
   21TMC2    H1  333   0.198   0.871  14.187  1.2943  0.7987 -0.3229
   21TMC2    H2  334   0.401   0.544  14.376  0.9941 -0.4611 -0.1839
   21TMC2    C7  335   0.239   0.739  14.432  0.8010 -0.0278 -0.2210
   21TMC2    C8  336   0.595   0.542  14.196  0.9820 -0.1765 -0.3207
   21TMC2    O1  337   0.291   0.706  14.537  0.3530  0.2056  0.0262
   21TMC2    O2  338   0.676   0.587  14.277 -0.1221 -0.2776  0.0769
   21TMC2    O5  339   0.627   0.479  14.079 -0.2482 -0.0236 -0.5328
   21TMC2    H5  340   0.546   0.442  14.038  0.0920 -3.4777  1.9825
   22MPD2     C  341   0.503   1.146  14.416 -0.7393  0.4768  0.2982
   22MPD2    C1  342   0.538   1.024  14.369  0.5262  0.2091 -0.3750
   22MPD2    C2  343   0.488   0.977  14.246  0.0515  0.0576  0.0338
   22MPD2    C3  344   0.407   1.053  14.162 -0.4933  0.2969 -0.1818
   22MPD2    C4  345   0.363   1.171  14.216 -0.6172 -0.2568  0.3123
   22MPD2    C5  346   0.417   1.215  14.334 -0.2308  0.2463 -0.9445
   22MPD2     H  347   0.522   0.877  14.221 -1.1889 -0.4967  0.5690
   22MPD2    H1  348   0.286   1.240  14.182 -0.7076 -1.1271 -1.2707
   22MPD2    H2  349   0.530   1.189  14.512  2.2407 -0.3833 -0.1675
   22MPD2    H3  350   0.390   1.311  14.377 -1.8898 -2.1677  3.3633
   22MPD2     N  351   0.343   1.007  14.046 -0.3475  0.8013  0.5567
   22MPD2    H5  352   0.293   1.074  13.988 -0.0804  0.0464 -0.5486
   22MPD2    N1  353   0.613   0.929  14.448  0.5025  0.0905  0.3546
   22MPD2    H7  354   0.619   0.835  14.410 -0.6257  0.5720 -0.9999
   23TMC2    C1  355   1.791   1.776  14.278 -0.7329 -0.0198 -0.3690
   23TMC2    C2  356   1.784   1.834  14.157 -0.5547 -0.5322 -0.2355
   23TMC2    C3  357   1.684   1.793  14.069 -0.0469 -0.4180 -0.4485
   23TMC2    C4  358   1.700   1.682  14.313  0.5351  0.7725 -0.0710
   23TMC2    C5  359   1.590   1.654  14.229 -0.5595  0.5402  0.0098
   23TMC2    C6  360   1.598   1.700  14.103  0.2932 -0.0903 -0.6032
   23TMC2     C  361   1.896   1.800  14.380 -0.6169 -0.2905 -0.0188
   23TMC2     O  362   1.861   1.769  14.494  0.0526 -0.1524  1.0146
   23TMC2     H  363   1.860   1.903  14.122  0.2373 -0.5194  1.4643
   23TMC2    H1  364   1.701   1.637  14.412  1.0085  2.0980  0.5356
   23TMC2    H2  365   1.513   1.678  14.038 -0.0499 -0.1534 -0.1355
   23TMC2    C7  366   1.466   1.625  14.301  0.4280  0.1759 -0.4392
   23TMC2    C8  367   1.676   1.859  13.944  0.5919  0.2308 -0.2503
   23TMC2    O1  368   1.473   1.619  14.422 -0.1673 -0.4063  0.3046
   23TMC2    O2  369   1.702   1.979  13.939  0.1593 -0.5200 -0.3417
   23TMC2    O5  370   1.690   1.769  13.845  0.1270  0.3960  0.2010
   23TMC2    H5  371   1.678   1.677  13.877  0.1486  0.3875  0.1847
   24MPD2     C  372   2.310   2.017  14.581  0.6427  0.5394 -0.3987
   24MPD2    C1  373   2.217   1.933  14.644  0.0002 -1.1485  0.1355
   24MPD2    C2  374   2.122   1.877  14.554 -0.1558  0.0797  0.1467
   24MPD2    C3  375   2.112   1.912  14.424  0.9509 -0.2359 -0.3301
   24MPD2    C4  376   2.201   2.000  14.371 -0.1793 -0.5389 -0.1070
   24MPD2    C5  377   2.292   2.061  14.453 -0.1632  0.0244 -0.1799
   24MPD2     H  378   2.056   1.799  14.591  0.5336 -0.7981 -0.4885
   24MPD2    H1  379   2.196   2.037  14.270  1.9109  1.9507  0.6696
   24MPD2    H2  380   2.400   2.058  14.625  0.1873  0.3151  0.7569
   24MPD2    H3  381   2.357   2.135  14.408 -0.6698  0.9846  0.6621
   24MPD2     N  382   2.007   1.871  14.338 -0.5400 -0.1190  0.2763
   24MPD2    H5  383   1.999   1.905  14.242 -3.5725  0.4442  0.7285
   24MPD2    N1  384   2.228   1.887  14.772 -0.0362  1.0692 -0.1837
   24MPD2    H7  385   2.173   1.806  14.799  0.4571  0.5547 -0.7270
   25TMC2    C1  386   0.965   3.865  11.526 -0.8235 -0.1531  0.2400
   25TMC2    C2  387   1.097   3.843  11.574 -0.3096 -0.2534  0.0058
   25TMC2    C3  388   1.119   3.832  11.707  0.8439  0.5120 -1.0491
   25TMC2    C4  389   0.865   3.882  11.625  0.2892 -0.2802 -0.3117
   25TMC2    C5  390   0.894   3.882  11.762 -0.4222  0.2588  0.8716
   25TMC2    C6  391   1.022   3.851  11.804 -0.2741  0.3258  0.3293
   25TMC2     C  392   0.933   3.828  11.386  0.2616  0.4627 -0.5120
   25TMC2     O  393   1.030   3.830  11.313  0.3897  0.4236  0.1660
   25TMC2     H  394   1.177   3.832  11.500 -0.1915  2.6500 -0.3117
   25TMC2    H1  395   0.763   3.888  11.589 -0.2005  0.0756  1.1288
   25TMC2    H2  396   1.049   3.859  11.909 -1.9329  1.0188  0.7065
   25TMC2    C7  397   0.791   3.895  11.861 -0.1529  0.6429 -0.4684
   25TMC2    C8  398   1.247   3.780  11.749 -0.1066  0.5030  0.3405
   25TMC2    O1  399   0.825   3.901  11.977 -0.4877 -0.1944  0.0296
   25TMC2    O2  400   1.319   3.702  11.691  0.1259  0.0107  0.0028
   25TMC2    O5  401   1.262   3.812  11.881 -0.4049  0.7203 -0.0596
   25TMC2    H5  402   1.210   3.895  11.891  1.3122  2.2776 -4.0136
   26MPD2     C  403   0.582   3.883  11.017  0.2443  0.1199  0.5528
   26MPD2    C1  404   0.517   3.842  11.127  0.1510  0.0229  0.1210
   26MPD2    C2  405   0.591   3.832  11.242  0.5892 -0.6743 -0.0723
   26MPD2    C3  406   0.730   3.848  11.247 -0.1342 -0.0688 -0.2449
   26MPD2    C4  407   0.793   3.883  11.134 -0.6760 -0.4793 -0.7855
   26MPD2    C5  408   0.720   3.905  11.016 -0.2651 -0.7471  0.1669
   26MPD2     H  409   0.544   3.816  11.338 -1.9476  0.3400 -1.1648
   26MPD2    H1  410   0.899   3.905  11.130 -1.2430  1.9805 -2.0446
   26MPD2    H2  411   0.528   3.900  10.924  1.2379 -0.5513 -0.1491
   26MPD2    H3  412   0.759   3.936  10.920 -1.3511  1.1685  0.3404
   26MPD2     N  413   0.798   3.821  11.368  0.5631  0.4584 -0.0837
   26MPD2    H5  414   0.745   3.788  11.448 -0.0527  2.0639  0.1717
   26MPD2    N1  415   0.378   3.822  11.120  0.0596  0.6879 -0.0687
   26MPD2    H7  416   0.331   3.858  11.038 -0.1193  3.5440  1.2703
   27TMC2    C1  417   4.130   1.651  11.888 -0.0073 -0.4677 -0.3676
   27TMC2    C2  418   4.144   1.771  11.820  0.2672 -0.4858  0.3285
   27TMC2    C3  419   4.165   1.880  11.898  0.5091  0.0256  0.0048
   27TMC2    C4  420   4.163   1.644  12.020 -0.5539  0.5146  0.4766
   27TMC2    C5  421   4.179   1.750  12.089  1.0118  0.3302 -0.1329
   27TMC2    C6  422   4.181   1.874  12.029 -0.7967  0.5703 -0.4683
   27TMC2     C  423   4.011   1.589  11.839 -0.8442  0.3317  0.7883
   27TMC2     O  424   3.968   1.617  11.729 -0.0702 -0.1504 -0.0133
   27TMC2     H  425   4.134   1.780  11.712  0.3622 -0.4413  0.3235
   27TMC2    H1  426   4.166   1.541  12.056 -0.0823  0.0940 -0.7481
   27TMC2    H2  427   4.215   1.960  12.086  1.2150  0.3559 -1.3503
   27TMC2    C7  428   4.101   1.741  12.210 -0.3270  0.1112 -0.0401
   27TMC2    C8  429   4.240   1.987  11.845  0.2870  0.0668  0.0578
   27TMC2    O1  430   4.080   1.629  12.254  0.6997 -0.9176  0.0880
   27TMC2    O2  431   4.330   2.050  11.904  0.2964 -0.2873 -0.3403
   27TMC2    O5  432   4.190   2.013  11.722  0.0971  0.0782  0.2302
   27TMC2    H5  433   4.099   1.977  11.710  0.4532 -1.0109  0.7812
   28MPD2     C  434   3.553   1.389  11.947  0.4746  0.2094 -0.2849
   28MPD2    C1  435   3.610   1.429  12.066 -0.2905 -0.7016  0.1203
   28MPD2    C2  436   3.741   1.475  12.060  0.5792 -0.4837  0.6518
   28MPD2    C3  437   3.811   1.492  11.945 -0.7043 -0.7872 -0.5378
   28MPD2    C4  438   3.743   1.468  11.829 -0.1063 -0.2391  0.6343
   28MPD2    C5  439   3.617   1.420  11.829 -0.5710  0.3828 -0.2970
   28MPD2     H  440   3.778   1.519  12.152 -0.1562 -0.1584  0.7916
   28MPD2    H1  441   3.792   1.486  11.734  1.4772 -0.8208  1.3366
   28MPD2    H2  442   3.449   1.358  11.943  0.6478 -0.1970 -1.7053
   28MPD2    H3  443   3.568   1.392  11.736 -1.0437  2.2742 -0.6144
   28MPD2     N  444   3.942   1.529  11.944  0.1484  0.0283 -0.3581
   28MPD2    H5  445   3.986   1.535  12.035 -0.1078  0.8568 -0.2904
   28MPD2    N1  446   3.525   1.419  12.175 -0.3064 -0.6178 -0.1769
   28MPD2    H7  447   3.432   1.388  12.148 -0.6891  1.1032 -0.8614
   29TMC2    C1  448   3.965   3.709  14.265 -0.0296  0.9410 -0.6798
   29TMC2    C2  449   4.093   3.659  14.274 -0.1860 -0.4740  0.0882
   29TMC2    C3  450   4.198   3.740  14.239 -0.0390  0.1212  0.5237
   29TMC2    C4  451   3.948   3.836  14.223  0.2039 -0.2276  0.3596
   29TMC2    C5  452   4.063   3.912  14.210  0.1029 -0.9404 -0.2761
   29TMC2    C6  453   4.192   3.872  14.231 -0.2624  0.1854  0.5026
   29TMC2     C  454   3.868   3.607  14.231 -0.0540  0.1192  0.0216
   29TMC2     O  455   3.904   3.494  14.267  0.2172 -0.0062  0.0773
   29TMC2     H  456   4.116   3.555  14.292  1.2744  0.0908  1.4519
   29TMC2    H1  457   3.845   3.870  14.215  0.9331  1.9734  0.3339
   29TMC2    H2  458   4.276   3.937  14.207  0.5337 -0.8809  0.4270
   29TMC2    C7  459   4.040   4.049  14.183 -0.7083  0.3834  0.1155
   29TMC2    C8  460   4.330   3.683  14.269  0.3043 -0.3426  0.2581
   29TMC2    O1  461   3.943   4.070  14.115 -0.0225  0.0854 -0.4426
   29TMC2    O2  462   4.368   3.610  14.360  0.0356 -1.0646  0.0490
   29TMC2    O5  463   4.412   3.711  14.162  0.1666  0.2055  0.0011
   29TMC2    H5  464   4.360   3.755  14.092  0.5383 -0.4068 -0.6543
   30MPD2     C  465   3.600   3.357  13.886  0.0816  0.4012  0.0772
   30MPD2    C1  466   3.728   3.325  13.951 -0.0412  0.5525  0.1501
   30MPD2    C2  467   3.780   3.420  14.028 -0.7282  0.1860 -0.0612
   30MPD2    C3  468   3.716   3.545  14.050  0.3045  0.0400 -0.1161
   30MPD2    C4  469   3.595   3.566  13.994  0.1884 -0.0455 -0.0597
   30MPD2    C5  470   3.540   3.473  13.907 -0.2561 -0.3319 -0.0883
   30MPD2     H  471   3.870   3.389  14.079 -0.1693 -0.8164 -1.6281
   30MPD2    H1  472   3.537   3.654  14.016  0.2489 -0.3164  1.2137
   30MPD2    H2  473   3.561   3.297  13.806  3.6781 -1.5873 -0.1985
   30MPD2    H3  474   3.465   3.503  13.834  0.6736  1.3360 -0.3586
   30MPD2     N  475   3.775   3.642  14.139  0.0204  0.1460 -0.1650
   30MPD2    H5  476   3.752   3.741  14.139 -3.2611 -0.6017 -0.5684
   30MPD2    N1  477   3.807   3.208  13.933 -0.1798  0.2279  0.2341
   30MPD2    H7  478   3.888   3.210  13.994  0.5050  0.9401 -0.7033
   31TMC2    C1  479   1.563   2.506  15.357  0.1695 -1.0108  0.0857
   31TMC2    C2  480   1.430   2.526  15.376  0.2036  0.3519  0.0194
   31TMC2    C3  481   1.379   2.503  15.497  0.7776  0.1736 -0.6218
   31TMC2    C4  482   1.639   2.461  15.465  0.2006 -0.1822 -0.2376
   31TMC2    C5  483   1.576   2.442  15.588  0.1325  0.3975  0.5480
   31TMC2    C6  484   1.441   2.461  15.612 -0.2845  0.9255 -0.3739
   31TMC2     C  485   1.610   2.493  15.221 -0.8655  0.7055  1.1264
   31TMC2     O  486   1.523   2.511  15.135 -0.3100 -0.3732  0.2356
   31TMC2     H  487   1.374   2.575  15.298 -0.1785  1.1589  0.7963
   31TMC2    H1  488   1.746   2.443  15.460 -0.0738 -1.5078 -1.3151
   31TMC2    H2  489   1.382   2.444  15.702  0.9759  0.8397  0.4393
   31TMC2    C7  490   1.653   2.394  15.700 -0.6838  0.6073 -0.9691
   31TMC2    C8  491   1.240   2.539  15.512 -0.0189 -0.1416 -0.1118
   31TMC2    O1  492   1.603   2.312  15.776  0.7998  0.3510 -0.1409
   31TMC2    O2  493   1.169   2.473  15.585  0.4072 -0.4181 -0.1709
   31TMC2    O5  494   1.222   2.672  15.482 -0.7392 -0.1565  0.2664
   31TMC2    H5  495   1.295   2.719  15.437 -0.1918 -0.7347  0.5541
   32MPD2     C  496   1.999   2.507  14.894  0.2830 -1.2081  0.5957
   32MPD2    C1  497   1.861   2.540  14.877  0.9464 -0.4109  0.1565
   32MPD2    C2  498   1.771   2.514  14.978 -0.3432  0.4555  0.2200
   32MPD2    C3  499   1.822   2.470  15.101 -0.0041 -0.6141  0.2001
   32MPD2    C4  500   1.955   2.440  15.117 -0.0297 -0.2438  0.6790
   32MPD2    C5  501   2.045   2.455  15.013  0.1529  0.5589  0.1254
   32MPD2     H  502   1.670   2.554  14.979 -0.3039  0.5489  1.0005
   32MPD2    H1  503   1.994   2.399  15.210  4.0176  1.2902 -0.3341
   32MPD2    H2  504   2.067   2.509  14.809 -2.0373  2.6912 -1.1865
   32MPD2    H3  505   2.148   2.419  15.015  1.0550  3.1061 -0.6185
   32MPD2     N  506   1.741   2.466  15.220  0.4704  0.5780  0.1182
   32MPD2    H5  507   1.789   2.436  15.304  0.0583  0.1782  0.2127
   32MPD2    N1  508   1.826   2.609  14.759  0.0715 -0.0995  0.1635
   32MPD2    H7  509   1.905   2.639  14.703  1.0481  0.3275  1.7763
   33TMC2    C1  510   1.623   0.838   9.859 -0.1857 -0.8514  0.8127
   33TMC2    C2  511   1.582   0.761   9.749 -0.0425  0.4887  0.4473
   33TMC2    C3  512   1.604   0.814   9.628 -0.4508 -0.0725  0.3409
   33TMC2    C4  513   1.688   0.957   9.836  0.2383  0.1020  0.6302
   33TMC2    C5  514   1.698   1.003   9.708  0.4934 -0.4171  0.2482
   33TMC2    C6  515   1.653   0.938   9.601 -0.2928  0.2142 -0.0241
   33TMC2     C  516   1.642   0.766   9.984  0.1716  0.7585 -0.1323
   33TMC2     O  517   1.566   0.670  10.003 -0.0014 -0.0532  0.6060
   33TMC2     H  518   1.529   0.670   9.772  2.0339 -0.5504  1.1802
   33TMC2    H1  519   1.703   1.025   9.919 -0.1837 -0.1507  0.9177
   33TMC2    H2  520   1.672   0.956   9.495 -4.8258  1.2778 -0.6659
   33TMC2    C7  521   1.761   1.132   9.683  0.8518  0.2534 -0.5355
   33TMC2    C8  522   1.609   0.724   9.511  0.3955  0.2800 -0.7970
   33TMC2    O1  523   1.842   1.170   9.766 -0.5545  0.3189 -0.2772
   33TMC2    O2  524   1.560   0.755   9.404  0.2430  0.3272  0.0848
   33TMC2    O5  525   1.646   0.601   9.557  0.0429 -0.0624  0.0720
   33TMC2    H5  526   1.689   0.594   9.644  2.6455 -1.2274 -1.3050
   34MPD2     C  527   1.918   0.574  10.352 -0.3517 -0.0053  0.3060
   34MPD2    C1  528   1.780   0.579  10.342  0.5506  0.1600 -0.0313
   34MPD2    C2  529   1.728   0.650  10.240 -0.2276 -0.0934 -0.2844
   34MPD2    C3  530   1.805   0.719  10.148  0.0077 -0.3993  0.3351
   34MPD2    C4  531   1.942   0.726  10.172 -0.1579 -0.2057 -0.2530
   34MPD2    C5  532   1.999   0.651  10.276 -0.1023 -0.2565 -0.6048
   34MPD2     H  533   1.620   0.654  10.228 -0.2141  1.7215  0.2834
   34MPD2    H1  534   2.004   0.790  10.110 -1.1371 -0.9253 -1.9683
   34MPD2    H2  535   1.965   0.515  10.429  0.0331  0.7114  0.6176
   34MPD2    H3  536   2.107   0.655  10.292 -0.1173  0.0453 -0.5769
   34MPD2     N  537   1.756   0.800  10.043  0.5130  0.2178 -0.6752
   34MPD2    H5  538   1.817   0.872  10.005  0.8259 -1.1985 -2.8500
   34MPD2    N1  539   1.701   0.498  10.437  0.0435 -0.1174  0.3363
   34MPD2    H7  540   1.748   0.440  10.504 -0.6312  1.5343  2.2402
   35TMC2    C1  541   2.364   1.761  11.171 -0.0646  0.0950  0.3223
   35TMC2    C2  542   2.272   1.792  11.083  1.3538  0.2906  0.3499
   35TMC2    C3  543   2.143   1.770  11.114  0.2438 -0.0511  0.7690
   35TMC2    C4  544   2.330   1.702  11.290  0.0119 -0.8808  0.6050
   35TMC2    C5  545   2.194   1.691  11.323 -0.0610 -0.1968 -0.4059
   35TMC2    C6  546   2.094   1.733  11.237  0.0700 -0.1158  0.2327
   35TMC2     C  547   2.504   1.792  11.132  0.2449  0.0781  0.5253
   35TMC2     O  548   2.515   1.871  11.035 -0.2355 -0.4436  0.7741
   35TMC2     H  549   2.292   1.821  10.981  0.7378 -0.2886  0.0643
   35TMC2    H1  550   2.404   1.664  11.359 -1.5022 -0.3608  2.5093
   35TMC2    H2  551   1.987   1.724  11.253 -0.2384  1.9056 -0.7271
   35TMC2    C7  552   2.149   1.593  11.423 -0.1872 -0.5874 -0.1728
   35TMC2    C8  553   2.036   1.799  11.019  0.1777  0.2624 -0.4985
   35TMC2    O1  554   2.227   1.514  11.472 -0.9598 -0.7132  0.1576
   35TMC2    O2  555   1.921   1.809  11.062  0.2927 -0.1267  0.1272
   35TMC2    O5  556   2.066   1.737  10.901 -0.1558  0.5413 -0.6819
   35TMC2    H5  557   2.159   1.715  10.882  0.0877  0.3093  0.7559
   36MPD2     C  558   3.016   1.715  11.122 -0.9401  0.1648 -0.0367
   36MPD2    C1  559   2.960   1.626  11.203  0.0371 -0.6376 -0.0742
   36MPD2    C2  560   2.823   1.632  11.224 -0.1060 -0.2543 -0.4937
   36MPD2    C3  561   2.738   1.730  11.178  0.0347  0.8048  1.1254
   36MPD2    C4  562   2.795   1.814  11.090 -0.4350 -0.0382  0.5578
   36MPD2    C5  563   2.929   1.810  11.063 -0.5748 -0.3716 -0.0551
   36MPD2     H  564   2.775   1.553  11.281 -0.9003  0.8221  0.3114
   36MPD2    H1  565   2.741   1.896  11.045  0.6577  0.6837  0.5500
   36MPD2    H2  566   3.122   1.709  11.102 -0.6601  1.0782  1.1487
   36MPD2    H3  567   2.972   1.887  11.000  3.1812 -2.0671  0.4634
   36MPD2     N  568   2.601   1.724  11.206  0.0136 -0.0429  0.0002
   36MPD2    H5  569   2.565   1.677  11.288  0.5707 -3.8322 -1.8864
   36MPD2    N1  570   3.053   1.541  11.276 -0.6545  0.5771  0.5068
   36MPD2    H7  571   3.153   1.557  11.266 -0.2694 -1.1941  1.4226
   37TMC2    C1  572   0.288   1.382  12.044  0.1589  0.2983 -0.1347
   37TMC2    C2  573   0.211   1.453  11.951 -0.4016  0.4702 -0.7455
   37TMC2    C3  574   0.258   1.498  11.835 -0.1082 -0.1662  0.8658
   37TMC2    C4  575   0.418   1.360  12.009 -0.4444 -0.1159 -0.5307
   37TMC2    C5  576   0.464   1.392  11.881  0.4050  0.4083 -0.0683
   37TMC2    C6  577   0.383   1.460  11.793  0.9144 -0.7811 -0.0516
   37TMC2     C  578   0.255   1.392  12.181  0.1343  0.0462  0.5198
   37TMC2     O  579   0.351   1.418  12.251 -0.5054 -0.1813 -0.1262
   37TMC2     H  580   0.114   1.485  11.987 -1.0868  1.3127 -3.3190
   37TMC2    H1  581   0.478   1.310  12.084  1.9001  1.2378 -1.5106
   37TMC2    H2  582   0.398   1.481  11.687  2.8857  1.3989  0.6626
   37TMC2    C7  583   0.609   1.420  11.879  0.6049  0.5627  0.9225
   37TMC2    C8  584   0.167   1.547  11.737 -0.1989  0.6231  0.2225
   37TMC2    O1  585   0.662   1.399  11.988 -0.8572 -0.2854  0.2308
   37TMC2    O2  586   0.208   1.614  11.645  0.3721  0.3646  0.4196
   37TMC2    O5  587   0.065   1.454  11.731 -0.9178  0.7950 -0.3988
   37TMC2    H5  588   0.066   1.393  11.808 -0.9279  0.5901 -0.5601
   38MPD2     C  589   4.728   1.334  12.622  0.3410  0.5065 -0.0565
   38MPD2    C1  590   0.125   1.339  12.586  0.3943 -0.2756  0.4156
   38MPD2    C2  591   0.165   1.351  12.459 -0.4030  0.0457 -1.2139
   38MPD2    C3  592   0.077   1.358  12.353  0.5336 -0.0785  0.2684
   38MPD2    C4  593   4.679   1.333  12.385  0.3566  0.2052  0.4587
   38MPD2    C5  594   4.640   1.327  12.517  0.4545 -0.2519 -0.0099
   38MPD2     H  595   0.274   1.355  12.452 -0.3886 -0.6218 -1.4272
   38MPD2    H1  596   4.608   1.330  12.304  0.6164  0.1364  0.2334
   38MPD2    H2  597   4.692   1.326  12.724 -0.5261 -1.9337 -0.5556
   38MPD2    H3  598   4.533   1.330  12.534  0.8483  1.8625  2.1212
   38MPD2     N  599   0.123   1.367  12.222  0.9589  0.1827  0.2844
   38MPD2    H5  600   0.057   1.359  12.145  1.2817  2.1813 -0.1925
   38MPD2    N1  601   0.232   1.333  12.685  0.3649 -0.0043 -0.2506
   38MPD2    H7  602   0.327   1.355  12.656 -0.3939  1.2866 -1.7810
   39TMC2    C1  603   4.281   3.308   1.205 -0.7308  0.3883 -0.0927
   39TMC2    C2  604   4.336   3.188   1.230 -0.1778 -0.3265  0.0618
   39TMC2    C3  605   4.466   3.182   1.268  0.1382 -0.0278  0.2022
   39TMC2    C4  606   4.358   3.423   1.210  0.4725  0.9438  1.0658
   39TMC2    C5  607   4.489   3.410   1.251 -0.1375 -0.9083  0.6067
   39TMC2    C6  608   4.550   3.289   1.272  0.0969 -0.5386  0.8599
   39TMC2     C  609   4.162   3.321   1.120 -0.3012  0.1820 -0.5141
   39TMC2     O  610   4.154   3.422   1.051  0.3021  0.3744  0.0297
   39TMC2     H  611   4.280   3.096   1.221 -0.6453 -0.0764  0.4218
   39TMC2    H1  612   4.306   3.518   1.204 -0.1684  0.4862 -0.4498
   39TMC2    H2  613   4.653   3.281   1.303  0.1931 -2.9228 -0.0113
   39TMC2    C7  614   4.562   3.529   1.278  0.3953 -0.0430 -0.0954
   39TMC2    C8  615   4.517   3.054   1.295 -0.0175 -0.1416 -0.5232
   39TMC2    O1  616   4.680   3.508   1.292 -0.0126 -0.3084  0.5943
   39TMC2    O2  617   4.477   2.954   1.239 -0.3912 -0.2942  0.2767
   39TMC2    O5  618   4.569   3.073   1.421  0.0289  0.1289 -0.1910
   39TMC2    H5  619   4.552   3.167   1.443 -0.4280 -0.3495  1.4906
   40MPD2     C  620   3.876   3.086   1.126 -0.8762 -0.3713  0.0524
   40MPD2    C1  621   3.945   3.202   1.093 -0.4342 -0.5898 -0.4886
   40MPD2    C2  622   3.894   3.284   0.990  0.0525 -0.5394  0.5106
   40MPD2    C3  623   3.780   3.244   0.921 -0.6698 -0.8578 -0.1120
   40MPD2    C4  624   3.739   3.112   0.940 -0.2344 -0.1790  0.5010
   40MPD2    C5  625   3.783   3.043   1.043  0.5921 -0.9614 -0.3377
   40MPD2     H  626   3.940   3.378   0.962 -0.2336 -0.3473  0.6841
   40MPD2    H1  627   3.659   3.068   0.881 -0.1016 -0.5406  0.5916
   40MPD2    H2  628   3.894   3.019   1.210 -0.2736  1.4049  1.3526
   40MPD2    H3  629   3.728   2.953   1.067  0.5034  0.1946  3.7591
   40MPD2     N  630   3.711   3.325   0.823 -0.0559  0.8473  0.1512
   40MPD2    H5  631   3.653   3.275   0.757  0.3147  0.1111  0.3868
   40MPD2    N1  632   4.068   3.224   1.155  0.5819 -0.2148  0.5558
   40MPD2    H7  633   4.098   3.167   1.234  0.2559 -0.5165  0.4633
   41TMC2    C1  634   2.124   1.132  13.936  0.1662  0.3819 -0.3473
   41TMC2    C2  635   2.012   1.158  13.854 -0.0038 -0.3544  0.5274
   41TMC2    C3  636   2.044   1.202  13.730  0.0256  0.2202 -0.2977
   41TMC2    C4  637   2.249   1.137  13.889 -0.5102 -0.1091 -0.7485
   41TMC2    C5  638   2.269   1.179  13.760 -0.2141  0.0488  0.3210
   41TMC2    C6  639   2.168   1.227  13.691  0.0001  0.0760  0.1114
   41TMC2     C  640   2.096   1.142  14.076 -0.9480  0.2847 -0.3989
   41TMC2     O  641   1.979   1.125  14.107 -0.2019  0.0695 -0.0893
   41TMC2     H  642   1.909   1.132  13.878 -0.4077  2.4275  1.7931
   41TMC2    H1  643   2.324   1.095  13.955 -0.5098 -1.2383 -1.4718
   41TMC2    H2  644   2.174   1.286  13.601  0.4652  0.4929  0.4167
   41TMC2    C7  645   2.407   1.227  13.730  0.6540  0.3463 -0.3726
   41TMC2    C8  646   1.942   1.177  13.635 -0.0436  0.0307  0.0257
   41TMC2    O1  647   2.474   1.272  13.822 -0.0822  0.5621  0.2221
   41TMC2    O2  648   1.822   1.176  13.671  0.7044  0.4394 -0.4904
   41TMC2    O5  649   1.992   1.169  13.511  0.2770 -0.0714 -0.0879
   41TMC2    H5  650   2.088   1.149  13.509 -0.2288 -2.6011  0.4447
   42MPD2     C  651   2.111   1.146  14.377  0.2351  0.7042  0.9753
   42MPD2    C1  652   2.214   1.182  14.287 -0.0336 -0.6240 -0.3541
   42MPD2    C2  653   2.330   1.225  14.343 -0.0149 -0.3508  0.1629
   42MPD2    C3  654   2.355   1.224  14.482 -0.2205 -0.1473 -0.0178
   42MPD2    C4  655   2.255   1.175  14.571 -0.0220  0.0561  0.2003
   42MPD2    C5  656   2.142   1.138  14.515 -0.7984  0.4289 -0.3702
   42MPD2     H  657   2.402   1.254  14.267 -1.7385 -2.1321 -2.1703
   42MPD2    H1  658   2.261   1.178  14.679 -1.1768 -0.0014  0.2706
   42MPD2    H2  659   2.011   1.116  14.348 -0.0407  1.6782  0.9180
   42MPD2    H3  660   2.065   1.111  14.585 -1.0649 -0.3422 -0.9595
   42MPD2     N  661   2.472   1.266  14.542 -0.1543 -0.1384  0.1168
   42MPD2    H5  662   2.480   1.253  14.642 -0.5667  0.6233  0.2438
   42MPD2    N1  663   2.205   1.181  14.146 -0.2257  0.1159  0.4494
   42MPD2    H7  664   2.292   1.213  14.104 -0.4462  1.7811  1.2477
   43TMC2    C1  665   4.172   0.420   0.608  0.0991  0.1116 -0.7093
   43TMC2    C2  666   4.033   0.409   0.632  0.1364 -1.0361  0.6226
   43TMC2    C3  667   3.992   0.473   0.742 -0.2420  0.2623 -0.5707
   43TMC2    C4  668   4.258   0.479   0.700 -0.0858 -0.0291 -0.4641
   43TMC2    C5  669   4.196   0.535   0.810  0.0678  0.1361  0.5188
   43TMC2    C6  670   4.066   0.537   0.832  0.1225 -0.2731  0.6822
   43TMC2     C  671   4.226   0.334   0.504 -0.2271  0.2749  0.5680
   43TMC2     O  672   4.331   0.272   0.519  0.1197  0.3399 -0.2083
   43TMC2     H  673   3.965   0.373   0.555 -0.2296 -2.7122  1.7176
   43TMC2    H1  674   4.366   0.474   0.688  0.1240 -0.5531  1.6575
   43TMC2    H2  675   4.023   0.587   0.918 -1.3223  1.6074 -1.1508
   43TMC2    C7  676   4.289   0.555   0.921  0.5450  0.2873  0.3544
   43TMC2    C8  677   3.846   0.484   0.760  0.5512  0.4013  0.8761
   43TMC2    O1  678   4.391   0.488   0.923  0.6981 -0.4052  0.1256
   43TMC2    O2  679   3.799   0.575   0.825 -0.5972  0.3198 -0.0714
   43TMC2    O5  680   3.791   0.368   0.743  0.2684 -0.8203 -0.6318
   43TMC2    H5  681   3.847   0.300   0.700  3.1951  1.5906 -0.6489
   44MPD2     C  682   4.123   0.023   0.113 -0.6815  0.8003  0.3227
   44MPD2    C1  683   4.218   0.014   0.213 -0.5314 -0.4686 -0.4826
   44MPD2    C2  684   4.217   0.113   0.308  0.3635 -0.7194  0.1300
   44MPD2    C3  685   4.139   0.226   0.301  0.3401 -0.4772 -0.1751
   44MPD2    C4  686   4.046   0.237   0.196 -0.2914 -0.1183  0.2670
   44MPD2    C5  687   4.043   0.136   0.106 -0.3646 -0.2985  0.9670
   44MPD2     H  688   4.279   0.095   0.395  0.4247 -0.0371  0.2275
   44MPD2    H1  689   3.984   0.326   0.192  0.5607  0.4567 -0.0674
   44MPD2    H2  690   4.099   4.676   0.048  1.4113 -0.5500  1.3148
   44MPD2    H3  691   3.983   0.147   0.016 -0.2647  2.9131  1.2963
   44MPD2     N  692   4.135   0.322   0.400  0.2060 -0.4678  0.0586
   44MPD2    H5  693   4.055   0.384   0.396  1.3567  0.9336 -1.5249
   44MPD2    N1  694   4.308   4.640   0.224  0.3015  0.0031 -0.4322
   44MPD2    H7  695   4.368   4.641   0.306  0.7327  0.3204 -0.7482
   45TMC2    C1  696   4.499   2.159   9.671 -0.1130 -0.4518  0.3873
   45TMC2    C2  697   4.614   2.170   9.605 -0.2901  0.2924  0.4365
   45TMC2    C3  698   4.692   2.277   9.630  0.1833 -0.4631  0.1586
   45TMC2    C4  699   4.444   2.252   9.756  0.6716  0.2737 -0.2502
   45TMC2    C5  700   4.540   2.350   9.799 -0.8131  0.1970  0.8929
   45TMC2    C6  701   4.659   2.364   9.735 -0.1696  0.7143 -0.1888
   45TMC2     C  702   4.419   2.046   9.640  0.6031 -0.6320  0.0266
   45TMC2     O  703   4.485   1.954   9.597 -0.0457  0.0962  0.0530
   45TMC2     H  704   4.650   2.102   9.529 -0.0259 -0.2775  1.0737
   45TMC2    H1  705   4.350   2.228   9.805  0.0600 -0.0647 -1.5971
   45TMC2    H2  706   4.731   2.441   9.759 -0.2743  0.6307  0.4154
   45TMC2    C7  707   4.504   2.458   9.892  0.1578 -0.0713  0.1231
   45TMC2    C8  708   0.087   2.271   9.582  0.0786 -0.1350  0.0833
   45TMC2    O1  709   4.589   2.525   9.945  0.1947 -0.2135 -0.1103
   45TMC2    O2  710   0.137   2.166   9.536  0.9609  0.3201  0.3773
   45TMC2    O5  711   0.115   2.387   9.526  0.3806 -0.1383 -0.5415
   45TMC2    H5  712   0.047   2.453   9.552  0.7678 -0.7609  2.0848
   46MPD2     C  713   4.211   1.891   9.503 -0.1321 -0.2054 -0.2951
   46MPD2    C1  714   4.197   2.022   9.543  0.1260  0.6935  0.5344
   46MPD2    C2  715   4.074   2.077   9.527  0.0024  0.0155  0.0248
   46MPD2    C3  716   3.976   2.010   9.467  0.3958  0.1697  0.1177
   46MPD2    C4  717   3.986   1.876   9.424  0.1935 -0.3947 -0.4530
   46MPD2    C5  718   4.109   1.821   9.443 -0.3584  0.4998  0.1608
   46MPD2     H  719   4.051   2.174   9.568  0.1009 -0.3195  0.8633
   46MPD2    H1  720   3.912   1.817   9.371 -1.1165  0.9024 -0.0640
   46MPD2    H2  721   4.292   1.823   9.523  0.3503  0.1007 -1.2052
   46MPD2    H3  722   4.125   1.723   9.399  1.3031  1.0367 -0.4096
   46MPD2     N  723   3.858   2.084   9.463 -0.7393  0.2016 -0.3027
   46MPD2    H5  724   3.871   2.179   9.496  2.1875  0.2986 -1.7875
   46MPD2    N1  725   4.292   2.094   9.612  0.0286 -0.3936  0.3187
   46MPD2    H7  726   4.266   2.191   9.625 -0.7527 -0.9243  2.6362
   47TMC2    C1  727   2.019   3.013   8.947  0.4148  0.0231 -0.2489
   47TMC2    C2  728   1.936   3.052   8.845  0.1276  0.0816 -0.0159
   47TMC2    C3  729   1.846   2.959   8.793  0.3928  0.0551 -0.3712
   47TMC2    C4  730   2.007   2.898   9.016 -0.6789 -0.2698  0.4733
   47TMC2    C5  731   1.907   2.811   8.961  0.1662  0.1589 -0.0206
   47TMC2    C6  732   1.834   2.841   8.847  0.8034  0.1950 -0.1997
   47TMC2     C  733   2.123   3.102   8.999  0.1016  0.0978  0.8224
   47TMC2     O  734   2.107   3.222   8.988 -0.1766  0.2140 -0.0825
   47TMC2     H  735   1.948   3.148   8.797  1.5261  0.2978  0.7617
   47TMC2    H1  736   2.067   2.866   9.101 -1.8152 -1.7118  0.7374
   47TMC2    H2  737   1.757   2.781   8.800  1.6968  0.7303 -2.3372
   47TMC2    C7  738   1.874   2.692   9.040  0.0319  0.1146 -0.0660
   47TMC2    C8  739   1.808   2.971   8.657 -0.1724 -0.1854  0.1813
   47TMC2    O1  740   1.927   2.679   9.150 -0.0138 -0.1458  1.1672
   47TMC2    O2  741   1.696   2.939   8.617  0.1251  0.0829  0.0661
   47TMC2    O5  742   1.920   2.936   8.587 -0.1317  0.2505  0.3196
   47TMC2    H5  743   2.000   2.953   8.641  2.6219 -1.6435 -3.1479
   48MPD2     C  744   2.359   3.235   9.141 -0.4400 -0.2844 -0.7920
   48MPD2    C1  745   2.349   3.103   9.099  0.0417  0.9275 -0.2078
   48MPD2    C2  746   2.451   3.015   9.135 -0.7281 -0.1544 -0.4794
   48MPD2    C3  747   2.566   3.048   9.194 -0.0513  0.0307 -0.5558
   48MPD2    C4  748   2.583   3.179   9.221 -0.1195 -0.0555  0.0968
   48MPD2    C5  749   2.478   3.271   9.198 -0.6898 -0.0526 -0.2581
   48MPD2     H  750   2.441   2.910   9.108 -0.5410 -0.2992  0.0140
   48MPD2    H1  751   2.669   3.224   9.269 -0.1095 -1.7330  1.6412
   48MPD2    H2  752   2.283   3.308   9.114 -0.1906  1.3007  2.8067
   48MPD2    H3  753   2.494   3.374   9.229 -0.0085 -0.6925  1.5469
   48MPD2     N  754   2.654   2.945   9.229 -0.4412  0.7562 -0.0857
   48MPD2    H5  755   2.625   2.853   9.198 -0.3595 -0.1267  2.4387
   48MPD2    N1  756   2.236   3.040   9.047  1.0570  0.6798  0.7014
   48MPD2    H7  757   2.240   2.939   9.051  0.0114  0.6031 -0.3562
   49TMC2    C1  758   1.040   4.601  11.499 -0.1116 -0.3979 -0.2300
   49TMC2    C2  759   1.158   4.606  11.559 -0.7962 -0.6132  0.5003
   49TMC2    C3  760   1.255   4.669  11.487 -0.1006  0.1109  0.3306
   49TMC2    C4  761   1.016   4.648  11.373 -0.1908 -0.5859 -0.4402
   49TMC2    C5  762   1.117   4.706  11.301  0.1600  0.2627 -0.2339
   49TMC2    C6  763   1.242   4.723  11.360 -0.0831 -0.3768 -0.0827
   49TMC2     C  764   0.944   4.523  11.570 -0.2816  0.3885  0.0146
   49TMC2     O  765   0.985   4.452  11.662 -0.4739  0.1050 -0.0900
   49TMC2     H  766   1.177   4.574  11.661  1.4365 -0.1453  0.2154
   49TMC2    H1  767   0.927   4.612  11.323 -1.1522  0.7935  0.2740
   49TMC2    H2  768   1.326   0.038  11.315  0.0769 -0.3228  0.2716
   49TMC2    C7  769   1.101   0.016  11.166  0.1564  0.3543  0.0754
   49TMC2    C8  770   1.389   4.645  11.529  0.2283 -0.0667  0.0212
   49TMC2    O1  771   0.989   0.055  11.128 -0.0610  0.8268 -0.1183
   49TMC2    O2  772   1.491   4.649  11.458 -0.6186 -0.3522 -0.4601
   49TMC2    O5  773   1.387   4.641  11.665 -0.4334  0.2341 -0.1193
   49TMC2    H5  774   1.317   4.691  11.712 -0.6142 -0.2170  0.0921
   50MPD2     C  775   0.701   4.361  11.632 -0.0472 -0.2592  0.6486
   50MPD2    C1  776   0.703   4.473  11.560  0.2622 -0.2886  0.5545
   50MPD2    C2  777   0.585   4.511  11.493 -0.8117 -0.4709 -0.3189
   50MPD2    C3  778   0.466   4.433  11.516 -0.2599 -0.1343 -0.0395
   50MPD2    C4  779   0.470   4.322  11.594 -0.4282  0.0795  0.1255
   50MPD2    C5  780   0.587   4.285  11.647  0.1743  0.1535  0.2686
   50MPD2     H  781   0.566   4.609  11.452  0.3716  0.2481  0.8606
   50MPD2    H1  782   0.385   4.257  11.613 -0.3082  0.8121  3.2933
   50MPD2    H2  783   0.784   4.328  11.694 -0.5049 -1.4864  0.6188
   50MPD2    H3  784   0.577   4.201  11.713  0.7334 -0.7112 -0.7399
   50MPD2     N  785   0.340   4.467  11.457  0.3967 -0.0409  0.1524
   50MPD2    H5  786   0.259   4.410  11.481  1.5609 -1.5694  0.4293
   50MPD2    N1  787   0.814   4.556  11.537  0.2495 -0.1484 -0.6886
   50MPD2    H7  788   0.793   4.626  11.466  1.5929  1.8013  0.8629
   51TMC2    C1  789   0.958   3.387   0.761 -0.1081  0.2571 -0.0331
   51TMC2    C2  790   0.873   3.427   0.859  0.4106  0.1891  0.0773
   51TMC2    C3  791   0.866   3.560   0.884  0.4465  0.3905 -0.3708
   51TMC2    C4  792   1.056   3.474   0.705  0.1692  0.6250 -0.0779
   51TMC2    C5  793   1.053   3.605   0.743  0.6626 -0.2089 -0.4526
   51TMC2    C6  794   0.952   3.647   0.830  0.1214 -0.2715 -0.0226
   51TMC2     C  795   1.000   3.249   0.747  0.6897 -0.3400  0.2893
   51TMC2     O  796   1.090   3.213   0.669 -0.2315 -0.4125 -0.2868
   51TMC2     H  797   0.800   3.364   0.908  0.4629 -1.5141 -2.0348
   51TMC2    H1  798   1.134   3.438   0.639  0.9155  1.3544  0.4054
   51TMC2    H2  799   0.951   3.750   0.865 -0.0035 -0.5476  0.7856
   51TMC2    C7  800   1.187   3.658   0.758  0.3905  0.2857  0.1736
   51TMC2    C8  801   0.761   3.621   0.971 -0.4854  0.2089 -0.6238
   51TMC2    O1  802   1.282   3.579   0.786  0.0228 -0.4189 -0.2218
   51TMC2    O2  803   0.710   3.729   0.945  0.1847 -0.3234 -0.2218
   51TMC2    O5  804   0.707   3.525   1.058  0.0606  0.0533  0.2714
   51TMC2    H5  805   0.765   3.446   1.071 -0.3761  0.0961  2.4410
   52MPD2     C  806   1.040   2.789   0.983  0.4673  0.0314 -0.0215
   52MPD2    C1  807   1.107   2.841   0.879 -0.0422 -0.2546 -0.1768
   52MPD2    C2  808   1.079   2.969   0.837  0.5411  0.7303 -0.2766
   52MPD2    C3  809   0.967   3.043   0.884 -0.3351  0.3771  0.1522
   52MPD2    C4  810   0.887   2.973   0.978  0.2430 -0.3400 -0.2883
   52MPD2    C5  811   0.925   2.846   1.028  0.7829 -0.1777 -0.3656
   52MPD2     H  812   1.147   2.992   0.756 -0.0134  1.9455 -0.3939
   52MPD2    H1  813   0.803   3.025   1.024 -1.3700 -2.5206 -0.8034
   52MPD2    H2  814   1.069   2.696   1.032 -1.2735 -0.8832 -0.7146
   52MPD2    H3  815   0.865   2.802   1.108  0.1007  0.4551 -0.5341
   52MPD2     N  816   0.938   3.176   0.839  0.0190  0.1925 -0.6387
   52MPD2    H5  817   0.855   3.225   0.872 -0.5790 -0.9349 -0.4790
   52MPD2    N1  818   1.225   2.782   0.823 -0.1896  0.1330 -0.4763
   52MPD2    H7  819   1.268   2.842   0.753  2.2822 -0.6815  0.3501
   53TMC2    C1  820   1.181   1.692  12.195 -0.7819 -0.7292  0.1138
   53TMC2    C2  821   1.307   1.694  12.247  0.2488 -0.1617  0.0852
   53TMC2    C3  822   1.321   1.693  12.385 -0.0693  0.3948 -0.1517
   53TMC2    C4  823   1.075   1.709  12.273 -0.1982  0.1465 -0.4901
   53TMC2    C5  824   1.092   1.714  12.415 -0.0407  0.3963  0.0959
   53TMC2    C6  825   1.222   1.711  12.477 -0.4592 -0.1461 -0.0436
   53TMC2     C  826   1.168   1.679  12.050 -0.0294 -0.8323  0.2793
   53TMC2     O  827   1.264   1.690  11.975 -0.8845  0.4262  0.3050
   53TMC2     H  828   1.392   1.682  12.180 -0.1596  0.3839 -0.5288
   53TMC2    H1  829   0.980   1.737  12.230  0.4829  0.3858 -1.8382
   53TMC2    H2  830   1.238   1.718  12.583 -0.4709  0.7827 -0.1056
   53TMC2    C7  831   0.973   1.737  12.491  0.7466  0.7033  0.7957
   53TMC2    C8  832   1.446   1.654  12.433  0.2703  0.1789 -0.3150
   53TMC2    O1  833   0.875   1.765  12.426  1.0479 -0.0886  0.8005
   53TMC2    O2  834   1.456   1.615  12.546 -0.7952 -0.3997  0.6683
   53TMC2    O5  835   1.532   1.745  12.378  0.1030 -0.2181 -0.4126
   53TMC2    H5  836   1.493   1.799  12.306 -0.5084  1.8607  1.4772
   54MPD2     C  837   1.050   1.640  11.769 -0.3667 -0.3380 -0.5192
   54MPD2    C1  838   0.987   1.610  11.890 -0.6907  0.1901 -0.8402
   54MPD2    C2  839   0.857   1.559  11.892  0.1977  0.5992 -0.1195
   54MPD2    C3  840   0.793   1.542  11.772  0.4514 -0.4941 -0.7476
   54MPD2    C4  841   0.853   1.577  11.653  0.2079 -0.6430 -0.5003
   54MPD2    C5  842   0.983   1.622  11.650  0.3154 -0.3053 -0.2829
   54MPD2     H  843   0.817   1.541  11.991  0.9135 -0.9442 -0.1104
   54MPD2    H1  844   0.802   1.548  11.563 -2.0740  0.7555  0.3502
   54MPD2    H2  845   1.151   1.679  11.769 -0.9840  1.2355 -1.7589
   54MPD2    H3  846   1.020   1.645  11.551  0.4424  3.0340  0.5426
   54MPD2     N  847   0.667   1.478  11.767 -0.1967 -0.0240 -0.0277
   54MPD2    H5  848   0.625   1.460  11.676 -2.1985  0.8511  0.7270
   54MPD2    N1  849   1.041   1.632  12.016  0.7639 -0.3554 -0.1567
   54MPD2    H7  850   0.985   1.615  12.099  2.0883 -1.8985  0.4359
   55TMC2    C1  851   2.599   0.323  17.589 -0.1843  0.5121  0.5521
   55TMC2    C2  852   2.665   0.367  17.480  0.5990 -0.2480 -0.5201
   55TMC2    C3  853   2.695   0.268  17.390 -0.6656  0.3648 -0.6690
   55TMC2    C4  854   2.587   0.188  17.622 -0.3141 -0.1893 -0.3961
   55TMC2    C5  855   2.626   0.095  17.527 -0.0568  0.0037 -0.5984
   55TMC2    C6  856   2.673   0.135  17.406  0.0231 -0.6749 -0.0085
   55TMC2     C  857   2.539   0.408  17.684 -0.5622 -0.2886 -0.4149
   55TMC2     O  858   2.500   0.360   0.045  0.2990 -0.3843  0.0497
   55TMC2     H  859   2.692   0.469  17.454  1.5209 -0.1047  0.9777
   55TMC2    H1  860   2.557   0.167  17.723  1.7352 -0.4587  0.1545
   55TMC2    H2  861   2.698   0.067  17.325 -1.2230  2.0176 -2.6421
   55TMC2    C7  862   2.618   4.686  17.546  0.2434  0.0956  0.8374
   55TMC2    C8  863   2.740   0.317  17.257  0.4985 -0.2457 -0.7048
   55TMC2    O1  864   2.661   4.616  17.457  0.2492  0.0136 -0.1713
   55TMC2    O2  865   2.683   0.418  17.215 -0.2772 -0.0576 -0.1900
   55TMC2    O5  866   2.833   0.233  17.198 -0.3697  0.0135  0.4930
   55TMC2    H5  867   2.866   0.175  17.270 -0.3209  1.1202  1.3577
   56MPD2     C  868   2.443   0.747  17.627 -0.0928  0.0541 -0.7948
   56MPD2    C1  869   2.428   0.625  17.675  0.2824 -0.2089  0.0371
   56MPD2    C2  870   2.340   0.600   0.026  0.5737  0.0506  0.7268
   56MPD2    C3  871   2.248   0.701   0.058 -0.6378 -0.4133  0.4775
   56MPD2    C4  872   2.259   0.827   0.010  0.2825  0.1546 -0.3133
   56MPD2    C5  873   2.359   0.847  17.663  0.2177 -0.4549  0.2745
   56MPD2     H  874   2.327   0.499   0.063 -0.8868  0.3292  0.9805
   56MPD2    H1  875   2.191   0.908   0.034 -1.1677 -1.4223  0.8754
   56MPD2    H2  876   2.507   0.776  17.544 -0.6372 -1.0978 -1.6181
   56MPD2    H3  877   2.376   0.944  17.617  0.0417 -0.2714  0.5998
   56MPD2     N  878   2.149   0.669   0.154 -0.3563  0.2317  0.3867
   56MPD2    H5  879   2.143   0.574   0.190 -0.2659  0.0673 -0.0321
   56MPD2    N1  880   2.512   0.525  17.621  0.1567  0.0380  0.1335
   56MPD2    H7  881   2.560   0.551  17.536  0.4210  0.3706  0.3824
   57TMC2    C1  882   0.976   0.478  13.729 -0.2664  0.2275 -0.0353
   57TMC2    C2  883   0.924   0.350  13.742  0.0610  0.7490  0.4518
   57TMC2    C3  884   1.005   0.250  13.696 -1.2511  0.0326 -0.0722
   57TMC2    C4  885   1.096   0.502  13.674  0.1024 -0.1449  0.6077
   57TMC2    C5  886   1.177   0.400  13.634  0.4832 -0.7175 -0.3191
   57TMC2    C6  887   1.132   0.268  13.642 -0.1293  0.4349  0.5056
   57TMC2     C  888   0.907   0.596  13.769  0.3390  0.2227  0.1425
   57TMC2     O  889   0.920   0.690  13.687 -0.7944 -0.2058 -0.1022
   57TMC2     H  890   0.820   0.330  13.764 -0.3629  2.4951 -0.0012
   57TMC2    H1  891   1.120   0.607  13.661  1.4236 -0.7937 -2.0224
   57TMC2    H2  892   1.199   0.188  13.613  0.0307  2.1503 -4.0619
   57TMC2    C7  893   1.305   0.436  13.571 -0.2321 -0.2418 -0.5543
   57TMC2    C8  894   0.969   0.112  13.704 -0.0186 -0.3602  1.2139
   57TMC2    O1  895   1.291   0.526  13.490 -0.2179  0.3729  0.5248
   57TMC2    O2  896   1.050   0.020  13.711 -0.4426 -0.1831 -1.0644
   57TMC2    O5  897   0.842   0.097  13.735  0.3555 -0.2359 -0.1519
   57TMC2    H5  898   0.792   0.164  13.685 -0.7516 -1.9118 -1.2793
   58MPD2     C  899   0.766   0.957  14.116  0.2259 -1.2589 -0.1434
   58MPD2    C1  900   0.745   0.949  13.978  0.4010  0.4230  0.5550
   58MPD2    C2  901   0.789   0.829  13.913  0.5072  0.0700  0.1578
   58MPD2    C3  902   0.856   0.723  13.977 -0.8970 -0.5478 -0.3655
   58MPD2    C4  903   0.873   0.739  14.110 -0.0882 -0.2588 -0.7825
   58MPD2    C5  904   0.824   0.851  14.178 -0.2446  0.1948  0.6743
   58MPD2     H  905   0.761   0.811  13.810 -0.3550  1.5049  0.1513
   58MPD2    H1  906   0.909   0.664  14.179 -1.0463  0.6997  0.7618
   58MPD2    H2  907   0.723   1.035  14.179 -2.0157 -2.1515 -0.5547
   58MPD2    H3  908   0.843   0.863  14.284  0.4899 -3.1287  0.9060
   58MPD2     N  909   0.896   0.608  13.908 -0.2403  0.1158  0.1382
   58MPD2    H5  910   0.920   0.528  13.966  0.8090  0.5936  0.3633
   58MPD2    N1  911   0.666   1.043  13.904  0.1598 -0.1969  0.5681
   58MPD2    H7  912   0.640   1.018  13.809 -1.6407  0.3026  0.9304
   59TMC2    C1  913   3.398   0.886  12.521 -0.2675 -0.2346  0.5238
   59TMC2    C2  914   3.310   0.814  12.595 -0.4628  0.3364  0.0369
   59TMC2    C3  915   3.189   0.781  12.536  0.4082  0.0628  0.8849
   59TMC2    C4  916   3.377   0.897  12.385 -0.4003  0.0631 -0.0629
   59TMC2    C5  917   3.253   0.851  12.329  0.2643  0.1100 -0.1848
   59TMC2    C6  918   3.155   0.793  12.404  0.2352  0.3790  0.1794
   59TMC2     C  919   3.474   0.994  12.588 -0.2485  0.4284  0.2950
   59TMC2     O  920   3.524   1.084  12.521  0.3437 -0.3685 -0.4213
   59TMC2     H  921   3.313   0.797  12.702 -0.3193  1.3386  0.1911
   59TMC2    H1  922   3.451   0.954  12.329  0.9726  0.2238  1.9090
   59TMC2    H2  923   3.060   0.756  12.367 -0.7759  3.9773 -0.8176
   59TMC2    C7  924   3.228   0.896  12.194 -0.2294  0.3485 -0.4678
   59TMC2    C8  925   3.090   0.713  12.622  0.1744  0.4236 -0.0130
   59TMC2    O1  926   3.302   0.983  12.146 -0.0937  0.4722 -0.1316
   59TMC2    O2  927   2.976   0.746  12.630 -0.4711 -1.0136  0.1393
   59TMC2    O5  928   3.126   0.580  12.614  0.0993  0.0531 -0.1123
   59TMC2    H5  929   3.220   0.575  12.584 -0.2967  0.2704 -1.4216
   60MPD2     C  930   3.555   1.179  12.800  0.9859 -0.0517  0.1362
   60MPD2    C1  931   3.560   1.037  12.813 -0.4368  0.3914 -1.0222
   60MPD2    C2  932   3.618   0.977  12.925 -0.0689 -0.1203 -0.2216
   60MPD2    C3  933   3.659   1.061  13.029  0.1263  0.0039  0.2276
   60MPD2    C4  934   3.660   1.201  13.009  0.0995  0.5732 -0.5658
   60MPD2    C5  935   3.603   1.254  12.901  0.3396  0.5288  0.0903
   60MPD2     H  936   3.614   0.869  12.935  0.7667 -0.2671 -1.4484
   60MPD2    H1  937   3.702   1.265  13.086  3.2257 -2.4364  0.2245
   60MPD2    H2  938   3.495   1.225  12.722  1.2094  1.1730  0.6788
   60MPD2    H3  939   3.604   1.362  12.888 -1.0771  0.4095 -0.9737
   60MPD2     N  940   3.706   1.011  13.157  0.3528  0.0205 -0.6021
   60MPD2    H5  941   3.725   1.081  13.228  1.6411 -0.5560 -0.3835
   60MPD2    N1  942   3.501   0.951  12.717  0.0105 -0.0275  0.0561
   60MPD2    H7  943   3.482   0.853  12.735 -1.0147  0.1717  0.0765
   61TMC2    C1  944   3.647   2.179  15.572 -0.0580  0.1812 -0.3469
   61TMC2    C2  945   3.591   2.100  15.669 -0.8603  0.4282 -0.2629
   61TMC2    C3  946   3.480   2.143  15.740  0.2904 -0.8211 -0.0586
   61TMC2    C4  947   3.595   2.306  15.545 -0.1823 -0.0696 -0.5767
   61TMC2    C5  948   3.488   2.345  15.616  0.1132 -0.6365  0.2735
   61TMC2    C6  949   3.426   2.269  15.713 -0.6399 -0.2843 -0.8363
   61TMC2     C  950   3.731   2.111  15.475 -0.3353 -0.2695  0.2857
   61TMC2     O  951   3.796   2.013  15.514  0.0153 -0.2976 -0.1555
   61TMC2     H  952   3.632   2.001  15.683 -0.0165  0.9316  0.9157
   61TMC2    H1  953   3.625   2.363  15.458  1.4426 -0.5700 -0.3302
   61TMC2    H2  954   3.325   2.290  15.747  0.1725  0.2178  1.2304
   61TMC2    C7  955   3.433   2.473  15.566  0.4770 -0.4063  0.6208
   61TMC2    C8  956   3.390   2.048  15.792  0.5097 -0.0518 -0.1469
   61TMC2    O1  957   3.441   2.503  15.447  0.0886  0.2944  0.4008
   61TMC2    O2  958   3.313   2.075  15.887  0.4261  0.3585  0.1982
   61TMC2    O5  959   3.398   1.930  15.733 -0.6705  0.0202  0.5434
   61TMC2    H5  960   3.449   1.916  15.650 -1.8548  1.1837 -0.3752
   62MPD2     C  961   3.846   1.991  15.217 -0.2483  0.2224  0.5771
   62MPD2    C1  962   3.777   2.110  15.225  0.2485  0.3943  0.2723
   62MPD2    C2  963   3.742   2.178  15.112 -0.7383  0.6486 -0.6476
   62MPD2    C3  964   3.769   2.127  14.983 -0.8416 -0.2398 -0.0822
   62MPD2    C4  965   3.849   2.018  14.975 -0.2107  0.3107  0.4411
   62MPD2    C5  966   3.894   1.955  15.091 -0.3092 -0.0438  0.4957
   62MPD2     H  967   3.689   2.270  15.135 -1.7220 -0.0727 -0.0468
   62MPD2    H1  968   3.879   1.976  14.880 -1.0018 -0.1473  0.3875
   62MPD2    H2  969   3.886   1.925  15.293 -0.2373  0.4652  0.7833
   62MPD2    H3  970   3.951   1.863  15.088  0.9345  0.6741  2.4502
   62MPD2     N  971   3.722   2.191  14.866  0.4942 -0.6713  0.4209
   62MPD2    H5  972   3.680   2.283  14.875  2.1648  0.1705 -0.3596
   62MPD2    N1  973   3.725   2.164  15.348 -0.2558  0.1273  0.1124
   62MPD2    H7  974   3.675   2.252  15.344 -1.7732 -0.8417 -1.9217
   63TMC2    C1  975   2.420   2.804  10.191 -0.4252 -0.2395  0.6675
   63TMC2    C2  976   2.507   2.911  10.190  0.0225 -0.0546  0.2638
   63TMC2    C3  977   2.517   2.988  10.081  0.2980  0.1106  0.1770
   63TMC2    C4  978   2.340   2.775  10.081 -0.9450 -0.5100 -0.4670
   63TMC2    C5  979   2.366   2.847   9.969  0.3926 -0.6695 -0.1513
   63TMC2    C6  980   2.444   2.956   9.966  0.1312 -0.4001 -0.2729
   63TMC2     C  981   2.403   2.727  10.317  0.3182 -0.3605 -0.2759
   63TMC2     O  982   2.439   2.782  10.424 -0.7168 -0.0046  0.5883
   63TMC2     H  983   2.552   2.950  10.280 -0.8876 -0.6643  0.9897
   63TMC2    H1  984   2.272   2.691  10.071 -1.1210 -0.3597 -0.5243
   63TMC2    H2  985   2.477   2.995   9.871  1.9240  1.3461  1.0412
   63TMC2    C7  986   2.315   2.789   9.836 -0.5205  0.0073 -0.2259
   63TMC2    C8  987   2.647   3.032  10.059 -0.1955  0.6059 -0.1384
   63TMC2    O1  988   2.284   2.670   9.834 -0.4532 -0.0123  0.4321
   63TMC2    O2  989   2.744   2.965  10.078 -0.3472  0.2590  1.1018
   63TMC2    O5  990   2.640   3.126   9.968 -0.3701 -0.4324 -0.0170
   63TMC2    H5  991   2.553   3.165   9.990 -0.3165  0.0662 -0.6675
   64MPD2     C  992   2.277   2.313  10.591 -0.2648 -0.3208 -0.0068
   64MPD2    C1  993   2.281   2.278  10.460 -0.1538 -0.2750 -0.0048
   64MPD2    C2  994   2.317   2.370  10.362  0.2716 -0.2440  0.0642
   64MPD2    C3  995   2.343   2.500  10.398 -0.2075 -0.0832  0.6458
   64MPD2    C4  996   2.330   2.538  10.533 -0.5656  0.4722 -0.3198
   64MPD2    C5  997   2.308   2.440  10.625 -1.1784 -0.4661 -0.3441
   64MPD2     H  998   2.311   2.340  10.258 -1.5251 -0.0908  0.1309
   64MPD2    H1  999   2.333   2.644  10.557  0.3095  0.8348 -2.0675
   64MPD2    H2 1000   2.258   2.235  10.663  1.0534 -2.1991 -1.6994
   64MPD2    H3 1001   2.295   2.463  10.730  0.2244 -1.0775 -0.0393
   64MPD2     N 1002   2.379   2.593  10.292 -0.3926 -0.1184 -0.0095
   64MPD2    H5 1003   2.371   2.551  10.200  1.6330 -3.8870  1.5219
   64MPD2    N1 1004   2.256   2.154  10.404  0.9983  0.4686 -0.0836
   64MPD2    H7 1005   2.289   2.127  10.312 -0.4204  1.1124 -0.7870
   65TMC2    C1 1006   4.016   2.084  15.874  0.2564 -0.4725 -0.5986
   65TMC2    C2 1007   4.072   2.159  15.977  0.3662 -0.4978  0.3004
   65TMC2    C3 1008   4.111   2.285  15.948  0.4800 -0.4353 -0.3559
   65TMC2    C4 1009   3.992   2.144  15.751 -0.1018 -0.0991 -0.7272
   65TMC2    C5 1010   4.012   2.283  15.745 -1.2706  0.7864  0.0992
   65TMC2    C6 1011   4.065   2.353  15.841 -0.2268 -0.0184 -0.3998
   65TMC2     C 1012   3.950   1.955  15.899 -0.2974  0.2323  0.2224
   65TMC2     O 1013   3.991   1.904  15.999 -0.0667 -0.0670 -0.0851
   65TMC2     H 1014   4.099   2.116  16.073 -0.3744 -0.9115  0.3162
   65TMC2    H1 1015   3.953   2.090  15.665 -1.1791 -1.2690  0.4830
   65TMC2    H2 1016   4.106   2.449  15.813 -0.0355  1.0886  3.6320
   65TMC2    C7 1017   3.945   2.358  15.644 -0.1863 -0.3348  0.4154
   65TMC2    C8 1018   4.187   2.346  16.055  0.0120 -0.5398 -0.0750
   65TMC2    O1 1019   3.959   2.347  15.524  0.2709  0.4983  0.3502
   65TMC2    O2 1020   4.245   2.277  16.138  0.1992  0.1266 -0.7978
   65TMC2    O5 1021   4.194   2.477  16.041 -0.2860  0.8638 -0.2751
   65TMC2    H5 1022   4.135   2.515  15.972  0.4849  1.5449 -0.5618
   66MPD2     C 1023   3.752   1.748  15.938 -0.2370 -0.4358 -0.2835
   66MPD2    C1 1024   3.781   1.794  15.814 -0.4034  0.0310 -0.2829
   66MPD2    C2 1025   3.712   1.738  15.705 -0.0114 -0.6497  0.0102
   66MPD2    C3 1026   3.608   1.642  15.721 -0.1115  0.1874 -0.3804
   66MPD2    C4 1027   3.586   1.605  15.853  0.8680 -0.1023  0.0756
   66MPD2    C5 1028   3.658   1.647  15.959 -1.1198 -0.4536  0.4800
   66MPD2     H 1029   3.740   1.781  15.609 -0.2975 -0.7608 -0.1225
   66MPD2    H1 1030   3.497   1.545  15.870  0.4072  0.5440 -0.1011
   66MPD2    H2 1031   3.803   1.779  16.028 -0.5836  0.9901 -0.5742
   66MPD2    H3 1032   3.649   1.618  16.063  1.2071 -1.8161  0.2969
   66MPD2     N 1033   3.538   1.580  15.616 -0.1495 -0.7261 -0.1023
   66MPD2    H5 1034   3.465   1.512  15.637  1.5374 -1.5993  2.9697
   66MPD2    N1 1035   3.869   1.904  15.798  0.3758 -0.3699 -0.4191
   66MPD2    H7 1036   3.885   1.946  15.707  0.0609 -0.5537 -0.5601
   67TMC2    C1 1037   3.740   0.896  14.274 -0.5314 -0.3734 -0.0249
   67TMC2    C2 1038   3.747   0.783  14.200 -0.9374  0.6898 -0.4997
   67TMC2    C3 1039   3.858   0.706  14.205 -0.1470 -0.6834 -0.1035
   67TMC2    C4 1040   3.835   0.920  14.370 -0.4012  0.0325 -0.6101
   67TMC2    C5 1041   3.940   0.838  14.383  0.1339 -0.0803  0.1434
   67TMC2    C6 1042   3.958   0.734  14.298 -0.5236 -0.7372 -0.2373
   67TMC2     C 1043   3.612   0.930  14.332 -0.5252 -0.2525  0.8396
   67TMC2     O 1044   3.599   0.915  14.453 -0.3705  0.2573 -0.1348
   67TMC2     H 1045   3.662   0.739  14.149 -1.4858  0.9583  0.1884
   67TMC2    H1 1046   3.819   1.009  14.429 -0.2708 -0.3437 -0.0125
   67TMC2    H2 1047   4.046   0.672  14.310  0.7313  1.4927  1.9740
   67TMC2    C7 1048   4.040   0.869  14.487 -1.0273 -0.6895  0.6982
   67TMC2    C8 1049   3.870   0.585  14.131  0.2437 -0.4659 -0.4819
   67TMC2    O1 1050   4.151   0.818  14.472 -0.4055  0.2225 -0.5669
   67TMC2    O2 1051   3.946   0.498  14.168  0.2570 -0.0295  0.0296
   67TMC2    O5 1052   3.840   0.624  14.004  0.0713  0.0873  0.0010
   67TMC2    H5 1053   3.795   0.711  14.011  2.2355  1.4133 -2.8357
   68MPD2     C 1054   3.328   0.864  14.361 -0.3799 -0.4258 -0.4408
   68MPD2    C1 1055   3.377   0.923  14.245  0.2573 -0.3296  0.3065
   68MPD2    C2 1056   3.297   0.931  14.130  0.2707  0.3079  0.1577
   68MPD2    C3 1057   3.167   0.898  14.147  0.0549 -0.0842  0.0250
   68MPD2    C4 1058   3.115   0.855  14.264  0.1203  0.2501  0.1487
   68MPD2    C5 1059   3.196   0.832  14.373  0.0024 -0.2468  0.1481
   68MPD2     H 1060   3.331   0.958  14.031  1.1393 -0.4879  0.2389
   68MPD2    H1 1061   3.012   0.822  14.264 -0.1254  1.0300  0.0460
   68MPD2    H2 1062   3.397   0.840  14.441 -1.4574 -1.9001  0.0438
   68MPD2    H3 1063   3.166   0.782  14.465 -0.8026  0.6816  0.3903
   68MPD2     N 1064   3.073   0.905  14.040 -0.1174  0.4189 -0.1465
   68MPD2    H5 1065   2.986   0.854  14.053  0.5181 -0.5287  0.3880
   68MPD2    N1 1066   3.513   0.944  14.233  0.1444 -0.8054 -0.3617
   68MPD2    H7 1067   3.554   0.972  14.144  1.9740 -0.3256  0.6207
   69TMC2    C1 1068   0.610   2.346  11.665 -0.3211  0.3991 -0.1901
   69TMC2    C2 1069   0.622   2.472  11.615 -0.2089 -0.9859  0.9689
   69TMC2    C3 1070   0.716   2.479  11.515 -0.1095  0.3278  0.4052
   69TMC2    C4 1071   0.671   2.233  11.620 -0.8614  0.1897 -0.1215
   69TMC2    C5 1072   0.764   2.249  11.530  0.2079 -0.8924  0.2398
   69TMC2    C6 1073   0.799   2.374  11.477 -0.3724  0.7370  0.2482
   69TMC2     C 1074   0.537   2.321  11.794  0.5085  0.6289 -0.3609
   69TMC2     O 1075   0.572   2.221  11.861  0.5654  0.7309 -0.0220
   69TMC2     H 1076   0.571   2.560  11.651  2.6492  2.0796 -2.5101
   69TMC2    H1 1077   0.642   2.136  11.659  0.7150 -0.0520  0.4571
   69TMC2    H2 1078   0.867   2.388  11.394 -1.1217  2.3786 -0.1028
   69TMC2    C7 1079   0.828   2.131  11.483 -0.5737  0.6965 -0.2097
   69TMC2    C8 1080   0.708   2.581  11.421 -0.2089 -0.6903 -0.8185
   69TMC2    O1 1081   0.754   2.039  11.471 -0.0277 -0.3283 -0.3623
   69TMC2    O2 1082   0.654   2.566  11.310 -0.4189 -0.0014 -0.2161
   69TMC2    O5 1083   0.754   2.698  11.470 -0.2363 -0.2124 -0.0084
   69TMC2    H5 1084   0.789   2.676  11.560 -0.5435 -0.2958  0.0920
   70MPD2     C 1085   0.266   2.532  11.940  0.3682  0.0201 -0.2841
   70MPD2    C1 1086   0.371   2.446  11.938 -0.4712  0.2186 -0.7947
   70MPD2    C2 1087   0.389   2.369  12.052  0.0523 -0.3187  0.6992
   70MPD2    C3 1088   0.317   2.387  12.169  0.3473  0.0648  1.1458
   70MPD2    C4 1089   0.200   2.458  12.153  0.7490 -0.5110  0.2383
   70MPD2    C5 1090   0.174   2.539  12.041 -0.2620 -0.4498  0.0208
   70MPD2     H 1091   0.479   2.309  12.051 -0.1854 -0.6681  0.1834
   70MPD2    H1 1092   0.138   2.465  12.241 -0.1302 -1.3931 -0.3112
   70MPD2    H2 1093   0.236   2.602  11.863  1.8912  1.1205  0.1292
   70MPD2    H3 1094   0.093   2.611  12.044  1.1107  1.2092 -2.3644
   70MPD2     N 1095   0.344   2.338  12.298  0.2577 -0.1248 -0.2521
   70MPD2    H5 1096   0.279   2.365  12.371  2.4307  0.8941  1.3234
   70MPD2    N1 1097   0.459   2.434  11.824  0.0057 -0.5302 -0.1588
   70MPD2    H7 1098   0.452   2.504  11.751 -1.9739 -1.1842 -0.6123
   71TMC2    C1 1099   3.626   2.604   1.529  0.2670 -0.2089 -0.7656
   71TMC2    C2 1100   3.689   2.517   1.615 -0.1080 -0.0866 -0.3589
   71TMC2    C3 1101   3.610   2.428   1.676  0.0056  0.7115 -0.2146
   71TMC2    C4 1102   3.486   2.613   1.502  0.6663 -0.1552  0.0546
   71TMC2    C5 1103   3.417   2.519   1.568  0.4199 -0.4119 -0.0840
   71TMC2    C6 1104   3.475   2.427   1.653  0.4281  0.1276 -0.1445
   71TMC2     C 1105   3.706   2.683   1.436  0.3881  0.6114  0.7822
   71TMC2     O 1106   3.652   2.731   1.337  0.1296 -0.4338  0.3273
   71TMC2     H 1107   3.797   2.518   1.630 -0.2313  0.6828  0.5590
   71TMC2    H1 1108   3.435   2.686   1.439 -0.8577 -0.8192  0.5247
   71TMC2    H2 1109   3.413   2.355   1.706  0.6757  0.1289  0.1416
   71TMC2    C7 1110   3.276   2.546   1.585 -0.1397  0.1590 -0.3022
   71TMC2    C8 1111   3.685   2.315   1.731 -0.0974  0.1485  1.0225
   71TMC2    O1 1112   3.222   2.542   1.696  0.0290  0.2627  0.3418
   71TMC2    O2 1113   3.802   2.298   1.705 -0.0398  0.1656 -0.4062
   71TMC2    O5 1114   3.597   2.212   1.727 -0.2931  0.3791  0.2881
   71TMC2    H5 1115   3.522   2.231   1.789  0.0887 -2.0566  1.4896
   72MPD2     C 1116   4.165   2.848   1.277  0.3835 -0.2908  0.4333
   72MPD2    C1 1117   4.053   2.817   1.201  0.7457 -0.4638 -0.7361
   72MPD2    C2 1118   3.938   2.775   1.272 -0.4799 -0.4994 -0.1556
   72MPD2    C3 1119   3.941   2.766   1.413  0.3234 -0.0504 -0.6184
   72MPD2    C4 1120   4.060   2.788   1.481  0.2167 -1.0592  0.0401
   72MPD2    C5 1121   4.170   2.826   1.414 -0.2445  0.2742 -0.2564
   72MPD2     H 1122   3.854   2.726   1.224 -2.3402  2.7038 -0.1797
   72MPD2    H1 1123   4.064   2.785   1.589 -0.0560  3.7762  0.1679
   72MPD2    H2 1124   4.258   2.888   1.238 -1.2198  1.4129 -1.6143
   72MPD2    H3 1125   4.261   2.850   1.467 -1.8619 -1.6943  3.4193
   72MPD2     N 1126   3.835   2.705   1.483  0.3204 -0.1725  0.1112
   72MPD2    H5 1127   3.846   2.674   1.579  0.9051  0.5451  0.2745
   72MPD2    N1 1128   4.045   2.826   1.059  0.5127 -0.2797  0.0790
   72MPD2    H7 1129   3.955   2.791   1.030  1.3388 -0.2952 -2.4879
   73TMC2    C1 1130   2.832   0.105  14.096 -0.9737  0.6259 -0.2442
   73TMC2    C2 1131   2.802   0.230  14.151 -0.3654  0.0796  0.0286
   73TMC2    C3 1132   2.897   0.293  14.230 -0.2118 -0.2338  0.4788
   73TMC2    C4 1133   2.947   0.047  14.149 -0.5941  0.2257  0.2941
   73TMC2    C5 1134   3.043   0.120  14.217 -0.4627 -0.1437  0.0401
   73TMC2    C6 1135   3.025   0.250  14.253  0.2851  0.4870 -0.7873
   73TMC2     C 1136   2.825   0.079  13.953 -0.0677 -0.2554 -0.1656
   73TMC2     O 1137   2.917   0.003  13.925  0.3657 -0.5194  0.9701
   73TMC2     H 1138   2.699   0.264  14.142 -1.3197 -2.1384  2.3543
   73TMC2    H1 1139   2.978   4.683  14.127 -3.4265 -1.0362  2.0136
   73TMC2    H2 1140   3.095   0.300  14.319  2.7659 -1.0932 -2.2047
   73TMC2    C7 1141   3.184   0.087  14.181 -0.1505  1.0262 -0.0360
   73TMC2    C8 1142   2.859   0.419  14.285 -0.5160  0.1001 -0.6453
   73TMC2    O1 1143   3.272   0.125  14.256  0.4256 -0.1826  0.4544
   73TMC2    O2 1144   2.744   0.460  14.286  0.1566  0.3449  0.2211
   73TMC2    O5 1145   2.965   0.511  14.264  0.0014  0.2797 -0.1359
   73TMC2    H5 1146   3.050   0.462  14.254 -0.6667 -1.3128  1.9388
   74MPD2     C 1147   2.813   0.263  13.472  0.6959 -0.7313 -0.3897
   74MPD2    C1 1148   2.894   0.179  13.536 -0.2959 -1.1640  0.3659
   74MPD2    C2 1149   2.885   0.149  13.672  0.4372 -0.5182 -0.3394
   74MPD2    C3 1150   2.778   0.198  13.743  0.6791 -0.5193  0.3843
   74MPD2    C4 1151   2.682   0.266  13.677  0.3462  0.5173 -0.2305
   74MPD2    C5 1152   2.701   0.301  13.541  0.0770  0.5530 -1.3489
   74MPD2     H 1153   2.963   0.084  13.709 -0.1855 -1.9357 -1.5069
   74MPD2    H1 1154   2.591   0.293  13.730 -0.4116  1.5236 -2.0341
   74MPD2    H2 1155   2.826   0.298  13.370 -1.2893 -1.0363 -0.7664
   74MPD2    H3 1156   2.644   0.375  13.485 -0.8495  1.1854  0.4474
   74MPD2     N 1157   2.750   0.168  13.877 -0.0790 -0.3807  0.2985
   74MPD2    H5 1158   2.676   0.217  13.926  0.0829 -0.1649  0.3269
   74MPD2    N1 1159   3.016   0.136  13.476  0.3346  0.1055  0.2486
   74MPD2    H7 1160   3.072   0.074  13.533 -2.7423 -0.1290  2.9964
   75TMC2    C1 1161   2.964   1.009  13.847 -0.1223 -0.8118  0.6808
   75TMC2    C2 1162   2.854   1.000  13.932  0.1165 -0.3595  0.3447
   75TMC2    C3 1163   2.734   0.980  13.875  1.0693 -1.2123  0.2607
   75TMC2    C4 1164   2.952   1.010  13.713 -0.9606  0.7288  0.2733
   75TMC2    C5 1165   2.825   0.991  13.660 -0.1092  0.4446  0.8673
   75TMC2    C6 1166   2.715   0.974  13.741  0.6634  0.3475 -0.6015
   75TMC2     C 1167   3.093   0.966  13.911  0.1877  0.3040 -0.0300
   75TMC2     O 1168   3.199   1.004  13.860  0.3037 -0.3599  0.6769
   75TMC2     H 1169   2.856   1.002  14.040 -0.1538 -3.1279  0.3994
   75TMC2    H1 1170   3.037   1.020  13.648 -0.8919  0.6394  0.3498
   75TMC2    H2 1171   2.620   0.947  13.696  0.7967 -1.9563  0.5093
   75TMC2    C7 1172   2.813   0.987  13.523  0.0433 -0.0243 -0.4003
   75TMC2    C8 1173   2.617   0.976  13.956  0.1386 -0.1596 -0.2089
   75TMC2    O1 1174   2.726   0.917  13.475  0.1545  0.3410 -0.0577
   75TMC2    O2 1175   2.515   0.936  13.915  0.4289 -0.3651  0.0795
   75TMC2    O5 1176   2.635   1.060  14.062 -0.1564 -0.0837  0.4762
   75TMC2    H5 1177   2.709   1.124  14.052 -0.2819 -0.0126  0.0047
   76TMC2    C1 1178   1.875   1.650  12.029 -0.2946  0.9098  0.1544
   76TMC2    C2 1179   1.850   1.713  12.152 -0.3216  0.1120  0.0607
   76TMC2    C3 1180   1.903   1.661  12.265 -0.3087 -0.2641  0.3852
   76TMC2    C4 1181   1.962   1.541  12.022  0.3664  0.5973  0.2457
   76TMC2    C5 1182   2.014   1.500  12.140 -0.1270  0.8866  0.1278
   76TMC2    C6 1183   1.994   1.558  12.260 -0.2603  0.3326  0.3235
   76TMC2     C 1184   1.889   1.738  11.920 -0.1911 -0.4379  0.9983
   76TMC2     O 1185   1.795   1.819  11.907 -0.4102 -0.0167 -0.2437
   76TMC2     H 1186   1.789   1.803  12.151 -1.5221 -0.7034 -1.1555
   76TMC2    H1 1187   1.966   1.483  11.931  0.5236 -2.1852  2.0182
   76TMC2    H2 1188   2.051   1.529  12.348  0.9129  1.8180  0.0569
   76TMC2    C7 1189   2.112   1.396  12.127  0.1090 -0.3063 -0.2755
   76TMC2    C8 1190   1.875   1.713  12.393  0.4493  0.5106 -0.7763
   76TMC2    O1 1191   2.148   1.358  12.014 -0.2067  0.2346  0.9103
   76TMC2    O2 1192   1.867   1.831  12.419 -0.0592 -0.1299 -0.0809
   76TMC2    O5 1193   1.827   1.610  12.463  0.1465  0.7208 -0.4707
   76TMC2    H5 1194   1.822   1.523  12.418 -1.7182  0.6560 -0.1463
   77MPD2     C 1195   2.163   1.932  11.519 -0.4036  0.2552  0.0699
   77MPD2    C1 1196   2.028   1.941  11.556  1.3561 -0.0171 -0.2718
   77MPD2    C2 1197   1.974   1.878  11.667 -0.1029  0.1164 -0.2067
   77MPD2    C3 1198   2.063   1.801  11.749  0.0280  0.7517  0.0877
   77MPD2    C4 1199   2.200   1.805  11.721  0.1279 -0.6653  0.1472
   77MPD2    C5 1200   2.242   1.872  11.610 -0.3476  0.5233  0.0990
   77MPD2     H 1201   1.868   1.879  11.689  0.0579  0.8663  0.5489
   77MPD2    H1 1202   2.275   1.758  11.784  1.6081  1.5844  0.0667
   77MPD2    H2 1203   2.212   1.973  11.431  0.8964  1.9990  1.6226
   77MPD2    H3 1204   2.349   1.881  11.596 -0.1616  0.8687  1.7494
   77MPD2     N 1205   2.010   1.731  11.855 -0.4711  0.3069  0.2385
   77MPD2    H5 1206   2.077   1.671  11.902  1.9847  3.0054  0.2033
   77MPD2    N1 1207   1.931   2.002  11.472  0.1931  0.4138  0.1119
   77MPD2    H7 1208   1.835   1.991  11.502  0.6581 -0.1041  1.4048
   78TMC2    C1 1209   0.066   4.114   1.813  1.0619  0.2074 -1.1267
   78TMC2    C2 1210   0.152   4.116   1.925 -0.2786 -0.0270  0.6275
   78TMC2    C3 1211   0.286   4.117   1.892 -0.3977 -0.1032 -0.7550
   78TMC2    C4 1212   0.109   4.104   1.685 -0.0096  0.3237  0.5984
   78TMC2    C5 1213   0.243   4.117   1.662 -0.0111 -0.0075  0.2437
   78TMC2    C6 1214   0.335   4.117   1.764 -0.3996 -0.5085 -0.2953
   78TMC2     C 1215   4.660   4.131   1.842 -0.0650 -0.1124 -0.2505
   78TMC2     O 1216   4.626   4.184   1.942  0.5473 -0.2694 -0.0769
   78TMC2     H 1217   0.120   4.114   2.028 -3.2174  2.3260 -0.2454
   78TMC2    H1 1218   0.040   4.113   1.602  1.8458  0.5196 -0.9311
   78TMC2    H2 1219   0.441   4.112   1.743 -0.7028  0.8556 -2.1527
   78TMC2    C7 1220   0.296   4.078   1.532 -0.4460 -0.3431  0.0433
   78TMC2    C8 1221   0.383   4.156   1.991  0.4532  0.1174  0.2305
   78TMC2    O1 1222   0.210   4.040   1.456  0.2863 -0.3344 -0.6653
   78TMC2    O2 1223   0.391   4.095   2.098  0.1907 -0.1799  0.1178
   78TMC2    O5 1224   0.469   4.247   1.941 -0.1008  0.4833 -0.6036
   78TMC2    H5 1225   0.459   4.263   1.845  0.9573 -0.1819 -0.8208
   79MPD1     C 1226   4.173   4.004   1.757 -0.0317  0.0836  0.1076
   79MPD1    C1 1227   4.228   4.112   1.817 -0.0583  0.3007 -0.1789
   79MPD1    C2 1228   4.367   4.135   1.807  0.3099  0.4846 -0.6662
   79MPD1    C3 1229   4.446   4.036   1.761 -0.0077 -0.1036 -0.1547
   79MPD1    C4 1230   4.390   3.926   1.705  0.0240 -0.4411 -0.1033
   79MPD1    C5 1231   4.257   3.912   1.702 -0.2629 -0.1633  0.4273
   79MPD1     H 1232   4.405   4.227   1.851  1.4704 -0.3243  0.0566
   79MPD1    H1 1233   4.454   3.862   1.645  0.3531  1.9904 -2.3497
   79MPD1    H2 1234   4.066   4.009   1.746  0.1222  0.1681 -1.3574
   79MPD1    H3 1235   4.217   3.827   1.648  0.9677  0.0122 -0.7518
   79MPD1     N 1236   4.586   4.050   1.760 -0.0365  0.4907 -0.2082
   79MPD1    H5 1237   4.635   3.979   1.707 -3.2368 -0.1543 -2.3533
   79MPD1    N1 1238   4.149   4.217   1.847 -0.1382  0.3483 -0.1566
   79MPD1    H6 1239   4.191   4.266   1.926  2.1479 -1.8119 -0.0450
   79MPD1    H7 1240   4.059   4.186   1.883  1.0276  0.5234  2.8884
   80TMC2    C1 1241   1.118   1.292  12.097  0.0768 -0.7949 -0.4107
   80TMC2    C2 1242   1.208   1.328  12.001  0.5441  0.9414 -0.9128
   80TMC2    C3 1243   1.187   1.290  11.874  0.6567  0.0465  0.0035
   80TMC2    C4 1244   1.002   1.226  12.062  0.1489  0.0788  1.0721
   80TMC2    C5 1245   0.978   1.192  11.931 -0.5045  0.5225 -0.6762
   80TMC2    C6 1246   1.068   1.232  11.835  0.4130 -0.7847  0.1294
   80TMC2     C 1247   1.142   1.339  12.237 -0.5552  0.7176 -0.4024
   80TMC2     O 1248   1.261   1.347  12.264 -0.6162 -0.3401 -0.3399
   80TMC2     H 1249   1.300   1.376  12.031  0.5580  1.4908 -1.8314
   80TMC2    H1 1250   0.933   1.186  12.135 -0.9269  0.8293  0.4624
   80TMC2    H2 1251   1.051   1.205  11.732 -2.2725 -1.2054  0.6840
   80TMC2    C7 1252   0.853   1.126  11.900 -0.7179 -0.0339  0.9767
   80TMC2    C8 1253   1.289   1.332  11.771  0.1265  0.2193  0.1948
   80TMC2    O1 1254   0.813   1.135  11.786 -0.2457  0.0990  0.0576
   80TMC2    O2 1255   1.372   1.419  11.793  0.1818 -0.2636  0.7342
   80TMC2    O5 1256   1.291   1.241  11.666 -0.3036 -0.0914  0.4078
   80TMC2    H5 1257   1.230   1.164  11.670  2.3120 -2.0987  2.4326
   81MPD2     C 1258   1.143   1.385  12.523  0.0913 -0.3447 -0.2567
   81MPD2    C1 1259   1.023   1.369  12.449 -0.2328  0.3707 -0.4845
   81MPD2    C2 1260   0.904   1.353  12.515 -0.3241 -0.2423  0.1250
   81MPD2    C3 1261   0.909   1.348  12.651 -0.0551  0.0026  0.0103
   81MPD2    C4 1262   1.025   1.357  12.721  0.1120 -0.2107 -0.6221
   81MPD2    C5 1263   1.140   1.366  12.655  0.6069 -0.1142 -0.0776
   81MPD2     H 1264   0.809   1.336  12.465 -0.4170  1.4024 -0.2816
   81MPD2    H1 1265   1.029   1.346  12.829 -1.8808  2.4910 -0.2826
   81MPD2    H2 1266   1.241   1.381  12.478  0.7894 -0.4387  1.2542
   81MPD2    H3 1267   1.228   1.363  12.717  0.9256 -1.3440 -0.5921
   81MPD2     N 1268   0.792   1.330  12.731  0.0276  0.1768 -0.2783
   81MPD2    H5 1269   0.806   1.333  12.832  0.9889 -0.4300 -0.3925
   81MPD2    N1 1270   1.023   1.348  12.308  0.3151 -0.2177 -0.8014
   81MPD2    H7 1271   0.935   1.333  12.261 -0.2515  3.1406 -0.8197
   82TMC2    C1 1272   3.906   1.289  11.552 -0.3929  0.6060 -0.2296
   82TMC2    C2 1273   4.027   1.319  11.619 -1.2034 -0.5315  0.0047
   82TMC2    C3 1274   4.050   1.244  11.729  0.3029 -0.3292 -0.0604
   82TMC2    C4 1275   3.810   1.209  11.591 -0.1053  0.0237 -0.3129
   82TMC2    C5 1276   3.847   1.139  11.700  0.4937 -0.4315  0.6787
   82TMC2    C6 1277   3.969   1.149  11.770 -0.5397 -0.0849 -0.4641
   82TMC2     C 1278   3.877   1.347  11.418  0.4376  0.1239 -0.2139
   82TMC2     O 1279   3.759   1.370  11.386 -0.4957 -0.2472 -0.0789
   82TMC2     H 1280   4.108   1.383  11.585 -1.2752 -0.8214 -0.7239
   82TMC2    H1 1281   3.712   1.207  11.546 -0.4426 -0.6216  0.4492
   82TMC2    H2 1282   4.003   1.074  11.840 -1.9479  1.1913  1.5871
   82TMC2    C7 1283   3.764   1.024  11.730  0.1170 -0.4343  0.0249
   82TMC2    C8 1284   4.181   1.257  11.789 -0.2896 -1.1109  0.2547
   82TMC2    O1 1285   3.756   0.991  11.844 -0.0374 -0.2174  0.0434
   82TMC2    O2 1286   4.265   1.326  11.737 -0.1807  0.0371 -0.0952
   82TMC2    O5 1287   4.157   1.255  11.919 -0.0571  0.2965  0.0363
   82TMC2    H5 1288   4.067   1.223  11.942 -1.0305  2.6507 -0.4875
   83MPD2     C 1289   3.993   1.302  10.920  0.6347 -0.3831 -0.4798
   83MPD2    C1 1290   3.883   1.269  10.987  0.0430 -0.4275  0.1039
   83MPD2    C2 1291   3.873   1.291  11.123  0.0472 -0.5097  0.2331
   83MPD2    C3 1292   3.981   1.335  11.196 -0.0685 -0.0028 -0.1047
   83MPD2    C4 1293   4.096   1.351  11.123 -0.5680 -0.6162 -1.0934
   83MPD2    C5 1294   4.104   1.334  10.987 -0.4016 -0.7563 -0.0294
   83MPD2     H 1295   3.778   1.281  11.173 -0.2104  2.1607  0.3094
   83MPD2    H1 1296   4.183   1.378  11.181  0.7283 -1.6407 -2.5933
   83MPD2    H2 1297   4.007   1.310  10.813 -2.4450  0.4450 -0.8003
   83MPD2    H3 1298   4.195   1.359  10.933 -0.4834  1.1058  0.7142
   83MPD2     N 1299   3.984   1.345  11.332  0.0853 -0.2344 -0.0641
   83MPD2    H5 1300   4.073   1.347  11.381  0.1200 -2.3276 -0.0345
   83MPD2    N1 1301   3.769   1.247  10.905  0.4059 -0.0849 -0.2953
   83MPD2    H7 1302   3.784   1.241  10.804  1.2411 -0.6263 -0.1370
   84TMC2    C1 1303   0.025   4.725  11.213 -0.0282 -0.3520  0.3710
   84TMC2    C2 1304   4.661   4.653  11.261 -0.2309  0.6815 -0.2007
   84TMC2    C3 1305   4.689   4.537  11.331  0.0750  0.3665  0.7183
   84TMC2    C4 1306   0.159   4.687  11.229  0.9570 -0.0420  0.8139
   84TMC2    C5 1307   0.190   4.579  11.311  0.2713 -0.7404  0.5924
   84TMC2    C6 1308   0.087   4.503  11.360  0.0893 -0.2394 -0.8394
   84TMC2     C 1309   4.735   0.126  11.184  0.3027 -0.6239  0.2464
   84TMC2     O 1310   4.630   0.169  11.230  0.1782  0.5543 -0.4756
   84TMC2     H 1311   4.560   4.685  11.239 -0.0309 -0.6108 -3.0914
   84TMC2    H1 1312   0.236   0.015  11.189 -0.5244  1.2480  0.0831
   84TMC2    H2 1313   0.100   4.419  11.426  1.3260  0.4010 -0.2791
   84TMC2    C7 1314   0.331   4.545  11.346 -0.3935  0.3550  0.2448
   84TMC2    C8 1315   4.585   4.482  11.407  0.2972 -0.1716 -0.8184
   84TMC2    O1 1316   0.411   4.624  11.290 -0.3405 -0.4119 -0.0500
   84TMC2    O2 1317   4.490   4.420  11.352  0.4536  0.2085 -0.8692
   84TMC2    O5 1318   4.578   4.550  11.517 -0.0748 -0.1639  0.5492
   84TMC2    H5 1319   4.658   4.605  11.532 -0.6399  1.1276 -1.1297
   85TMC2    C1 1320   1.460   3.095  15.649  1.0100  0.4580  0.3875
   85TMC2    C2 1321   1.363   3.178  15.704  0.0003 -0.2568  0.8169
   85TMC2    C3 1322   1.357   3.310  15.678  0.2572  0.5805 -0.4159
   85TMC2    C4 1323   1.551   3.150  15.567 -0.3942 -0.3162  0.1098
   85TMC2    C5 1324   1.530   3.278  15.518  0.1037 -0.1599  0.2257
   85TMC2    C6 1325   1.433   3.357  15.573 -0.3745  0.4897 -0.4348
   85TMC2     C 1326   1.489   2.968  15.712 -0.0915  0.0401 -0.3484
   85TMC2     O 1327   1.604   2.933  15.729 -0.6099 -0.3009 -0.2775
   85TMC2     H 1328   1.279   3.145  15.764 -2.0681  1.3034 -1.2246
   85TMC2    H1 1329   1.617   3.087  15.508 -0.8362 -1.5704  0.9665
   85TMC2    H2 1330   1.410   3.456  15.535  0.7185  0.7622 -0.3857
   85TMC2    C7 1331   1.572   3.299  15.380 -0.6285 -0.4754  0.4074
   85TMC2    C8 1332   1.231   3.377  15.702  0.4415  0.3672 -0.8563
   85TMC2    O1 1333   1.656   3.219  15.337 -0.1751  0.2645 -0.4564
   85TMC2    O2 1334   1.125   3.325  15.740 -0.0868  0.0775 -0.0619
   85TMC2    O5 1335   1.266   3.498  15.746 -0.3606 -0.6835 -0.3899
   85TMC2    H5 1336   1.360   3.516  15.726 -0.0140 -1.1756  0.8096
   86MPD2     C 1337   1.346   2.552  15.982  0.6177 -0.1682  0.7270
   86MPD2    C1 1338   1.230   2.609  15.919  0.2730 -0.3173  0.4915
   86MPD2    C2 1339   1.249   2.717  15.835 -0.1664 -0.2760  0.1886
   86MPD2    C3 1340   1.374   2.774  15.823  0.3547 -0.7566  1.0467
   86MPD2    C4 1341   1.485   2.716  15.875 -0.0684 -0.5856 -0.1512
   86MPD2    C5 1342   1.467   2.599  15.942  0.2524 -0.1037 -0.9968
   86MPD2     H 1343   1.167   2.765  15.783 -0.2574  0.0381  0.6121
   86MPD2    H1 1344   1.587   2.752  15.875 -0.4614  0.4912  0.9083
   86MPD2    H2 1345   1.338   2.464  16.045 -1.8991 -0.8811 -0.6164
   86MPD2    H3 1346   1.557   2.556  15.983  0.2440  0.9492  0.1389
   86MPD2     N 1347   1.378   2.899  15.755  0.3135 -0.3225  0.2775
   86MPD2    H5 1348   1.289   2.942  15.733  0.6369  0.7730  1.0947
   86MPD2    N1 1349   1.099   2.557  15.947  0.1632  0.1970  0.3704
   86MPD2    H7 1350   1.027   2.572  15.876  1.3827  1.5787 -0.5713
   87TMC2    C1 1351   4.558   1.412   0.899 -0.1833 -0.6675 -0.0299
   87TMC2    C2 1352   4.645   1.519   0.887 -0.5399  0.6767 -0.5852
   87TMC2    C3 1353   4.590   1.644   0.894 -0.1756 -0.1068 -0.3203
   87TMC2    C4 1354   4.423   1.422   0.911 -0.2744 -0.4700 -0.2910
   87TMC2    C5 1355   4.375   1.554   0.910 -0.6645 -0.1808  0.2189
   87TMC2    C6 1356   4.457   1.666   0.903  0.1155  0.0679  0.3848
   87TMC2     C 1357   4.605   1.281   0.861 -0.3085 -0.4804  0.2962
   87TMC2     O 1358   4.521   1.199   0.830 -0.2729 -0.0922  0.1359
   87TMC2     H 1359   0.016   1.519   0.880 -0.4206  2.5067  1.1818
   87TMC2    H1 1360   4.358   1.336   0.918  0.8938 -1.4190 -1.0764
   87TMC2    H2 1361   4.414   1.766   0.905  2.2770  0.9742  1.6862
   87TMC2    C7 1362   4.238   1.579   0.904 -0.2632 -0.0188  0.0611
   87TMC2    C8 1363   4.670   1.763   0.909 -0.0819  0.3569 -0.9323
   87TMC2    O1 1364   4.201   1.684   0.947 -0.6562  0.4123 -0.2078
   87TMC2    O2 1365   0.050   1.757   0.884 -0.4357 -0.5125  0.4763
   87TMC2    O5 1366   4.616   1.807   1.028 -0.4040  0.1748 -0.3681
   87TMC2    H5 1367   4.527   1.769   1.039 -0.0949 -0.5013 -0.1835
   88MPD2     C 1368   3.972   1.407   0.716 -1.2832  0.0058  0.0201
   88MPD2    C1 1369   4.028   1.497   0.809 -0.0170  0.5535 -0.3460
   88MPD2    C2 1370   3.937   1.589   0.874  0.4828  0.6069  0.1543
   88MPD2    C3 1371   3.796   1.588   0.850  0.0472  0.4211 -0.3871
   88MPD2    C4 1372   3.753   1.514   0.745  0.0392 -0.1848 -0.1511
   88MPD2    C5 1373   3.844   1.430   0.675 -0.4006  1.0501 -0.4625
   88MPD2     H 1374   3.978   1.649   0.954  0.2380 -0.3356  0.9967
   88MPD2    H1 1375   3.647   1.507   0.724 -0.2512 -0.5312  1.4693
   88MPD2    H2 1376   4.035   1.331   0.671 -1.4147 -0.5231  0.7226
   88MPD2    H3 1377   3.805   1.359   0.603 -0.0075 -0.4543  0.8081
   88MPD2     N 1378   3.692   1.660   0.920  0.0730  0.4426 -0.0040
   88MPD2    H5 1379   3.602   1.664   0.873 -0.3786 -1.6646  0.6525
   88MPD2    N1 1380   4.170   1.486   0.833  0.0004 -0.0347  0.1555
   88MPD2    H7 1381   4.223   1.419   0.779 -0.0668  0.6055 -0.7043
   89TMC2    C1 1382   4.353   4.317   1.474 -0.4732  0.7978 -0.2956
   89TMC2    C2 1383   4.226   4.270   1.494 -0.7050 -0.1846  0.2651
   89TMC2    C3 1384   4.127   4.358   1.492 -0.1028  0.7743 -0.3177
   89TMC2    C4 1385   4.379   4.442   1.441  0.0639  0.0234 -0.7890
   89TMC2    C5 1386   4.273   4.525   1.414 -0.6903 -0.1068 -0.3519
   89TMC2    C6 1387   4.145   4.484   1.441  0.1939  0.2610 -0.0733
   89TMC2     C 1388   4.460   4.225   1.453 -0.4504  0.1625  0.1700
   89TMC2     O 1389   4.569   4.265   1.496  0.9241  0.6131  0.1663
   89TMC2     H 1390   4.214   4.169   1.532  0.6227 -0.2367  0.5647
   89TMC2    H1 1391   4.474   4.471   1.397 -0.3834  3.0678  0.2689
   89TMC2    H2 1392   4.070   4.561   1.458  0.0834  0.0650  0.3237
   89TMC2    C7 1393   4.287   4.641   1.330 -0.3462  0.2699 -1.1737
   89TMC2    C8 1394   3.995   4.312   1.526 -0.2078  0.4345  0.2463
   89TMC2    O1 1395   4.207   4.728   1.357  0.4323  0.0108 -0.3292
   89TMC2    O2 1396   3.906   4.397   1.540 -0.5087 -0.1161  0.7266
   89TMC2    O5 1397   3.985   4.182   1.482 -0.7803 -0.3214  0.2510
   89TMC2    H5 1398   4.064   4.130   1.459 -0.5715  0.9957 -1.9138
   90MPD2     C 1399   4.665   3.809   1.252  0.2980  0.3820  0.5852
   90MPD2    C1 1400   4.540   3.773   1.290 -0.0277 -0.1106 -0.3789
   90MPD2    C2 1401   4.463   3.880   1.336 -0.2280 -0.2946  0.1721
   90MPD2    C3 1402   4.517   4.006   1.363  0.8379 -0.3281 -0.6063
   90MPD2    C4 1403   4.648   4.030   1.338 -0.0914 -0.6969 -0.4000
   90MPD2    C5 1404   4.725   3.935   1.279  0.0811  0.0007  0.1237
   90MPD2     H 1405   4.364   3.874   1.381 -1.9439  2.0807 -3.3058
   90MPD2    H1 1406   4.691   4.129   1.348  0.3979 -0.9404 -0.0941
   90MPD2    H2 1407   0.004   3.740   1.216  0.1489 -0.1154  1.2166
   90MPD2    H3 1408   0.091   3.959   1.261  0.1102 -0.4748 -0.3443
   90MPD2     N 1409   4.425   4.102   1.409  0.3269  0.9927  0.1409
   90MPD2    H5 1410   4.328   4.089   1.384  0.1975  3.2574 -0.5873
   90MPD2    N1 1411   4.487   3.644   1.272  0.0892 -0.3372 -0.3958
   90MPD2    H7 1412   4.386   3.637   1.278  0.3869 -1.2298  3.0893
   91TMC2    C1 1413   1.415   4.017  16.143  0.9528 -0.6667  0.5125
   91TMC2    C2 1414   1.483   4.085  16.238 -0.0822 -0.0740 -1.1530
   91TMC2    C3 1415   1.442   4.059  16.362 -0.0420 -0.0821  0.3509
   91TMC2    C4 1416   1.309   3.935  16.170 -0.1207  0.4088  0.3942
   91TMC2    C5 1417   1.279   3.906  16.300 -0.0680 -0.1625  0.1319
   91TMC2    C6 1418   1.343   3.972  16.400 -0.0081 -0.9368  0.1346
   91TMC2     C 1419   1.464   4.009  16.009  0.3376 -0.2929 -0.2915
   91TMC2     O 1420   1.406   3.967  15.909 -0.0199 -0.5032  0.4022
   91TMC2     H 1421   1.556   4.162  16.217 -0.6252  0.7665  0.0153
   91TMC2    H1 1422   1.267   3.885  16.083 -0.1903 -1.8181  1.7284
   91TMC2    H2 1423   1.321   3.953  16.504  2.4113  2.1312  1.2157
   91TMC2    C7 1424   1.171   3.816  16.338  0.0280  0.2321 -0.2392
   91TMC2    C8 1425   1.503   4.116  16.474  0.3923  0.6661  0.5724
   91TMC2    O1 1426   1.162   3.787  16.456 -0.6114  0.0896 -0.2966
   91TMC2    O2 1427   1.450   4.117  16.584 -0.2535  0.4844  0.5947
   91TMC2    O5 1428   1.637   4.120  16.450  0.0971  0.9457 -0.0293
   91TMC2    H5 1429   1.657   4.084  16.361 -1.0715  3.1824 -1.2005
   92MPD2     C 1430   1.669   3.960  15.789  0.2159 -0.2496  1.1572
   92MPD2    C1 1431   1.692   4.028  15.912  0.0101  0.3488 -0.7042
   92MPD2    C2 1432   1.822   4.066  15.952  0.3048  0.0153 -0.2000
   92MPD2    C3 1433   1.924   4.049  15.857  0.1653 -0.8374  0.0796
   92MPD2    C4 1434   1.904   3.988  15.733  0.6167 -0.0320 -0.1484
   92MPD2    C5 1435   1.777   3.944  15.701 -0.0494  0.2000  0.4621
   92MPD2     H 1436   1.838   4.115  16.048 -0.4912  0.9118 -0.5326
   92MPD2    H1 1437   1.986   3.974  15.662  0.7395 -2.0731  0.3851
   92MPD2    H2 1438   1.571   3.932  15.753  0.4589  1.0215 -0.5079
   92MPD2    H3 1439   1.762   3.891  15.608 -1.4159 -0.5171  1.0950
   92MPD2     N 1440   2.053   4.066  15.898  0.0546  0.3083  0.5059
   92MPD2    H5 1441   2.118   4.006  15.847  0.1459  0.4918  0.4071
   92MPD2    N1 1442   1.591   4.051  16.006 -0.9107 -0.5695 -0.0920
   92MPD2    H7 1443   1.628   4.080  16.096  1.5626  0.0300 -1.2889
   93TMC2    C1 1444   3.113   4.036  14.020 -0.1267 -0.1863 -0.8134
   93TMC2    C2 1445   3.084   3.976  14.137  0.8983  0.4230  0.3463
   93TMC2    C3 1446   3.162   4.004  14.244 -0.5722  0.1907 -0.1966
   93TMC2    C4 1447   3.224   4.114  14.019  0.0320  0.1354  0.0360
   93TMC2    C5 1448   3.302   4.138  14.124 -0.1613 -0.3919  0.2805
   93TMC2    C6 1449   3.268   4.088  14.243 -0.5269  0.3617  1.0215
   93TMC2     C 1450   3.046   4.000  13.899  0.3766  0.8491  0.2314
   93TMC2     O 1451   3.094   4.041  13.796  0.2652 -0.1285 -0.7694
   93TMC2     H 1452   3.018   3.891  14.143  1.3904  0.0623  0.6815
   93TMC2    H1 1453   3.273   4.120  13.922 -0.6790  2.7307 -0.1641
   93TMC2    H2 1454   3.327   4.098  14.333  0.2867  0.2763  0.4986
   93TMC2    C7 1455   3.433   4.202  14.099 -0.2178 -0.0686 -0.4630
   93TMC2    C8 1456   3.114   3.966  14.377  0.3680  0.3005 -0.3126
   93TMC2    O1 1457   3.517   4.192  14.187  0.1403 -0.2548  0.0897
   93TMC2    O2 1458   3.181   3.984  14.479  0.4897 -0.3310 -1.3468
   93TMC2    O5 1459   2.984   3.948  14.384 -0.1325  0.3029 -0.3167
   93TMC2    H5 1460   2.946   3.942  14.294  1.1109  1.1331 -0.8948
   94MPD2     C 1461   2.841   3.900  13.702  0.3250  0.0836 -0.1974
   94MPD2    C1 1462   2.815   3.923  13.834  0.0095 -0.2584  0.2167
   94MPD2    C2 1463   2.686   3.904  13.875  0.2414  0.1718 -0.3352
   94MPD2    C3 1464   2.586   3.852  13.800 -0.4793 -0.2657  0.1871
   94MPD2    C4 1465   2.624   3.814  13.669 -0.3469  0.2495 -0.0300
   94MPD2    C5 1466   2.748   3.842  13.619  0.8673  1.3580 -0.0142
   94MPD2     H 1467   2.672   3.930  13.980 -0.1790 -2.1062  0.1576
   94MPD2    H1 1468   2.554   3.770  13.598  2.3978 -3.7564 -0.2787
   94MPD2    H2 1469   2.942   3.905  13.663  0.6749  2.8535  1.0127
   94MPD2    H3 1470   2.776   3.829  13.515 -0.8265 -0.6125 -0.2241
   94MPD2     N 1471   2.452   3.829  13.839 -0.0354  0.0892 -0.7008
   94MPD2    H5 1472   2.385   3.781  13.780  0.1793 -1.3241  0.2034
   94MPD2    N1 1473   2.916   3.963  13.928 -0.0881  0.2012 -0.4217
   94MPD2    H7 1474   2.886   3.964  14.025  0.0667 -0.7791 -0.3609
   95TMC2    C1 1475   2.556   1.081  15.603 -0.2937  0.3246  0.3686
   95TMC2    C2 1476   2.439   1.149  15.574  0.3941  0.1327 -0.1374
   95TMC2    C3 1477   2.332   1.079  15.545  0.1401 -0.5060 -0.3424
   95TMC2    C4 1478   2.558   0.943  15.585 -0.5517 -0.7191  0.8621
   95TMC2    C5 1479   2.444   0.874  15.538  0.4322  0.0591  0.5972
   95TMC2    C6 1480   2.333   0.946  15.510  0.7163  0.0129 -0.2570
   95TMC2     C 1481   2.676   1.164  15.593  0.3960  0.1548  0.1800
   95TMC2     O 1482   2.771   1.109  15.537 -0.3194 -0.3965  0.1629
   95TMC2     H 1483   2.426   1.255  15.592  1.0771 -0.1373  1.8822
   95TMC2    H1 1484   2.652   0.891  15.601 -0.5118 -1.3095 -1.3169
   95TMC2    H2 1485   2.246   0.899  15.466  0.8857  0.6400 -1.2518
   95TMC2    C7 1486   2.452   0.749  15.466  0.0632  0.6571  0.1985
   95TMC2    C8 1487   2.218   1.145  15.500 -0.4596 -0.5433 -0.2931
   95TMC2    O1 1488   2.351   0.699  15.414 -0.7591  0.0285 -0.4352
   95TMC2    O2 1489   2.203   1.234  15.419 -0.2253 -0.4063  0.7324
   95TMC2    O5 1490   2.120   1.105  15.585  0.4936  0.0417 -0.2960
   95TMC2    H5 1491   2.150   1.037  15.649 -1.0467 -2.5585 -2.3361
   96MPD2     C 1492   2.926   1.593  15.705 -0.0981  0.4231  0.7398
   96MPD2    C1 1493   2.962   1.493  15.623 -0.5233 -0.3154 -0.1366
   96MPD2    C2 1494   2.886   1.376  15.619 -0.2370 -0.1287  0.2638
   96MPD2    C3 1495   2.772   1.372  15.689  0.5294 -0.6707  0.8141
   96MPD2    C4 1496   2.735   1.467  15.782  0.7980  0.0460 -0.7030
   96MPD2    C5 1497   2.809   1.585  15.778 -0.5001  0.7990 -0.0559
   96MPD2     H 1498   2.904   1.292  15.553  0.4817 -0.1031  0.4289
   96MPD2    H1 1499   2.642   1.460  15.838  0.7412 -0.2510 -0.8325
   96MPD2    H2 1500   2.978   1.688  15.696 -0.8562  0.8489  0.8827
   96MPD2    H3 1501   2.780   1.665  15.846 -0.5243  0.4233  0.3771
   96MPD2     N 1502   2.667   1.277  15.672  0.6777 -0.6284 -0.0306
   96MPD2    H5 1503   2.590   1.281  15.738  0.9416  0.5869  0.2118
   96MPD2    N1 1504   3.066   1.520  15.532 -0.6794 -0.1374  0.7476
   96MPD2    H7 1505   3.114   1.608  15.550 -1.2815  0.3428  0.0084
   97TMC2    C1 1506   0.880   3.656  17.464  0.0951  0.4732 -0.0674
   97TMC2    C2 1507   0.955   3.557  17.408 -0.3684  0.0117  0.0664
   97TMC2    C3 1508   1.039   3.584  17.307  0.4305 -0.3357  0.4053
   97TMC2    C4 1509   0.880   3.782  17.413  0.1312  0.2586 -0.4464
   97TMC2    C5 1510   0.972   3.799  17.311 -0.7742 -0.5534  0.4487
   97TMC2    C6 1511   1.054   3.712  17.250 -0.2175  0.1772 -0.1772
   97TMC2     C 1512   0.815   3.616  17.590  0.1339 -0.1515 -0.5095
   97TMC2     O 1513   0.778   3.499  17.610 -0.7213 -0.2233  0.6256
   97TMC2     H 1514   0.962   3.459  17.454  0.2411  0.5549  1.1166
   97TMC2    H1 1515   0.814   3.863  17.442  0.9831  1.3272 -1.5135
   97TMC2    H2 1516   1.116   3.726  17.162  1.7434 -0.7248  1.0562
   97TMC2    C7 1517   1.002   3.941  17.299 -0.1688 -0.1095 -0.1793
   97TMC2    C8 1518   1.160   3.513  17.297  0.8278 -0.4731  0.1641
   97TMC2    O1 1519   0.987   4.011  17.398 -0.2129  0.1006 -0.3542
   97TMC2    O2 1520   1.213   3.479  17.191  0.1805  0.7540  0.4032
   97TMC2    O5 1521   1.220   3.525  17.418  0.9018  0.4460 -0.1625
   97TMC2    H5 1522   1.174   3.577  17.488  1.0023 -0.0120  0.2424
   98MPD2     C 1523   0.612   3.751   0.298 -0.1923 -0.9586 -0.3925
   98MPD2    C1 1524   0.592   3.638   0.220 -0.4207 -0.6754 -0.6658
   98MPD2    C2 1525   0.654   3.623   0.097  0.7916  0.2237 -0.2380
   98MPD2    C3 1526   0.751   3.718   0.059 -0.2691 -0.4275 -0.2520
   98MPD2    C4 1527   0.781   3.818   0.146 -0.4268  0.6168  0.5863
   98MPD2    C5 1528   0.712   3.840   0.261  0.4115 -0.2682 -0.3496
   98MPD2     H 1529   0.629   3.538   0.035  0.8216  0.0079  0.0458
   98MPD2    H1 1530   0.851   3.896   0.119 -1.1100  1.3132  0.8135
   98MPD2    H2 1531   0.569   3.774   0.395 -1.3301  2.7810 -1.7772
   98MPD2    H3 1532   0.739   3.922   0.326  0.9954  0.9770 -2.1414
   98MPD2     N 1533   0.822   3.716  17.687 -0.2789 -0.9377  0.0943
   98MPD2    H5 1534   0.884   3.795  17.670 -1.4334 -0.2706 -0.9985
   98MPD2    N1 1535   0.494   3.553   0.275 -0.5235  0.3737 -0.6703
   98MPD2    H7 1536   0.464   3.567   0.370 -0.0539 -0.2820 -0.4253
   99TMC2    C1 1537   4.191   1.106   1.532 -0.3601 -0.3026 -0.7193
   99TMC2    C2 1538   4.241   1.234   1.551 -1.0442 -0.1011  0.5829
   99TMC2    C3 1539   4.153   1.337   1.577  0.4926 -0.3926  0.3973
   99TMC2    C4 1540   4.054   1.083   1.530  0.3337  0.7967  0.5070
   99TMC2    C5 1541   3.973   1.186   1.559 -0.9789 -0.2597 -0.5684
   99TMC2    C6 1542   4.022   1.309   1.587  0.0394 -0.4972 -0.3533
   99TMC2     C 1543   4.285   1.002   1.492  0.2566  0.5593  0.3432
   99TMC2     O 1544   4.403   1.016   1.523  0.4118  0.9027 -0.2056
   99TMC2     H 1545   4.348   1.254   1.553 -0.8968 -0.6861 -2.4307
   99TMC2    H1 1546   4.007   0.987   1.515  0.7521  0.6121  0.3901
   99TMC2    H2 1547   3.953   1.388   1.612  0.3263 -0.1519 -0.6532
   99TMC2    C7 1548   3.831   1.164   1.585  0.1578 -0.0606  0.1747
   99TMC2    C8 1549   4.196   1.460   1.522  0.0767 -0.4894  0.1552
   99TMC2    O1 1550   3.772   1.246   1.654  0.3673  0.0694 -0.0122
   99TMC2    O2 1551   4.291   1.461   1.449 -0.1397 -0.3379 -0.2117
   99TMC2    O5 1552   4.166   1.540   1.624  0.6069  0.9980  0.0263
   99TMC2    H5 1553   4.119   1.496   1.698 -0.9510  2.9538  0.1786
  100MPD2     C 1554   4.424   0.769   1.370  0.2406  0.4507  0.3296
  100MPD2    C1 1555   4.298   0.815   1.334  0.3810 -0.0367  0.1848
  100MPD2    C2 1556   4.235   0.765   1.222  0.2352 -0.0373 -0.5041
  100MPD2    C3 1557   4.304   0.684   1.130 -0.1362  0.6052  1.5598
  100MPD2    C4 1558   4.434   0.653   1.165  0.0783 -0.0677 -0.1781
  100MPD2    C5 1559   4.487   0.684   1.289  0.2623  0.0466 -0.2100
  100MPD2     H 1560   4.138   0.809   1.203 -0.8199 -1.3749  1.8091
  100MPD2    H1 1561   4.499   0.601   1.096  1.1696  0.3421  0.5363
  100MPD2    H2 1562   4.466   0.789   1.468  1.3106  2.9150 -0.6271
  100MPD2    H3 1563   4.582   0.646   1.325 -0.7138 -0.8620  1.4005
  100MPD2     N 1564   4.239   0.648   1.011  0.8072  0.0494  0.7670
  100MPD2    H5 1565   4.141   0.672   1.000  0.8692  0.1490  0.4532
  100MPD2    N1 1566   4.224   0.906   1.415  0.5036  0.0602  0.2041
  100MPD2    H7 1567   4.126   0.928   1.395  0.3027  0.0132  1.1186
  101TMC2    C1 1568   4.174   1.536  13.462  0.5078  0.9584 -0.4107
  101TMC2    C2 1569   4.151   1.607  13.574 -0.4432  0.1928 -0.1561
  101TMC2    C3 1570   4.146   1.750  13.554  0.7791  0.9108 -0.1593
  101TMC2    C4 1571   4.185   1.596  13.333 -0.4724  0.6998 -0.3858
  101TMC2    C5 1572   4.174   1.732  13.318 -0.1670 -0.2173  0.0161
  101TMC2    C6 1573   4.145   1.805  13.430  0.4629  0.3064  0.5547
  101TMC2     C 1574   4.209   1.402  13.481  0.7633  0.1561 -1.0566
  101TMC2     O 1575   4.183   1.356  13.591 -0.7957 -0.2813  0.3554
  101TMC2     H 1576   4.138   1.575  13.676  1.2003 -1.8226 -0.5925
  101TMC2    H1 1577   4.209   1.539  13.244  0.3739  0.2707  0.1281
  101TMC2    H2 1578   4.136   1.913  13.418  1.9996  0.4538  0.6951
  101TMC2    C7 1579   4.169   1.797  13.180 -0.2324  1.0957 -0.2589
  101TMC2    C8 1580   4.107   1.836  13.670  0.2319  0.2624  0.6707
  101TMC2    O1 1581   4.117   1.906  13.160  0.2733  0.7896 -0.8184
  101TMC2    O2 1582   4.041   1.788  13.759 -0.3349  0.1472  0.1910
  101TMC2    O5 1583   4.193   1.944  13.672 -0.0929 -0.2762 -0.2228
  101TMC2    H5 1584   4.256   1.954  13.597 -1.1654  1.8286 -0.8532
  102MPD2     C 1585   4.395   1.175  13.264 -0.2805 -0.4042 -0.1627
  102MPD2    C1 1586   4.299   1.213  13.350 -0.2753 -0.2875 -0.6408
  102MPD2    C2 1587   4.222   1.117  13.413  0.2204  0.0292 -0.0352
  102MPD2    C3 1588   4.233   0.983  13.381  0.6225  0.8273  0.2539
  102MPD2    C4 1589   4.330   0.947  13.291 -0.1074  0.2311  1.1465
  102MPD2    C5 1590   4.406   1.043  13.233 -0.3612 -0.0064 -0.5179
  102MPD2     H 1591   4.141   1.145  13.478 -2.8332 -1.5581 -3.1900
  102MPD2    H1 1592   4.336   0.842  13.263 -2.8204 -0.5575  3.4470
  102MPD2    H2 1593   4.444   1.251  13.203 -0.4008  2.7252  3.5841
  102MPD2    H3 1594   4.483   1.021  13.160 -0.8257  1.2931 -1.4009
  102MPD2     N 1595   4.135   0.896  13.436 -0.0758 -0.1610  0.4864
  102MPD2    H5 1596   4.082   0.938  13.511 -1.0988  1.8322 -1.3448
  102MPD2    N1 1597   4.277   1.350  13.374 -0.0750  0.6104 -0.6496
  102MPD2    H7 1598   4.335   1.414  13.320  2.5949 -0.7323  0.6410
  103TMC2    C1 1599   2.609   1.251  12.746 -0.0962 -0.0099 -0.1629
  103TMC2    C2 1600   2.736   1.300  12.711 -0.1558  0.4521  0.1836
  103TMC2    C3 1601   2.805   1.355  12.809  0.3039  0.2469  0.1878
  103TMC2    C4 1602   2.569   1.233  12.874  0.3837  0.3468 -0.1368
  103TMC2    C5 1603   2.656   1.284  12.968  0.2367  0.2708  0.1429
  103TMC2    C6 1604   2.772   1.350  12.942 -0.1208 -0.1520 -0.5280
  103TMC2     C 1605   2.506   1.235  12.641 -0.3495 -0.0673  0.4880
  103TMC2     O 1606   2.390   1.218  12.675 -0.2816 -0.2752 -1.0142
  103TMC2     H 1607   2.775   1.303  12.610  1.1694 -1.9364  0.6250
  103TMC2    H1 1608   2.472   1.193  12.901  1.2377 -1.1386  0.7511
  103TMC2    H2 1609   2.834   1.395  13.019  1.4816 -1.7226 -0.9164
  103TMC2    C7 1610   2.618   1.233  13.104  0.5107  0.8600 -0.2961
  103TMC2    C8 1611   2.935   1.404  12.778  0.5548 -0.4661  0.3478
  103TMC2    O1 1612   2.518   1.165  13.125 -0.1304 -0.1043  0.0960
  103TMC2    O2 1613   3.023   1.410  12.864  0.6749  0.0756  0.3790
  103TMC2    O5 1614   2.906   1.510  12.699 -0.1373 -0.3487 -0.5956
  103TMC2    H5 1615   2.823   1.493  12.650 -1.2485  0.4986  0.9920
  104MPD2     C 1616   2.584   1.304  12.284 -0.4687 -0.1177 -0.0362
  104MPD2    C1 1617   2.499   1.283  12.392  0.2765 -0.5190  0.6408
  104MPD2    C2 1618   2.361   1.295  12.375 -0.3359  0.6140 -0.5271
  104MPD2    C3 1619   2.313   1.338  12.253  0.0960 -0.3521 -1.1294
  104MPD2    C4 1620   2.392   1.343  12.147  0.1961 -0.5782  0.0210
  104MPD2    C5 1621   2.532   1.332  12.158  0.8068  0.1626 -0.8833
  104MPD2     H 1622   2.286   1.292  12.453  1.9876 -2.2151  1.5761
  104MPD2    H1 1623   2.354   1.344  12.046 -0.3201 -1.7379  0.1949
  104MPD2    H2 1624   2.691   1.304  12.300 -0.6555 -1.2587  1.1752
  104MPD2    H3 1625   2.593   1.355  12.071  0.1407  1.6350 -0.9547
  104MPD2     N 1626   2.175   1.367  12.240  0.1798  0.4667 -0.4719
  104MPD2    H5 1627   2.122   1.377  12.326  0.3691  0.0487 -0.3066
  104MPD2    N1 1628   2.561   1.248  12.518 -0.0313 -0.5470 -0.4662
  104MPD2    H7 1629   2.661   1.234  12.512 -0.0069 -0.6696  0.2002
  105TMC2    C1 1630   0.070   0.694   0.173  0.9629 -0.0052  0.1545
  105TMC2    C2 1631   4.690   0.746   0.121  0.3375  0.1337 -0.1712
  105TMC2    C3 1632   4.604   0.794   0.220 -0.0364  0.5546 -0.6867
  105TMC2    C4 1633   0.112   0.694   0.303 -0.4778  0.1521  0.7784
  105TMC2    C5 1634   0.025   0.754   0.390 -0.0925  0.3503  0.3195
  105TMC2    C6 1635   4.638   0.806   0.351 -0.4428 -0.3296 -0.1055
  105TMC2     C 1636   0.186   0.691   0.081 -0.2997 -0.0150 -0.2049
  105TMC2     O 1637   0.281   0.616   0.103 -0.1799 -0.2416 -0.2199
  105TMC2     H 1638   4.651   0.721   0.023 -0.1550 -0.3940  0.1597
  105TMC2    H1 1639   0.203   0.643   0.332 -0.8781 -0.2330  1.3488
  105TMC2    H2 1640   4.570   0.854   0.420 -0.5862  0.8191 -1.0589
  105TMC2    C7 1641   0.088   0.786   0.515  0.3484 -0.0395 -0.1960
  105TMC2    C8 1642   4.476   0.864   0.191  0.1168  0.0092 -0.1488
  105TMC2    O1 1643   0.169   0.707   0.554  0.3011  0.6436  1.0297
  105TMC2    O2 1644   4.388   0.872   0.273  0.0087 -0.0958  0.2600
  105TMC2    O5 1645   4.506   0.970   0.113 -0.1177 -0.4329  0.2246
  105TMC2    H5 1646   4.573   0.951   0.044 -0.9664 -0.4035 -0.6087
  106MPD2     C 1647   0.358   0.724  17.347 -0.6530 -0.7257 -0.5183
  106MPD2    C1 1648   0.238   0.788  17.361 -0.1111 -0.6277 -0.3779
  106MPD2    C2 1649   0.181   0.806  17.487 -0.0651  0.4051  0.3754
  106MPD2    C3 1650   0.239   0.753  17.597  0.1733  0.7221 -0.6339
  106MPD2    C4 1651   0.356   0.680  17.588 -0.2143  0.2151 -0.2638
  106MPD2    C5 1652   0.416   0.672  17.463  0.6162  0.2219  0.2499
  106MPD2     H 1653   0.089   0.864  17.486 -0.3931 -0.1672 -3.2680
  106MPD2    H1 1654   0.406   0.627  17.668 -2.1851 -0.6217  0.4300
  106MPD2    H2 1655   0.397   0.704  17.248  1.3468  0.1014  0.1077
  106MPD2    H3 1656   0.500   0.605  17.451  0.4557 -0.0676  0.7184
  106MPD2     N 1657   0.165   0.763  17.717 -0.2712  0.3755  0.1290
  106MPD2    H5 1658   0.083   0.823  17.723 -2.7512 -3.1212  0.7117
  106MPD2    N1 1659   0.161   0.838  17.261  0.5158 -0.1324 -0.2484
  106MPD2    H7 1660   0.073   0.882  17.283  0.1551 -2.4023  2.8035
  107TMC2    C1 1661   4.570   0.832  11.527  0.1768 -0.5192  1.2477
  107TMC2    C2 1662   4.610   0.958  11.555  0.1600  0.1762  0.3716
  107TMC2    C3 1663   4.666   1.026  11.445  0.4051  0.0744 -0.1604
  107TMC2    C4 1664   4.598   0.761  11.409  0.2431 -0.0852  0.1640
  107TMC2    C5 1665   4.674   0.827  11.319 -0.9088  0.2471  0.3800
  107TMC2    C6 1666   4.699   0.963  11.326  0.0879 -0.0701  0.9073
  107TMC2     C 1667   4.503   0.769  11.642 -0.1522 -0.4851  0.2458
  107TMC2     O 1668   4.454   0.836  11.731 -0.4650 -0.1394 -0.2082
  107TMC2     H 1669   4.602   1.003  11.653 -1.2664 -2.6752  1.5547
  107TMC2    H1 1670   4.546   0.667  11.392  2.0804 -0.8163 -1.3650
  107TMC2    H2 1671   0.026   1.021  11.260  0.0039  1.4196  2.1392
  107TMC2    C7 1672   4.722   0.760  11.193  0.2818 -0.3786 -0.4852
  107TMC2    C8 1673   0.014   1.141  11.484  0.8186 -0.1555  0.1269
  107TMC2    O1 1674   0.047   0.837  11.118 -1.2075  0.2832 -0.0634
  107TMC2    O2 1675   0.138   1.132  11.473  0.1872  0.0937  0.4758
  107TMC2    O5 1676   4.697   1.209  11.584 -0.2054  0.0388 -0.2387
  107TMC2    H5 1677   4.599   1.200  11.574  0.1427 -2.4139 -1.5501
  108MPD2     C 1678   4.541   0.403  11.685 -0.1581  0.0915 -0.2066
  108MPD2    C1 1679   4.507   0.532  11.718  0.2261  0.0544 -1.2385
  108MPD2    C2 1680   4.461   0.554  11.845 -0.7456 -0.6435  0.4978
  108MPD2    C3 1681   4.437   0.452  11.931 -0.2233 -0.1927 -0.0815
  108MPD2    C4 1682   4.461   0.319  11.893  0.6256  0.2333  0.1608
  108MPD2    C5 1683   4.513   0.297  11.764 -0.4161  0.6562  0.5572
  108MPD2     H 1684   4.467   0.658  11.874 -0.8309 -0.3357 -0.5816
  108MPD2    H1 1685   4.439   0.241  11.965 -1.0075 -0.3794 -0.9991
  108MPD2    H2 1686   4.579   0.386  11.584 -0.4490  0.2756 -0.3473
  108MPD2    H3 1687   4.529   0.197  11.724  0.3121  0.4858  1.2716
  108MPD2     N 1688   4.412   0.470  12.069  0.3791  0.6562 -0.2092
  108MPD2    H5 1689   4.414   0.386  12.125  0.2312  0.2879 -0.7646
  108MPD2    N1 1690   4.532   0.635  11.624  0.4949  0.0213  0.4367
  108MPD2    H7 1691   4.588   0.615  11.542 -0.0268  1.5965 -0.3020
  109TMC2    C1 1692   0.150   2.620   1.210  0.6273  0.0586  0.2209
  109TMC2    C2 1693   0.245   2.534   1.255 -0.4872  0.5739  0.0379
  109TMC2    C3 1694   0.327   2.469   1.160  0.0730 -0.4625 -0.3837
  109TMC2    C4 1695   0.145   2.641   1.069  0.0672  0.1569 -0.2992
  109TMC2    C5 1696   0.227   2.572   0.979 -0.3416  0.5616 -0.2529
  109TMC2    C6 1697   0.319   2.485   1.028  0.0622  0.4474  0.1548
  109TMC2     C 1698   0.110   2.725   1.302  0.3915  0.1376 -0.4077
  109TMC2     O 1699   0.106   2.698   1.418 -0.1822 -0.0317 -0.4492
  109TMC2     H 1700   0.251   2.514   1.362 -0.2569 -2.4847 -0.5354
  109TMC2    H1 1701   0.074   2.707   1.020  0.8587 -0.1580 -1.8533
  109TMC2    H2 1702   0.394   2.435   0.968  1.1746 -0.1834  2.0623
  109TMC2    C7 1703   0.270   2.655   0.869  0.4488 -0.2453  0.2787
  109TMC2    C8 1704   0.408   2.360   1.208 -0.4690  0.5542  0.3865
  109TMC2    O1 1705   0.262   2.778   0.896  0.1533 -0.0008 -0.1837
  109TMC2    O2 1706   0.454   2.279   1.129  0.1316  0.0777 -0.0518
  109TMC2    O5 1707   0.476   2.408   1.315  0.1554 -0.1307 -0.1362
  109TMC2    H5 1708   0.448   2.500   1.330  2.5106  0.5752 -0.0026
  110MPD2     C 1709   0.188   3.232   1.382 -0.1215 -0.3932  0.7199
  110MPD2    C1 1710   0.189   3.202   1.247 -0.2917 -0.3351  0.4723
  110MPD2    C2 1711   0.175   3.073   1.197  0.0608  0.6288 -0.5609
  110MPD2    C3 1712   0.139   2.976   1.288 -0.8822  0.0256  0.5247
  110MPD2    C4 1713   0.123   3.010   1.428  0.8341  0.2573 -0.2628
  110MPD2    C5 1714   0.148   3.138   1.471  1.1236 -0.3425 -0.2557
  110MPD2     H 1715   0.168   3.041   1.094  3.5029  1.7124 -1.1362
  110MPD2    H1 1716   0.089   2.937   1.500 -3.0333 -0.7127 -3.0517
  110MPD2    H2 1717   0.208   3.331   1.422  1.1100 -0.3937  0.1135
  110MPD2    H3 1718   0.149   3.162   1.577  2.9931 -0.1117 -0.3257
  110MPD2     N 1719   0.118   2.849   1.238  0.1305  0.1306  0.5608
  110MPD2    H5 1720   0.142   2.842   1.140 -1.2532  1.3417  0.1328
  110MPD2    N1 1721   0.212   3.313   1.160  0.3680  0.0799  0.8954
  110MPD2    H7 1722   0.208   3.401   1.209 -0.0972  0.4585  0.1856
  111TMC2    C1 1723   0.122   2.315  11.647 -0.4496 -0.3022 -0.6828
  111TMC2    C2 1724   0.212   2.310  11.541 -0.3391  0.2272  0.6002
  111TMC2    C3 1725   0.284   2.196  11.541  0.9035 -0.1149  0.1626
  111TMC2    C4 1726   0.128   2.227  11.757 -0.3438  0.0590 -0.2670
  111TMC2    C5 1727   0.205   2.119  11.745 -0.1128  0.2091  0.5837
  111TMC2    C6 1728   0.283   2.095  11.634 -0.3391 -0.1278  0.2619
  111TMC2     C 1729   0.058   2.444  11.652  0.4446  0.1211  0.3614
  111TMC2     O 1730   0.104   2.534  11.583  0.0945 -0.6728 -0.6507
  111TMC2     H 1731   0.193   2.355  11.444 -1.6654  1.4745  1.4467
  111TMC2    H1 1732   0.071   2.248  11.847  0.7232  0.5936  0.2841
  111TMC2    H2 1733   0.320   1.993  11.628 -2.2396 -0.7129 -1.6007
  111TMC2    C7 1734   0.219   2.044  11.865 -0.3797  0.1029  0.3139
  111TMC2    C8 1735   0.375   2.189  11.427  0.5062 -0.7360  0.0765
  111TMC2    O1 1736   0.135   2.061  11.950  0.3121 -0.1263 -0.0767
  111TMC2    O2 1737   0.387   2.277  11.343  0.2152  0.2759  0.4123
  111TMC2    O5 1738   0.393   2.055  11.408  0.1629  0.2070 -0.3546
  111TMC2    H5 1739   0.362   2.000  11.484  2.7510 -0.7668 -0.0085
  112MPD2     C 1740   4.436   2.773  11.822  0.1454 -0.5270  0.4343
  112MPD2    C1 1741   4.513   2.774  11.705  0.1432  0.1697  0.3506
  112MPD2    C2 1742   4.604   2.671  11.684  0.0678 -0.2167 -0.5237
  112MPD2    C3 1743   4.603   2.558  11.768 -0.3890  0.2166 -0.4813
  112MPD2    C4 1744   4.513   2.553  11.874 -0.2423 -0.0787  0.1749
  112MPD2    C5 1745   4.430   2.655  11.893 -0.3747 -1.0560  0.0140
  112MPD2     H 1746   4.657   2.667  11.590  0.6576 -0.0669 -0.1957
  112MPD2    H1 1747   4.507   2.461  11.929 -0.9413 -0.1541 -0.0214
  112MPD2    H2 1748   4.365   2.849  11.854 -0.5041 -1.9864  2.4966
  112MPD2    H3 1749   4.357   2.648  11.973 -1.6924 -0.3022 -1.1393
  112MPD2     N 1750   4.699   2.450  11.752  0.4873 -0.3999 -0.2971
  112MPD2    H5 1751   4.676   2.363  11.799  0.6642 -0.2275  0.1067
  112MPD2    N1 1752   4.499   2.879  11.610 -0.2870  0.4607 -0.0049
  112MPD2    H7 1753   4.565   2.869  11.533 -2.0184 -0.4402 -1.3652
  113TMC2    C1 1754   3.081   0.624   0.265  0.3777 -0.2434 -0.5350
  113TMC2    C2 1755   3.022   0.722   0.191 -0.7043 -0.2103  0.7052
  113TMC2    C3 1756   2.948   0.690   0.085 -0.2717 -0.5401 -0.2117
  113TMC2    C4 1757   3.043   0.490   0.247 -0.0713 -0.8200  0.1872
  113TMC2    C5 1758   2.945   0.469   0.152 -0.4734  0.7198  0.3315
  113TMC2    C6 1759   2.900   0.565   0.069 -0.1733 -0.0229  0.0131
  113TMC2     C 1760   3.160   0.662   0.378  1.0472  1.3908 -0.3189
  113TMC2     O 1761   3.112   0.753   0.443  0.1261  0.0124  0.2871
  113TMC2     H 1762   3.040   0.828   0.205 -0.9388 -0.0505 -0.1829
  113TMC2    H1 1763   3.068   0.416   0.322 -0.8763  0.3447  1.6013
  113TMC2    H2 1764   2.820   0.538   0.001  0.6648  1.0102 -1.3951
  113TMC2    C7 1765   2.918   0.333   0.109 -0.3188  0.6836 -0.2648
  113TMC2    C8 1766   2.857   0.793   0.041  0.1845  0.1957 -0.2127
  113TMC2    O1 1767   2.880   0.325  17.739  0.6637  0.3529 -0.1789
  113TMC2    O2 1768   2.832   0.898   0.095  0.5692  0.1407 -0.6430
  113TMC2    O5 1769   2.811   0.747  17.664  0.1515  0.2497  1.1129
  113TMC2    H5 1770   2.879   0.684  17.630 -0.2999  0.1414  0.3966
  114MPD2     C 1771   3.493   0.554   0.756  0.4201  0.7101 -0.2985
  114MPD2    C1 1772   3.413   0.666   0.732 -0.2453  0.5686  0.2066
  114MPD2    C2 1773   3.340   0.676   0.616  0.1722 -0.2684  0.6290
  114MPD2    C3 1774   3.337   0.571   0.529 -0.3409 -0.2942 -0.4673
  114MPD2    C4 1775   3.403   0.454   0.558 -0.9438 -0.5261  0.5893
  114MPD2    C5 1776   3.478   0.443   0.676  0.0937 -0.6289 -0.3070
  114MPD2     H 1777   3.284   0.766   0.592  1.3550  0.1835 -0.4064
  114MPD2    H1 1778   3.397   0.369   0.490  3.3305  0.2562 -0.7280
  114MPD2    H2 1779   3.557   0.551   0.844  0.6968 -0.0725 -0.5322
  114MPD2    H3 1780   3.533   0.355   0.705 -1.9137 -1.0787  2.1375
  114MPD2     N 1781   3.259   0.569   0.411 -0.2505 -0.2467 -0.4043
  114MPD2    H5 1782   3.267   0.481   0.360  1.1851 -0.3867  0.0486
  114MPD2    N1 1783   3.409   0.771   0.832  0.3979 -0.3876 -0.0805
  114MPD2    H7 1784   3.342   0.847   0.818  0.4728  0.2187  2.8766
  115TMC2    C1 1785   4.272   3.181   0.317  0.0925 -0.2104  0.5869
  115TMC2    C2 1786   4.403   3.184   0.352  0.4376 -0.4296 -0.1033
  115TMC2    C3 1787   4.467   3.302   0.366  0.2199  0.0528 -0.7113
  115TMC2    C4 1788   4.203   3.291   0.281 -0.3987 -0.0822  0.5154
  115TMC2    C5 1789   4.269   3.410   0.295 -0.3952  0.2627 -0.0047
  115TMC2    C6 1790   4.397   3.420   0.329  0.5596  0.0290  0.1059
  115TMC2     C 1791   4.207   3.046   0.298 -0.7604  0.2434 -0.4406
  115TMC2     O 1792   4.106   3.038   0.229 -0.0542 -0.0965  0.6438
  115TMC2     H 1793   4.453   3.088   0.367  1.0621 -0.2640 -1.0854
  115TMC2    H1 1794   4.099   3.287   0.251  0.5831  1.0857 -3.0564
  115TMC2    H2 1795   4.445   3.514   0.356  2.7994 -1.6414  1.8840
  115TMC2    C7 1796   4.194   3.527   0.253 -0.0384 -0.7658  0.2666
  115TMC2    C8 1797   4.610   3.294   0.379 -0.0549  0.3453  0.0726
  115TMC2    O1 1798   4.071   3.531   0.264  0.1497 -0.0008  0.4412
  115TMC2    O2 1799   4.684   3.376   0.327  0.4400  0.6211 -0.2593
  115TMC2    O5 1800   4.637   3.227   0.490 -0.0280 -0.1867 -0.0578
  115TMC2    H5 1801   4.560   3.175   0.520  0.8020 -1.7402 -0.5969
  116MPD2     C 1802   4.168   2.552   0.411 -0.1611 -0.0523 -0.0989
  116MPD2    C1 1803   4.137   2.626   0.296 -0.3167 -0.0637  0.0512
  116MPD2    C2 1804   4.163   2.760   0.287  0.0622  0.1735  0.2261
  116MPD2    C3 1805   4.221   2.820   0.393 -0.0288  0.0773 -0.8460
  116MPD2    C4 1806   4.261   2.747   0.509  0.1695  0.6462  0.7040
  116MPD2    C5 1807   4.232   2.614   0.513 -0.4151  0.0790  0.4595
  116MPD2     H 1808   4.149   2.807   0.190  0.7390 -0.1046 -0.0146
  116MPD2    H1 1809   4.317   2.793   0.589 -0.9143  3.0437  0.1038
  116MPD2    H2 1810   4.135   2.450   0.428  1.0365 -0.6494 -1.3501
  116MPD2    H3 1811   4.266   2.555   0.597  0.4100  2.1247  1.5452
  116MPD2     N 1812   4.255   2.956   0.387 -0.4120  0.6715 -0.0340
  116MPD2    H5 1813   4.308   2.988   0.467 -0.1520  0.4150 -0.1034
  116MPD2    N1 1814   4.062   2.568   0.191 -0.4144 -0.3064 -1.0584
  116MPD2    H7 1815   4.002   2.624   0.132 -1.2047 -0.0326  0.0104
  117TMC2    C1 1816   2.333   4.387  14.138  0.0274  0.4217  1.1062
  117TMC2    C2 1817   2.456   4.329  14.113 -0.3786 -0.2396  0.1683
  117TMC2    C3 1818   2.545   4.408  14.058  0.3468 -0.5265  0.4490
  117TMC2    C4 1819   2.297   4.515  14.105  0.2674  0.1475  0.0844
  117TMC2    C5 1820   2.398   4.593  14.058  0.2656 -0.0614  0.2383
  117TMC2    C6 1821   2.518   4.540  14.033 -0.5974  0.5498  0.1057
  117TMC2     C 1822   2.221   4.294  14.166 -0.1056 -0.2343 -0.2584
  117TMC2     O 1823   2.242   4.189  14.226 -0.4346  0.0572 -0.1240
  117TMC2     H 1824   2.480   4.233  14.156 -0.3313 -1.8080 -3.3594
  117TMC2    H1 1825   2.211   4.554  14.157 -0.3546 -0.5362 -0.4284
  117TMC2    H2 1826   2.592   4.606  13.991 -0.1666  0.9119  1.4219
  117TMC2    C7 1827   2.396   4.735  14.078  0.5688  0.0840  0.1067
  117TMC2    C8 1828   2.683   4.376  14.047  0.3792  0.3066  0.6205
  117TMC2    O1 1829   2.506   0.050  14.104  0.0974  0.2187  0.3738
  117TMC2    O2 1830   2.779   4.451  14.071 -0.1303  0.3738  0.6347
  117TMC2    O5 1831   2.678   4.243  14.030  0.2030  0.5992  0.3841
  117TMC2    H5 1832   2.593   4.225  13.985  0.7597 -0.5485 -0.2124
  118MPD2     C 1833   2.106   0.229  14.023  0.4783  0.2092  0.5766
  118MPD2    C1 1834   2.237   0.193  14.040 -0.2627 -0.4076 -0.1838
  118MPD2    C2 1835   2.335   0.283  14.013  0.5912  0.5184 -0.7258
  118MPD2    C3 1836   2.302   0.411  13.975  0.1504 -0.3422  0.1587
  118MPD2    C4 1837   2.171   0.447  13.959  0.1511 -0.2783  0.3467
  118MPD2    C5 1838   2.068   0.355  13.980 -0.2379  0.7763  0.4814
  118MPD2     H 1839   2.437   0.248  14.022  0.8877  0.8412 -2.7892
  118MPD2    H1 1840   2.150   0.534  13.899 -0.8866 -1.0235 -0.3546
  118MPD2    H2 1841   2.027   0.156  14.038  0.6183 -0.2240 -0.7540
  118MPD2    H3 1842   1.967   0.392  13.968 -0.6444 -0.3395  0.5000
  118MPD2     N 1843   2.401   0.501  13.934  0.5051  0.1075 -0.0422
  118MPD2    H5 1844   2.369   0.596  13.921 -1.2219 -0.7461 -1.9470
  118MPD2    N1 1845   2.270   0.057  14.066 -0.6405 -0.3030 -0.4167
  118MPD2    H7 1846   2.187   0.000  14.074 -1.8000  1.4584  0.0958
  119TMC2    C1 1847   0.687   0.660  13.120  0.8881  0.2807  0.8372
  119TMC2    C2 1848   0.775   0.619  13.026 -0.5840  0.1961 -0.1616
  119TMC2    C3 1849   0.775   0.490  12.983 -0.6040  0.7407  0.0514
  119TMC2    C4 1850   0.583   0.579  13.152 -0.3042  0.7046 -0.4844
  119TMC2    C5 1851   0.579   0.455  13.103  0.1998  0.2386  0.0936
  119TMC2    C6 1852   0.673   0.407  13.015 -0.5578  0.2702  0.2616
  119TMC2     C 1853   0.697   0.794  13.185 -0.2742 -0.1879 -0.0119
  119TMC2     O 1854   0.594   0.826  13.249  0.3277  0.3960 -0.5250
  119TMC2     H 1855   0.855   0.686  12.995 -0.3359 -0.0223  0.0034
  119TMC2    H1 1856   0.511   0.617  13.223  1.1962 -0.3456  1.6098
  119TMC2    H2 1857   0.662   0.314  12.961 -2.4362 -0.6295  2.2023
  119TMC2    C7 1858   0.473   0.363  13.136 -0.0665  0.1344 -0.1711
  119TMC2    C8 1859   0.899   0.436  12.921  0.4209  0.3074  0.6198
  119TMC2    O1 1860   0.446   0.274  13.058  0.0980  0.1595  0.3874
  119TMC2    O2 1861   0.979   0.501  12.858 -0.1973 -0.1297 -0.2156
  119TMC2    O5 1862   0.915   0.301  12.950  0.2388 -0.1044 -0.5380
  119TMC2    H5 1863   0.852   0.270  13.018  0.0842  0.2511 -0.5186
  120MPD2     C 1864   0.933   1.209  13.369  0.7625 -0.7194  0.3757
  120MPD2    C1 1865   0.807   1.169  13.375  0.0424  0.4324  0.4978
  120MPD2    C2 1866   0.767   1.052  13.322  0.9986 -0.3183 -0.1702
  120MPD2    C3 1867   0.848   0.990  13.227 -0.0713  0.0029 -0.4244
  120MPD2    C4 1868   0.968   1.043  13.203  0.5860  0.9923  0.8994
  120MPD2    C5 1869   1.015   1.149  13.282  1.1223  0.1904  0.0449
  120MPD2     H 1870   0.673   1.001  13.342  1.1096 -0.5276 -0.1783
  120MPD2    H1 1871   1.035   0.999  13.130  0.7622  1.0200  1.0439
  120MPD2    H2 1872   0.966   1.303  13.410  1.2773 -0.8226  0.2075
  120MPD2    H3 1873   1.110   1.199  13.264  0.3010  1.6490 -0.2382
  120MPD2     N 1874   0.817   0.861  13.169 -0.5017  0.4374  0.0463
  120MPD2    H5 1875   0.887   0.825  13.105 -0.5256 -0.3439  0.4597
  120MPD2    N1 1876   0.729   1.243  13.473 -0.0232 -0.2759 -0.1879
  120MPD2    H7 1877   0.764   1.322  13.526  0.9023 -0.0596 -1.1162
  121TMC2    C1 1878   1.994   2.040  13.581 -0.0905 -0.5437  0.0254
  121TMC2    C2 1879   2.072   1.995  13.480 -0.0605 -0.4104  0.1276
  121TMC2    C3 1880   2.029   1.877  13.425  0.0671 -0.0122  0.2236
  121TMC2    C4 1881   1.885   1.964  13.625 -0.1534 -0.1475  0.1783
  121TMC2    C5 1882   1.847   1.853  13.558  0.2524 -0.3939 -0.4975
  121TMC2    C6 1883   1.916   1.808  13.452  0.4573  0.1005  0.3401
  121TMC2     C 1884   2.024   2.165  13.641 -0.0200 -0.0383  0.3572
  121TMC2     O 1885   2.005   2.176  13.764 -0.2162 -0.4587 -0.1355
  121TMC2     H 1886   2.169   2.035  13.455 -0.4256  1.5519  1.8648
  121TMC2    H1 1887   1.826   2.001  13.708  0.0257 -2.0632  1.1504
  121TMC2    H2 1888   1.878   1.730  13.387 -0.7906  0.0572  1.1302
  121TMC2    C7 1889   1.702   1.842  13.541 -0.1803  0.3879  0.0843
  121TMC2    C8 1890   2.086   1.850  13.292  0.4705  0.5801 -0.6966
  121TMC2    O1 1891   1.667   1.726  13.521  0.2211 -0.1054 -0.3499
  121TMC2    O2 1892   2.023   1.786  13.208  0.3921  0.1001 -0.2066
  121TMC2    O5 1893   2.216   1.864  13.289 -0.0868  0.6370 -0.2594
  121TMC2    H5 1894   2.261   1.860  13.376  1.0405  1.4467 -0.8008
  122MPD2     C 1895   1.985   2.451  13.692  0.1666  0.9953 -0.1381
  122MPD2    C1 1896   2.029   2.406  13.573 -0.9177  0.1039  0.0108
  122MPD2    C2 1897   2.044   2.490  13.462 -1.0442  0.4676 -0.0454
  122MPD2    C3 1898   2.015   2.627  13.474  0.3067 -0.5182 -0.4380
  122MPD2    C4 1899   1.972   2.669  13.599 -0.4073 -0.2941 -0.8494
  122MPD2    C5 1900   1.951   2.582  13.704 -0.3462 -0.1858  0.2679
  122MPD2     H 1901   2.080   2.439  13.373 -1.0695 -3.1236  1.9694
  122MPD2    H1 1902   1.937   2.771  13.615 -0.0861 -0.5565  1.5099
  122MPD2    H2 1903   1.951   2.384  13.770 -1.2910  3.2247  1.1440
  122MPD2    H3 1904   1.907   2.619  13.795 -1.8616 -0.5256 -0.3243
  122MPD2     N 1905   2.023   2.723  13.368  0.1382  0.5128 -0.7033
  122MPD2    H5 1906   2.018   2.819  13.401  0.7488 -0.4013  2.0314
  122MPD2    N1 1907   2.053   2.264  13.547  0.4473 -0.4384 -0.2691
  122MPD2    H7 1908   2.075   2.232  13.454 -0.0645 -0.5226 -0.3622
  123TMC2    C1 1909   4.578   1.325  11.101  0.2574 -0.1504  0.5970
  123TMC2    C2 1910   4.601   1.446  11.163  0.1759 -0.2010  0.3289
  123TMC2    C3 1911   4.673   1.540  11.098 -0.5086  0.1321 -0.3025
  123TMC2    C4 1912   4.640   1.295  10.981  0.5796  0.3879  0.0090
  123TMC2    C5 1913   4.699   1.404  10.915 -1.8616 -0.0273 -0.0081
  123TMC2    C6 1914   4.719   1.528  10.969 -0.1663 -0.0428 -0.9432
  123TMC2     C 1915   4.490   1.227  11.164 -0.4655  0.1780  0.5169
  123TMC2     O 1916   4.444   1.249  11.272 -0.0449  0.1868  0.4895
  123TMC2     H 1917   4.540   1.471  11.249 -1.2336 -3.2304  0.2045
  123TMC2    H1 1918   4.639   1.193  10.944  1.6494 -0.3876  2.1192
  123TMC2    H2 1919   0.037   1.610  10.923 -0.6821  0.3469 -0.8687
  123TMC2    C7 1920   0.015   1.373  10.784 -0.6820  0.3117 -0.0491
  123TMC2    C8 1921   4.645   1.678  11.141 -0.0382 -1.0423 -0.0850
  123TMC2    O1 1922   0.040   1.261  10.750 -0.0200  0.0315 -0.0684
  123TMC2    O2 1923   4.657   1.773  11.066  0.1135 -0.3291 -0.5781
  123TMC2    O5 1924   4.616   1.687  11.268 -0.6158 -0.5555 -0.0712
  123TMC2    H5 1925   4.644   1.617  11.331  1.2249  1.7463  1.6709
  124MPD2     C 1926   4.283   0.762  11.118 -0.4693  0.0614 -0.0832
  124MPD2    C1 1927   4.338   0.791  11.002 -0.0109  0.5895 -0.0147
  124MPD2    C2 1928   4.385   0.917  10.985 -0.0875  0.3047 -0.3273
  124MPD2    C3 1929   4.392   1.004  11.096 -0.0042 -0.3006 -0.2873
  124MPD2    C4 1930   4.334   0.972  11.212 -1.0933 -0.1285  0.2838
  124MPD2    C5 1931   4.272   0.847  11.220  0.5967 -1.1969 -0.1937
  124MPD2     H 1932   4.426   0.952  10.891  0.1402  1.0531  0.0544
  124MPD2    H1 1933   4.331   1.042  11.295 -0.5526 -0.9828  1.0257
  124MPD2    H2 1934   4.247   0.662  11.139 -0.8026  0.0643 -0.6266
  124MPD2    H3 1935   4.214   0.823  11.309  0.0591  1.5429  0.1929
  124MPD2     N 1936   4.450   1.133  11.075  0.0296  0.2147  0.5836
  124MPD2    H5 1937   4.474   1.153  10.978 -2.1495 -2.2376 -0.4452
  124MPD2    N1 1938   4.354   0.684  10.907  0.2579  0.4951  1.0594
  124MPD2    H7 1939   4.326   0.594  10.945  0.7210 -0.1942 -0.2570
  125TMC2    C1 1940   1.582   2.235   9.669 -1.1451 -0.1637  0.2057
  125TMC2    C2 1941   1.548   2.115   9.726 -1.5305 -0.6486  0.1157
  125TMC2    C3 1942   1.576   2.006   9.651 -0.4349  0.2301  0.4982
  125TMC2    C4 1943   1.653   2.244   9.556 -0.2617 -0.2938 -0.0168
  125TMC2    C5 1944   1.680   2.129   9.484 -0.1577 -0.4102 -0.4863
  125TMC2    C6 1945   1.626   2.008   9.521 -0.8837 -0.0046  0.3765
  125TMC2     C 1946   1.572   2.351   9.761  0.1628  0.4586 -0.6108
  125TMC2     O 1947   1.586   2.327   9.880  0.5525  0.2062 -0.2829
  125TMC2     H 1948   1.506   2.110   9.825 -1.1942  2.6348  0.4395
  125TMC2    H1 1949   1.674   2.343   9.518  1.1263 -0.4128  0.4267
  125TMC2    H2 1950   1.649   1.918   9.465 -0.7975  0.3731 -0.1867
  125TMC2    C7 1951   1.680   2.139   9.337 -0.0244  0.1917 -0.0964
  125TMC2    C8 1952   1.535   1.881   9.711 -0.0225  0.0912  0.2050
  125TMC2    O1 1953   1.649   2.040   9.268 -0.4280  0.0140 -0.8790
  125TMC2    O2 1954   1.586   1.776   9.673 -0.3261  0.1135  0.0571
  125TMC2    O5 1955   1.404   1.898   9.694  0.1920  0.0077  0.3721
  125TMC2    H5 1956   1.385   1.994   9.686  0.5964  0.3238  3.0885
  126MPD1     C 1957   1.499   2.857   9.819 -0.1203 -0.0325  0.0788
  126MPD1    C1 1958   1.503   2.831   9.688  0.1726 -1.0648 -0.4586
  126MPD1    C2 1959   1.524   2.699   9.653 -0.5215 -0.0188 -0.0517
  126MPD1    C3 1960   1.532   2.598   9.746  0.1264 -0.0248 -0.1116
  126MPD1    C4 1961   1.558   2.636   9.874  0.0261  0.3038 -0.2740
  126MPD1    C5 1962   1.528   2.763   9.909 -0.6231  0.3024  0.1010
  126MPD1     H 1963   1.544   2.668   9.551 -2.7825 -1.7687  0.0431
  126MPD1    H1 1964   1.581   2.565   9.953 -1.6914 -0.8184 -0.7798
  126MPD1    H2 1965   1.483   2.952   9.869 -2.8049 -0.3872 -0.0869
  126MPD1    H3 1966   1.537   2.786  10.014 -0.2621 -3.4038  0.8742
  126MPD1     N 1967   1.545   2.469   9.690 -0.3851  0.2055 -0.1315
  126MPD1    H5 1968   1.528   2.459   9.590 -0.5811  2.5886 -0.3477
  126MPD1    N1 1969   1.488   2.933   9.590 -0.0156 -0.2769  0.3900
  126MPD1    H6 1970   1.448   3.021   9.620 -0.2905 -0.2508 -0.0649
  126MPD1    H7 1971   1.451   2.899   9.502 -1.7338 -1.0238  1.3857
  127TMC2    C1 1972   2.320   1.914   9.611 -0.3438 -0.7256  0.0350
  127TMC2    C2 1973   2.346   1.893   9.743  0.5205  0.5074  0.3652
  127TMC2    C3 1974   2.257   1.814   9.813  0.0271 -0.1337 -0.2485
  127TMC2    C4 1975   2.209   1.867   9.545 -0.6986  0.0037  0.4063
  127TMC2    C5 1976   2.134   1.779   9.616  0.0382 -0.2093 -1.0449
  127TMC2    C6 1977   2.156   1.746   9.745  0.0510  0.3899  0.7125
  127TMC2     C 1978   2.422   1.985   9.544 -0.2491 -0.0386  0.1004
  127TMC2     O 1979   2.508   2.032   9.612 -0.5564 -0.4682 -0.1967
  127TMC2     H 1980   2.432   1.938   9.792  0.1783 -0.3433  1.7414
  127TMC2    H1 1981   2.172   1.899   9.448 -1.1628  0.0777  0.6047
  127TMC2    H2 1982   2.074   1.706   9.803 -0.6581  1.0282  0.1399
  127TMC2    C7 1983   2.014   1.732   9.551  0.0522 -0.0782  0.7796
  127TMC2    C8 1984   2.270   1.799   9.957  0.1216 -0.2734 -0.5206
  127TMC2    O1 1985   1.964   1.807   9.467  0.1325  0.2087 -0.7917
  127TMC2    O2 1986   2.350   1.872  10.011  0.1404 -0.4431 -0.2478
  127TMC2    O5 1987   2.237   1.672   9.987 -0.1152  0.1874  0.0077
  127TMC2    H5 1988   2.180   1.628   9.920 -2.0438  1.7595  0.6152
  128MPD2     C 1989   2.434   2.051   9.184 -1.0892 -0.2615  0.1364
  128MPD2    C1 1990   2.473   2.066   9.317 -0.0667  0.2882  0.0918
  128MPD2    C2 1991   2.553   2.172   9.355  0.2617 -0.2473 -0.5940
  128MPD2    C3 1992   2.600   2.260   9.252  0.0779  0.2853  0.2518
  128MPD2    C4 1993   2.567   2.234   9.121 -0.4517 -0.5486  0.2180
  128MPD2    C5 1994   2.482   2.129   9.084  0.6539 -0.0072 -0.3431
  128MPD2     H 1995   2.586   2.183   9.457 -2.3917  0.4009  0.2011
  128MPD2    H1 1996   2.602   2.299   9.042 -0.5657 -1.1281 -0.3097
  128MPD2    H2 1997   2.361   1.974   9.160  0.3873 -1.5047 -0.3564
  128MPD2    H3 1998   2.455   2.109   8.981  3.6848 -0.5436 -1.0411
  128MPD2     N 1999   2.674   2.371   9.300  0.4527 -0.2116  0.3156
  128MPD2    H5 2000   2.688   2.387   9.399  1.7885  0.6544 -0.0331
  128MPD2    N1 2001   2.414   1.974   9.406 -0.5132 -0.1494 -0.4469
  128MPD2    H7 2002   2.350   1.912   9.358 -2.0654  0.7164  0.4955
  129TMC2    C1 2003   1.140   1.648   0.706  0.1345 -0.5548 -0.1698
  129TMC2    C2 2004   1.115   1.522   0.667 -0.0839 -0.1274 -0.4298
  129TMC2    C3 2005   0.987   1.472   0.653 -0.5597  0.2602  0.1411
  129TMC2    C4 2006   1.049   1.724   0.765  0.1425 -0.2359 -0.1303
  129TMC2    C5 2007   0.921   1.674   0.755 -0.9997  0.0333 -0.1298
  129TMC2    C6 2008   0.892   1.552   0.707  0.3369 -0.1151 -0.0666
  129TMC2     C 2009   1.277   1.687   0.735  0.2774 -0.4910  0.3416
  129TMC2     O 2010   1.360   1.612   0.782  1.1135  0.0106 -0.2618
  129TMC2     H 2011   1.197   1.465   0.624  1.9325  2.4018  0.1314
  129TMC2    H1 2012   1.056   1.821   0.813  0.0129 -0.3034  0.0260
  129TMC2    H2 2013   0.786   1.535   0.691 -0.4712  2.5052  2.5327
  129TMC2    C7 2014   0.802   1.762   0.764  0.2867  0.0194  0.1729
  129TMC2    C8 2015   0.957   1.336   0.655 -0.6633  0.5781  0.6216
  129TMC2    O1 2016   0.689   1.722   0.750 -0.2561  0.2586 -0.3008
  129TMC2    O2 2017   1.033   1.251   0.703 -0.3661  0.2898 -0.0044
  129TMC2    O5 2018   0.851   1.326   0.572 -1.3312 -0.1266  0.0067
  129TMC2    H5 2019   0.824   1.412   0.534 -0.5143  0.8630  1.6596
  130MPD2     C 2020   1.529   1.841   0.749 -0.1552 -0.0809  0.1864
  130MPD2    C1 2021   1.414   1.894   0.716  0.5550  0.2805  0.6325
  130MPD2    C2 2022   1.412   2.030   0.679 -0.4992  0.0176 -0.0853
  130MPD2    C3 2023   1.518   2.109   0.700  0.3073  0.2691  0.1123
  130MPD2    C4 2024   1.637   2.048   0.747  0.6811  0.5486 -0.4611
  130MPD2    C5 2025   1.643   1.913   0.755  0.0063 -0.1195 -0.6381
  130MPD2     H 2026   1.317   2.074   0.650  0.4066  1.7465 -0.3733
  130MPD2    H1 2027   1.725   2.107   0.772  0.2539  0.5755  0.9447
  130MPD2    H2 2028   1.547   1.740   0.783  3.2877  0.1037 -1.0595
  130MPD2    H3 2029   1.736   1.866   0.787 -0.8420 -1.5970 -0.3709
  130MPD2     N 2030   1.496   2.248   0.689  0.0095  0.7700  0.0792
  130MPD2    H5 2031   1.402   2.282   0.677 -0.2899  0.1283  0.5955
  130MPD2    N1 2032   1.296   1.821   0.700  0.2441  0.2784  0.7661
  130MPD2    H7 2033   1.215   1.862   0.655  1.6336  2.4531  0.2962
  131TMC2    C1 2034   4.452   1.226  10.054 -0.1334 -0.2099  0.4757
  131TMC2    C2 2035   4.388   1.260   9.943  0.7329  0.0419 -0.1121
  131TMC2    C3 2036   4.371   1.391   9.917  0.4360 -0.4305 -0.1823
  131TMC2    C4 2037   4.504   1.324  10.136  0.0957 -0.4802 -0.3880
  131TMC2    C5 2038   4.470   1.456  10.112  0.4617  0.6069 -0.6397
  131TMC2    C6 2039   4.411   1.488   9.998 -0.0432  0.0596  0.6088
  131TMC2     C 2040   4.478   1.091  10.100 -0.0026  0.5870 -0.1226
  131TMC2     O 2041   4.538   1.076  10.205 -0.3384  0.2046  0.0539
  131TMC2     H 2042   4.344   1.189   9.874 -0.2972 -1.7371  2.3651
  131TMC2    H1 2043   4.545   1.316  10.236  0.0152 -0.3006 -0.3394
  131TMC2    H2 2044   4.384   1.592   9.983 -0.8896 -0.2882 -0.2633
  131TMC2    C7 2045   4.508   1.563  10.211  0.2908 -0.3381  0.3278
  131TMC2    C8 2046   4.316   1.430   9.789  0.5489  0.2526  1.0070
  131TMC2    O1 2047   4.502   1.529  10.328  0.2034  0.0637 -0.3055
  131TMC2    O2 2048   4.260   1.349   9.719 -0.1398  0.3830  0.2352
  131TMC2    O5 2049   4.391   1.528   9.724 -0.7716  0.5220  0.1967
  131TMC2    H5 2050   4.453   1.577   9.782  1.2328  0.0921 -1.5851
  132MPD2     C 2051   4.452   0.777   9.921 -0.2559 -0.5535 -0.4319
  132MPD2    C1 2052   4.460   0.861  10.029 -0.0994  0.2751  0.5252
  132MPD2    C2 2053   4.449   0.807  10.157  0.3200  0.8710 -1.0067
  132MPD2    C3 2054   4.429   0.668  10.174 -0.1388 -0.0390 -0.2784
  132MPD2    C4 2055   4.446   0.582  10.065  0.6273  0.4889 -0.6689
  132MPD2    C5 2056   4.449   0.640   9.939 -0.1269  0.1962  0.3122
  132MPD2     H 2057   4.435   0.871  10.243 -1.9096 -0.3590 -0.4735
  132MPD2    H1 2058   4.416   0.478  10.066  0.6967  0.4573 -1.6565
  132MPD2    H2 2059   4.443   0.825   9.824 -0.6226 -0.3073 -0.2757
  132MPD2    H3 2060   4.431   0.577   9.853 -0.6758  1.3454 -0.4086
  132MPD2     N 2061   4.427   0.617  10.307 -0.9043 -0.0799  0.2852
  132MPD2    H5 2062   4.450   0.691  10.373 -0.5238  0.4689 -0.4690
  132MPD2    N1 2063   4.465   0.994  10.002 -0.6645  0.6374 -0.6505
  132MPD2    H7 2064   4.462   1.018   9.903 -0.5229  0.7770 -0.6208
  133TMC2    C1 2065   4.303   2.789   9.608  0.2969 -0.8016 -0.2565
  133TMC2    C2 2066   4.396   2.709   9.545 -0.1233 -0.4169 -0.5438
  133TMC2    C3 2067   4.527   2.749   9.554 -0.5817 -0.4697  0.0262
  133TMC2    C4 2068   4.339   2.896   9.685 -1.0572 -0.3177  0.1597
  133TMC2    C5 2069   4.469   2.916   9.706 -0.8199  0.2174  0.3346
  133TMC2    C6 2070   4.570   2.849   9.642  0.4048  0.0235  1.0026
  133TMC2     C 2071   4.170   2.750   9.594 -0.3870 -0.5859  0.8329
  133TMC2     O 2072   4.153   2.651   9.522  0.6291 -0.5892 -0.3125
  133TMC2     H 2073   4.371   2.612   9.505 -2.2087 -0.2848  0.4951
  133TMC2    H1 2074   4.268   2.950   9.747 -0.5806  1.2835 -0.7035
  133TMC2    H2 2075   4.673   2.883   9.649 -0.0149  1.6273 -0.6135
  133TMC2    C7 2076   4.509   3.031   9.789 -0.1215  0.2063  0.3444
  133TMC2    C8 2077   4.631   2.667   9.490  0.0319  0.0143 -0.6020
  133TMC2    O1 2078   4.422   3.121   9.808 -0.4496  0.2037 -0.2524
  133TMC2    O2 2079   4.701   2.606   9.570 -0.0873 -0.2421  0.3870
  133TMC2    O5 2080   4.572   2.622   9.379  0.1114 -0.3928  0.0879
  133TMC2    H5 2081   4.521   2.692   9.334 -0.5747  0.0529  1.5713
  134MPD2     C 2082   3.856   2.954   9.625 -0.2724 -0.6997 -0.5036
  134MPD2    C1 2083   3.936   2.840   9.610 -0.3794  0.0018  0.2352
  134MPD2    C2 2084   3.878   2.717   9.569  0.2920  0.2567  0.8539
  134MPD2    C3 2085   3.743   2.722   9.526 -0.1986  0.2419 -0.5783
  134MPD2    C4 2086   3.668   2.839   9.543  0.7245 -0.0185  0.1552
  134MPD2    C5 2087   3.721   2.944   9.609 -0.1306  0.6873 -0.1897
  134MPD2     H 2088   3.933   2.626   9.550  0.6637  0.4918  0.7899
  134MPD2    H1 2089   3.562   2.849   9.526  0.7359  1.3008  0.8788
  134MPD2    H2 2090   3.903   3.049   9.648 -2.5326  0.4671 -0.7752
  134MPD2    H3 2091   3.656   3.030   9.622 -0.3919  0.8082 -2.3872
  134MPD2     N 2092   3.674   2.603   9.482 -0.2501  0.4431  0.1739
  134MPD2    H5 2093   3.577   2.610   9.455  0.4858 -1.9343 -3.1167
  134MPD2    N1 2094   4.080   2.855   9.628  0.7159 -1.3486 -0.7459
  134MPD2    H7 2095   4.112   2.947   9.656  0.4679 -0.9981 -1.6085
  135TMC2    C1 2096   1.422   4.098   9.942 -0.3383  0.5649  0.8276
  135TMC2    C2 2097   1.293   4.128   9.920  0.1944 -0.8551  0.3883
  135TMC2    C3 2098   1.199   4.025   9.907  0.0496 -0.0932 -0.1971
  135TMC2    C4 2099   1.465   3.966   9.935  0.1685 -0.3112  0.4509
  135TMC2    C5 2100   1.366   3.874   9.912 -0.0414 -0.0003  0.2705
  135TMC2    C6 2101   1.236   3.895   9.908  0.6035  0.0406  0.2393
  135TMC2     C 2102   1.514   4.208   9.925  0.2140  0.3351  0.1904
  135TMC2     O 2103   1.468   4.319   9.930  0.2825 -0.0988  0.1004
  135TMC2     H 2104   1.257   4.230   9.928  0.7431 -0.8406  2.6109
  135TMC2    H1 2105   1.568   3.933   9.937  0.1225 -0.5548 -1.1275
  135TMC2    H2 2106   1.165   3.821   9.874  1.1769 -1.1283  1.6408
  135TMC2    C7 2107   1.403   3.734   9.890  0.5678 -0.1697  1.0017
  135TMC2    C8 2108   1.053   4.057   9.922  0.4455 -0.3095 -0.5039
  135TMC2    O1 2109   1.508   3.713   9.829 -0.6854  0.1053  0.2510
  135TMC2    O2 2110   0.969   3.970   9.912  0.4508 -0.0438 -0.1126
  135TMC2    O5 2111   1.037   4.165  10.004  0.1957 -0.0167  0.1263
  135TMC2    H5 2112   1.110   4.226  10.025 -1.4537  1.6990  0.9053
  136MPD2     C 2113   1.757   4.378   9.934 -0.8190 -0.5818  0.1410
  136MPD2    C1 2114   1.757   4.247   9.892 -0.4890 -0.5843  0.1568
  136MPD2    C2 2115   1.871   4.192   9.841 -0.1220  0.1909 -0.4310
  136MPD2    C3 2116   1.985   4.272   9.824 -0.4878  0.9606 -0.0985
  136MPD2    C4 2117   1.982   4.400   9.865 -0.7125 -0.4829  0.1067
  136MPD2    C5 2118   1.873   4.447   9.939 -0.6640 -0.6097 -0.0758
  136MPD2     H 2119   1.869   4.087   9.812 -2.2593 -0.2490  1.3053
  136MPD2    H1 2120   2.058   4.476   9.853 -3.0016  1.9847  1.2783
  136MPD2    H2 2121   1.666   4.426   9.968 -1.6560 -1.1293 -1.3101
  136MPD2    H3 2122   1.884   4.548   9.974  0.9997 -0.4934 -0.9296
  136MPD2     N 2123   2.110   4.227   9.765 -0.3388  0.2335 -0.5143
  136MPD2    H5 2124   2.179   4.301   9.753  0.6415 -0.4909  0.6949
  136MPD2    N1 2125   1.643   4.162   9.900 -0.9023  0.6557 -0.0524
  136MPD2    H7 2126   1.658   4.064   9.877 -0.9335  1.0485 -1.7462
  137TMC2    C1 2127   1.132   2.207   9.500  0.1589 -0.3378  0.9551
  137TMC2    C2 2128   1.250   2.268   9.466 -0.5558  0.0980 -0.2922
  137TMC2    C3 2129   1.249   2.374   9.376 -0.4469 -0.5293 -0.2938
  137TMC2    C4 2130   1.016   2.252   9.451  0.0253 -0.3701  0.0647
  137TMC2    C5 2131   1.016   2.370   9.379  0.9328  0.1189 -0.7281
  137TMC2    C6 2132   1.130   2.427   9.333  0.8895 -0.3992  0.3264
  137TMC2     C 2133   1.150   2.117   9.619  0.1407 -0.0153  0.1391
  137TMC2     O 2134   1.257   2.106   9.674 -0.1812 -0.8809 -0.0058
  137TMC2     H 2135   1.348   2.244   9.506 -0.6616 -0.8220 -0.5879
  137TMC2    H1 2136   0.929   2.200   9.487  0.6058 -1.8220 -0.6213
  137TMC2    H2 2137   1.132   2.527   9.289 -1.8447 -0.2737  0.4929
  137TMC2    C7 2138   0.897   2.446   9.359  0.4861  0.3221 -0.0084
  137TMC2    C8 2139   1.366   2.458   9.348 -0.2558  0.3914  0.0144
  137TMC2    O1 2140   0.910   2.551   9.299 -0.0352  0.0221 -0.0902
  137TMC2    O2 2141   1.474   2.467   9.411  0.2722  0.2714 -0.2965
  137TMC2    O5 2142   1.354   2.494   9.214 -0.0812  0.0318  0.7753
  137TMC2    H5 2143   1.276   2.471   9.160  0.6831  1.1467 -0.8127
  138MPD2     C 2144   0.897   1.876   9.752 -0.4189 -0.3920 -0.1434
  138MPD2    C1 2145   1.010   1.958   9.757  0.6406  0.1603  0.0227
  138MPD2    C2 2146   1.086   1.965   9.873  0.3957  0.1851  0.3503
  138MPD2    C3 2147   1.059   1.868   9.975 -0.5916  0.7221 -0.0057
  138MPD2    C4 2148   0.947   1.789   9.963  0.1499 -0.1408 -0.3554
  138MPD2    C5 2149   0.864   1.803   9.857  0.4886  0.4966  0.0733
  138MPD2     H 2150   1.175   2.027   9.874  1.2639 -1.0158 -1.4298
  138MPD2    H1 2151   0.927   1.720  10.044  1.5635 -0.7154 -0.4812
  138MPD2    H2 2152   0.836   1.892   9.663 -2.4225 -1.0852  1.1047
  138MPD2    H3 2153   0.776   1.740   9.865  1.0795 -0.2881  0.2991
  138MPD2     N 2154   1.134   1.863  10.092 -0.3361 -0.0838  0.3067
  138MPD2    H5 2155   1.103   1.800  10.165  2.9098 -0.4686  1.3500
  138MPD2    N1 2156   1.034   2.040   9.645  0.1241 -0.6282  0.2336
  138MPD2    H7 2157   0.963   2.041   9.572  1.4271  0.8480 -1.0245
  139TMC2    C1 2158   2.019   0.535  13.559  0.4452  0.3050  0.4005
  139TMC2    C2 2159   2.124   0.617  13.539 -0.3306 -0.3770 -0.2900
  139TMC2    C3 2160   2.090   0.744  13.525 -0.3783 -0.0394  0.3276
  139TMC2    C4 2161   1.895   0.578  13.567  0.3102 -0.0855 -0.1207
  139TMC2    C5 2162   1.869   0.710  13.558 -0.2591  0.5763 -0.0294
  139TMC2    C6 2163   1.964   0.792  13.527  0.2712  0.8027  0.2314
  139TMC2     C 2164   2.037   0.396  13.594  0.0749 -0.1934 -0.7227
  139TMC2     O 2165   1.934   0.336  13.631  0.4303 -0.0057 -0.1913
  139TMC2     H 2166   2.222   0.581  13.571 -0.3962  0.1809  0.5443
  139TMC2    H1 2167   1.814   0.506  13.570 -2.0968  2.6646  0.9090
  139TMC2    H2 2168   1.940   0.898  13.527  3.6896  1.5835  0.1282
  139TMC2    C7 2169   1.737   0.769  13.602 -0.3223 -0.0842  0.0661
  139TMC2    C8 2170   2.170   0.861  13.524  0.0415  0.2380  0.1466
  139TMC2    O1 2171   1.716   0.886  13.568 -0.5676  0.8768  0.4834
  139TMC2    O2 2172   2.133   0.950  13.598 -0.3230  0.5482  0.8529
  139TMC2    O5 2173   2.288   0.831  13.476  0.2847  0.2191  0.1888
  139TMC2    H5 2174   2.271   0.786  13.391  0.4540  0.0794  0.2308
  140MPD2     C 2175   2.140   0.140  13.703  1.0533 -0.4439  0.4869
  140MPD2    C1 2176   2.218   0.224  13.626  0.8285  0.7176  0.5611
  140MPD2    C2 2177   2.353   0.185  13.598 -0.2053  0.6939 -0.1381
  140MPD2    C3 2178   2.399   0.064  13.653  0.3221  0.3869 -0.5280
  140MPD2    C4 2179   2.316   4.723  13.729  0.3885 -0.1454  0.0134
  140MPD2    C5 2180   2.188   0.027  13.761 -0.9067 -0.3274  0.4719
  140MPD2     H 2181   2.405   0.239  13.520  0.1323 -3.1011 -2.5538
  140MPD2    H1 2182   2.348   4.624  13.760 -1.0938 -2.1524 -4.9539
  140MPD2    H2 2183   2.033   0.154  13.716  0.9216  0.4591 -1.6112
  140MPD2    H3 2184   2.121   4.704  13.821  0.5303 -1.2015  1.2006
  140MPD2     N 2185   2.518   0.004  13.597 -0.1002  0.7973  0.2943
  140MPD2    H5 2186   2.550   0.054  13.514 -1.0545 -0.4142 -0.8052
  140MPD2    N1 2187   2.171   0.348  13.580  0.7885 -0.5131 -0.4313
  140MPD2    H7 2188   2.241   0.414  13.547 -0.9777  1.5262 -0.0991
  141TMC2    C1 2189   2.672   1.397  14.562 -0.8962  0.2454  0.1433
  141TMC2    C2 2190   2.635   1.449  14.685  0.4349  0.9971  0.3310
  141TMC2    C3 2191   2.688   1.565  14.721  0.5780  0.3658 -0.5110
  141TMC2    C4 2192   2.774   1.460  14.491 -0.9927 -0.1787  0.2298
  141TMC2    C5 2193   2.829   1.573  14.532 -0.1934 -0.4611  0.2120
  141TMC2    C6 2194   2.785   1.632  14.643 -0.5780  0.4651  0.4835
  141TMC2     C 2195   2.580   1.316  14.476 -0.2448  0.6085  0.6172
  141TMC2     O 2196   2.592   1.335  14.358 -0.0897 -0.5268 -0.3173
  141TMC2     H 2197   2.556   1.403  14.744  0.7610 -0.0009  0.0020
  141TMC2    H1 2198   2.791   1.426  14.390  0.4660  0.1432  0.3681
  141TMC2    H2 2199   2.808   1.736  14.664 -0.8009 -0.1025  3.5828
  141TMC2    C7 2200   2.869   1.659  14.427  0.5876 -0.5114  0.6222
  141TMC2    C8 2201   2.636   1.634  14.844 -0.1921 -0.3267  0.0607
  141TMC2    O1 2202   2.803   1.649  14.319 -0.1291 -0.7461  0.1014
  141TMC2    O2 2203   2.604   1.751  14.847 -0.5401  0.1668 -0.3932
  141TMC2    O5 2204   2.605   1.537  14.933 -0.7586 -0.0818  0.4793
  141TMC2    H5 2205   2.660   1.457  14.921 -1.2521 -0.6183  1.7729
  142TMC2    C1 2206   0.075   0.854  10.110  0.2193  0.5739  0.5377
  142TMC2    C2 2207   0.064   0.878   9.976  0.4782 -0.0893 -0.7598
  142TMC2    C3 2208   0.064   1.012   9.944 -0.0469  0.4504  0.0333
  142TMC2    C4 2209   0.112   0.940  10.204  0.6356  0.3111  0.1360
  142TMC2    C5 2210   0.100   1.068  10.172  0.1967  0.8101  0.3199
  142TMC2    C6 2211   0.072   1.110  10.044 -0.2457  0.2955 -0.3839
  142TMC2     C 2212   0.062   0.711  10.144  0.3980 -0.2661 -0.2350
  142TMC2     O 2213   0.062   0.631  10.047  0.4910 -0.2602  0.1837
  142TMC2     H 2214   0.042   0.794   9.910  0.2741  0.3995 -1.3185
  142TMC2    H1 2215   0.131   0.900  10.303 -0.0410  2.0542  0.9655
  142TMC2    H2 2216   0.065   1.216  10.021  0.4897  0.4767  0.2585
  142TMC2    C7 2217   0.086   1.163  10.279 -0.6782  0.2513  0.3196
  142TMC2    C8 2218   0.037   1.057   9.803  0.6818  0.8591 -0.4626
  142TMC2    O1 2219   0.058   1.106  10.386  0.3593 -0.0831  0.1771
  142TMC2    O2 2220   0.014   1.172   9.779  0.0677 -0.1160 -0.2335
  142TMC2    O5 2221   0.072   0.966   9.710 -0.4347 -0.1458  0.2744
  142TMC2    H5 2222   0.098   0.881   9.752  2.3237  0.7119  0.3473
  143MPD2     C 2223   0.104   0.344  10.501 -0.2993  0.5656  0.1755
  143MPD2    C1 2224   0.140   0.343  10.367 -0.9867 -0.7563  0.8732
  143MPD2    C2 2225   0.107   0.454  10.287 -0.1105  0.4927  0.2069
  143MPD2    C3 2226   0.054   0.566  10.344 -0.6042 -0.2222  0.4196
  143MPD2    C4 2227   0.024   0.566  10.477  0.0672 -0.1135 -0.2806
  143MPD2    C5 2228   0.047   0.459  10.556  0.3487  0.1143 -0.4887
  143MPD2     H 2229   0.142   0.457  10.184 -0.5587  0.0216  0.0437
  143MPD2    H1 2230   4.715   0.645  10.536  0.2410  1.5902 -2.4166
  143MPD2    H2 2231   0.125   0.267  10.575 -0.8138 -0.5612 -0.8530
  143MPD2    H3 2232   0.024   0.465  10.662  0.6230 -1.4642 -0.3290
  143MPD2     N 2233   0.037   0.689  10.275  0.2394 -0.1157 -0.0538
  143MPD2    H5 2234   0.032   0.774  10.328 -0.1454  0.3861 -0.8931
  143MPD2    N1 2235   0.196   0.223  10.321  0.8636 -0.2508 -0.2057
  143MPD2    H7 2236   0.225   0.156  10.392 -0.4328  0.0519  0.5963
  144TMC2    C1 2237   3.887   4.291   0.682 -0.2848 -0.3777  0.1902
  144TMC2    C2 2238   3.978   4.185   0.691 -0.0279  0.5860  0.2090
  144TMC2    C3 2239   4.108   4.199   0.740 -0.6692  0.1020 -0.0768
  144TMC2    C4 2240   3.925   4.412   0.729  0.1940 -0.2070  0.3033
  144TMC2    C5 2241   4.050   4.426   0.787  0.0933  0.6733  0.0693
  144TMC2    C6 2242   4.138   4.316   0.802  0.1261  0.2261 -0.2026
  144TMC2     C 2243   3.799   4.277   0.564  0.3565 -0.0343 -0.3272
  144TMC2     O 2244   3.813   4.190   0.482 -0.2846 -0.0239 -0.0456
  144TMC2     H 2245   3.966   4.091   0.637 -3.0585 -0.4324  2.6250
  144TMC2    H1 2246   3.870   4.501   0.701  1.2129  0.7360  1.3445
  144TMC2    H2 2247   4.233   4.324   0.855 -1.1658  0.2318  2.0940
  144TMC2    C7 2248   4.083   4.546   0.862 -0.3963  0.2118 -1.1054
  144TMC2    C8 2249   4.194   4.087   0.734  0.6911 -0.5403  0.0265
  144TMC2    O1 2250   4.196   4.551   0.908 -0.0566  0.1778  0.0018
  144TMC2    O2 2251   4.156   3.968   0.745 -0.6575 -0.7461  0.3233
  144TMC2    O5 2252   4.318   4.127   0.719  0.6983 -0.2101 -0.0279
  144TMC2    H5 2253   4.339   4.222   0.705  0.2057 -0.0693  0.1671
  145MPD2     C 2254   3.434   4.458   0.239  0.6277  0.2395  0.0718
  145MPD2    C1 2255   3.492   4.337   0.257  0.0957 -0.8569  0.0668
  145MPD2    C2 2256   3.581   4.316   0.356  0.3670  0.1160  0.1497
  145MPD2    C3 2257   3.622   4.409   0.454 -0.2039  0.2498  0.3524
  145MPD2    C4 2258   3.561   4.529   0.437 -0.4136  0.1756  0.6821
  145MPD2    C5 2259   3.478   4.555   0.327  0.0413  0.1111  0.5137
  145MPD2     H 2260   3.629   4.218   0.356 -1.4076 -0.7557 -1.7868
  145MPD2    H1 2261   3.587   4.616   0.496 -0.5373  1.0188 -0.5007
  145MPD2    H2 2262   3.367   4.482   0.158  0.3094 -0.9070 -0.0058
  145MPD2    H3 2263   3.439   4.656   0.320 -0.9852 -0.4120 -1.5028
  145MPD2     N 2264   3.712   4.382   0.556 -0.9458 -0.0380  0.9187
  145MPD2    H5 2265   3.729   4.455   0.625  3.0448  1.3034 -1.4639
  145MPD2    N1 2266   3.458   4.233   0.171  0.0340 -0.7953 -0.4834
  145MPD2    H7 2267   3.508   4.145   0.174 -1.2050 -1.4524  0.8166
  146TMC2    C1 2268   3.917   2.910  12.672 -0.9177  0.0741  0.2965
  146TMC2    C2 2269   3.921   2.947  12.541 -0.7818  0.8110 -0.2741
  146TMC2    C3 2270   3.913   2.848  12.444  0.0572  0.8410  0.7126
  146TMC2    C4 2271   3.892   2.782  12.709 -0.3427 -0.1035  0.7435
  146TMC2    C5 2272   3.870   2.691  12.604  0.8039 -0.3623  0.0464
  146TMC2    C6 2273   3.877   2.721  12.472 -0.2092 -0.0998 -0.3632
  146TMC2     C 2274   3.963   3.007  12.767 -0.0205  0.3672 -0.1215
  146TMC2     O 2275   3.952   3.124  12.734  0.2537 -0.2700  0.4705
  146TMC2     H 2276   3.981   3.033  12.514  0.9821 -0.8993 -1.7795
  146TMC2    H1 2277   3.886   2.757  12.814  0.7725  1.3238  1.1550
  146TMC2    H2 2278   3.888   2.633  12.410  2.9574 -0.4946  0.7515
  146TMC2    C7 2279   3.857   2.552  12.636  0.9751  0.4588 -1.1264
  146TMC2    C8 2280   3.948   2.889  12.313 -0.1169  0.1383 -0.4906
  146TMC2    O1 2281   3.777   2.487  12.574 -0.9678 -0.3060 -0.1528
  146TMC2    O2 2282   3.960   3.003  12.280 -0.0600  0.3221 -0.5688
  146TMC2    O5 2283   4.039   2.794  12.273  0.0939  0.2547 -0.1547
  146TMC2    H5 2284   4.051   2.732  12.347 -0.8150  1.6897  1.1898
  147MPD2     C 2285   3.953   2.140  12.949 -0.5672  0.5246  0.3280
  147MPD2    C1 2286   4.060   2.228  12.956 -0.0615 -0.4361  0.6350
  147MPD2    C2 2287   4.044   2.356  12.898 -0.0419  0.2363 -0.6023
  147MPD2    C3 2288   3.934   2.389  12.815 -0.0140  0.2970 -0.3169
  147MPD2    C4 2289   3.844   2.285  12.794  0.6088 -0.4036 -0.7836
  147MPD2    C5 2290   3.843   2.173  12.876  0.1682  0.2492  0.2318
  147MPD2     H 2291   4.116   2.435  12.921  0.7800 -0.8260  0.4912
  147MPD2    H1 2292   3.755   2.296  12.732  0.3866 -1.5275 -0.6709
  147MPD2    H2 2293   3.944   2.046  13.002  1.9276 -0.5388 -1.1324
  147MPD2    H3 2294   3.762   2.102  12.865  2.6474 -2.9880  2.7815
  147MPD2     N 2295   3.926   2.519  12.748 -0.1831  0.2351 -0.5524
  147MPD2    H5 2296   3.990   2.589  12.786  1.9402 -1.0927 -1.6851
  147MPD2    N1 2297   4.175   2.189  13.026 -0.3557 -0.3976 -0.2226
  147MPD2    H7 2298   4.169   2.097  13.068  1.1718 -0.7375 -0.7375
  148TMC2    C1 2299   4.043   2.075  10.337  0.7843 -0.1440 -0.0160
  148TMC2    C2 2300   4.035   2.182  10.419 -0.8085  0.0853  0.2672
  148TMC2    C3 2301   4.115   2.177  10.528  0.6124  0.8838 -0.0711
  148TMC2    C4 2302   4.135   1.979  10.347 -0.4292  0.3301  0.6088
  148TMC2    C5 2303   4.215   1.976  10.463 -0.3629  0.1041  0.2236
  148TMC2    C6 2304   4.203   2.081  10.555  0.5799 -0.0185 -0.3487
  148TMC2     C 2305   3.938   2.065  10.239 -0.0601  0.0449  0.1838
  148TMC2     O 2306   3.893   2.171  10.198  0.3757  0.3878 -0.2998
  148TMC2     H 2307   3.952   2.250  10.403 -1.6757 -0.7085  1.3699
  148TMC2    H1 2308   4.165   1.911  10.269 -0.2527  1.7897 -0.5973
  148TMC2    H2 2309   4.250   2.089  10.652 -2.4398 -0.6403  1.1388
  148TMC2    C7 2310   4.283   1.852  10.498 -0.0325  0.3064  0.1596
  148TMC2    C8 2311   4.119   2.297  10.614 -0.3306 -0.1140  0.7776
  148TMC2    O1 2312   4.272   1.759  10.417 -0.2395  0.5665 -0.2662
  148TMC2    O2 2313   4.037   2.378  10.593  0.5455 -0.5446 -0.1086
  148TMC2    O5 2314   4.250   2.317  10.661 -0.3427  0.4120  0.1510
  148TMC2    H5 2315   4.315   2.244  10.646  0.9692  1.8594 -1.2022
  149MPD2     C 2316   3.695   1.967  10.073 -0.7080 -0.2863  0.1142
  149MPD2    C1 2317   3.785   1.889  10.135 -0.8595  0.1474  0.3735
  149MPD2    C2 2318   3.782   1.752  10.120 -0.3830 -0.0026  0.8944
  149MPD2    C3 2319   3.682   1.701  10.047 -0.8772 -0.6019 -0.9028
  149MPD2    C4 2320   3.593   1.778   9.972  0.0482 -0.3299  0.2632
  149MPD2    C5 2321   3.603   1.915   9.987  0.1193  0.2126 -0.2276
  149MPD2     H 2322   3.857   1.689  10.167 -1.4930 -0.7922  1.5940
  149MPD2    H1 2323   3.509   1.730   9.923  0.6386  0.1940 -1.2548
  149MPD2    H2 2324   3.697   2.074  10.088  5.5638 -0.3520 -0.4985
  149MPD2    H3 2325   3.522   1.971   9.942  0.4720  1.3974  0.6073
  149MPD2     N 2326   3.650   1.561  10.049  0.5612 -0.0903  0.0163
  149MPD2    H5 2327   3.600   1.524   9.969 -0.9842 -2.2669  1.9868
  149MPD2    N1 2328   3.897   1.931  10.213  0.2133 -0.1739 -0.1498
  149MPD2    H7 2329   3.953   1.855  10.253  0.6673  0.1716 -0.1242
  150TMC2    C1 2330   1.594   0.950  12.296  0.0191 -0.1627 -0.0342
  150TMC2    C2 2331   1.557   1.043  12.204  0.0802  0.3157  0.5131
  150TMC2    C3 2332   1.654   1.110  12.140 -0.9575  0.3144  0.0590
  150TMC2    C4 2333   1.724   0.924  12.336 -0.5020  0.0431 -0.2031
  150TMC2    C5 2334   1.818   1.001  12.274  0.0848  0.8970 -0.0833
  150TMC2    C6 2335   1.789   1.086  12.170  0.1958  0.2054 -0.6731
  150TMC2     C 2336   1.500   0.843  12.333 -0.1281  0.6836 -0.4958
  150TMC2     O 2337   1.516   0.787  12.440  0.3665 -0.0987 -0.3561
  150TMC2     H 2338   1.453   1.060  12.177  0.7299  2.4675 -0.6177
  150TMC2    H1 2339   1.746   0.833  12.390  2.4046  0.6691 -0.3313
  150TMC2    H2 2340   1.867   1.146  12.124  1.1752 -0.1383  0.5470
  150TMC2    C7 2341   1.951   0.945  12.272 -0.2825 -0.0438  0.3772
  150TMC2    C8 2342   1.630   1.236  12.082  0.7149 -0.2864 -0.2666
  150TMC2    O1 2343   2.030   0.980  12.181  0.0596 -0.3165 -0.1630
  150TMC2    O2 2344   1.714   1.324  12.074 -0.3969  0.6219  0.2862
  150TMC2    O5 2345   1.504   1.244  12.037 -0.5419  0.5570  0.2072
  150TMC2    H5 2346   1.474   1.156  12.006  2.7866 -0.1777 -0.9104
  151MPD2     C 2347   1.058   0.584  12.255  0.0595 -0.3401  0.1049
  151MPD2    C1 2348   1.089   0.656  12.145  0.4895 -0.5600  0.4118
  151MPD2    C2 2349   1.203   0.735  12.150  0.8070 -0.4056  0.2244
  151MPD2    C3 2350   1.295   0.743  12.252  0.4816  0.2577 -0.2348
  151MPD2    C4 2351   1.260   0.672  12.370  0.1600 -0.2632 -0.3175
  151MPD2    C5 2352   1.140   0.603  12.370 -0.2204  0.3063  0.1373
  151MPD2     H 2353   1.233   0.790  12.061  0.0751  1.9286  1.4312
  151MPD2    H1 2354   1.322   0.671  12.459 -0.1753  0.9648 -0.0662
  151MPD2    H2 2355   0.962   0.534  12.264 -0.5390  0.6744 -0.5275
  151MPD2    H3 2356   1.109   0.543  12.454 -0.1972 -2.4286 -1.8087
  151MPD2     N 2357   1.412   0.824  12.232  0.3653 -0.3472  0.1790
  151MPD2    H5 2358   1.419   0.886  12.152 -1.2723  0.3156  0.5329
  151MPD2    N1 2359   1.000   0.644  12.034 -0.7389  1.0959 -0.2175
  151MPD2    H7 2360   0.924   0.578  12.044  0.2586 -0.1165 -0.7147
  152TMC2    C1 2361   1.463   0.394  12.707  0.4302 -0.0409  0.0209
  152TMC2    C2 2362   1.558   0.298  12.676  0.1065 -0.3573  0.3354
  152TMC2    C3 2363   1.688   0.334  12.676  0.4266  0.0600  0.4792
  152TMC2    C4 2364   1.501   0.524  12.727  0.4065  0.0943  0.4676
  152TMC2    C5 2365   1.630   0.554  12.726 -0.7455 -0.1722  0.0508
  152TMC2    C6 2366   1.728   0.461  12.707  0.4194 -0.1868 -0.1829
  152TMC2     C 2367   1.326   0.376  12.665 -0.0768  0.4392 -0.2508
  152TMC2     O 2368   1.265   0.479  12.629  0.4431  0.2910 -0.1478
  152TMC2     H 2369   1.527   0.198  12.649  0.4192 -0.2818 -0.3134
  152TMC2    H1 2370   1.424   0.598  12.748  1.9051  1.5385  0.8826
  152TMC2    H2 2371   1.834   0.481  12.713  0.6721 -2.0407  1.3582
  152TMC2    C7 2372   1.669   0.695  12.746  0.2567  0.3871 -0.3182
  152TMC2    C8 2373   1.800   0.235  12.678 -0.1891 -0.7055  0.3660
  152TMC2    O1 2374   1.584   0.773  12.770  0.3460  0.1630  0.1694
  152TMC2    O2 2375   1.912   0.256  12.635 -0.1566  0.0396  0.6643
  152TMC2    O5 2376   1.746   0.117  12.723 -0.2456  0.2581  0.4671
  152TMC2    H5 2377   1.660   0.132  12.767 -0.0276  0.4081  0.8366
  153MPD2     C 2378   1.127   0.085  12.758 -0.1089 -0.4246  0.0019
  153MPD2    C1 2379   1.149   0.213  12.706  0.1698 -0.0752 -0.5997
  153MPD2    C2 2380   1.046   0.285  12.640 -0.1447  0.0755  0.1820
  153MPD2    C3 2381   0.915   0.229  12.653 -0.0053 -0.5512 -0.1751
  153MPD2    C4 2382   0.899   0.101  12.699 -0.0879 -0.2404  0.4045
  153MPD2    C5 2383   1.003   0.032  12.753  0.9615  0.2720 -0.3268
  153MPD2     H 2384   1.061   0.376  12.584 -0.8317 -0.4276 -0.8034
  153MPD2    H1 2385   0.802   0.053  12.711 -0.6422  0.6217 -0.6532
  153MPD2    H2 2386   1.201   0.022  12.805  0.1495 -0.7830 -0.8714
  153MPD2    H3 2387   0.983   4.670  12.791 -2.8055  1.2234  0.2108
  153MPD2     N 2388   0.811   0.303  12.588 -0.1923 -0.3771 -0.3857
  153MPD2    H5 2389   0.836   0.394  12.552  0.6381 -0.6413 -0.4921
  153MPD2    N1 2390   1.283   0.259  12.709  0.1334  0.2292  0.1770
  153MPD2    H7 2391   1.351   0.205  12.762 -0.7656  2.0651  3.2086
  154TMC2    C1 2392   3.593   0.705   0.165 -0.1445  0.7980  0.5824
  154TMC2    C2 2393   3.680   0.718   0.272  0.3133 -0.4520 -0.3994
  154TMC2    C3 2394   3.808   0.661   0.259  0.1760 -0.5744  0.6683
  154TMC2    C4 2395   3.624   0.626   0.053  0.1605  0.3494  0.4304
  154TMC2    C5 2396   3.747   0.564   0.043  0.0366  0.0015 -0.3334
  154TMC2    C6 2397   3.836   0.589   0.144 -0.1363 -0.2168  0.1399
  154TMC2     C 2398   3.476   0.796   0.160 -0.0239  0.0802 -0.2773
  154TMC2     O 2399   3.456   0.864   0.258 -0.7394 -0.3587 -0.4017
  154TMC2     H 2400   3.653   0.776   0.359 -0.8138 -0.7057 -0.5906
  154TMC2    H1 2401   3.556   0.622  17.715  0.6821 -1.5796  0.0817
  154TMC2    H2 2402   3.941   0.561   0.138  0.0381  0.3444  0.5450
  154TMC2    C7 2403   3.776   0.454  17.709  0.3069 -0.1319 -0.3595
  154TMC2    C8 2404   3.873   0.619   0.381  0.4548 -0.6707  0.3105
  154TMC2    O1 2405   3.897   0.422  17.704  0.4243  0.3747  0.2620
  154TMC2    O2 2406   3.940   0.519   0.385  0.4995 -0.3810 -0.1205
  154TMC2    O5 2407   3.887   0.724   0.460 -0.4465  0.4136  0.2124
  154TMC2    H5 2408   3.867   0.811   0.418  1.1373 -0.3956 -2.2741
  155MPD2     C 2409   3.262   0.887  17.617  0.0679 -0.3221  0.0068
  155MPD2    C1 2410   3.304   0.878  17.746  0.4126 -0.0392  0.1374
  155MPD2    C2 2411   3.249   0.975   0.090 -0.2129 -0.0618 -0.5363
  155MPD2    C3 2412   3.152   1.070   0.045 -0.3909 -0.5500  0.2722
  155MPD2    C4 2413   3.109   1.062  17.663  0.2580 -0.1132  0.2843
  155MPD2    C5 2414   3.177   0.985  17.569 -0.2978  0.2122  0.1542
  155MPD2     H 2415   3.281   0.972   0.193  0.3346  0.0975 -0.6995
  155MPD2    H1 2416   3.035   1.130  17.622  1.0239 -0.4658 -1.6852
  155MPD2    H2 2417   3.303   0.824  17.539  0.8608  0.1778  0.0176
  155MPD2    H3 2418   3.155   0.994  17.463  0.2589 -0.0811  0.0134
  155MPD2     N 2419   3.092   1.157   0.139 -0.5023  0.2643 -0.5137
  155MPD2    H5 2420   3.106   1.147   0.239 -0.6503  0.5732 -0.4604
  155MPD2    N1 2421   3.405   0.790   0.039  0.0147  0.1483  0.0625
  155MPD2    H7 2422   3.433   0.724  17.714  1.5604 -0.4719  1.2523
  156TMC2    C1 2423   1.301   2.800  11.343 -0.0365  0.1355  0.1948
  156TMC2    C2 2424   1.364   2.708  11.258 -0.0827  0.3053  0.4309
  156TMC2    C3 2425   1.378   2.748  11.125  0.3356 -0.1103  1.2930
  156TMC2    C4 2426   1.239   2.920  11.294  0.7176 -1.1550  0.3790
  156TMC2    C5 2427   1.249   2.949  11.165  0.4914 -0.6747 -0.3250
  156TMC2    C6 2428   1.317   2.862  11.081 -0.6604  0.5459 -0.5946
  156TMC2     C 2429   1.324   2.799  11.484  0.0219  0.0858 -0.0138
  156TMC2     O 2430   1.247   2.860  11.558  0.2642 -0.1554  0.0949
  156TMC2     H 2431   1.419   2.619  11.288 -1.0826 -0.5914 -0.3968
  156TMC2    H1 2432   1.184   2.980  11.365 -0.4314 -0.4753 -1.1064
  156TMC2    H2 2433   1.329   2.896  10.979  2.0004 -1.5255 -0.9602
  156TMC2    C7 2434   1.283   3.088  11.144 -0.4075 -0.6530  0.4223
  156TMC2    C8 2435   1.458   2.676  11.023 -0.2223 -0.1867 -0.0394
  156TMC2    O1 2436   1.378   3.118  11.075 -0.5085 -0.2291 -0.2163
  156TMC2    O2 2437   1.423   2.642  10.906  0.6815  0.1389 -0.3514
  156TMC2    O5 2438   1.577   2.739  11.050 -0.2616 -0.3087 -0.2642
  156TMC2    H5 2439   1.599   2.761  11.143  0.3640  1.9059 -0.9245
  157MPD2     C 2440   1.591   2.650  11.676  0.2717  0.0856 -0.7728
  157MPD2    C1 2441   1.497   2.742  11.643 -0.2476 -0.1919  0.8181
  157MPD2    C2 2442   1.486   2.851  11.726  0.0153 -0.2361 -0.5803
  157MPD2    C3 2443   1.561   2.862  11.840  0.0264 -0.3185  1.2703
  157MPD2    C4 2444   1.656   2.767  11.866  1.4955  0.8778  0.2741
  157MPD2    C5 2445   1.658   2.654  11.795 -0.8602 -0.4142  0.1654
  157MPD2     H 2446   1.431   2.940  11.699  1.6550 -0.1631 -3.6433
  157MPD2    H1 2447   1.712   2.781  11.957 -0.4631 -0.9798  1.7660
  157MPD2    H2 2448   1.610   2.561  11.617  1.4060 -0.3585  0.2673
  157MPD2    H3 2449   1.722   2.569  11.818 -0.0370  0.4893  1.2075
  157MPD2     N 2450   1.547   2.981  11.921 -0.3683 -0.2615 -0.2516
  157MPD2    H5 2451   1.477   3.048  11.889  0.0790  0.2538 -0.1423
  157MPD2    N1 2452   1.431   2.718  11.520  0.3150 -0.4114 -0.1142
  157MPD2    H7 2453   1.478   2.662  11.450 -0.6223  0.2588 -1.2739
  158TMC2    C1 2454   2.137   1.465  12.988  1.3814 -0.3111 -0.7134
  158TMC2    C2 2455   2.171   1.419  12.864  0.5205  0.8007  0.0757
  158TMC2    C3 2456   2.071   1.434  12.769 -0.1201 -0.0634  0.3371
  158TMC2    C4 2457   2.015   1.517  13.018  1.0344 -0.2794  0.4232
  158TMC2    C5 2458   1.925   1.534  12.916 -0.0213  0.6388 -0.5338
  158TMC2    C6 2459   1.948   1.492  12.790  0.1701  0.2366 -0.1384
  158TMC2     C 2460   2.257   1.489  13.062 -0.3760 -0.2587  0.2067
  158TMC2     O 2461   2.366   1.482  13.012 -0.1776 -0.5914  0.2096
  158TMC2     H 2462   2.261   1.367  12.837  0.1204 -0.4015  1.0860
  158TMC2    H1 2463   2.003   1.566  13.114 -1.6582  1.6899 -0.9096
  158TMC2    H2 2464   1.872   1.508  12.714 -0.6641 -1.2086  0.3919
  158TMC2    C7 2465   1.798   1.604  12.945 -0.3882 -0.5015 -0.8630
  158TMC2    C8 2466   2.096   1.397  12.632  0.3096  0.1909 -0.8362
  158TMC2    O1 2467   1.752   1.675  12.857  0.2425 -0.3739  0.3400
  158TMC2    O2 2468   2.015   1.386  12.539  0.1141  0.0278  0.3374
  158TMC2    O5 2469   2.215   1.459  12.612  0.0493 -0.2311 -0.1252
  158TMC2    H5 2470   2.244   1.492  12.699 -0.2871 -0.4761  0.0826
  159MPD2     C 2471   2.474   1.576  13.529  0.4311 -0.2617 -0.4864
  159MPD2    C1 2472   2.335   1.569  13.538 -0.0796 -0.5255  0.3331
  159MPD2    C2 2473   2.266   1.543  13.427 -0.4229  0.0358 -0.0969
  159MPD2    C3 2474   2.317   1.526  13.301 -0.5973  0.4533  0.8440
  159MPD2    C4 2475   2.453   1.536  13.292 -0.7612  0.4649  0.2883
  159MPD2    C5 2476   2.524   1.563  13.405  0.0330 -0.0398  0.0406
  159MPD2     H 2477   2.158   1.545  13.424 -0.4243  0.1527  0.0308
  159MPD2    H1 2478   2.501   1.523  13.196 -0.2048  0.6995  0.5406
  159MPD2    H2 2479   2.536   1.596  13.616  2.5038 -2.7601 -1.3833
  159MPD2    H3 2480   2.631   1.578  13.399  0.2228 -0.9521  1.1549
  159MPD2     N 2481   2.228   1.502  13.195 -0.0273  0.2953 -0.3538
  159MPD2    H5 2482   2.135   1.487  13.233 -0.2232  2.2947 -0.0340
  159MPD2    N1 2483   2.266   1.591  13.658  0.3593 -0.6558  0.3090
  159MPD2    H7 2484   2.332   1.617  13.731  1.7462  0.8937 -1.5135
  160TMC2    C1 2485   2.700   0.609   1.401  0.3584  0.1180 -0.8510
  160TMC2    C2 2486   2.828   0.569   1.426 -0.6147 -0.0844  0.0337
  160TMC2    C3 2487   2.866   0.457   1.357  0.3190  0.3387 -0.1236
  160TMC2    C4 2488   2.616   0.548   1.309 -0.3745 -0.6951  0.4153
  160TMC2    C5 2489   2.659   0.435   1.256 -0.9087  0.6915  0.0866
  160TMC2    C6 2490   2.781   0.377   1.288  0.3862 -0.0921 -0.0189
  160TMC2     C 2491   2.690   0.752   1.399  0.3840  1.2503 -0.5704
  160TMC2     O 2492   2.747   0.826   1.482  0.2807 -0.0850  0.5356
  160TMC2     H 2493   2.891   0.640   1.479 -0.4391 -1.0359  1.1074
  160TMC2    H1 2494   2.512   0.579   1.307 -1.3952 -4.1085  1.0650
  160TMC2    H2 2495   2.825   0.285   1.250 -0.0872  0.4769 -1.9490
  160TMC2    C7 2496   2.627   0.421   1.121 -0.2660 -0.9135 -0.5045
  160TMC2    C8 2497   2.964   0.384   1.435  0.1890  0.0813  0.2774
  160TMC2    O1 2498   2.578   0.524   1.084 -0.3507 -0.1511 -0.0565
  160TMC2    O2 2499   2.973   0.392   1.555  0.2043  0.6115 -0.0597
  160TMC2    O5 2500   3.066   0.355   1.351 -0.4356 -0.2235  0.2271
  160TMC2    H5 2501   3.038   0.339   1.258  0.8546  0.9699 -0.3681
  161MPD2     C 2502   2.585   1.036   1.337  0.0830 -0.5261  0.3132
  161MPD2    C1 2503   2.558   0.924   1.262  0.1680  0.3016 -0.5712
  161MPD2    C2 2504   2.474   0.933   1.152 -0.0822 -0.0270  0.1547
  161MPD2    C3 2505   2.393   1.047   1.133 -0.3636  0.2857  0.1087
  161MPD2    C4 2506   2.412   1.155   1.217  0.4456 -0.2117 -0.1302
  161MPD2    C5 2507   2.513   1.155   1.315  0.1498 -0.7060 -0.1805
  161MPD2     H 2508   2.463   0.848   1.085  0.4988 -2.4053  3.0964
  161MPD2    H1 2509   2.344   1.238   1.205  1.2982  0.3961 -0.7501
  161MPD2    H2 2510   2.659   1.032   1.416  0.3168  0.2883  0.1418
  161MPD2    H3 2511   2.522   1.244   1.377  0.9012 -0.8213 -0.1203
  161MPD2     N 2512   2.297   1.053   1.031  0.8320  0.1525  0.5931
  161MPD2    H5 2513   2.241   1.138   1.035  1.2480  0.4639 -0.3041
  161MPD2    N1 2514   2.620   0.795   1.286 -0.1602  0.1797 -0.6686
  161MPD2    H7 2515   2.579   0.725   1.225 -1.1678  0.3010 -0.1264
  162TMC2    C1 2516   4.042   1.703   0.495  0.0125  0.3467  0.0135
  162TMC2    C2 2517   3.920   1.691   0.430 -0.0240 -0.5572  0.4279
  162TMC2    C3 2518   3.818   1.768   0.484 -0.2152  0.5205 -0.4581
  162TMC2    C4 2519   4.062   1.785   0.602  0.1395 -0.1461 -0.4479
  162TMC2    C5 2520   3.958   1.859   0.645 -0.4383  1.1592  0.1761
  162TMC2    C6 2521   3.835   1.854   0.589  0.3355 -0.1890  0.3959
  162TMC2     C 2522   4.163   1.653   0.434 -0.7308  0.5928 -0.4798
  162TMC2     O 2523   4.267   1.716   0.449 -0.0692 -0.5110 -0.5862
  162TMC2     H 2524   3.905   1.634   0.339  0.3040  1.8443 -1.1232
  162TMC2    H1 2525   4.161   1.790   0.648 -0.5387  1.8149  0.8127
  162TMC2    H2 2526   3.762   1.929   0.617 -1.8444 -1.7203 -1.2025
  162TMC2    C7 2527   3.971   1.951   0.753 -0.3309 -1.2279 -0.1807
  162TMC2    C8 2528   3.689   1.760   0.424 -0.4076 -0.7560 -0.8270
  162TMC2    O1 2529   3.870   1.985   0.817  0.3503  0.1651 -0.0981
  162TMC2    O2 2530   3.583   1.781   0.479 -0.4282 -0.7645  0.4670
  162TMC2    O5 2531   3.709   1.790   0.295 -0.8834 -0.1114  0.2048
  162TMC2    H5 2532   3.800   1.798   0.260 -0.7025  0.9920  0.9000
  163MPD2     C 2533   4.437   1.326   0.140  0.1644 -0.3400  0.7126
  163MPD2    C1 2534   4.460   1.453   0.186 -0.1246  0.4833 -0.2582
  163MPD2    C2 2535   4.367   1.520   0.258  0.6321  0.0203 -0.0075
  163MPD2    C3 2536   4.243   1.467   0.279 -0.1428  0.4653  0.4983
  163MPD2    C4 2537   4.213   1.340   0.226 -0.2151 -0.0396  0.2269
  163MPD2    C5 2538   4.308   1.266   0.159 -0.3935  0.0062 -0.2718
  163MPD2     H 2539   4.392   1.618   0.298  1.4678 -0.0830 -0.2825
  163MPD2    H1 2540   4.114   1.297   0.243  0.1560 -0.1308  2.1372
  163MPD2    H2 2541   4.508   1.260   0.092 -0.4564 -1.2386  1.0296
  163MPD2    H3 2542   4.290   1.162   0.138  1.5735 -0.2190 -0.9005
  163MPD2     N 2543   4.141   1.536   0.359 -0.2815 -0.2836 -0.1896
  163MPD2    H5 2544   4.049   1.493   0.370  0.7021 -2.2969  0.1329
  163MPD2    N1 2545   4.595   1.499   0.175 -0.6729 -0.6272 -0.3077
  163MPD2    H7 2546   4.657   1.437   0.124 -1.2400 -1.0249 -0.5251
  164TMC2    C1 2547   0.246   1.987  11.143 -0.0398  0.0163  0.2159
  164TMC2    C2 2548   0.349   2.024  11.067  0.2193  0.6604  0.0368
  164TMC2    C3 2549   0.336   2.145  11.006 -0.1042  0.3232 -0.3597
  164TMC2    C4 2550   0.138   2.068  11.162 -0.0880 -0.0371  0.3023
  164TMC2    C5 2551   0.138   2.194  11.110  0.7344 -0.3756 -0.5892
  164TMC2    C6 2552   0.239   2.240  11.027 -0.2356 -0.5887 -0.2796
  164TMC2     C 2553   0.241   1.856  11.193  0.6403 -0.2327 -0.3400
  164TMC2     O 2554   0.181   1.838  11.299 -0.0973 -0.1931  0.2528
  164TMC2     H 2555   0.441   1.967  11.053 -0.3173 -0.9621  3.2446
  164TMC2    H1 2556   0.055   2.038  11.225 -0.6737 -0.0434 -0.4721
  164TMC2    H2 2557   0.225   2.329  10.966  2.0307 -0.0923 -0.0929
  164TMC2    C7 2558   0.000   2.243  11.098 -0.4332 -1.1565 -0.3187
  164TMC2    C8 2559   0.431   2.168  10.900 -0.2865 -0.7218  0.8091
  164TMC2    O1 2560   4.645   2.165  11.121  0.0823  0.3198 -0.7785
  164TMC2    O2 2561   0.469   2.083  10.816  0.6634  0.2149  0.0832
  164TMC2    O5 2562   0.481   2.289  10.906 -0.2309 -0.2491  0.3161
  164TMC2    H5 2563   0.466   2.343  10.987 -3.8811  1.2182 -1.3096
  165TMC2    C1 2564   1.830   3.786   0.882  0.3282  0.5141 -0.2823
  165TMC2    C2 2565   1.865   3.658   0.927 -0.2676  0.0385  0.0307
  165TMC2    C3 2566   1.995   3.631   0.970 -0.2518  0.3083  0.2096
  165TMC2    C4 2567   1.916   3.891   0.887  0.0205  0.5305 -0.2374
  165TMC2    C5 2568   2.045   3.862   0.929 -0.3917  0.2011  0.1474
  165TMC2    C6 2569   2.084   3.741   0.986  0.5260  0.0583  0.5898
  165TMC2     C 2570   1.705   3.799   0.813 -0.9583 -0.5571  0.2730
  165TMC2     O 2571   1.677   3.706   0.736 -0.4570  0.2176  0.1656
  165TMC2     H 2572   1.795   3.577   0.908  0.5908 -0.5576 -0.6000
  165TMC2    H1 2573   1.899   3.990   0.845 -0.8748  1.1052  1.4582
  165TMC2    H2 2574   2.179   3.733   1.037  0.2512 -1.3067  0.8999
  165TMC2    C7 2575   2.145   3.966   0.945 -0.5277 -0.4055 -0.0103
  165TMC2    C8 2576   2.010   3.523   1.067 -0.7291 -0.2566  0.7280
  165TMC2    O1 2577   2.260   3.927   0.925  0.2644  0.5973  0.2394
  165TMC2    O2 2578   1.908   3.472   1.113  0.0199 -0.4787 -0.2983
  165TMC2    O5 2579   2.134   3.474   1.064 -0.2264 -0.3651  0.1918
  165TMC2    H5 2580   2.197   3.525   1.009 -0.4661  0.1255  0.3805
  166MPD2     C 2581   1.248   4.012   0.761 -0.0118 -0.7011  0.0811
  166MPD2    C1 2582   1.282   3.883   0.762  0.5979  0.9975  0.5872
  166MPD2    C2 2583   1.420   3.853   0.772 -0.0915  0.3282 -0.2196
  166MPD2    C3 2584   1.513   3.955   0.798 -0.7286  0.4748  0.2999
  166MPD2    C4 2585   1.470   4.086   0.801  0.0046  1.1468  0.0350
  166MPD2    C5 2586   1.341   4.113   0.773  0.7215 -0.1877 -0.3643
  166MPD2     H 2587   1.453   3.750   0.768 -0.7631  0.1086 -0.1797
  166MPD2    H1 2588   1.530   4.175   0.818  4.2137 -1.6447 -0.3385
  166MPD2    H2 2589   1.151   4.055   0.739 -0.1463 -0.7984  0.4835
  166MPD2    H3 2590   1.301   4.213   0.784  2.2824  0.3158  0.6374
  166MPD2     N 2591   1.648   3.921   0.830  0.0861 -0.0624 -0.1487
  166MPD2    H5 2592   1.707   3.998   0.863 -1.5695  2.6453 -3.4842
  166MPD2    N1 2593   1.182   3.795   0.742 -0.4770 -0.3181  0.2790
  166MPD2    H7 2594   1.095   3.842   0.718  0.3106  0.1449 -1.6586
  167TMC2    C1 2595   3.872   1.638  12.885 -0.1986 -0.0407  0.3715
  167TMC2    C2 2596   3.854   1.667  13.019 -0.2065 -0.2182  0.1586
  167TMC2    C3 2597   3.904   1.588  13.111 -0.4380  0.0825 -0.2848
  167TMC2    C4 2598   3.954   1.534  12.848  0.4805  0.5282  0.2529
  167TMC2    C5 2599   4.014   1.458  12.946  0.8514 -0.0102  0.2187
  167TMC2    C6 2600   3.990   1.480  13.080 -0.4825  1.1094  0.6607
  167TMC2     C 2601   3.829   1.741  12.793 -0.2494  0.2461  0.4201
  167TMC2     O 2602   3.746   1.825  12.832  0.3018  0.5144 -0.5563
  167TMC2     H 2603   3.780   1.743  13.042  0.1929  0.3758 -0.5150
  167TMC2    H1 2604   3.953   1.503  12.744  1.6326  0.9550  0.1094
  167TMC2    H2 2605   4.033   1.420  13.159  0.5661 -0.7768 -1.3306
  167TMC2    C7 2606   4.126   1.372  12.920  0.2587 -0.0756 -0.0600
  167TMC2    C8 2607   3.841   1.582  13.247 -0.6645  1.0620  0.2663
  167TMC2    O1 2608   4.206   1.353  13.015 -0.1892  0.2013 -0.1263
  167TMC2    O2 2609   3.888   1.515  13.335  0.0098  1.0378  0.4150
  167TMC2    O5 2610   3.713   1.623  13.247  0.2338 -0.4027  0.3578
  167TMC2    H5 2611   3.669   1.650  13.164  3.2254  1.1927 -0.7084
  168MPD2     C 2612   3.844   1.960  12.584 -0.9776  0.0107 -0.6077
  168MPD2    C1 2613   3.898   1.830  12.573 -0.0012 -0.6409 -0.8482
  168MPD2    C2 2614   3.973   1.811  12.457  0.7692  0.0972 -0.3314
  168MPD2    C3 2615   3.982   1.900  12.359  0.2473 -0.4399  0.2861
  168MPD2    C4 2616   3.916   2.023  12.369  0.1934  0.3055 -0.5309
  168MPD2    C5 2617   3.845   2.049  12.479 -0.0084 -0.8903 -1.4930
  168MPD2     H 2618   4.030   1.719  12.458  2.1842  0.9631  1.1293
  168MPD2    H1 2619   3.934   2.101  12.296  1.0094  1.2769  0.6944
  168MPD2    H2 2620   3.787   1.991  12.671  0.2823 -3.1627  1.3356
  168MPD2    H3 2621   3.797   2.146  12.489  0.6460 -0.8362  1.1515
  168MPD2     N 2622   4.044   1.865  12.243  0.4786 -0.2360  0.1343
  168MPD2    H5 2623   4.050   1.936  12.170  0.7800  0.2984  0.6783
  168MPD2    N1 2624   3.889   1.726  12.668  0.1909  0.2536 -0.4129
  168MPD2    H7 2625   3.947   1.646  12.646  0.2582  0.5176 -1.2033
  169MPD1     C 2626   1.771   1.763   8.536  0.0144  0.7520  0.1265
  169MPD1    C1 2627   1.743   1.637   8.578  0.1612 -0.2496 -0.2126
  169MPD1    C2 2628   1.779   1.594   8.703 -0.2206  0.0728  0.0458
  169MPD1    C3 2629   1.859   1.678   8.782 -0.9089  0.3735 -0.5851
  169MPD1    C4 2630   1.893   1.801   8.732 -1.1754  0.7937  0.1961
  169MPD1    C5 2631   1.851   1.839   8.612 -0.1138  0.0387  0.6647
  169MPD1     H 2632   1.748   1.498   8.741  1.5384 -0.5867 -0.1923
  169MPD1    H1 2633   1.940   1.878   8.793  0.8905 -0.3414  0.0256
  169MPD1    H2 2634   1.737   1.804   8.442  0.4486  1.8064  0.4255
  169MPD1    H3 2635   1.877   1.937   8.574 -0.9782  1.0379  2.6313
  169MPD1     N 2636   1.896   1.631   8.911  0.2039 -0.0486 -0.3858
  169MPD1    H5 2637   1.859   1.541   8.940  0.3396  0.8284  2.5921
  169MPD1    N1 2638   1.660   1.559   8.496  0.2848  0.2576  0.1841
  169MPD1    H6 2639   1.664   1.574   8.395 -1.8730 -0.7446 -0.0600
  169MPD1    H7 2640   1.679   1.459   8.506 -2.3191 -0.2313  0.2671
  170MPD1     C 2641   1.207   3.674  12.770  0.1328 -0.0955 -0.4408
  170MPD1    C1 2642   1.081   3.618  12.771  0.1465  0.6308  0.0719
  170MPD1    C2 2643   0.999   3.660  12.884 -0.4956  0.0238  0.0835
  170MPD1    C3 2644   1.049   3.721  12.995 -0.1750 -0.1251  0.1253
  170MPD1    C4 2645   1.181   3.763  13.000  0.6486 -1.1002  0.1934
  170MPD1    C5 2646   1.248   3.745  12.879 -0.1363  0.8705 -0.3875
  170MPD1     H 2647   0.893   3.637  12.891 -0.4289  0.0716  1.1503
  170MPD1    H1 2648   1.221   3.815  13.087  1.2758 -0.0402 -0.7360
  170MPD1    H2 2649   1.261   3.671  12.676  0.2602  0.8823 -0.3949
  170MPD1    H3 2650   1.347   3.790  12.879 -0.2874  1.1902  2.1554
  170MPD1     N 2651   0.960   3.730  13.105  0.0740 -0.8493  0.3503
  170MPD1    H5 2652   0.872   3.680  13.097 -0.4487  0.2203 -0.5197
  170MPD1    N1 2653   1.018   3.562  12.650 -0.7500  0.4580  0.5224
  170MPD1    H6 2654   0.931   3.511  12.662 -0.1594  0.0038  2.8080
  170MPD1    H7 2655   1.072   3.499  12.591 -0.9399 -0.3823  1.2427
  171MPD1     C 2656   4.015   0.290  15.938 -0.0542 -0.6653  0.3181
  171MPD1    C1 2657   3.927   0.201  15.875 -0.5656  0.4846 -0.1594
  171MPD1    C2 2658   3.952   0.067  15.884  0.2517  0.0674  0.2747
  171MPD1    C3 2659   4.068   0.022  15.951  0.2873 -0.1042  0.4319
  171MPD1    C4 2660   4.153   0.117  16.003 -0.3227  0.1360  0.6408
  171MPD1    C5 2661   4.127   0.246  16.000  0.1932 -0.0910 -0.2381
  171MPD1     H 2662   3.881   0.000  15.835  0.5228 -0.7826  1.0382
  171MPD1    H1 2663   4.253   0.085  16.032 -0.2471  1.5970  1.9973
  171MPD1    H2 2664   4.007   0.398  15.936  2.0421 -0.5335 -0.8844
  171MPD1    H3 2665   4.205   0.316  16.030  0.7618 -1.4825  1.5075
  171MPD1     N 2666   4.113   4.627  15.945  0.0823 -0.0435  0.1179
  171MPD1    H5 2667   4.211   4.613  15.964 -0.5523 -0.8661  2.7578
  171MPD1    N1 2668   3.803   0.258  15.828  0.0904 -0.3942  0.3875
  171MPD1    H6 2669   3.822   0.357  15.811 -1.6654 -0.4094 -1.6991
  171MPD1    H7 2670   3.788   0.220  15.735 -3.2512  0.3323  0.6250
  172MPD1     C 2671   4.498   3.953   0.429 -0.7898 -0.1736  0.2370
  172MPD1    C1 2672   4.525   4.086   0.440  0.2387  0.2477 -0.0213
  172MPD1    C2 2673   4.412   4.167   0.418 -0.1312 -0.4671 -0.4839
  172MPD1    C3 2674   4.289   4.111   0.389  0.8523  0.0036  0.4081
  172MPD1    C4 2675   4.278   3.976   0.370  0.6055 -0.0816 -0.0647
  172MPD1    C5 2676   4.380   3.897   0.399  0.4936  0.3462 -0.0995
  172MPD1     H 2677   4.426   4.275   0.411  2.3822 -0.7969 -0.5960
  172MPD1    H1 2678   4.183   3.938   0.334 -0.4156  2.0358  0.4275
  172MPD1    H2 2679   4.584   3.888   0.435  0.4908  1.5085  0.3534
  172MPD1    H3 2680   4.362   3.792   0.379 -0.4984  0.6772 -0.9860
  172MPD1     N 2681   4.176   4.178   0.354  0.6054 -0.2492  0.6351
  172MPD1    H5 2682   4.095   4.126   0.320  0.7073  0.5853 -0.8680
  172MPD1    N1 2683   4.660   4.128   0.436 -0.2052  0.0947 -0.0809
  172MPD1    H6 2684   4.678   4.217   0.482 -0.3327  0.9430 -1.6679
  172MPD1    H7 2685   4.726   4.064   0.479 -1.8191  1.0708  3.8430
  173MPD1     C 2686   4.683   4.488  13.907  0.2263  0.4750 -0.2140
  173MPD1    C1 2687   4.591   4.483  14.010 -0.4036 -0.1979  0.5195
  173MPD1    C2 2688   4.626   4.406  14.119  0.1447  0.1771  0.1610
  173MPD1    C3 2689   4.730   4.317  14.126  0.0933 -0.1320 -0.3080
  173MPD1    C4 2690   0.072   4.310  14.019 -0.2342  0.5532  0.3183
  173MPD1    C5 2691   0.047   4.396  13.907 -0.2535 -0.3668 -0.2467
  173MPD1     H 2692   4.560   4.408  14.205 -1.4408  0.5733 -1.0870
  173MPD1    H1 2693   0.157   4.243  14.009 -1.5504 -1.1014  0.2366
  173MPD1    H2 2694   4.661   4.551  13.822 -2.9554  0.0635  0.3226
  173MPD1    H3 2695   0.116   4.405  13.824 -0.6620 -2.3900 -0.8067
  173MPD1     N 2696   4.736   4.214  14.229  0.3071 -0.2534 -0.1851
  173MPD1    H5 2697   4.672   4.220  14.307 -0.1878 -2.0460 -0.4603
  173MPD1    N1 2698   4.488   4.578  14.027  0.0730 -0.3216 -0.6694
  173MPD1    H6 2699   4.459   4.615  13.936 -2.5982  0.9164  0.7181
  173MPD1    H7 2700   4.404   4.555  14.079  0.7372 -1.2005  0.0248
  174MPD1     C 2701   0.607   3.579  14.664 -0.6288 -0.0256  0.4072
  174MPD1    C1 2702   0.491   3.573  14.735 -0.5460  0.1358  0.1175
  174MPD1    C2 2703   0.373   3.615  14.669 -0.4511 -0.3201  0.3174
  174MPD1    C3 2704   0.375   3.682  14.544  0.0397 -0.2565  0.5970
  174MPD1    C4 2705   0.502   3.696  14.483  0.5062 -0.5937  0.1739
  174MPD1    C5 2706   0.613   3.632  14.537 -0.0714 -0.6165 -0.6278
  174MPD1     H 2707   0.272   3.604  14.707 -0.7790  2.9869  0.4422
  174MPD1    H1 2708   0.505   3.744  14.386  4.0916  1.2022  1.1875
  174MPD1    H2 2709   0.696   3.534  14.704  0.5764  0.7505 -1.4064
  174MPD1    H3 2710   0.706   3.649  14.484  0.4183  0.2232  0.5200
  174MPD1     N 2711   0.259   3.728  14.477 -0.1324 -0.3350 -0.3223
  174MPD1    H5 2712   0.259   3.748  14.378 -0.9788 -1.2298 -0.4992
  174MPD1    N1 2713   0.482   3.498  14.852 -0.4421 -0.0264  0.3744
  174MPD1    H6 2714   0.401   3.530  14.905 -0.4452  0.9240 -0.1947
  174MPD1    H7 2715   0.565   3.523  14.907  0.2647  0.9389 -1.1390
  175MPD1     C 2716   3.646   0.045  15.489  0.7495  0.3788  0.0445
  175MPD1    C1 2717   3.709   4.693  15.564 -0.0460 -0.0068 -0.4671
  175MPD1    C2 2718   3.657   4.673  15.691 -0.1777  0.8054  0.3809
  175MPD1    C3 2719   3.553   0.006  15.747  0.0049  0.2404  0.4328
  175MPD1    C4 2720   3.492   0.104  15.667 -0.0043  0.2123 -0.7659
  175MPD1    C5 2721   3.544   0.125  15.543 -0.2732 -0.1578  0.2619
  175MPD1     H 2722   3.711   4.605  15.755  0.0565 -0.1436 -0.8386
  175MPD1    H1 2723   3.409   0.168  15.695 -0.1545  0.3603 -1.5568
  175MPD1    H2 2724   3.677   0.071  15.388 -1.3842 -0.7868 -0.9140
  175MPD1    H3 2725   3.500   0.201  15.479  0.6976  0.3817  0.2463
  175MPD1     N 2726   3.513   4.712  15.878  0.5232  0.3784 -0.3016
  175MPD1    H5 2727   3.561   4.634  15.922  0.1372 -0.3727 -1.1989
  175MPD1    N1 2728   3.819   4.627  15.519 -0.2506  0.4167  0.0261
  175MPD1    H6 2729   3.908   4.677  15.515  0.1407 -0.3884 -1.4412
  175MPD1    H7 2730   3.850   4.552  15.580  1.4270  0.1185 -1.1845
  176MPD1     C 2731   4.271   1.760  16.269 -0.3850  0.6692  0.2935
  176MPD1    C1 2732   4.191   1.850  16.337 -0.3525  0.5695  0.0332
  176MPD1    C2 2733   4.227   1.890  16.462  0.2035  0.0874 -0.8503
  176MPD1    C3 2734   4.320   1.820  16.535 -0.8868 -0.2777 -0.3801
  176MPD1    C4 2735   4.389   1.713  16.475  0.3410 -0.3941  0.2590
  176MPD1    C5 2736   4.369   1.692  16.342 -0.3267 -0.0551 -0.4753
  176MPD1     H 2737   4.177   1.977  16.502  2.3242 -0.3255  2.6864
  176MPD1    H1 2738   4.459   1.661  16.540  1.8449  0.0198 -1.0394
  176MPD1    H2 2739   4.255   1.743  16.163  3.0799  2.6539 -0.5402
  176MPD1    H3 2740   4.432   1.615  16.299 -1.8390 -0.8380 -1.2901
  176MPD1     N 2741   4.343   1.870  16.666  0.1818 -0.4716  0.1021
  176MPD1    H5 2742   4.280   1.942  16.699 -0.5801 -1.1553  0.1615
  176MPD1    N1 2743   4.119   1.938  16.258 -0.4631  0.2586  0.5614
  176MPD1    H6 2744   4.037   1.972  16.307 -1.9046 -3.2065  0.5375
  176MPD1    H7 2745   4.082   1.886  16.178  1.0105  2.1945 -1.3956
  177MPD1     C 2746   3.009   2.389  10.059 -0.1140 -0.1873 -0.5161
  177MPD1    C1 2747   2.975   2.296   9.961  0.0017  0.6978  0.9166
  177MPD1    C2 2748   2.946   2.348   9.836 -0.4144  0.2655  0.1882
  177MPD1    C3 2749   2.964   2.480   9.809 -0.2723 -0.2991 -0.1227
  177MPD1    C4 2750   3.030   2.566   9.898 -0.0118 -0.2155 -0.4484
  177MPD1    C5 2751   3.043   2.520  10.033  0.3783 -0.7008  0.3360
  177MPD1     H 2752   2.894   2.284   9.765  1.4514  0.6706 -1.5593
  177MPD1    H1 2753   3.068   2.662   9.867 -2.9580  0.9462 -0.4425
  177MPD1    H2 2754   3.030   2.346  10.157 -0.7999 -0.3865 -0.4563
  177MPD1    H3 2755   3.095   2.582  10.105 -0.0814 -1.8697  1.6816
  177MPD1     N 2756   2.922   2.526   9.680 -0.4311  0.0096  0.4025
  177MPD1    H5 2757   2.859   2.465   9.628  1.2634 -1.6421  0.2764
  177MPD1    N1 2758   2.945   2.164   9.991 -0.4149  0.2048  0.0173
  177MPD1    H6 2759   3.004   2.132  10.068 -1.4996 -0.7893  0.4357
  177MPD1    H7 2760   2.976   2.104   9.915  0.4749 -0.4458  0.8903
  178MPD1     C 2761   0.748   3.042   0.032  0.3149  0.5316 -0.1214
  178MPD1    C1 2762   0.779   3.155  17.710 -0.3223 -0.9050  0.0782
  178MPD1    C2 2763   0.864   3.150  17.605 -0.1001  0.5189 -0.3601
  178MPD1    C3 2764   0.885   3.032  17.541  0.5029  0.0751 -0.3772
  178MPD1    C4 2765   0.851   2.916  17.608  0.6977  0.2600  0.1272
  178MPD1    C5 2766   0.783   2.917  17.726 -0.1787  1.0943  0.0512
  178MPD1     H 2767   0.908   3.242  17.568  0.7374  0.7883  1.3180
  178MPD1    H1 2768   0.857   2.818  17.562 -0.5510 -0.5713  1.7415
  178MPD1    H2 2769   0.700   3.033   0.128 -0.1353 -0.0152 -0.3989
  178MPD1    H3 2770   0.751   2.821   0.018  0.6259  0.3799 -1.0806
  178MPD1     N 2771   0.960   3.021  17.425 -0.0766 -0.5127  0.0716
  178MPD1    H5 2772   0.970   2.929  17.384 -1.0545 -1.1534  1.2746
  178MPD1    N1 2773   0.764   3.274   0.032  0.2870 -0.4291 -0.7830
  178MPD1    H6 2774   0.669   3.275   0.070 -0.1320  3.2038 -1.9199
  178MPD1    H7 2775   0.766   3.350  17.711 -1.9990 -0.0138 -0.4053
  179MPD1     C 2776   1.053   0.432  15.315  1.2783  0.1914  0.2320
  179MPD1    C1 2777   1.084   0.538  15.403 -0.4131 -0.0594  0.4510
  179MPD1    C2 2778   0.976   0.601  15.461  0.6922 -0.5068  0.0930
  179MPD1    C3 2779   0.850   0.586  15.407  0.1677 -0.4576  0.5027
  179MPD1    C4 2780   0.829   0.492  15.309 -0.5927 -0.0645  0.6429
  179MPD1    C5 2781   0.930   0.409  15.266  0.1643  0.5392  0.5912
  179MPD1     H 2782   0.991   0.675  15.539 -0.5829  1.0649 -1.1631
  179MPD1    H1 2783   0.734   0.480  15.258 -0.5716  0.4769  0.4693
  179MPD1    H2 2784   1.133   0.373  15.272  0.9540  0.1905 -0.3617
  179MPD1    H3 2785   0.912   0.332  15.192  1.3421  0.2715  0.5774
  179MPD1     N 2786   0.735   0.672  15.439  0.7275 -0.3006 -0.3436
  179MPD1    H5 2787   0.645   0.643  15.403  1.2421 -2.3713  0.0150
  179MPD1    N1 2788   1.213   0.564  15.448 -0.6143  0.6035  0.0405
  179MPD1    H6 2789   1.242   0.661  15.440 -1.1190  0.5302 -2.7962
  179MPD1    H7 2790   1.281   0.517  15.389 -0.3286 -0.5602  1.2944
  180MPD1     C 2791   0.856   3.228  14.243 -0.0478  0.0377 -0.1359
  180MPD1    C1 2792   0.753   3.208  14.160  0.4471 -0.5224 -0.2509
  180MPD1    C2 2793   0.683   3.091  14.176  0.4605  0.4089 -0.0519
  180MPD1    C3 2794   0.713   3.001  14.273  0.0116 -0.2758  0.3643
  180MPD1    C4 2795   0.808   3.027  14.364 -0.2189 -0.1625  0.3181
  180MPD1    C5 2796   0.882   3.147  14.351  0.3041 -0.0194 -0.3978
  180MPD1     H 2797   0.615   3.063  14.096  0.5014  0.7039 -0.1911
  180MPD1    H1 2798   0.839   2.959  14.442 -0.7255  0.3273  0.9541
  180MPD1    H2 2799   0.908   3.323  14.245  2.4301 -1.2861 -2.1009
  180MPD1    H3 2800   0.960   3.177  14.421 -1.9325  0.7973  1.7618
  180MPD1     N 2801   0.644   2.879  14.274  0.3670 -0.8537 -0.3012
  180MPD1    H5 2802   0.591   2.855  14.191 -1.6509  2.2500  0.0969
  180MPD1    N1 2803   0.729   3.293  14.047 -0.3748 -0.1621 -0.1337
  180MPD1    H6 2804   0.734   3.394  14.064  3.7093 -0.0870 -1.7574
  180MPD1    H7 2805   0.645   3.272  13.994 -0.7877 -0.8550  0.8082
  181MPD1     C 2806   1.533   4.040  10.449  0.5122  0.6998  0.0500
  181MPD1    C1 2807   1.588   4.107  10.557 -0.5612  0.0628  0.2651
  181MPD1    C2 2808   1.689   4.193  10.538 -0.8083 -0.0568  0.1570
  181MPD1    C3 2809   1.747   4.208  10.411 -0.3682  0.5941  0.2117
  181MPD1    C4 2810   1.695   4.140  10.306  0.4334 -0.0029  0.0315
  181MPD1    C5 2811   1.585   4.060  10.325  0.3956  0.0036 -0.3983
  181MPD1     H 2812   1.730   4.248  10.623 -0.6576  0.1575 -0.0529
  181MPD1    H1 2813   1.731   4.167  10.207 -2.7168  0.5499 -0.9554
  181MPD1    H2 2814   1.437   3.993  10.468  0.3684  1.3750  0.9876
  181MPD1    H3 2815   1.523   4.017  10.247 -0.3287  0.4960 -0.0932
  181MPD1     N 2816   1.858   4.291  10.381  0.3078 -0.2946 -0.4643
  181MPD1    H5 2817   1.872   4.296  10.281  2.8227 -1.2627 -0.1552
  181MPD1    N1 2818   1.527   4.078  10.686 -0.2480  0.2234 -1.0461
  181MPD1    H6 2819   1.588   4.117  10.757 -2.7825 -0.6851  1.6338
  181MPD1    H7 2820   1.515   3.979  10.705 -0.0513  0.6694  1.3814
  182MPD1     C 2821   3.265   3.327   0.867  0.1184 -0.3106  0.6929
  182MPD1    C1 2822   3.319   3.241   0.772 -0.1306 -0.3029  0.3339
  182MPD1    C2 2823   3.273   3.253   0.640 -0.4974 -0.3857  0.0809
  182MPD1    C3 2824   3.179   3.345   0.607 -0.5920 -0.1960  0.0897
  182MPD1    C4 2825   3.128   3.434   0.698 -0.3568  0.4276 -1.1226
  182MPD1    C5 2826   3.170   3.419   0.825  0.0011  0.4649 -0.3634
  182MPD1     H 2827   3.319   3.187   0.568 -0.8302  1.0959 -1.4750
  182MPD1    H1 2828   3.052   3.508   0.675  0.0118  1.3275  0.5782
  182MPD1    H2 2829   3.290   3.315   0.971 -0.3487  0.2047  0.8662
  182MPD1    H3 2830   3.120   3.481   0.898  2.0112 -0.5077  1.8471
  182MPD1     N 2831   3.119   3.364   0.476  0.0112 -0.2822 -0.4571
  182MPD1    H5 2832   3.062   3.448   0.473 -0.9169 -0.7391  4.3940
  182MPD1    N1 2833   3.393   3.131   0.811 -0.4507  0.1489 -0.1430
  182MPD1    H6 2834   3.439   3.132   0.902  0.6027 -4.5724 -0.6166
  182MPD1    H7 2835   3.450   3.086   0.740 -2.7949 -3.4295  0.2086
  183MPD1     C 2836   3.409   0.413  10.587 -0.2379  0.2863  0.1553
  183MPD1    C1 2837   3.305   0.325  10.578  0.7399 -1.1880  0.3623
  183MPD1    C2 2838   3.228   0.330  10.463 -0.5749  0.2652  0.0804
  183MPD1    C3 2839   3.262   0.406  10.353 -0.5053 -0.3663 -0.3843
  183MPD1    C4 2840   3.375   0.491  10.360 -0.0922 -0.0057  0.2023
  183MPD1    C5 2841   3.439   0.491  10.479 -0.1497 -0.2377  0.2303
  183MPD1     H 2842   3.149   0.256  10.461 -0.4646  0.2086 -2.3709
  183MPD1    H1 2843   3.404   0.565  10.287 -1.4112 -0.8554 -1.1756
  183MPD1    H2 2844   3.471   0.418  10.676 -0.1844  1.1359  0.0673
  183MPD1    H3 2845   3.518   0.564  10.493 -0.9501  0.6512  0.0877
  183MPD1     N 2846   3.176   0.391  10.245 -0.9587 -0.0760 -0.1637
  183MPD1    H5 2847   3.107   0.318  10.252  1.8538 -2.4317  2.8159
  183MPD1    N1 2848   3.258   0.253  10.687 -0.0897  0.5594  0.2868
  183MPD1    H6 2849   3.338   0.222  10.742  0.4237  2.5436  0.6879
  183MPD1    H7 2850   3.200   0.173  10.664 -0.0108  1.1991 -2.1667
  184MPD1     C 2851   2.032   2.065   9.905 -0.2802 -0.2584 -0.6953
  184MPD1    C1 2852   1.964   2.053   9.783  0.2272 -0.7933  0.3686
  184MPD1    C2 2853   2.002   2.135   9.676 -0.2677  0.1245  0.8905
  184MPD1    C3 2854   2.114   2.218   9.691 -0.3294 -0.7419 -0.3945
  184MPD1    C4 2855   2.171   2.232   9.811  0.3831 -0.0629 -0.0741
  184MPD1    C5 2856   2.127   2.158   9.913  0.2067  0.4273 -0.3834
  184MPD1     H 2857   1.944   2.121   9.586 -0.0402  1.3379  0.5630
  184MPD1    H1 2858   2.244   2.304   9.844  0.1893  0.8324 -1.6075
  184MPD1    H2 2859   1.997   2.014   9.994  2.9832  0.0810  0.7537
  184MPD1    H3 2860   2.162   2.178  10.013 -0.6709  1.1226 -0.2134
  184MPD1     N 2861   2.165   2.290   9.582 -0.2594  0.2726 -0.9103
  184MPD1    H5 2862   2.244   2.345   9.615  0.4617  0.1081 -2.3634
  184MPD1    N1 2863   1.854   1.965   9.777 -0.4058  0.6973  0.3745
  184MPD1    H6 2864   1.842   1.901   9.855 -0.5752  0.6695  0.3259
  184MPD1    H7 2865   1.837   1.913   9.692  0.4890  0.5382  0.2949
  185MPD1     C 2866   1.910   2.458   8.613 -0.2080 -0.1993 -0.3497
  185MPD1    C1 2867   2.000   2.552   8.658  0.5944 -0.3382  0.6767
  185MPD1    C2 2868   2.070   2.530   8.770  0.2880 -0.0295  0.0149
  185MPD1    C3 2869   2.053   2.410   8.845  0.4980  0.6113  0.7105
  185MPD1    C4 2870   1.952   2.325   8.809 -0.0161  0.1557 -0.5357
  185MPD1    C5 2871   1.877   2.356   8.697 -0.5018 -0.8631 -0.6612
  185MPD1     H 2872   2.140   2.609   8.795  2.0570 -1.3381 -0.8292
  185MPD1    H1 2873   1.936   2.237   8.870  1.1240  0.6482  0.4698
  185MPD1    H2 2874   1.865   2.458   8.514  0.6485 -0.1594 -0.7449
  185MPD1    H3 2875   1.810   2.279   8.659 -1.7447 -0.5841  0.9648
  185MPD1     N 2876   2.129   2.376   8.960 -0.1050  0.6167 -0.1643
  185MPD1    H5 2877   2.097   2.308   9.028  0.9372  0.1775 -0.1166
  185MPD1    N1 2878   2.029   2.664   8.575 -0.1810 -0.1062 -0.1729
  185MPD1    H6 2879   1.952   2.711   8.528 -1.2734 -3.5319 -1.8224
  185MPD1    H7 2880   2.067   2.740   8.630  3.3589 -1.1648 -1.1585
  186MPD1     C 2881   0.777   0.700  16.100 -0.4100 -0.2631  0.0605
  186MPD1    C1 2882   0.847   0.776  16.004  0.2331  0.0763 -0.4138
  186MPD1    C2 2883   0.867   0.911  16.030 -0.2350  0.5045  0.6870
  186MPD1    C3 2884   0.825   0.964  16.151 -0.3118 -0.2920  0.8492
  186MPD1    C4 2885   0.780   0.886  16.258  0.3066 -0.0194  0.1200
  186MPD1    C5 2886   0.749   0.758  16.220  0.2015 -0.1384 -0.1130
  186MPD1     H 2887   0.929   0.971  15.964 -1.4407 -0.4748 -1.3433
  186MPD1    H1 2888   0.754   0.925  16.356  1.7664  0.8008  0.1620
  186MPD1    H2 2889   0.751   0.595  16.086 -1.2512 -0.1137  0.4683
  186MPD1    H3 2890   0.697   0.701  16.296 -0.4782 -1.0597 -1.2783
  186MPD1     N 2891   0.832   1.098  16.184 -0.0763  0.3053 -0.3309
  186MPD1    H5 2892   0.787   1.122  16.271  2.5264 -0.8800  1.3239
  186MPD1    N1 2893   0.907   0.721  15.894  0.0606 -0.1536  0.0155
  186MPD1    H6 2894   0.883   0.764  15.805  3.9827 -0.5003 -1.2307
  186MPD1    H7 2895   0.861   0.632  15.876 -1.4065  0.1409  2.3252
  187MPD1     C 2896   0.296   4.044   0.444  0.9717  0.3235 -0.2114
  187MPD1    C1 2897   0.213   3.933   0.428 -0.1927  0.5716  0.1396
  187MPD1    C2 2898   0.221   3.865   0.305 -0.0889 -1.0434 -0.1779
  187MPD1    C3 2899   0.321   3.895   0.213 -0.0357 -0.2946 -0.2298
  187MPD1    C4 2900   0.407   3.996   0.239  0.2117 -0.9406  0.3030
  187MPD1    C5 2901   0.395   4.069   0.355  0.0422  0.1724 -0.3012
  187MPD1     H 2902   0.152   3.782   0.291  1.3635 -2.4322  0.8148
  187MPD1    H1 2903   0.495   4.020   0.181 -1.4999 -1.1163 -2.3762
  187MPD1    H2 2904   0.302   4.096   0.539 -1.0888  0.1708  0.0072
  187MPD1    H3 2905   0.459   4.156   0.368 -1.0355  0.8431  0.4782
  187MPD1     N 2906   0.341   3.818   0.094  0.2963 -0.6164 -0.2449
  187MPD1    H5 2907   0.420   3.840   0.034  0.5499 -0.3429  0.1847
  187MPD1    N1 2908   0.112   3.896   0.519  0.5060 -0.4415 -0.8388
  187MPD1    H6 2909   0.100   3.795   0.529  0.8881 -0.6112 -2.0832
  187MPD1    H7 2910   0.105   3.940   0.611  1.9424  2.9553 -2.3832
  188MPD1     C 2911   4.318   3.480  10.679  0.3981 -0.0006 -0.2400
  188MPD1    C1 2912   4.235   3.499  10.566  0.1071 -0.6431  0.1701
  188MPD1    C2 2913   4.168   3.389  10.518  0.1746  0.3569  0.0613
  188MPD1    C3 2914   4.201   3.263  10.571 -0.4073  0.5396  0.1803
  188MPD1    C4 2915   4.302   3.254  10.666  0.1266 -0.0107 -0.0077
  188MPD1    C5 2916   4.364   3.361  10.713 -0.4409 -0.2119  0.6769
  188MPD1     H 2917   4.100   3.402  10.435 -2.2631  0.6405  2.1067
  188MPD1    H1 2918   4.339   3.155  10.691 -3.2960 -0.4268  3.4756
  188MPD1    H2 2919   4.359   3.564  10.733  0.7996 -0.7937  0.6601
  188MPD1    H3 2920   4.446   3.366  10.783 -0.3086 -1.6829  0.6203
  188MPD1     N 2921   4.157   3.137  10.527 -0.3130 -0.3604  0.4401
  188MPD1    H5 2922   4.194   3.056  10.575 -0.5359 -0.8927 -0.2790
  188MPD1    N1 2923   4.214   3.632  10.519 -0.2576  0.9151  0.2839
  188MPD1    H6 2924   4.191   3.626  10.421 -1.8012 -0.5021  0.7414
  188MPD1    H7 2925   4.307   3.674  10.526 -0.3246  1.0949  0.1084
  189MPD1     C 2926   2.047   4.319   0.270 -0.7276  0.2834 -0.0211
  189MPD1    C1 2927   2.026   4.270   0.142 -0.2312 -0.4146  0.2892
  189MPD1    C2 2928   1.910   4.307   0.077 -0.6404 -0.3268  0.0052
  189MPD1    C3 2929   1.799   4.363   0.139 -0.5422 -0.4542 -0.4230
  189MPD1    C4 2930   1.819   4.409   0.267  0.1499 -0.0845 -0.1210
  189MPD1    C5 2931   1.948   4.398   0.320  0.0602  0.0280 -0.4741
  189MPD1     H 2932   1.894   4.278  17.720 -0.9196 -1.0377  0.2465
  189MPD1    H1 2933   1.750   4.460   0.332 -1.2502  1.0615 -2.5084
  189MPD1    H2 2934   2.142   4.322   0.322 -1.1672  1.3040  0.7159
  189MPD1    H3 2935   1.965   4.450   0.414  0.4942  0.5783 -0.8553
  189MPD1     N 2936   1.689   4.400   0.059 -0.1843 -0.2076  0.4155
  189MPD1    H5 2937   1.689   4.371  17.708 -0.6463 -2.6910  1.1530
  189MPD1    N1 2938   2.139   4.228   0.072 -0.0296  0.1691  0.6653
  189MPD1    H6 2939   2.215   4.196   0.132 -1.5603  0.7233  2.8921
  189MPD1    H7 2940   2.119   4.161  17.745  1.1869  0.3650  0.1567
  190MPD1     C 2941   4.480   2.921  15.137 -0.4202 -0.1365 -0.5919
  190MPD1    C1 2942   4.606   2.958  15.097 -0.0908  0.6804  0.8301
  190MPD1    C2 2943   4.701   2.943  15.191  0.1905 -0.3456 -0.0241
  190MPD1    C3 2944   4.680   2.908  15.325 -0.1834 -0.1524 -0.2003
  190MPD1    C4 2945   4.546   2.897  15.367 -0.1710  0.2182 -0.3801
  190MPD1    C5 2946   4.449   2.898  15.269  0.2579 -0.5187 -0.3606
  190MPD1     H 2947   0.065   2.967  15.160  0.1197  0.2600  0.2100
  190MPD1    H1 2948   4.516   2.877  15.469 -1.2777  1.8587 -0.3886
  190MPD1    H2 2949   4.404   2.912  15.061 -0.8938  1.1672 -0.2803
  190MPD1    H3 2950   4.347   2.876  15.297  0.7510 -0.1038  1.8161
  190MPD1     N 2951   0.055   2.871  15.401  0.3142 -0.4421 -0.6758
  190MPD1    H5 2952   0.147   2.873  15.356  2.1612  0.0105  3.1646
  190MPD1    N1 2953   4.631   2.974  14.965 -0.5375 -0.5086  0.1216
  190MPD1    H6 2954   4.554   3.016  14.914 -2.1189 -2.4820  0.8696
  190MPD1    H7 2955   4.715   3.030  14.953 -0.3676 -0.6437  0.6436
  191MPD1     C 2956   0.077   4.108  13.114 -0.6178 -0.3567 -0.0041
  191MPD1    C1 2957   4.711   4.072  13.197 -0.4998  0.2898 -0.4573
  191MPD1    C2 2958   4.589   4.053  13.130 -0.1683  0.5019 -0.5948
  191MPD1    C3 2959   4.568   4.072  13.001  0.3639 -0.0426 -0.0062
  191MPD1    C4 2960   4.671   4.094  12.919 -0.2053  0.5844 -0.3389
  191MPD1    C5 2961   0.056   4.123  12.980 -0.2009  0.4195 -0.3525
  191MPD1     H 2962   4.508   4.013  13.191  0.1770  1.0279  0.2117
  191MPD1    H1 2963   4.661   4.120  12.814 -2.7634  0.2977 -0.1743
  191MPD1    H2 2964   0.179   4.114  13.150 -0.2825 -1.5614 -0.7597
  191MPD1    H3 2965   0.140   4.137  12.913 -0.9775 -0.5273 -1.5209
  191MPD1     N 2966   4.442   4.062  12.945 -0.6745 -0.2427  0.5134
  191MPD1    H5 2967   4.368   4.040  13.011  0.6422 -0.8354  1.7905
  191MPD1    N1 2968   4.733   4.019  13.321  0.2984  0.2158 -0.9547
  191MPD1    H6 2969   4.643   4.007  13.368  1.6649  1.9915  2.1082
  191MPD1    H7 2970   0.060   4.072  13.379 -2.3940  1.3728  0.9659
  192MPD1     C 2971   3.694   3.830  13.293 -0.2038 -0.2889  0.3230
  192MPD1    C1 2972   3.644   3.938  13.230  0.7611 -0.2788 -0.7464
  192MPD1    C2 2973   3.731   4.001  13.136  0.5423  0.4716  0.4562
  192MPD1    C3 2974   3.866   3.958  13.115  0.3361 -0.5131  0.0869
  192MPD1    C4 2975   3.908   3.848  13.184 -0.5001  0.1497  0.3047
  192MPD1    C5 2976   3.821   3.783  13.264  0.7682  0.2316 -0.3644
  192MPD1     H 2977   3.689   4.090  13.090 -1.4282  0.1046  1.5475
  192MPD1    H1 2978   4.008   3.806  13.172  0.4336  2.2374  0.8365
  192MPD1    H2 2979   3.642   3.780  13.374 -0.6003 -2.0572 -1.0014
  192MPD1    H3 2980   3.846   3.687  13.308 -0.5489 -0.5434 -1.3133
  192MPD1     N 2981   3.959   4.022  13.021 -0.0300  0.3202  0.0803
  192MPD1    H5 2982   4.050   3.977  13.019 -0.4416 -0.4271 -1.6073
  192MPD1    N1 2983   3.529   4.001  13.274 -0.3870 -0.3676  0.3657
  192MPD1    H6 2984   3.486   4.060  13.203  0.1608 -1.4334 -0.8483
  192MPD1    H7 2985   3.462   3.942  13.323 -0.8372  0.9447  1.3462
  193MPD1     C 2986   4.181   4.277  16.312  0.9270 -0.6765  0.4737
  193MPD1    C1 2987   4.149   4.408  16.331  0.9443  0.4518 -0.4286
  193MPD1    C2 2988   4.225   4.488  16.419 -0.5415 -0.0361 -0.4389
  193MPD1    C3 2989   4.336   4.435  16.483  0.6440 -0.3361 -0.1617
  193MPD1    C4 2990   4.364   4.303  16.470 -0.2375  0.0368 -0.2197
  193MPD1    C5 2991   4.289   4.224  16.384 -0.8436  0.1363 -0.4619
  193MPD1     H 2992   4.208   4.595  16.416 -0.2264 -0.0126 -1.5758
  193MPD1    H1 2993   4.453   4.252  16.506 -1.6722 -1.9941  0.4592
  193MPD1    H2 2994   4.126   4.227  16.234 -2.1333  2.2976  0.7263
  193MPD1    H3 2995   4.334   4.129  16.357  1.1379  0.5703  1.2955
  193MPD1     N 2996   4.420   4.513  16.558  0.1876 -0.3166 -0.0206
  193MPD1    H5 2997   4.493   4.459  16.605  0.2516  0.0722  0.3263
  193MPD1    N1 2998   4.046   4.473  16.258  0.7300 -0.0018 -0.4755
  193MPD1    H6 2999   3.974   4.404  16.237  1.0169 -0.9852  1.8021
  193MPD1    H7 3000   4.015   4.548  16.319 -2.4171 -1.3743 -0.4264
  194MPD1     C 3001   3.030   2.352  16.175 -0.1648 -0.3144  0.4949
  194MPD1    C1 3002   3.063   2.239  16.111  0.0109 -0.4140 -0.3840
  194MPD1    C2 3003   3.070   2.117  16.178  0.0246 -0.2045 -0.1278
  194MPD1    C3 3004   3.041   2.103  16.311 -0.6459  0.1635 -0.7456
  194MPD1    C4 3005   3.013   2.222  16.376 -0.0012  0.0531 -0.1170
  194MPD1    C5 3006   3.011   2.339  16.309 -0.1400  0.4328 -0.4690
  194MPD1     H 3007   3.097   2.033  16.116  0.3824 -1.1564  1.3126
  194MPD1    H1 3008   2.997   2.224  16.483 -2.5927 -1.9281 -0.4742
  194MPD1    H2 3009   3.017   2.448  16.127 -3.2118 -1.7090 -1.4382
  194MPD1    H3 3010   2.988   2.426  16.369 -1.0101  0.1294 -0.3673
  194MPD1     N 3011   3.030   1.982  16.380 -0.8200  0.1344 -0.7432
  194MPD1    H5 3012   3.016   1.982  16.481 -1.4052 -2.1095 -0.8387
  194MPD1    N1 3013   3.077   2.232  15.970 -0.7094 -0.0327  0.1125
  194MPD1    H6 3014   3.149   2.165  15.943 -0.5494  0.2074 -0.0551
  194MPD1    H7 3015   3.099   2.320  15.924  1.4659  0.3697  1.8730
  195MPD1     C 3016   4.075   3.543  17.653 -0.2925 -0.2437  0.4854
  195MPD1    C1 3017   4.209   3.522  17.627  0.1367  0.0549 -0.2573
  195MPD1    C2 3018   4.257   3.391  17.626 -0.4212  0.0207 -0.6210
  195MPD1    C3 3019   4.174   3.279  17.665 -1.3033  0.4040 -0.2711
  195MPD1    C4 3020   4.045   3.313  17.696  0.2911  0.6170 -0.4889
  195MPD1    C5 3021   3.994   3.439  17.692  0.0180 -0.2102 -0.4932
  195MPD1     H 3022   4.352   3.367  17.579  0.4393 -1.7792  2.0262
  195MPD1    H1 3023   3.986   3.230  17.732 -0.4228  1.4230  0.2083
  195MPD1    H2 3024   4.030   3.641  17.643 -1.5427 -0.7935  0.8285
  195MPD1    H3 3025   3.886   3.449  17.702 -0.0683 -4.1940  2.5683
  195MPD1     N 3026   4.212   3.146  17.672 -0.1726  0.3322  0.4306
  195MPD1    H5 3027   4.130   3.086  17.668 -0.0950  0.2353  0.2415
  195MPD1    N1 3028   4.272   3.617  17.554 -0.2448 -0.5313 -0.0949
  195MPD1    H6 3029   4.371   3.602  17.573 -0.7150 -3.3558  0.1784
  195MPD1    H7 3030   4.242   3.706  17.594  1.2248 -0.1365  0.1128
  196MPD1     C 3031   3.640   2.607   0.166  0.5410  0.4966 -1.0236
  196MPD1    C1 3032   3.675   2.532   0.275 -0.1092 -0.1718 -0.2159
  196MPD1    C2 3033   3.729   2.601   0.390 -0.2801  0.2316 -0.0438
  196MPD1    C3 3034   3.726   2.737   0.394  0.1395  0.0908 -0.7520
  196MPD1    C4 3035   3.677   2.807   0.284  0.0554 -0.2465  0.9521
  196MPD1    C5 3036   3.644   2.748   0.168 -0.4550  0.6070 -0.3830
  196MPD1     H 3037   3.769   2.541   0.471  2.9708  0.3525 -1.5797
  196MPD1    H1 3038   3.682   2.916   0.282 -0.8699 -0.2081  0.5011
  196MPD1    H2 3039   3.601   2.564   0.075 -1.5731 -1.5920  0.8525
  196MPD1    H3 3040   3.628   2.807   0.078 -1.9383 -0.5481 -0.8759
  196MPD1     N 3041   3.781   2.810   0.499 -0.4589 -0.4120 -0.8654
  196MPD1    H5 3042   3.760   2.909   0.488  0.8596  0.2365  2.4248
  196MPD1    N1 3043   3.684   2.393   0.258  0.1971  0.3273  0.2543
  196MPD1    H6 3044   3.675   2.334   0.340  2.1519 -0.1572  0.1197
  196MPD1    H7 3045   3.609   2.354   0.202  1.4094 -1.9534  0.2180
  197MPD1     C 3046   3.069   4.593  17.101  0.6324 -0.1007  0.4256
  197MPD1    C1 3047   2.989   4.621  16.994 -0.2120  1.1366 -0.6724
  197MPD1    C2 3048   2.985   0.010  16.943 -1.7111 -0.5399  0.0914
  197MPD1    C3 3049   3.072   0.100  16.988  1.0770  0.0739 -0.6118
  197MPD1    C4 3050   3.150   0.083  17.101  0.1088  0.7713 -0.6297
  197MPD1    C5 3051   3.149   4.694  17.153 -0.0508  0.4393  0.0291
  197MPD1     H 3052   2.933   0.029  16.849  0.8340 -0.3774 -1.2849
  197MPD1    H1 3053   3.230   0.148  17.135  0.4649 -1.5426  2.9284
  197MPD1    H2 3054   3.070   4.496  17.149  0.4627 -0.4923 -0.3612
  197MPD1    H3 3055   3.208   4.669  17.240  0.4311  2.5191  0.3143
  197MPD1     N 3056   3.069   0.226  16.925  0.4782 -0.0890 -0.2595
  197MPD1    H5 3057   3.031   0.222  16.831 -2.0131  4.5345  0.5396
  197MPD1    N1 3058   2.903   4.523  16.949 -0.3668  0.1299 -0.1887
  197MPD1    H6 3059   2.876   4.536  16.851  0.7068 -0.9160 -0.6236
  197MPD1    H7 3060   2.937   4.427  16.955  1.5134  0.7761 -0.5782
  198MPD1     C 3061   0.731   3.141  15.114  0.1211  0.0576  0.3712
  198MPD1    C1 3062   0.630   3.228  15.088 -0.5255  0.4786 -0.2329
  198MPD1    C2 3063   0.584   3.293  15.203 -0.1025 -0.3208  0.3035
  198MPD1    C3 3064   0.631   3.275  15.330  0.9857  0.2285  0.3531
  198MPD1    C4 3065   0.737   3.196  15.348  0.2585 -0.3834  0.3393
  198MPD1    C5 3066   0.784   3.126  15.236  0.3492 -0.2490  0.5848
  198MPD1     H 3067   0.498   3.359  15.199 -0.8449 -1.2364  1.3076
  198MPD1    H1 3068   0.776   3.154  15.441  0.4866  1.8184  1.2485
  198MPD1    H2 3069   0.766   3.082  15.030  0.2607 -0.1715  0.5905
  198MPD1    H3 3070   0.862   3.050  15.245  2.6220  1.7905 -2.0431
  198MPD1     N 3071   0.579   3.357  15.436  0.2855  0.7523  0.3140
  198MPD1    H5 3072   0.505   3.419  15.404 -0.9356 -1.7443 -1.6736
  198MPD1    N1 3073   0.555   3.230  14.969 -0.1944 -0.6158 -0.9756
  198MPD1    H6 3074   0.520   3.322  14.944  0.8975 -0.1566 -0.8282
  198MPD1    H7 3075   0.607   3.207  14.884 -0.8851 -0.0824 -1.5458
  199MPD1     C 3076   2.879   0.619  10.334  0.6080  0.7191  0.0078
  199MPD1    C1 3077   2.809   0.734  10.333  0.9875 -0.1966 -0.3710
  199MPD1    C2 3078   2.696   0.741  10.252 -0.2125  0.5586  0.0570
  199MPD1    C3 3079   2.635   0.625  10.201 -0.0452  1.0646 -0.0797
  199MPD1    C4 3080   2.706   0.503  10.220 -0.8933  0.5113 -0.6814
  199MPD1    C5 3081   2.826   0.501  10.284  0.9728  0.1394 -0.0361
  199MPD1     H 3082   2.659   0.841  10.232 -1.3829 -0.2019 -1.6440
  199MPD1    H1 3083   2.670   0.406  10.188 -2.4709  0.9921 -0.3504
  199MPD1    H2 3084   2.979   0.619  10.377  0.0410  0.4030  1.3395
  199MPD1    H3 3085   2.875   0.406  10.303 -0.0533 -1.0254 -3.1906
  199MPD1     N 3086   2.516   0.623  10.119 -0.5317 -0.4606 -0.5179
  199MPD1    H5 3087   2.486   0.533  10.083 -0.1133 -0.2132 -1.4688
  199MPD1    N1 3088   2.881   0.847  10.362  0.0518 -0.1900  0.0849
  199MPD1    H6 3089   2.830   0.934  10.380 -2.4059 -1.7793  0.7278
  199MPD1    H7 3090   2.942   0.844  10.444  1.4219  1.2944 -0.8827
  200MPD1     C 3091   0.895   0.046  15.070  0.4212  0.6242 -0.4599
  200MPD1    C1 3092   0.858   0.028  14.940 -0.3032  0.1931 -0.2019
  200MPD1    C2 3093   0.964   0.006  14.849  0.5509 -0.0278  0.0608
  200MPD1    C3 3094   1.095   4.721  14.886 -0.0992  0.2043 -0.0771
  200MPD1    C4 3095   1.122   4.728  15.019  0.1539  0.8732 -0.5422
  200MPD1    C5 3096   1.027   0.031  15.108 -0.2722 -0.0881  0.4286
  200MPD1     H 3097   0.930   4.736  14.746  3.6843  1.2778 -1.0402
  200MPD1    H1 3098   1.221   4.727  15.063 -0.6162  1.0731  1.1966
  200MPD1    H2 3099   0.824   0.067  15.149 -0.0302 -0.7511 -0.5007
  200MPD1    H3 3100   1.063   0.044  15.210 -2.4004 -0.1926  1.1968
  200MPD1     N 3101   1.187   4.683  14.789  0.0649 -0.4491 -0.4928
  200MPD1    H5 3102   1.152   4.652  14.699  0.6859 -2.6093  0.0151
  200MPD1    N1 3103   0.729   0.069  14.897  0.2407 -0.6833 -0.0146
  200MPD1    H6 3104   0.695   0.025  14.812  1.1660  3.1963 -2.3861
  200MPD1    H7 3105   0.660   0.066  14.972 -0.1756  0.8526 -0.3492
  201MPD1     C 3106   2.922   3.839  13.281  0.5202  0.2591  0.2676
  201MPD1    C1 3107   2.932   3.719  13.209  0.1339 -0.0915 -0.1600
  201MPD1    C2 3108   3.050   3.645  13.217  0.1066  0.3090 -0.9529
  201MPD1    C3 3109   3.159   3.688  13.295  0.8815  0.1005 -0.2219
  201MPD1    C4 3110   3.145   3.811  13.359  0.0762 -0.3038 -0.2018
  201MPD1    C5 3111   3.033   3.884  13.349  0.7582  0.5821  0.4970
  201MPD1     H 3112   3.061   3.551  13.164  2.2956  0.9296 -1.6078
  201MPD1    H1 3113   3.226   3.862  13.411  0.2494 -2.4141  1.6069
  201MPD1    H2 3114   2.828   3.893  13.288  1.7050  2.2774  0.5149
  201MPD1    H3 3115   3.016   3.980  13.396 -2.6659  0.5321 -0.6472
  201MPD1     N 3116   3.270   3.603  13.303 -0.3237 -0.0099 -0.4102
  201MPD1    H5 3117   3.265   3.504  13.284 -1.3001  0.2419 -1.4434
  201MPD1    N1 3118   2.821   3.664  13.152 -0.2632  0.3137 -0.3006
  201MPD1    H6 3119   2.832   3.596  13.077 -0.1206  1.5070 -1.3629
  201MPD1    H7 3120   2.751   3.730  13.121  0.1766  1.2577  0.6957
  202MPD1     C 3121   4.007   4.227   9.986  0.0720 -0.4971  0.3596
  202MPD1    C1 3122   3.915   4.320   9.942  0.0550 -0.0004 -0.8017
  202MPD1    C2 3123   3.785   4.280   9.966 -0.0696  0.4458  0.2254
  202MPD1    C3 3124   3.744   4.151   9.998 -0.4895  0.1185  0.3667
  202MPD1    C4 3125   3.844   4.059  10.022  0.0151 -0.0810  0.3962
  202MPD1    C5 3126   3.974   4.100  10.019 -0.3645  0.0651 -0.9309
  202MPD1     H 3127   3.719   4.359   9.931 -0.0463  0.2977 -0.1547
  202MPD1    H1 3128   3.820   3.955  10.035 -0.5071 -0.1597 -1.2685
  202MPD1    H2 3129   4.112   4.246  10.005  0.0774 -1.0400  0.8771
  202MPD1    H3 3130   4.054   4.031  10.046 -0.0148  1.0920  0.6717
  202MPD1     N 3131   3.611   4.105  10.005 -0.3309 -0.1771  0.8012
  202MPD1    H5 3132   3.611   4.016  10.054 -0.5371 -0.9931 -0.6570
  202MPD1    N1 3133   3.952   4.452   9.947 -0.1901 -0.7857  0.0580
  202MPD1    H6 3134   3.889   4.515   9.897  2.7513  3.1570  1.3701
  202MPD1    H7 3135   4.046   4.472   9.915 -1.4728 -0.0171 -3.2448
  203MPD1     C 3136   1.666   4.292  12.964  1.2471  0.2664  0.5765
  203MPD1    C1 3137   1.724   4.241  13.081  0.0760 -0.8156  0.1403
  203MPD1    C2 3138   1.850   4.180  13.065 -0.8256  0.8330  0.0632
  203MPD1    C3 3139   1.899   4.148  12.938 -0.0681  0.1724 -0.7219
  203MPD1    C4 3140   1.832   4.195  12.825 -0.1513  0.8714 -0.2995
  203MPD1    C5 3141   1.720   4.270  12.840  0.0507  0.2478 -0.2719
  203MPD1     H 3142   1.907   4.158  13.155 -0.0361 -0.9833 -0.8753
  203MPD1    H1 3143   1.881   4.179  12.730 -0.0565  0.9052 -0.2559
  203MPD1    H2 3144   1.573   4.348  12.971  1.0364 -0.3402  2.8142
  203MPD1    H3 3145   1.673   4.298  12.746  1.7074 -0.1052 -1.2043
  203MPD1     N 3146   2.022   4.073  12.927 -0.3284  0.2062  0.1041
  203MPD1    H5 3147   2.068   4.051  13.015  0.0999  0.7674  0.0178
  203MPD1    N1 3148   1.676   4.285  13.206 -0.4842 -0.3817  0.4311
  203MPD1    H6 3149   1.574   4.281  13.203 -0.5281  1.1070  0.1853
  203MPD1    H7 3150   1.701   4.211  13.272 -0.7656  1.4941  2.6486
  204MPD1     C 3151   2.130   1.147  17.345 -0.4597  0.0821 -0.2701
  204MPD1    C1 3152   2.203   1.115  17.231  0.1590 -0.5477 -0.1034
  204MPD1    C2 3153   2.259   0.987  17.227 -0.0307  0.0684  0.4688
  204MPD1    C3 3154   2.222   0.888  17.321 -0.0874  0.2559 -0.2569
  204MPD1    C4 3155   2.149   0.927  17.435  0.0065 -0.1549 -0.0235
  204MPD1    C5 3156   2.104   1.053  17.437 -0.2818 -0.3180  0.1021
  204MPD1     H 3157   2.322   0.970  17.140 -1.7131 -1.6354 -0.4127
  204MPD1    H1 3158   2.126   0.867  17.523  0.6967 -1.9384 -1.0488
  204MPD1    H2 3159   2.121   1.249  17.379  2.4715 -0.0364  0.8130
  204MPD1    H3 3160   2.053   1.090  17.525 -0.3208  0.4886 -0.2593
  204MPD1     N 3161   2.264   0.757  17.295 -0.4144 -0.1016  0.1121
  204MPD1    H5 3162   2.331   0.748  17.219  0.4144  2.4688  0.5411
  204MPD1    N1 3163   2.267   1.223  17.156 -0.3616 -0.0250 -0.0276
  204MPD1    H6 3164   2.208   1.306  17.151 -2.5482 -1.5676  0.1533
  204MPD1    H7 3165   2.287   1.190  17.062 -1.2550 -1.4144  0.2559
  205MPD1     C 3166   1.895   4.277  16.654  0.0935 -0.0365 -0.2078
  205MPD1    C1 3167   1.878   4.150  16.710 -0.0351  0.8405 -0.3674
  205MPD1    C2 3168   1.940   4.128  16.829  0.0549 -0.1744 -0.0997
  205MPD1    C3 3169   1.985   4.234  16.910  0.2579 -0.5799  0.8911
  205MPD1    C4 3170   1.991   4.363  16.856  0.0878 -0.4022 -0.5761
  205MPD1    C5 3171   1.949   4.381  16.727  0.3028  0.5108 -0.2336
  205MPD1     H 3172   1.952   4.025  16.859 -0.4669  0.0982  1.0357
  205MPD1    H1 3173   2.021   4.449  16.915 -0.7276 -0.9987  0.7199
  205MPD1    H2 3174   1.867   4.297  16.552  0.3528 -1.5068 -0.5700
  205MPD1    H3 3175   1.951   4.479  16.681 -0.5145  0.9659  0.6995
  205MPD1     N 3176   2.027   4.223  17.042  0.1373 -0.0556 -0.1625
  205MPD1    H5 3177   2.074   4.305  17.080 -0.4641  0.3737 -0.3409
  205MPD1    N1 3178   1.865   4.045  16.622 -0.6305 -0.1220  0.6796
  205MPD1    H6 3179   1.800   4.060  16.545  0.2390 -1.1911 -0.2633
  205MPD1    H7 3180   1.835   3.962  16.670  0.9796 -1.7264 -1.0701
  206MPD1     C 3181   2.418   1.953  16.890  0.2327  0.5289  0.1248
  206MPD1    C1 3182   2.351   1.836  16.860 -0.8288 -0.2429 -0.4528
  206MPD1    C2 3183   2.289   1.828  16.740  0.1146 -0.0308  0.0395
  206MPD1    C3 3184   2.300   1.936  16.658  0.4561 -0.1788 -0.2071
  206MPD1    C4 3185   2.352   2.061  16.699  0.7925 -0.3936 -0.0613
  206MPD1    C5 3186   2.408   2.073  16.822 -0.1934  0.9293 -0.0065
  206MPD1     H 3187   2.249   1.732  16.711 -0.3517 -0.5910  2.4888
  206MPD1    H1 3188   2.338   2.157  16.650 -1.7268 -0.3252  0.8155
  206MPD1    H2 3189   2.479   1.958  16.980  1.1493  0.1009 -0.4768
  206MPD1    H3 3190   2.455   2.156  16.873  1.8817  0.7381 -1.6238
  206MPD1     N 3191   2.233   1.945  16.529  0.1511  0.2142 -0.2655
  206MPD1    H5 3192   2.244   2.028  16.473 -0.4902  0.9763  0.7406
  206MPD1    N1 3193   2.373   1.729  16.946 -0.0185 -0.0095  0.4893
  206MPD1    H6 3194   2.297   1.662  16.938  1.4445 -1.2587 -2.6695
  206MPD1    H7 3195   2.382   1.757  17.044 -1.4093 -0.3879  0.7314
  207MPD1     C 3196   0.205   3.986   9.853 -0.0182 -0.4766  0.2270
  207MPD1    C1 3197   0.166   4.103   9.795 -0.2166  0.5345  0.2944
  207MPD1    C2 3198   0.196   4.218   9.864 -0.3241 -0.6343  0.9466
  207MPD1    C3 3199   0.278   4.229   9.976 -0.1688 -0.3335 -0.1219
  207MPD1    C4 3200   0.321   4.109  10.022  0.7116  0.0410  0.0860
  207MPD1    C5 3201   0.288   3.990   9.961 -0.7951  0.0603 -0.0980
  207MPD1     H 3202   0.140   4.306   9.834  0.9533 -0.3253 -0.5274
  207MPD1    H1 3203   0.383   4.113  10.111  0.5695 -0.7685  0.2179
  207MPD1    H2 3204   0.179   3.887   9.816 -0.5555 -0.4490  0.5256
  207MPD1    H3 3205   0.316   3.894  10.002 -0.4516 -0.1731 -0.8807
  207MPD1     N 3206   0.300   4.352  10.038 -0.1634  0.3012  0.0973
  207MPD1    H5 3207   0.352   4.343  10.125  0.7649  0.3676 -0.4477
  207MPD1    N1 3208   0.064   4.099   9.696 -0.0538 -0.1032 -0.2516
  207MPD1    H6 3209   0.052   4.017   9.637 -0.6562 -1.1471  1.3427
  207MPD1    H7 3210   0.045   4.185   9.645 -0.6350 -1.3286 -2.1045
  208MPD1     C 3211   2.242   3.275  16.532 -0.3978 -0.6736 -0.5148
  208MPD1    C1 3212   2.285   3.144  16.540  0.6180 -0.3624 -0.7877
  208MPD1    C2 3213   2.316   3.100  16.671  0.5068  0.0592 -0.1712
  208MPD1    C3 3214   2.282   3.176  16.780  0.5524  0.5001 -0.1351
  208MPD1    C4 3215   2.224   3.301  16.764 -0.1193  0.6170 -0.0843
  208MPD1    C5 3216   2.208   3.353  16.640  0.5676 -0.1153  0.0614
  208MPD1     H 3217   2.361   3.002  16.680 -1.1689 -0.7060 -0.1923
  208MPD1    H1 3218   2.209   3.375  16.841 -0.2782 -0.2416  0.7065
  208MPD1    H2 3219   2.245   3.318  16.433 -3.3869 -1.9721 -1.1646
  208MPD1    H3 3220   2.176   3.457  16.630  1.0007  0.0109 -0.0274
  208MPD1     N 3221   2.323   3.124  16.907 -0.3599  0.0163 -0.2545
  208MPD1    H5 3222   2.332   3.023  16.908  0.1039  0.0786  0.8526
  208MPD1    N1 3223   2.334   3.090  16.418 -0.9893  0.4342  0.1280
  208MPD1    H6 3224   2.283   3.111  16.332  1.2739  2.5626 -0.6934
  208MPD1    H7 3225   2.338   2.989  16.430  0.7186  0.7187  2.0174
  209MPD1     C 3226   4.604   4.158  11.166 -0.1932 -0.7167  0.1969
  209MPD1    C1 3227   4.651   4.274  11.100  0.0737 -0.1431 -0.1487
  209MPD1    C2 3228   0.054   4.277  11.089 -0.6187 -0.1957  0.4306
  209MPD1    C3 3229   0.130   4.189  11.167  0.3873  0.3221 -0.2843
  209MPD1    C4 3230   0.082   4.091  11.243  0.1217  0.1970 -0.8125
  209MPD1    C5 3231   4.689   4.079  11.239 -0.1883  0.5682 -0.3246
  209MPD1     H 3232   0.102   4.352  11.028  0.6866 -0.5915  0.9865
  209MPD1    H1 3233   0.144   4.018  11.294  0.4832  1.0130 -0.0891
  209MPD1    H2 3234   4.499   4.130  11.163 -0.8925  1.6421  2.3111
  209MPD1    H3 3235   4.655   3.994  11.296 -3.2563  2.0397  0.0660
  209MPD1     N 3236   0.270   4.211  11.167 -0.5457  0.4144  0.1090
  209MPD1    H5 3237   0.304   4.285  11.106 -1.2120  1.4386  0.9645
  209MPD1    N1 3238   4.563   4.331  11.003 -0.6025 -0.2528 -0.2584
  209MPD1    H6 3239   4.584   4.429  10.988 -0.8369  0.1698  2.1305
  209MPD1    H7 3240   4.469   4.338  11.042 -0.7678  0.8594 -0.8778
  210MPD1     C 3241   1.338   4.272  11.440  0.2286  0.3001  0.1424
  210MPD1    C1 3242   1.237   4.218  11.517 -1.0838  0.0905  0.4025
  210MPD1    C2 3243   1.113   4.226  11.461 -0.1288 -0.4759 -0.1526
  210MPD1    C3 3244   1.088   4.277  11.331 -0.2705  0.8014  0.7144
  210MPD1    C4 3245   1.198   4.330  11.262  0.3827  0.0294 -0.7632
  210MPD1    C5 3246   1.318   4.332  11.321 -0.9731 -0.2418 -0.3186
  210MPD1     H 3247   1.036   4.183  11.524  0.3428  0.5430  1.1223
  210MPD1    H1 3248   1.181   4.374  11.164 -1.8809 -1.2610 -0.9381
  210MPD1    H2 3249   1.443   4.259  11.460 -0.2335 -2.1392  1.0916
  210MPD1    H3 3250   1.408   4.366  11.272  0.6219 -1.3339  1.8218
  210MPD1     N 3251   0.960   4.284  11.269 -0.1604 -0.2003 -0.8819
  210MPD1    H5 3252   0.959   4.353  11.195 -1.1014 -0.3207 -0.9895
  210MPD1    N1 3253   1.263   4.140  11.629 -0.0017  0.1570 -0.2624
  210MPD1    H6 3254   1.181   4.132  11.689  0.0751 -0.4973 -0.2477
  210MPD1    H7 3255   1.342   4.173  11.683 -1.3188 -0.4693  2.0230
  211MPD1     C 3256   2.603   3.372  16.211  0.2075 -0.1947  0.3509
  211MPD1    C1 3257   2.687   3.455  16.129 -0.3544 -0.4179 -0.5460
  211MPD1    C2 3258   2.653   3.590  16.123  0.4915 -0.2570 -0.3550
  211MPD1    C3 3259   2.532   3.631  16.171  0.5874 -0.1720  0.3622
  211MPD1    C4 3260   2.448   3.543  16.238 -0.0619  0.3828  0.0238
  211MPD1    C5 3261   2.483   3.414  16.248  0.6181  0.4814  1.3325
  211MPD1     H 3262   2.723   3.653  16.070 -0.1650  1.9017  1.3443
  211MPD1    H1 3263   2.347   3.574  16.263  0.5865  2.8045 -0.3690
  211MPD1    H2 3264   2.626   3.268  16.228  0.3304  0.0324  1.5649
  211MPD1    H3 3265   2.424   3.338  16.298 -2.0511  1.1445 -0.8101
  211MPD1     N 3266   2.489   3.764  16.152  0.0755 -0.7326  0.1039
  211MPD1    H5 3267   2.563   3.830  16.129  0.0089 -0.2680  1.1879
  211MPD1    N1 3268   2.812   3.415  16.082 -0.5884  0.6518 -0.0240
  211MPD1    H6 3269   2.818   3.314  16.079  1.4669  0.7137  1.5835
  211MPD1    H7 3270   2.838   3.458  15.993 -1.4669  0.4218 -0.3859
  212MPD1     C 3271   1.778   2.437  16.201 -0.0711 -0.1960  0.4454
  212MPD1    C1 3272   1.782   2.477  16.335  0.8315  0.0256  0.3210
  212MPD1    C2 3273   1.714   2.397  16.432 -0.2071 -0.5717 -0.3087
  212MPD1    C3 3274   1.636   2.291  16.384  0.3558  0.9057 -0.4164
  212MPD1    C4 3275   1.644   2.251  16.249  0.6166 -0.1422  0.4625
  212MPD1    C5 3276   1.709   2.328  16.163  1.8306 -0.5023 -0.1926
  212MPD1     H 3277   1.714   2.418  16.538 -1.1177  0.0188 -0.4293
  212MPD1    H1 3278   1.577   2.172  16.218  3.3303 -2.1113 -0.4125
  212MPD1    H2 3279   1.821   2.494  16.119  0.4628 -1.5132 -0.1911
  212MPD1    H3 3280   1.697   2.310  16.056  0.4245 -0.5492 -0.0236
  212MPD1     N 3281   1.563   2.204  16.464 -0.2357  0.3501 -0.5550
  212MPD1    H5 3282   1.532   2.117  16.421  1.2272 -0.1736 -0.5689
  212MPD1    N1 3283   1.878   2.580  16.371 -0.0427 -0.4063  0.1564
  212MPD1    H6 3284   1.846   2.650  16.437  0.6980 -0.6995  0.8209
  212MPD1    H7 3285   1.909   2.631  16.288  0.3937 -0.1774  0.4599
  213MPD1     C 3286   4.204   2.905  15.706 -0.2581 -0.4347 -0.4071
  213MPD1    C1 3287   4.239   3.002  15.615 -0.2340 -0.5219  0.7189
  213MPD1    C2 3288   4.164   3.001  15.496  0.3975  0.5179  0.2040
  213MPD1    C3 3289   4.110   2.884  15.447 -0.6824 -0.4674 -1.0129
  213MPD1    C4 3290   4.104   2.779  15.533 -0.2624  0.0771  0.3746
  213MPD1    C5 3291   4.152   2.790  15.660 -0.0066 -1.0988 -0.1302
  213MPD1     H 3292   4.168   3.094  15.439  0.6382  1.7188  2.1838
  213MPD1    H1 3293   4.064   2.681  15.510 -0.6634  0.3064  0.1019
  213MPD1    H2 3294   4.237   2.905  15.809  0.4162 -3.2386 -0.6252
  213MPD1    H3 3295   4.133   2.700  15.718 -1.3119  0.4402  1.8101
  213MPD1     N 3296   4.055   2.878  15.310  0.0405  0.3974  0.5166
  213MPD1    H5 3297   4.063   2.965  15.259 -0.2741  0.0778 -0.0721
  213MPD1    N1 3298   4.276   3.124  15.665 -0.2529 -0.2871  0.2413
  213MPD1    H6 3299   4.346   3.124  15.739 -1.6330  0.8048  1.5549
  213MPD1    H7 3300   4.312   3.178  15.587  0.3678  1.4796  1.7398
  214MPD1     C 3301   3.283   2.404  14.674 -0.5367 -0.0699 -0.5292
  214MPD1    C1 3302   3.336   2.375  14.794 -0.2213 -0.5268  0.4381
  214MPD1    C2 3303   3.432   2.457  14.840  0.7049 -0.2831 -0.3111
  214MPD1    C3 3304   3.477   2.570  14.775  0.4776 -0.5624 -0.2498
  214MPD1    C4 3305   3.413   2.604  14.659  0.1565  0.0187  0.4402
  214MPD1    C5 3306   3.320   2.522  14.602  0.0113 -0.1638 -0.5649
  214MPD1     H 3307   3.470   2.417  14.934  0.4717 -1.2607 -0.6342
  214MPD1    H1 3308   3.442   2.691  14.601 -1.1624  0.5136  0.5252
  214MPD1    H2 3309   3.206   2.341  14.630 -0.8526  1.0951 -1.6646
  214MPD1    H3 3310   3.278   2.547  14.505  2.1176  0.6201 -1.2691
  214MPD1     N 3311   3.588   2.653  14.820 -0.2709  0.4026  0.0356
  214MPD1    H5 3312   3.604   2.739  14.770  0.2827  0.8478  0.9848
  214MPD1    N1 3313   3.308   2.248  14.855  0.3422  0.2982 -0.0426
  214MPD1    H6 3314   3.325   2.264  14.954 -2.4553  1.1072  0.3009
  214MPD1    H7 3315   3.213   2.217  14.836 -0.0005  1.5362 -0.3459
  215MPD1     C 3316   3.632   3.734  10.833  0.8978  0.1015 -0.3841
  215MPD1    C1 3317   3.623   3.874  10.824  0.2673  0.4287  0.4288
  215MPD1    C2 3318   3.728   3.952  10.874  0.5262 -0.0362 -0.1213
  215MPD1    C3 3319   3.854   3.888  10.892 -0.0633  0.2448 -0.7404
  215MPD1    C4 3320   3.868   3.754  10.871 -0.3502  0.1097 -0.5180
  215MPD1    C5 3321   3.758   3.676  10.845  0.8576  0.3617  0.1636
  215MPD1     H 3322   3.715   4.059  10.882  1.1527  0.0210  0.1061
  215MPD1    H1 3323   3.966   3.710  10.881 -0.4531 -0.0756 -0.3353
  215MPD1    H2 3324   3.547   3.668  10.818 -0.2541  1.4931  0.0707
  215MPD1    H3 3325   3.779   3.570  10.841 -0.2507  0.1121  1.1346
  215MPD1     N 3326   3.965   3.972  10.933 -0.4433 -0.4963 -0.1457
  215MPD1    H5 3327   3.948   4.070  10.915  0.2540  0.0384  2.0538
  215MPD1    N1 3328   3.492   3.930  10.808 -0.4527 -0.2907  0.0998
  215MPD1    H6 3329   3.444   3.883  10.732  1.0523 -0.5372 -0.6942
  215MPD1    H7 3330   3.493   4.029  10.783 -3.2929 -0.1123  0.7528
  216MPD1     C 3331   2.568   1.597  16.109  0.0742 -0.4612 -0.5894
  216MPD1    C1 3332   2.583   1.650  16.233  0.6086  0.3696 -0.0799
  216MPD1    C2 3333   2.501   1.597  16.334 -0.1712  0.5827 -0.5696
  216MPD1    C3 3334   2.401   1.506  16.318  0.2839  0.4308  0.4491
  216MPD1    C4 3335   2.383   1.466  16.192 -0.3164 -0.5892 -0.2219
  216MPD1    C5 3336   2.469   1.504  16.091 -0.0739 -0.0359  0.5840
  216MPD1     H 3337   2.525   1.626  16.436 -0.9958 -0.4349 -0.0933
  216MPD1    H1 3338   2.310   1.395  16.154 -2.5880  1.1965  0.7595
  216MPD1    H2 3339   2.629   1.631  16.026 -0.4678  0.3489 -0.6607
  216MPD1    H3 3340   2.457   1.463  15.992  1.1974  1.5356 -0.2113
  216MPD1     N 3341   2.322   1.462  16.426  0.3441 -0.6400 -0.0826
  216MPD1    H5 3342   2.358   1.490  16.517 -1.2170  2.7689 -0.5406
  216MPD1    N1 3343   2.701   1.722  16.257 -0.4287 -0.0980 -0.3654
  216MPD1    H6 3344   2.746   1.772  16.181 -0.9538  0.4811 -0.2887
  216MPD1    H7 3345   2.696   1.786  16.336 -0.8438  0.2704 -0.6888
  217MPD1     C 3346   2.486   0.100   9.368  0.6127  0.3567 -1.1291
  217MPD1    C1 3347   2.596   0.014   9.380 -0.1230 -0.3645  0.0668
  217MPD1    C2 3348   2.568   4.614   9.403  0.1372 -0.6563 -0.1114
  217MPD1    C3 3349   2.440   4.564   9.395  0.0241  0.1584 -0.3176
  217MPD1    C4 3350   2.335   4.654   9.372 -0.0367 -0.6485 -0.1517
  217MPD1    C5 3351   2.357   0.049   9.364 -0.9018 -0.0355  0.1759
  217MPD1     H 3352   2.655   4.552   9.420 -1.0131 -2.6249 -1.3950
  217MPD1    H1 3353   2.231   4.625   9.374  0.1430 -1.2717  0.2045
  217MPD1    H2 3354   2.500   0.207   9.368  0.4452  0.3820  0.2033
  217MPD1    H3 3355   2.275   0.119   9.353 -0.4156  0.3723 -0.8657
  217MPD1     N 3356   2.404   4.428   9.432 -0.8554 -0.3055  0.2452
  217MPD1    H5 3357   2.305   4.411   9.446 -0.9282  0.7639  1.0964
  217MPD1    N1 3358   2.730   0.066   9.383 -0.5217 -0.0426 -0.1089
  217MPD1    H6 3359   2.744   0.150   9.327 -2.4226  0.7087  0.5457
  217MPD1    H7 3360   2.792   4.733   9.342  0.2861 -0.7925  2.3785
  218MPD1     C 3361   3.396   4.392  13.227 -0.5595 -0.4453  0.1246
  218MPD1    C1 3362   3.539   4.385  13.224  0.4237  0.4230 -0.3833
  218MPD1    C2 3363   3.594   4.334  13.109  0.0938  0.0220  0.0530
  218MPD1    C3 3364   3.518   4.297  13.000 -0.2958  1.1510  0.4392
  218MPD1    C4 3365   3.381   4.308  13.003 -0.4478  0.0403 -0.1311
  218MPD1    C5 3366   3.318   4.353  13.120 -0.0872 -0.1504 -0.1254
  218MPD1     H 3367   3.703   4.334  13.103  0.1650 -0.0696  1.3243
  218MPD1    H1 3368   3.315   4.270  12.927 -0.2068  0.0137 -0.3253
  218MPD1    H2 3369   3.349   4.411  13.323 -0.4825  0.3846 -0.0020
  218MPD1    H3 3370   3.210   4.358  13.116 -0.0602  0.5999  0.2248
  218MPD1     N 3371   3.590   4.238  12.890  0.5407  0.7166  0.8368
  218MPD1    H5 3372   3.687   4.217  12.915  1.0858  0.7269 -1.2467
  218MPD1    N1 3373   3.626   4.406  13.336  0.0254  0.2901  0.3131
  218MPD1    H6 3374   3.586   4.472  13.402 -1.3532  1.0870 -1.3058
  218MPD1    H7 3375   3.711   4.455  13.307  0.9163 -2.0976 -1.0974
  219MPD1     C 3376   4.096   4.438  12.020 -0.4325 -0.8064 -0.4051
  219MPD1    C1 3377   4.036   4.504  12.125 -1.3505  0.4054 -0.2017
  219MPD1    C2 3378   3.943   4.438  12.209  0.0726  0.0564  0.1346
  219MPD1    C3 3379   3.942   4.301  12.192  0.1433 -0.0530 -0.1878
  219MPD1    C4 3380   4.002   4.237  12.093  0.0038  1.1055  0.0798
  219MPD1    C5 3381   4.084   4.302  12.009  0.6369  0.4744 -0.3571
  219MPD1     H 3382   3.895   4.482  12.296 -1.9379 -0.8514 -0.5182
  219MPD1    H1 3383   3.976   4.132  12.082  1.9505  0.5225  1.1530
  219MPD1    H2 3384   4.165   4.481  11.947  2.1233 -0.8664  1.9618
  219MPD1    H3 3385   4.128   4.248  11.925  0.3893 -1.2056  0.6044
  219MPD1     N 3386   3.861   4.224  12.276 -0.4163  0.0856 -0.7053
  219MPD1    H5 3387   3.873   4.124  12.261  2.3366  0.0472  1.7022
  219MPD1    N1 3388   4.049   4.644  12.138 -0.0610  0.0188 -0.4134
  219MPD1    H6 3389   4.059   4.670  12.236  1.4050  0.8194 -0.7769
  219MPD1    H7 3390   4.134   4.664  12.086 -0.4459 -0.0640 -1.0755
  220MPD1     C 3391   3.921   0.500   9.692 -0.4776  0.4049  0.0503
  220MPD1    C1 3392   3.987   0.524   9.811 -0.1243 -0.4642  0.1701
  220MPD1    C2 3393   3.960   0.444   9.918  0.3169  0.8790  0.3046
  220MPD1    C3 3394   3.876   0.343   9.906 -0.2742  0.2042 -0.2991
  220MPD1    C4 3395   3.817   0.321   9.779 -0.2039 -0.6528 -0.1533
  220MPD1    C5 3396   3.825   0.408   9.682 -0.0190  0.3477 -0.2627
  220MPD1     H 3397   3.999   0.447  10.019 -1.6395  1.2382  1.0374
  220MPD1    H1 3398   3.753   0.236   9.758 -0.4570 -0.6278  0.5215
  220MPD1    H2 3399   3.939   0.571   9.612 -1.1551  0.1093 -0.3722
  220MPD1    H3 3400   3.764   0.388   9.594 -1.8637 -1.3450  1.4016
  220MPD1     N 3401   3.855   0.258  10.018  0.7696 -0.3509  0.0873
  220MPD1    H5 3402   3.900   0.287  10.104  0.5637  0.4056 -0.0589
  220MPD1    N1 3403   4.069   0.639   9.827  0.6137  0.2062 -0.1657
  220MPD1    H6 3404   4.128   0.628   9.908 -1.6467  0.3885  1.5160
  220MPD1    H7 3405   4.123   0.673   9.747  0.2308  1.0946 -0.0562
  221MPD1     C 3406   1.553   3.293  15.982 -0.2001  0.8756 -0.4974
  221MPD1    C1 3407   1.622   3.410  15.991  0.6386  0.4360  0.3730
  221MPD1    C2 3408   1.756   3.403  15.945 -0.0543  0.4031  0.3662
  221MPD1    C3 3409   1.819   3.293  15.901  0.0667  0.0620  0.0447
  221MPD1    C4 3410   1.743   3.173  15.903  0.0346 -0.4322 -0.0782
  221MPD1    C5 3411   1.611   3.173  15.947 -0.1768 -0.0882 -0.0090
  221MPD1     H 3412   1.803   3.500  15.956 -0.0597  0.4179  0.2608
  221MPD1    H1 3413   1.796   3.081  15.881  0.9407  0.5229 -1.9014
  221MPD1    H2 3414   1.451   3.285  16.016  0.3362 -0.7001  0.7265
  221MPD1    H3 3415   1.544   3.087  15.945 -0.8026  0.3811  0.8592
  221MPD1     N 3416   1.949   3.295  15.847  0.3613  0.0368  0.4147
  221MPD1    H5 3417   1.993   3.205  15.830 -1.7927 -1.3489  2.2939
  221MPD1    N1 3418   1.548   3.527  16.008 -0.4032  0.2787  0.5858
  221MPD1    H6 3419   1.601   3.597  16.060  1.3736 -1.0646  0.6092
  221MPD1    H7 3420   1.467   3.517  16.068 -1.4500 -0.6843 -0.9949
  222MPD1     C 3421   1.886   1.934  16.695  0.3666 -0.6626  0.0653
  222MPD1    C1 3422   1.817   1.864  16.796 -0.0848  0.9250 -0.0568
  222MPD1    C2 3423   1.753   1.936  16.899  0.3294 -0.6690  0.1301
  222MPD1    C3 3424   1.739   2.069  16.886  0.7870  0.0757  0.0778
  222MPD1    C4 3425   1.792   2.138  16.780 -0.0949  0.5215  0.0689
  222MPD1    C5 3426   1.866   2.070  16.681 -0.2710 -0.5425 -0.5835
  222MPD1     H 3427   1.705   1.871  16.971 -1.7460 -1.6206 -2.1254
  222MPD1    H1 3428   1.783   2.246  16.773 -0.7675  0.4922  0.3939
  222MPD1    H2 3429   1.931   1.882  16.611  3.3552  1.9437  0.0790
  222MPD1    H3 3430   1.905   2.128  16.598 -0.3680 -0.6994 -0.7372
  222MPD1     N 3431   1.680   2.147  16.988  0.1572 -0.0213 -0.5017
  222MPD1    H5 3432   1.674   2.248  16.979  1.5231  0.2431  1.7394
  222MPD1    N1 3433   1.843   1.721  16.809 -0.0934 -0.3849  0.6425
  222MPD1    H6 3434   1.771   1.655  16.839 -2.1142  1.2951 -0.4927
  222MPD1    H7 3435   1.886   1.677  16.728  0.9490 -1.6179  1.8632
  223MPD1     C 3436   1.009   1.904  17.662 -0.4644 -0.0597  0.3559
  223MPD1    C1 3437   1.077   1.843  17.562  0.6772  0.1686 -0.1047
  223MPD1    C2 3438   1.166   1.916  17.483 -0.5518 -0.1487 -0.2516
  223MPD1    C3 3439   1.178   2.052  17.500  0.5421 -0.6271  0.3378
  223MPD1    C4 3440   1.111   2.113  17.603 -0.2848 -0.1174 -0.0486
  223MPD1    C5 3441   1.019   2.038  17.675  0.6373  0.7083  0.3998
  223MPD1     H 3442   1.208   1.858  17.401 -0.6943 -3.4813  2.0466
  223MPD1    H1 3443   1.124   2.219  17.623  1.5260 -0.5284  1.0015
  223MPD1    H2 3444   0.965   1.843  17.740  1.0354  1.5623  2.4817
  223MPD1    H3 3445   0.949   2.082  17.745 -0.9960  0.0733 -0.8276
  223MPD1     N 3446   1.263   2.125  17.406 -0.9851 -0.5841  0.2488
  223MPD1    H5 3447   1.299   2.061  17.336 -0.5816  0.0129 -0.0815
  223MPD1    N1 3448   1.072   1.704  17.551  0.0456  0.2322 -0.1120
  223MPD1    H6 3449   1.069   1.679  17.452  0.0450 -0.4671  0.0656
  223MPD1    H7 3450   0.987   1.660  17.584  0.0460  0.0377 -0.3650
  224MPD1     C 3451   3.075   0.460   9.557 -0.3115 -0.2166 -0.6228
  224MPD1    C1 3452   3.174   0.364   9.585 -0.2471 -0.1629  0.4821
  224MPD1    C2 3453   3.135   0.231   9.615  0.4108 -0.4522 -0.5491
  224MPD1    C3 3454   2.999   0.199   9.603  0.6557 -0.1938  1.0841
  224MPD1    C4 3455   2.905   0.292   9.564  0.2612 -0.0899 -0.1292
  224MPD1    C5 3456   2.940   0.424   9.546 -0.3343  0.7870  0.6285
  224MPD1     H 3457   3.204   0.149   9.633  0.9848 -0.1448 -1.3591
  224MPD1    H1 3458   2.802   0.269   9.539 -0.6475  2.2892  1.3483
  224MPD1    H2 3459   3.096   0.565   9.543 -1.9806  0.1212 -0.5754
  224MPD1    H3 3460   2.864   0.492   9.511  0.6277  1.3006 -0.4428
  224MPD1     N 3461   2.951   0.067   9.625  0.1947 -0.6219  0.9484
  224MPD1    H5 3462   2.854   0.045   9.603  0.4347  0.0656 -0.7748
  224MPD1    N1 3463   3.307   0.399   9.599  0.4061 -0.4839  0.1745
  224MPD1    H6 3464   3.335   0.477   9.539 -0.9134 -1.2906 -1.5161
  224MPD1    H7 3465   3.364   0.323   9.563  1.0495 -0.3481  0.9301
  225MPD1     C 3466   4.146   0.370  12.667  0.1768 -0.3322  0.1859
  225MPD1    C1 3467   4.081   0.261  12.618  0.8113 -0.9563 -0.1836
  225MPD1    C2 3468   3.948   0.245  12.638  0.3622  0.2773  0.6728
  225MPD1    C3 3469   3.873   0.331  12.717  1.3129 -0.4114  0.4264
  225MPD1    C4 3470   3.944   0.448  12.765  0.1518 -0.2969  0.6087
  225MPD1    C5 3471   4.077   0.455  12.743  1.0496 -1.0581  0.8280
  225MPD1     H 3472   3.896   0.169  12.580  0.1196  1.6921 -0.9595
  225MPD1    H1 3473   3.890   0.531  12.811  1.3757  0.1884  1.1774
  225MPD1    H2 3474   4.251   0.386  12.647  0.1555 -1.3182 -0.7357
  225MPD1    H3 3475   4.124   0.545  12.780  0.8342 -0.3596 -0.6160
  225MPD1     N 3476   3.733   0.316  12.738 -0.4304  0.3036  0.2924
  225MPD1    H5 3477   3.687   0.392  12.789  1.1997  0.9708  0.7647
  225MPD1    N1 3478   4.161   0.184  12.533  0.0096  0.1628  0.1784
  225MPD1    H6 3479   4.107   0.098  12.527  0.5781 -0.1541 -0.3396
  225MPD1    H7 3480   4.252   0.165  12.575 -0.0338  0.3281  0.3503
  226MPD1     C 3481   2.273   1.545   8.805 -0.5237  0.1262  0.3554
  226MPD1    C1 3482   2.352   1.566   8.912  0.6406  0.4970  0.8534
  226MPD1    C2 3483   2.378   1.454   8.991  0.2881  0.1070 -0.1502
  226MPD1    C3 3484   2.308   1.335   8.980 -0.4730 -0.7350  0.2665
  226MPD1    C4 3485   2.215   1.324   8.873 -0.3080  0.0501  0.8828
  226MPD1    C5 3486   2.205   1.426   8.781 -0.6391  0.2786 -0.4740
  226MPD1     H 3487   2.457   1.462   9.065  0.5114  0.3750 -0.4169
  226MPD1    H1 3488   2.158   1.235   8.849 -1.5899  0.6601  1.7121
  226MPD1    H2 3489   2.252   1.628   8.739 -0.0175  1.3909  1.8001
  226MPD1    H3 3490   2.141   1.410   8.695  0.6665  0.5086 -1.4933
  226MPD1     N 3491   2.323   1.238   9.081  0.3049  0.9161 -0.4959
  226MPD1    H5 3492   2.401   1.254   9.144 -2.0435  2.4249  2.0422
  226MPD1    N1 3493   2.434   1.675   8.915  0.4732 -0.5426 -0.0004
  226MPD1    H6 3494   2.385   1.755   8.875  2.6728  1.6223  1.6847
  226MPD1    H7 3495   2.481   1.698   9.002  0.2211  0.9977 -0.2778
  227MPD1     C 3496   2.202   0.283   8.922 -0.1764  0.0644 -0.3708
  227MPD1    C1 3497   2.248   0.384   8.838 -0.1786 -0.0638 -0.1538
  227MPD1    C2 3498   2.302   0.492   8.906  0.2160  0.2472 -0.1089
  227MPD1    C3 3499   2.306   0.506   9.045 -0.3136  0.0941 -0.0765
  227MPD1    C4 3500   2.271   0.395   9.122  0.0264  0.2477  0.4090
  227MPD1    C5 3501   2.210   0.292   9.054  0.1245 -0.2363 -0.2764
  227MPD1     H 3502   2.345   0.572   8.847 -0.9585 -0.7851 -2.3468
  227MPD1    H1 3503   2.283   0.384   9.229 -1.4510  3.4793  0.9165
  227MPD1    H2 3504   2.155   0.201   8.868  0.0869 -1.3479  1.5545
  227MPD1    H3 3505   2.174   0.202   9.103  2.5642 -0.5689  0.9075
  227MPD1     N 3506   2.339   0.636   9.094  0.5243  0.3257  0.5572
  227MPD1    H5 3507   2.376   0.703   9.027  0.9007 -0.1351  0.3059
  227MPD1    N1 3508   2.252   0.357   8.702  0.3602 -0.0687  0.1846
  227MPD1    H6 3509   2.175   0.301   8.668  1.2576 -0.3447 -1.4065
  227MPD1    H7 3510   2.264   0.441   8.645  2.2508  0.3477  1.1645
  228MPD1     C 3511   0.397   2.553  12.926  0.3714  0.3527  0.0993
  228MPD1    C1 3512   0.321   2.492  12.831 -0.3411 -0.4357 -0.0791
  228MPD1    C2 3513   0.215   2.419  12.872 -0.4323  0.6346  0.1447
  228MPD1    C3 3514   0.178   2.418  13.006  0.0549  0.2378 -0.3665
  228MPD1    C4 3515   0.238   2.501  13.103 -0.7340  0.3101  0.0989
  228MPD1    C5 3516   0.359   2.555  13.055  0.0713 -0.3929  0.2449
  228MPD1     H 3517   0.166   2.352  12.802 -1.6390  1.5625  0.0993
  228MPD1    H1 3518   0.219   2.496  13.210  4.0204  1.2010  1.0168
  228MPD1    H2 3519   0.492   2.602  12.909  0.7931  0.5222  2.8353
  228MPD1    H3 3520   0.413   2.609  13.133 -0.2883  0.9111 -0.4057
  228MPD1     N 3521   0.064   2.338  13.044  0.4716 -0.4588 -0.3659
  228MPD1    H5 3522   0.028   2.275  12.973  1.7444  0.6407 -1.9823
  228MPD1    N1 3523   0.376   2.477  12.706 -0.3153 -0.0747 -0.1577
  228MPD1    H6 3524   0.453   2.541  12.689 -0.4073  0.8104  2.8232
  228MPD1    H7 3525   0.315   2.469  12.625 -0.0537 -2.1499 -0.1478
  229MPD1     C 3526   0.188   1.412  14.590 -0.0174  0.2707  0.6976
  229MPD1    C1 3527   0.268   1.480  14.674  0.1547  0.0258  0.1453
  229MPD1    C2 3528   0.352   1.403  14.759  0.4510 -0.0226  0.6503
  229MPD1    C3 3529   0.351   1.259  14.752 -0.2614  0.2490 -0.2398
  229MPD1    C4 3530   0.269   1.197  14.659  0.3441 -0.0730 -0.2451
  229MPD1    C5 3531   0.182   1.275  14.586  0.3969 -0.3957  0.3060
  229MPD1     H 3532   0.425   1.455  14.820  1.4112  1.1826 -1.4981
  229MPD1    H1 3533   0.273   1.091  14.641  2.2973 -0.1445  0.6623
  229MPD1    H2 3534   0.123   1.464  14.521  0.0096 -2.8533 -1.6879
  229MPD1    H3 3535   0.120   1.242  14.504 -2.3535  1.9416  1.4608
  229MPD1     N 3536   0.430   1.172  14.831  0.2134  0.4301 -0.6659
  229MPD1    H5 3537   0.417   1.072  14.813 -1.7242  0.5126  0.3024
  229MPD1    N1 3538   0.282   1.618  14.666 -0.2944  0.0526  0.0434
  229MPD1    H6 3539   0.311   1.656  14.756  0.7192 -1.2453  0.2667
  229MPD1    H7 3540   0.194   1.666  14.648  0.7090  1.6560 -0.5113
  230MPD1     C 3541   0.441   1.183  15.822 -0.0444  0.1496 -0.0944
  230MPD1    C1 3542   0.348   1.217  15.725  0.5350  0.3133  0.2282
  230MPD1    C2 3543   0.384   1.186  15.596 -0.3563 -0.1562  0.1532
  230MPD1    C3 3544   0.505   1.132  15.560  0.2782 -0.5269  0.5544
  230MPD1    C4 3545   0.599   1.101  15.653 -0.6992 -0.2406  0.4464
  230MPD1    C5 3546   0.567   1.128  15.787 -0.4455  0.5425  0.3948
  230MPD1     H 3547   0.321   1.215  15.511  0.0658 -1.6183 -0.6463
  230MPD1    H1 3548   0.699   1.062  15.634 -0.2150 -0.0729  2.6301
  230MPD1    H2 3549   0.418   1.189  15.928  1.6928 -2.4289  0.4214
  230MPD1    H3 3550   0.639   1.093  15.859 -1.3632 -0.3224  0.8838
  230MPD1     N 3551   0.519   1.098  15.427  0.0488 -0.3223 -0.0593
  230MPD1    H5 3552   0.439   1.120  15.370 -1.6064 -1.4700  1.8375
  230MPD1    N1 3553   0.220   1.275  15.744 -0.1358  0.3324 -0.9521
  230MPD1    H6 3554   0.222   1.347  15.816  2.0284 -1.4347  0.7535
  230MPD1    H7 3555   0.182   1.322  15.662  0.3954  1.0691 -0.7694
  231MPD1     C 3556   3.522   2.863  15.251  0.8012 -0.0227 -0.3253
  231MPD1    C1 3557   3.459   2.862  15.127 -0.3172 -0.3482  0.0268
  231MPD1    C2 3558   3.504   2.946  15.030  0.1496  0.3651  0.2051
  231MPD1    C3 3559   3.605   3.038  15.050 -0.1284  0.0016  0.5698
  231MPD1    C4 3560   3.662   3.042  15.177 -0.3223  0.4251 -0.7205
  231MPD1    C5 3561   3.619   2.959  15.278 -0.0047 -0.1340 -0.0385
  231MPD1     H 3562   3.465   2.934  14.929  2.4454 -3.1417 -0.2612
  231MPD1    H1 3563   3.735   3.120  15.198 -1.6201  1.1365  1.1463
  231MPD1    H2 3564   3.497   2.789  15.327 -3.3142  2.5387  0.8388
  231MPD1    H3 3565   3.688   2.951  15.361 -0.6818  0.1712  0.5507
  231MPD1     N 3566   3.637   3.117  14.941 -0.3062 -0.0008  0.7213
  231MPD1    H5 3567   3.586   3.096  14.856  1.2927  3.8024 -1.1369
  231MPD1    N1 3568   3.380   2.756  15.092  0.0108 -0.6176 -0.0521
  231MPD1    H6 3569   3.317   2.721  15.164 -0.1016  0.4911  0.3893
  231MPD1    H7 3570   3.327   2.786  15.010 -0.2947  0.3178  0.4905
  232MPD1     C 3571   0.858   4.186  16.946 -0.1903  0.6718  0.3770
  232MPD1    C1 3572   0.883   4.324  16.964  0.0886 -0.0767  0.1636
  232MPD1    C2 3573   0.804   4.390  17.057 -0.2750  0.2374  0.3216
  232MPD1    C3 3574   0.707   4.334  17.130 -0.1695  0.0400  0.3832
  232MPD1    C4 3575   0.694   4.195  17.121  0.5610 -0.3792 -0.0443
  232MPD1    C5 3576   0.775   4.123  17.031  0.2806  0.1126 -0.6244
  232MPD1     H 3577   0.811   4.498  17.066 -0.5967  0.4375 -1.7301
  232MPD1    H1 3578   0.619   4.144  17.180  2.6415 -0.7619  2.2518
  232MPD1    H2 3579   0.919   4.129  16.876 -1.4935 -2.9197  2.1838
  232MPD1    H3 3580   0.774   4.014  17.031 -2.6706  0.1274  2.2348
  232MPD1     N 3581   0.632   4.411  17.224  0.0890 -0.5915 -0.0478
  232MPD1    H5 3582   0.661   4.509  17.226 -1.3680 -0.1574  0.0467
  232MPD1    N1 3583   0.955   4.387  16.864 -0.2752  0.2680  0.1568
  232MPD1    H6 3584   1.029   4.323  16.836 -0.1969  1.2029 -1.7796
  232MPD1    H7 3585   0.986   4.480  16.892  0.7224 -0.2922  0.9053
  233MPD1     C 3586   1.432   3.331   0.107 -0.1459 -0.2328  0.1097
  233MPD1    C1 3587   1.488   3.455   0.101 -0.2345  0.7640  0.0575
  233MPD1    C2 3588   1.592   3.491   0.197 -1.1369  0.1325  0.2510
  233MPD1    C3 3589   1.630   3.404   0.300 -0.7407  0.1667 -0.3348
  233MPD1    C4 3590   1.564   3.279   0.303  0.6202 -0.5889  0.4868
  233MPD1    C5 3591   1.462   3.251   0.214  0.0078 -0.2954  0.0884
  233MPD1     H 3592   1.641   3.587   0.188 -0.2483 -0.3157  0.2882
  233MPD1    H1 3593   1.590   3.204   0.377  2.7363  0.7237  1.0653
  233MPD1    H2 3594   1.359   3.298   0.034 -0.2302  0.1826  0.0024
  233MPD1    H3 3595   1.417   3.153   0.218 -0.5930 -0.0957 -1.8795
  233MPD1     N 3596   1.744   3.428   0.387  0.6292  0.1614  0.3173
  233MPD1    H5 3597   1.766   3.362   0.461 -0.7593  0.2254  0.7906
  233MPD1    N1 3598   1.442   3.541  17.746  0.3066  0.4521 -0.3579
  233MPD1    H6 3599   1.513   3.597  17.699 -0.0510  1.5356  0.4090
  233MPD1    H7 3600   1.373   3.499  17.683 -1.0617  1.0537  0.7503
  234MPD1     C 3601   3.874   3.117  10.032  0.1626  0.2687  0.6676
  234MPD1    C1 3602   3.832   3.243  10.077  0.3928  0.0674 -0.1059
  234MPD1    C2 3603   3.711   3.289  10.030 -0.3626  0.3839 -0.7585
  234MPD1    C3 3604   3.618   3.216   9.952  1.0355  0.3205 -0.2086
  234MPD1    C4 3605   3.649   3.084   9.927 -0.3061  0.1148 -0.2282
  234MPD1    C5 3606   3.777   3.050   9.967 -0.1985 -0.3442 -0.3800
  234MPD1     H 3607   3.677   3.386  10.063  0.2177 -0.3237  1.9253
  234MPD1    H1 3608   3.589   3.012   9.873 -0.3041  1.7071 -2.3307
  234MPD1    H2 3609   3.966   3.068  10.064 -0.2292 -0.7539  0.2164
  234MPD1    H3 3610   3.801   2.945   9.951 -1.6589 -0.3765 -2.3208
  234MPD1     N 3611   3.508   3.288   9.896  0.2064 -0.1871 -0.2172
  234MPD1    H5 3612   3.500   3.385   9.925  2.4996 -0.3084  0.8434
  234MPD1    N1 3613   3.917   3.330  10.139  0.6415  0.0520  0.6972
  234MPD1    H6 3614   3.969   3.278  10.210 -0.2227  0.0357  1.3258
  234MPD1    H7 3615   3.875   3.405  10.194  0.0992  0.0730  0.2583
  235MPD1     C 3616   4.682   4.513  10.748 -0.0867 -0.0360  0.1835
  235MPD1    C1 3617   4.614   4.523  10.634  0.3947  0.2598 -0.8049
  235MPD1    C2 3618   4.560   4.642  10.605 -1.0846 -0.0180 -0.1895
  235MPD1    C3 3619   4.572   0.013  10.695 -1.1430 -0.6151 -0.4789
  235MPD1    C4 3620   4.642   4.729  10.815 -0.0485 -0.4316  0.0253
  235MPD1    C5 3621   4.685   4.604  10.848  0.2656  0.2292  0.3647
  235MPD1     H 3622   4.507   4.654  10.511 -0.1181  2.1650 -0.4748
  235MPD1    H1 3623   4.666   0.072  10.884  0.6761  0.5749 -1.3870
  235MPD1    H2 3624   4.736   4.420  10.760 -0.4374 -0.3080 -0.3372
  235MPD1    H3 3625   0.020   4.592  10.929 -0.9140 -2.9812  0.9579
  235MPD1     N 3626   4.510   0.136  10.653 -0.5187  0.7509 -0.1564
  235MPD1    H5 3627   4.448   0.133  10.573 -0.6333  0.1001 -0.0410
  235MPD1    N1 3628   4.618   4.418  10.543  0.3965  0.3206 -0.8794
  235MPD1    H6 3629   4.594   4.327  10.583 -0.8407  1.2188  0.3883
  235MPD1    H7 3630   4.546   4.428  10.472 -0.7068  0.5476  0.2740
  236MPD1     C 3631   3.070   0.830   9.718 -0.4225 -0.3701 -0.1625
  236MPD1    C1 3632   3.059   0.965   9.744 -0.1431 -0.4841 -0.1449
  236MPD1    C2 3633   3.150   1.035   9.815  0.7461 -0.2635 -0.3656
  236MPD1    C3 3634   3.259   0.968   9.865  0.1469 -0.1159  1.1211
  236MPD1    C4 3635   3.265   0.836   9.841 -0.4230  0.5265  0.8005
  236MPD1    C5 3636   3.173   0.767   9.766  0.5487 -0.3311 -0.7312
  236MPD1     H 3637   3.144   1.144   9.814  1.6824 -0.2144 -1.6335
  236MPD1    H1 3638   3.357   0.791   9.877 -0.3590 -0.9418 -1.1974
  236MPD1    H2 3639   3.000   0.777   9.653  0.2539 -1.0812 -0.3079
  236MPD1    H3 3640   3.186   0.662   9.743  0.4174 -1.1397  2.8501
  236MPD1     N 3641   3.376   1.030   9.930  0.0964  0.0741  0.3008
  236MPD1    H5 3642   3.451   0.969   9.960 -1.3510 -2.0712 -0.3631
  236MPD1    N1 3643   2.955   1.041   9.676  0.3599 -0.6899 -0.1511
  236MPD1    H6 3644   2.934   1.134   9.712  0.5876 -0.1097 -1.4950
  236MPD1    H7 3645   2.867   0.991   9.671 -0.3456  0.4318  1.3452
  237MPD1     C 3646   4.406   4.625  14.841 -0.7822  0.3936 -0.3405
  237MPD1    C1 3647   4.399   4.525  14.932 -0.0975  0.2236  0.5151
  237MPD1    C2 3648   4.286   4.453  14.944  0.4709  0.4026 -0.8812
  237MPD1    C3 3649   4.172   4.482  14.867 -0.0338  0.6693 -0.4028
  237MPD1    C4 3650   4.176   4.587  14.773 -0.3878 -0.5735 -0.0125
  237MPD1    C5 3651   4.298   4.649  14.763 -0.4588 -0.1312 -0.0905
  237MPD1     H 3652   4.286   4.368  15.011  5.5756  0.7521 -0.4304
  237MPD1    H1 3653   4.095   4.603  14.703  0.5353 -0.1701 -0.9919
  237MPD1    H2 3654   4.496   4.686  14.836 -0.3501 -0.1954  0.3972
  237MPD1    H3 3655   4.311   4.735  14.698  0.7901 -1.2725 -1.3471
  237MPD1     N 3656   4.060   4.395  14.863  0.0880 -0.1227 -0.3699
  237MPD1    H5 3657   3.982   4.434  14.811 -3.0723 -2.9703  2.2146
  237MPD1    N1 3658   4.520   4.482  14.991 -0.4282  0.0256  0.5440
  237MPD1    H6 3659   4.504   4.431  15.077 -0.5765 -1.4379 -0.3542
  237MPD1    H7 3660   4.576   4.563  15.017  0.4118 -0.2870 -0.2729
  238MPD1     C 3661   1.103   3.282  14.682 -0.7694 -0.3690  0.3896
  238MPD1    C1 3662   1.079   3.158  14.741 -0.8694 -0.5774  0.7500
  238MPD1    C2 3663   0.942   3.118  14.748  0.3654  0.1245 -0.3617
  238MPD1    C3 3664   0.841   3.202  14.702  0.0875  0.9034 -0.1120
  238MPD1    C4 3665   0.870   3.319  14.642  0.4519  0.7033  0.1006
  238MPD1    C5 3666   0.998   3.360  14.635  0.2822  0.5418  0.2590
  238MPD1     H 3667   0.914   3.040  14.817  2.1457  0.2724  0.5550
  238MPD1    H1 3668   0.795   3.392  14.611  0.4781  0.8753  0.4354
  238MPD1    H2 3669   1.196   3.339  14.683 -0.4643 -0.8309 -1.0069
  238MPD1    H3 3670   1.008   3.456  14.587 -0.6162  0.4146 -0.1713
  238MPD1     N 3671   0.702   3.162  14.697  0.2252  0.6508 -0.6898
  238MPD1    H5 3672   0.645   3.207  14.626  0.1303  1.0321 -0.3765
  238MPD1    N1 3673   1.180   3.101  14.819  0.1672 -0.0142 -0.0789
  238MPD1    H6 3674   1.154   3.005  14.843  0.7726 -0.2055 -0.2012
  238MPD1    H7 3675   1.270   3.108  14.773 -1.1524 -1.1362 -2.8840
  239MPD1     C 3676   0.828   3.480  15.109 -0.7531 -0.7296 -0.7432
  239MPD1    C1 3677   0.931   3.475  15.016  0.3192 -0.1395 -0.2217
  239MPD1    C2 3678   0.931   3.573  14.915  0.8933  0.2426  0.5719
  239MPD1    C3 3679   0.839   3.674  14.927  0.1714 -0.4765  0.6135
  239MPD1    C4 3680   0.730   3.673  15.018 -0.3041  0.3365  0.1055
  239MPD1    C5 3681   0.731   3.576  15.108  0.6686  0.2053  0.1262
  239MPD1     H 3682   1.003   3.571  14.834 -2.2965 -1.6553 -2.1531
  239MPD1    H1 3683   0.659   3.755  15.026 -0.0891  0.5379 -0.0531
  239MPD1    H2 3684   0.815   3.406  15.188  2.6694 -0.0034  0.4939
  239MPD1    H3 3685   0.649   3.568  15.179  0.9157  1.6539  0.5725
  239MPD1     N 3686   0.813   3.775  14.827 -0.1225  0.2350  0.6734
  239MPD1    H5 3687   0.735   3.837  14.846 -1.2136 -0.3112 -2.0728
  239MPD1    N1 3688   1.031   3.374  15.015 -0.1607  0.2190 -0.0200
  239MPD1    H6 3689   0.996   3.295  15.069 -1.4536 -1.3802 -3.1705
  239MPD1    H7 3690   1.065   3.340  14.926  2.4756 -0.5886  1.3005
  240MPD1     C 3691   0.321   3.877  13.772 -0.3091 -0.4372 -0.0322
  240MPD1    C1 3692   0.249   3.778  13.723  0.4862 -0.1322  0.1605
  240MPD1    C2 3693   0.193   3.690  13.810  0.0851 -0.1778  0.2760
  240MPD1    C3 3694   0.220   3.691  13.948  0.1673 -0.0197  0.2687
  240MPD1    C4 3695   0.298   3.793  13.992  0.6954  0.2807 -0.2782
  240MPD1    C5 3696   0.339   3.894  13.909 -0.5119 -0.2010  0.2381
  240MPD1     H 3697   0.135   3.606  13.772  1.1208 -1.2105  0.9614
  240MPD1    H1 3698   0.346   3.801  14.088 -1.4822 -0.4570  0.8824
  240MPD1    H2 3699   0.375   3.951  13.715 -1.9331  0.4970 -0.3670
  240MPD1    H3 3700   0.410   3.967  13.946 -0.9228  0.2208  0.1922
  240MPD1     N 3701   0.186   3.581  14.026 -0.1771 -0.0952 -0.4542
  240MPD1    H5 3702   0.121   3.515  13.984  1.2505 -0.9773 -1.2679
  240MPD1    N1 3703   0.214   3.779  13.591  0.0697 -0.2580  0.2498
  240MPD1    H6 3704   0.284   3.821  13.530  0.3973 -0.8057  0.2530
  240MPD1    H7 3705   0.199   3.685  13.554  1.1879 -0.7141  0.9535
  241MPD1     C 3706   0.059   3.306  15.066 -0.1941  0.2807 -0.4235
  241MPD1    C1 3707   0.175   3.276  15.003  0.2105 -0.5122  0.1064
  241MPD1    C2 3708   0.187   3.266  14.863 -0.1332  1.1795  0.2635
  241MPD1    C3 3709   0.078   3.293  14.781 -0.4724  0.3032 -0.9324
  241MPD1    C4 3710   4.700   3.325  14.843 -0.0596 -0.0798  0.0964
  241MPD1    C5 3711   4.691   3.328  14.979 -0.1015 -0.6047 -0.4525
  241MPD1     H 3712   0.281   3.241  14.816 -0.9330 -0.7846 -0.3027
  241MPD1    H1 3713   4.610   3.353  14.790  0.4947  0.2600 -0.6648
  241MPD1    H2 3714   0.048   3.312  15.174  1.3715  0.5456 -0.2767
  241MPD1    H3 3715   4.599   3.364  15.024  1.4797  1.1335  1.4020
  241MPD1     N 3716   0.077   3.302  14.640 -0.2364 -0.1981  0.5351
  241MPD1    H5 3717   4.726   3.336  14.603 -1.8696 -1.1704  3.5606
  241MPD1    N1 3718   0.281   3.227  15.075 -0.2240  0.2688 -0.4796
  241MPD1    H6 3719   0.369   3.221  15.025  0.6979 -0.4463  1.2336
  241MPD1    H7 3720   0.300   3.279  15.161  0.0666 -0.4201 -0.1268
  242MPD1     C 3721   0.042   2.307  15.603 -0.2424  0.0341 -0.2647
  242MPD1    C1 3722   4.657   2.267  15.560  0.1065  0.8920 -0.4465
  242MPD1    C2 3723   4.642   2.197  15.436  0.0356 -0.3931 -0.3601
  242MPD1    C3 3724   0.028   2.183  15.361 -0.1285  0.6953 -0.1342
  242MPD1    C4 3725   0.143   2.231  15.408  0.1967  0.0832 -0.2627
  242MPD1    C5 3726   0.156   2.293  15.528 -0.5703 -0.0308  0.3439
  242MPD1     H 3727   4.543   2.174  15.398 -0.9668 -1.8289  3.1429
  242MPD1    H1 3728   0.232   2.235  15.347  0.0515  3.5607 -0.2359
  242MPD1    H2 3729   0.057   2.363  15.694  0.7759  1.1674 -1.1252
  242MPD1    H3 3730   0.249   2.332  15.567 -1.3104  0.1170  1.9739
  242MPD1     N 3731   0.033   2.113  15.240 -0.1121  0.2637 -0.6955
  242MPD1    H5 3732   0.124   2.115  15.195  0.2975  1.1701  0.1983
  242MPD1    N1 3733   4.551   2.273  15.653 -0.1178 -0.1974 -0.6678
  242MPD1    H6 3734   4.470   2.294  15.596  0.7984 -0.5375 -2.1129
  242MPD1    H7 3735   4.565   2.349  15.719 -0.9823 -1.0830  0.5272
  243MPD1     C 3736   1.751   1.144  17.585  0.1533 -0.5373  0.3960
  243MPD1    C1 3737   1.787   1.033  17.663 -0.2402  0.5155 -0.5619
  243MPD1    C2 3738   1.818   0.916  17.598 -0.2118 -0.4314  0.6800
  243MPD1    C3 3739   1.817   0.912  17.464 -0.3847  0.7885  0.1935
  243MPD1    C4 3740   1.772   1.017  17.386  0.7795 -0.8713 -0.0675
  243MPD1    C5 3741   1.741   1.132  17.455  0.0532  0.4245  0.6215
  243MPD1     H 3742   1.841   0.827  17.655  2.7630  1.1378  1.9849
  243MPD1    H1 3743   1.733   1.014  17.284  0.9783 -0.1598 -0.1634
  243MPD1    H2 3744   1.706   1.235  17.623 -1.1850 -1.0440  0.0230
  243MPD1    H3 3745   1.703   1.215  17.397  2.3931  1.5155  0.6849
  243MPD1     N 3746   1.849   0.788  17.410 -0.0012  0.5444 -0.1082
  243MPD1    H5 3747   1.885   0.724  17.481  1.3180  2.2205  0.7259
  243MPD1    N1 3748   1.778   1.038   0.058  0.3931  0.0611  0.4214
  243MPD1    H6 3749   1.807   1.128   0.098 -0.3655 -0.3669  1.9471
  243MPD1    H7 3750   1.840   0.967   0.096  0.4591 -0.7515 -1.2159
  244MPD1     C 3751   1.785   0.001   0.046  0.0369  0.2432  0.1003
  244MPD1    C1 3752   1.756   0.132   0.065 -0.4737  0.4574 -0.3939
  244MPD1    C2 3753   1.766   0.224  17.706  0.1883  0.0735  0.1864
  244MPD1    C3 3754   1.813   0.193  17.587  0.0036 -0.6264  0.0673
  244MPD1    C4 3755   1.850   0.057  17.569  0.7203  0.3574 -0.0522
  244MPD1    C5 3756   1.828   4.703  17.668 -0.5419 -0.7877  0.1294
  244MPD1     H 3757   1.750   0.329  17.727  1.6362  0.5436 -1.1095
  244MPD1    H1 3758   1.886   0.023  17.473 -0.4462  3.2310 -1.5084
  244MPD1    H2 3759   1.797   4.660   0.120 -1.6737  0.6644  0.8141
  244MPD1    H3 3760   1.868   4.604  17.651 -1.8745 -1.0874 -1.2776
  244MPD1     N 3761   1.846   0.294  17.497 -0.1528  0.3045 -0.0769
  244MPD1    H5 3762   1.813   0.389  17.512 -0.3893  0.3602 -0.9254
  244MPD1    N1 3763   1.723   0.172   0.193  0.4079  0.0614 -0.6031
  244MPD1    H6 3764   1.672   0.101   0.245  0.7065  0.9093  0.8597
  244MPD1    H7 3765   1.809   0.191   0.243 -1.9618  3.4485  2.2152
  245MPD1     C 3766   3.298   0.777  13.224  0.8643 -0.1207  0.2413
  245MPD1    C1 3767   3.253   0.774  13.353 -0.4496 -0.1161 -0.3910
  245MPD1    C2 3768   3.277   0.891  13.426 -0.6427 -0.4299 -0.6850
  245MPD1    C3 3769   3.344   0.997  13.361 -0.1013 -0.2502 -0.3574
  245MPD1    C4 3770   3.377   0.997  13.233  0.3013 -0.7061 -0.5904
  245MPD1    C5 3771   3.340   0.891  13.158  0.0469  0.9908 -0.3430
  245MPD1     H 3772   3.247   0.908  13.529  1.0487  1.4680 -0.5036
  245MPD1    H1 3773   3.423   1.081  13.182 -0.3582 -0.9309 -1.5492
  245MPD1    H2 3774   3.295   0.690  13.159 -0.5782 -1.2882  1.8520
  245MPD1    H3 3775   3.369   0.880  13.055 -0.4626 -0.8664 -0.2837
  245MPD1     N 3776   3.370   1.113  13.446 -0.5334 -0.0559 -0.1944
  245MPD1    H5 3777   3.328   1.113  13.538 -0.0675 -2.0369  0.0132
  245MPD1    N1 3778   3.218   0.652  13.418  0.0847  0.5962 -0.0996
  245MPD1    H6 3779   3.131   0.657  13.471 -0.5146  1.2718 -1.1452
  245MPD1    H7 3780   3.205   0.580  13.347  0.7175  2.2631 -1.9209
  246MPD1     C 3781   0.102   3.250  10.122  0.2957 -0.3857 -0.4381
  246MPD1    C1 3782   0.140   3.121  10.104  0.0776 -0.0947 -0.1868
  246MPD1    C2 3783   0.078   3.040  10.015  0.6404  0.2722 -0.3183
  246MPD1    C3 3784   4.698   3.089   9.948  0.2485 -0.8892 -0.9136
  246MPD1    C4 3785   4.652   3.215   9.974  0.7141 -0.2097  0.0376
  246MPD1    C5 3786   4.723   3.291  10.061  0.4912  0.1049 -0.4999
  246MPD1     H 3787   0.110   2.940   9.990 -1.4076  0.1134 -2.2818
  246MPD1    H1 3788   4.560   3.253   9.932 -0.1506 -1.2186  1.0199
  246MPD1    H2 3789   0.151   3.330  10.176 -1.3881  0.3783 -0.0351
  246MPD1    H3 3790   4.695   3.396  10.064 -1.5407 -0.3881 -2.1266
  246MPD1     N 3791   4.633   3.009   9.848 -0.6281  0.2508  0.0128
  246MPD1    H5 3792   4.672   2.918   9.830 -0.5906  0.3195 -0.2542
  246MPD1    N1 3793   0.267   3.089  10.146 -0.1369  0.7410 -0.1317
  246MPD1    H6 3794   0.274   2.988  10.161 -4.4885  0.2504 -1.4490
  246MPD1    H7 3795   0.286   3.120  10.241  3.3305  1.9883 -1.2384
  247MPD1     C 3796   2.762   0.378  15.261  0.0668  0.3281 -0.1974
  247MPD1    C1 3797   2.629   0.401  15.243 -0.4576  0.2660 -0.0003
  247MPD1    C2 3798   2.568   0.513  15.297  0.9386  0.7081 -0.1632
  247MPD1    C3 3799   2.637   0.592  15.387  0.3034 -0.8334 -0.3681
  247MPD1    C4 3800   2.768   0.553  15.421 -0.5213 -0.7801 -0.2602
  247MPD1    C5 3801   2.824   0.447  15.360  0.5262 -0.6630  0.1793
  247MPD1     H 3802   2.463   0.532  15.274  0.6441 -1.1597 -0.3693
  247MPD1    H1 3803   2.814   0.605  15.504 -0.5246  0.8092 -1.2480
  247MPD1    H2 3804   2.817   0.295  15.219  2.0640  0.3267  2.4239
  247MPD1    H3 3805   2.923   0.422  15.398  0.6449  3.2844  2.3566
  247MPD1     N 3806   2.585   0.700  15.464 -0.0087  0.9535 -0.2715
  247MPD1    H5 3807   2.654   0.758  15.512  0.8579 -1.9401  1.9776
  247MPD1    N1 3808   2.565   0.350  15.122 -0.0797 -0.1542  0.6755
  247MPD1    H6 3809   2.467   0.325  15.138 -0.4780  0.5918 -0.5979
  247MPD1    H7 3810   2.606   0.258  15.104  0.0540  0.4287 -1.9147
  248MPD1     C 3811   3.639   0.114  17.358 -0.2667 -0.0630 -0.7407
  248MPD1    C1 3812   3.539   0.207  17.364  0.2932  0.8227 -0.3967
  248MPD1    C2 3813   3.540   0.288  17.471  0.1703  0.6587  0.6807
  248MPD1    C3 3814   3.664   0.302  17.546  0.5458  0.5192 -0.2614
  248MPD1    C4 3815   3.776   0.222  17.517  0.3037 -0.3087 -0.2041
  248MPD1    C5 3816   3.755   0.119  17.433 -0.0017  0.3938  0.0033
  248MPD1     H 3817   3.449   0.341  17.497  0.9818  2.3909  0.0358
  248MPD1    H1 3818   3.871   0.238  17.566  0.3204 -2.7921  0.6206
  248MPD1    H2 3819   3.629   0.037  17.282  1.5861  0.6773 -1.7207
  248MPD1    H3 3820   3.844   0.063  17.408 -0.3814  0.1774 -0.8415
  248MPD1     N 3821   3.667   0.407  17.646  0.6688  0.0823 -0.2849
  248MPD1    H5 3822   3.582   0.463  17.648  0.4062 -0.3151 -0.3963
  248MPD1    N1 3823   3.422   0.178  17.292 -0.5435 -0.4702 -0.3366
  248MPD1    H6 3824   3.387   0.269  17.265 -0.7219 -0.3199  0.3953
  248MPD1    H7 3825   3.456   0.141  17.203  0.3166  1.9812 -1.0119
  249MPD1     C 3826   1.223   4.733  10.670  0.1335 -0.4827  0.2155
  249MPD1    C1 3827   1.311   4.660  10.743 -0.1055 -1.0171 -0.1170
  249MPD1    C2 3828   1.309   4.664  10.881  0.4073  0.1768  0.3099
  249MPD1    C3 3829   1.211   4.729  10.947 -0.6546 -0.0657  0.4046
  249MPD1    C4 3830   1.117   0.068  10.879 -0.1882  0.5973 -0.1273
  249MPD1    C5 3831   1.133   0.073  10.739  0.0261 -0.6017  0.0164
  249MPD1     H 3832   1.372   4.597  10.939  1.2424  1.2624  0.6642
  249MPD1    H1 3833   1.046   0.132  10.930 -3.5953 -1.1713 -2.6294
  249MPD1    H2 3834   1.213   4.732  10.562  0.8782  0.1656  0.1430
  249MPD1    H3 3835   1.072   0.139  10.677  1.7939  2.2502  1.2800
  249MPD1     N 3836   1.205   4.716  11.087  0.2709  0.5217  0.0155
  249MPD1    H5 3837   1.290   4.675  11.123 -0.3715  0.4735  1.5220
  249MPD1    N1 3838   1.381   4.557  10.686 -0.6705 -0.1704  0.2845
  249MPD1    H6 3839   1.401   4.579  10.588 -0.6492  0.0734  0.3425
  249MPD1    H7 3840   1.459   4.510  10.732  0.0955 -0.0377 -0.8692
  250MPD2     C 3841   1.733   4.066  13.666  0.3905 -0.6094  0.3750
  250MPD2    C1 3842   1.807   4.106  13.558 -0.6400  0.5050  0.0721
  250MPD2    C2 3843   1.802   4.025  13.453 -0.3695  0.3664  0.3551
  250MPD2    C3 3844   1.717   3.919  13.444 -0.2833  0.6904  0.1385
  250MPD2    C4 3845   1.636   3.883  13.552 -0.0096 -0.4829  0.1033
  250MPD2    C5 3846   1.659   3.950  13.667  0.2478 -0.2127  0.7880
  250MPD2     H 3847   1.853   4.042  13.359 -0.9075  0.8691  0.1578
  250MPD2    H1 3848   1.568   3.799  13.555 -1.0458  0.3328 -0.6533
  250MPD2    H2 3849   1.742   4.118  13.761  1.2669  0.5878 -0.3676
  250MPD2    H3 3850   1.615   3.919  13.761  1.6863 -0.4185  1.3984
  250MPD2     N 3851   1.681   3.852  13.319 -1.1899 -0.2521 -0.4432
  250MPD2    H5 3852   1.586   3.816  13.318 -1.9247  1.6214  1.2756
  250MPD2    N1 3853   1.872   4.232  13.554 -0.0358  0.0965 -0.6266
  250MPD2    H7 3854   1.860   4.288  13.637 -0.0569  0.3907 -0.8290
  251TMC3    C1 3855   1.998   4.412  13.488  0.3400  0.0478  0.7634
  251TMC3    C2 3856   1.895   4.507  13.510  0.1771 -0.7192  1.1263
  251TMC3    C3 3857   1.927   4.638  13.489  0.1396 -0.3904 -0.5497
  251TMC3    C4 3858   2.118   4.453  13.431  0.1830  0.4165 -0.5193
  251TMC3    C5 3859   2.134   4.585  13.403  0.8839  0.4191  0.5132
  251TMC3    C6 3860   2.045   4.677  13.427 -0.2028 -0.3946 -0.4012
  251TMC3     C 3861   1.959   4.275  13.461 -0.0563  0.0976 -0.1971
  251TMC3     O 3862   2.028   4.207  13.383  0.2452 -0.3226  0.1286
  251TMC3     H 3863   1.795   4.481  13.544 -0.5452  2.6385  1.5203
  251TMC3    H1 3864   2.187   4.380  13.390 -0.7051  0.3094 -1.7906
  251TMC3    H2 3865   2.069   0.046  13.432  1.1251 -0.7176  0.0321
  251TMC3    C7 3866   2.267   4.616  13.360 -0.3387  0.1822  0.1662
  251TMC3    C8 3867   1.822   0.001  13.511  0.0074  0.0221 -0.5214
  251TMC3    O1 3868   2.361   4.552  13.402  0.1991 -0.1730 -0.4136
  251TMC3    O2 3869   1.748   4.722  13.604 -0.0923  0.1770 -0.2794
  252TMC3    C1 3870   2.014   1.603   9.110  0.6267 -0.0197  0.1696
  252TMC3    C2 3871   2.124   1.638   9.179  0.4633 -0.5379  0.4841
  252TMC3    C3 3872   2.192   1.542   9.255 -0.1778  0.3170  0.5550
  252TMC3    C4 3873   1.972   1.471   9.125  0.1357  0.4910  0.0701
  252TMC3    C5 3874   2.033   1.387   9.216  0.0821  0.2196 -0.2538
  252TMC3    C6 3875   2.148   1.420   9.286  0.5729 -0.2607  0.1822
  252TMC3     C 3876   1.973   1.691   8.999  0.8402 -1.1476 -0.0241
  252TMC3     O 3877   2.035   1.794   8.982  0.1868 -0.8147 -0.2786
  252TMC3     H 3878   2.153   1.742   9.171 -1.7880 -0.0429 -1.0692
  252TMC3    H1 3879   1.875   1.442   9.086  0.7192  0.5537 -1.4163
  252TMC3    H2 3880   2.207   1.345   9.337 -2.6455 -1.4579  2.1253
  252TMC3    C7 3881   1.980   1.247   9.214 -0.0091 -0.1827 -0.0671
  252TMC3    C8 3882   2.304   1.598   9.336  0.0115  0.2304  0.3285
  252TMC3    O1 3883   1.894   1.224   9.132  0.8628 -0.1008 -0.0132
  252TMC3    O2 3884   2.356   1.696   9.288 -0.2351 -0.4019 -0.1213
  253MPD2     C 3885   3.181   4.347  14.697 -0.0061 -0.2782 -0.2057
  253MPD2    C1 3886   3.054   4.307  14.725  0.9249 -0.3476 -0.7108
  253MPD2    C2 3887   3.012   4.316  14.855 -0.0875  0.4666 -0.5295
  253MPD2    C3 3888   3.097   4.370  14.948 -0.2470 -0.3075  0.2022
  253MPD2    C4 3889   3.228   4.400  14.920  0.4818 -0.1125  0.5623
  253MPD2    C5 3890   3.272   4.391  14.789  0.9611  0.6312  1.3868
  253MPD2     H 3891   2.923   4.266  14.890 -0.6074  1.3250 -0.6528
  253MPD2    H1 3892   3.298   4.437  14.994  0.9338  1.9576 -0.8882
  253MPD2    H2 3893   3.210   4.333  14.594 -0.6501  1.4285 -0.6078
  253MPD2    H3 3894   3.375   4.408  14.761  0.0432 -0.7056 -2.7674
  253MPD2     N 3895   3.057   4.389  15.082  0.1793 -0.0014  0.3722
  253MPD2    H5 3896   3.124   4.371  15.156  2.3890  0.4872 -1.5378
  253MPD2    N1 3897   2.961   4.260  14.624  0.2103  0.6037 -0.4489
  253MPD2    H7 3898   2.870   4.231  14.658  1.6423 -2.0321  1.1466
  254TMC3    C1 3899   2.874   4.403  15.247 -0.3540  0.5441  0.0189
  254TMC3    C2 3900   2.755   4.459  15.285 -0.3499  0.6783  0.7917
  254TMC3    C3 3901   2.694   4.402  15.384 -0.7339  0.0166  0.0255
  254TMC3    C4 3902   2.939   4.312  15.322 -0.4393  1.1537 -0.1450
  254TMC3    C5 3903   2.869   4.267  15.429 -0.3897 -1.0400  0.2241
  254TMC3    C6 3904   2.739   4.302  15.457  0.0703  0.7046  0.6726
  254TMC3     C 3905   2.928   4.425  15.109 -0.0925 -0.0879  0.0913
  254TMC3     O 3906   2.837   4.451  15.031  0.7173  0.4121 -0.7359
  254TMC3     H 3907   2.709   4.525  15.212 -2.0043 -1.4294 -0.0671
  254TMC3    H1 3908   3.036   4.272  15.295  0.7594  3.0567  1.3063
  254TMC3    H2 3909   2.698   4.288  15.556  2.1638 -3.6227  0.9449
  254TMC3    C7 3910   2.950   4.211  15.537 -0.3241 -0.0601  0.5142
  254TMC3    C8 3911   2.601   4.480  15.467  0.2382 -0.2907 -0.0135
  254TMC3    O1 3912   2.885   4.155  15.626 -0.1696  0.4201  0.5007
  254TMC3    O2 3913   2.525   4.424  15.543 -0.3286  0.2230 -0.1820
  255MPD2     C 3914   0.841   2.503  10.635 -0.3412 -0.8507 -0.2402
  255MPD2    C1 3915   0.956   2.523  10.557 -0.4500 -0.6969  0.4083
  255MPD2    C2 3916   1.044   2.427  10.521  0.1846 -1.5115 -0.8666
  255MPD2    C3 3917   1.027   2.297  10.553 -0.0464 -0.4099  0.2105
  255MPD2    C4 3918   0.915   2.278  10.634 -0.4039  0.4656 -0.0611
  255MPD2    C5 3919   0.831   2.376  10.687  0.0637 -0.4652  0.0067
  255MPD2     H 3920   1.130   2.450  10.459 -0.5356  0.4503 -1.1262
  255MPD2    H1 3921   0.897   2.182  10.682  2.2046 -0.1322 -0.2816
  255MPD2    H2 3922   0.768   2.579  10.660 -0.3330 -1.5385  1.8846
  255MPD2    H3 3923   0.764   2.345  10.767  3.1410 -1.3387  2.2257
  255MPD2     N 3924   1.124   2.197  10.523  0.3785  0.1609  0.1437
  255MPD2    H5 3925   1.208   2.226  10.476  0.4017 -1.4284 -0.8076
  255MPD2    N1 3926   0.968   2.657  10.506  0.3441 -0.3003 -0.6046
  255MPD2    H7 3927   0.893   2.713  10.547  0.9040 -1.6037  2.1916
  256TMC3    C1 3928   1.017   2.834  10.356  1.1250 -0.2971  0.2074
  256TMC3    C2 3929   1.090   2.897  10.263 -0.1934  0.2237  0.7119
  256TMC3    C3 3930   1.053   3.013  10.202 -0.1458  0.5238  0.7796
  256TMC3    C4 3931   0.887   2.879  10.379 -0.0467  0.3229 -0.4366
  256TMC3    C5 3932   0.845   2.992  10.312 -0.4254  0.0153  0.0498
  256TMC3    C6 3933   0.926   3.069  10.226 -0.4358 -0.0979  0.0479
  256TMC3     C 3934   1.053   2.700  10.404 -0.5841 -0.7502 -0.2867
  256TMC3     O 3935   1.145   2.646  10.344 -0.1538  0.4085  0.4258
  256TMC3     H 3936   1.190   2.858  10.250 -0.7307 -0.1849 -2.0595
  256TMC3    H1 3937   0.811   2.824  10.431  0.0369  0.6382  0.0161
  256TMC3    H2 3938   0.893   3.158  10.174  1.0717  0.1260 -0.5126
  256TMC3    C7 3939   0.715   2.976  10.259 -0.7210  0.0630 -0.5222
  256TMC3    C8 3940   1.158   3.077  10.121 -0.1773 -0.2360  0.0159
  256TMC3    O1 3941   0.701   2.941  10.142  0.2833 -0.2371 -0.1085
  256TMC3    O2 3942   1.250   3.004  10.095  0.4661 -0.4677  0.0133
  257MPD2     C 3943   0.350   4.388  13.262 -0.2017 -0.0951 -0.0814
  257MPD2    C1 3944   0.392   4.325  13.149 -0.3936  0.0192 -0.4760
  257MPD2    C2 3945   0.458   4.206  13.157 -0.7182 -0.0194  0.3957
  257MPD2    C3 3946   0.486   4.154  13.284 -0.0180 -0.3209  0.0858
  257MPD2    C4 3947   0.461   4.231  13.391 -0.0307 -0.6613 -0.3600
  257MPD2    C5 3948   0.383   4.348  13.384  0.0744 -0.4045 -0.1348
  257MPD2     H 3949   0.469   4.152  13.063 -0.5421 -2.8174  2.0322
  257MPD2    H1 3950   0.495   4.215  13.492 -0.3019 -0.3120 -0.2151
  257MPD2    H2 3951   0.287   4.476  13.247 -0.6269 -0.5119 -0.7405
  257MPD2    H3 3952   0.364   4.403  13.475  0.9015 -0.2186 -0.0821
  257MPD2     N 3953   0.551   4.024  13.287 -0.5608  0.5443 -0.1117
  257MPD2    H5 3954   0.561   3.969  13.203 -0.7529 -0.8156  0.7457
  257MPD2    N1 3955   0.357   4.391  13.026 -0.1857 -0.2427 -0.4920
  257MPD2    H7 3956   0.278   4.454  13.030 -0.0692 -0.2901  2.5490
  258TMC3    C1 3957   0.664   3.842  13.392  0.1583  0.1259 -0.0577
  258TMC3    C2 3958   0.746   3.832  13.289  0.2505  0.3412 -0.1625
  258TMC3    C3 3959   0.866   3.766  13.320 -0.8879  0.3511  0.1634
  258TMC3    C4 3960   0.689   3.789  13.517 -0.0030  0.2242  0.0504
  258TMC3    C5 3961   0.809   3.725  13.539 -0.9360 -0.3269 -0.1380
  258TMC3    C6 3962   0.900   3.716  13.438  0.5346 -0.1799 -0.9421
  258TMC3     C 3963   0.585   3.962  13.404 -0.1564 -0.3123 -0.2840
  258TMC3     O 3964   0.567   4.001  13.520  0.4058  0.2765 -0.1790
  258TMC3     H 3965   0.735   3.892  13.199  2.9350  2.1045  0.6587
  258TMC3    H1 3966   0.621   3.803  13.601 -1.2775  0.0195 -0.9364
  258TMC3    H2 3967   0.999   3.678  13.457 -0.3061 -1.6358  0.5825
  258TMC3    C7 3968   0.840   3.672  13.671  0.3152 -0.3152  0.4509
  258TMC3    C8 3969   0.983   3.789  13.233  0.4408  0.6409  0.1578
  258TMC3    O1 3970   0.954   3.631  13.696  0.0340  0.1912 -0.3520
  258TMC3    O2 3971   1.086   3.838  13.275  0.1345  0.2900 -0.1935
  259MPD2     C 3972   0.095   0.625   1.197  0.2375 -0.0701  0.1672
  259MPD2    C1 3973   0.073   0.711   1.088 -0.2404 -0.1628 -0.1643
  259MPD2    C2 3974   0.103   0.668   0.964 -0.0141  0.1052  0.8267
  259MPD2    C3 3975   0.158   0.546   0.942  0.8649  0.0264 -0.3698
  259MPD2    C4 3976   0.190   0.465   1.049  1.1996 -1.0473  0.7153
  259MPD2    C5 3977   0.152   0.502   1.174 -0.0598  0.0993  0.1975
  259MPD2     H 3978   0.082   0.734   0.880  4.0204 -2.1331 -1.8965
  259MPD2    H1 3979   0.229   0.364   1.040  1.7704 -0.6154 -1.5625
  259MPD2    H2 3980   0.062   0.643   1.299  2.4474  2.6306  0.3863
  259MPD2    H3 3981   0.164   0.435   1.258  1.0413  0.7082  0.5205
  259MPD2     N 3982   0.172   0.500   0.809 -0.0323  1.0647 -0.2512
  259MPD2    H5 3983   0.140   0.560   0.733  1.1907  0.1064 -1.5280
  259MPD2    N1 3984   4.735   0.821   1.113 -0.8370  0.4307  0.3343
  259MPD2    H7 3985   4.727   0.850   1.210 -0.9909  1.7367 -0.0799
  260TMC3    C1 3986   0.271   0.375   0.635 -0.2063 -0.3769  0.2530
  260TMC3    C2 3987   0.392   0.322   0.591  0.2410  0.8601 -0.3679
  260TMC3    C3 3988   0.407   0.299   0.458  0.5064 -0.1613  0.4355
  260TMC3    C4 3989   0.168   0.400   0.548 -0.4639  0.1613  0.3975
  260TMC3    C5 3990   0.189   0.368   0.416 -0.0451  0.0034 -0.7002
  260TMC3    C6 3991   0.308   0.319   0.363  0.3619 -0.0499 -0.7129
  260TMC3     C 3992   0.260   0.394   0.781 -0.6589  0.0026 -0.1252
  260TMC3     O 3993   0.345   0.334   0.845  0.1090 -0.1674 -0.1415
  260TMC3     H 3994   0.473   0.296   0.658 -0.5248 -2.3487 -0.6526
  260TMC3    H1 3995   0.072   0.431   0.590 -0.5332 -1.5157  1.4592
  260TMC3    H2 3996   0.330   0.316   0.257  0.8920 -4.7399 -0.4638
  260TMC3    C7 3997   0.079   0.378   0.312  0.0315  0.2235 -0.3547
  260TMC3    C8 3998   0.524   0.224   0.420  0.5463 -0.2812  0.5408
  260TMC3    O1 3999   0.118   0.367   0.198 -0.4724 -0.2399 -0.2587
  260TMC3    O2 4000   0.577   0.154   0.506 -0.4218 -0.9582 -0.7277
  261MPD2     C 4001   1.253   4.285  12.881 -0.7455 -0.3049 -0.6882
  261MPD2    C1 4002   1.314   4.201  12.785 -0.3716 -0.7727  0.4249
  261MPD2    C2 4003   1.301   4.236  12.651 -0.1895 -0.0258 -0.3151
  261MPD2    C3 4004   1.235   4.353  12.615  0.0456  0.0043 -0.9888
  261MPD2    C4 4005   1.180   4.435  12.716  0.6622  0.6905  0.3267
  261MPD2    C5 4006   1.188   4.398  12.849 -0.3726  0.0355  1.1665
  261MPD2     H 4007   1.351   4.172  12.579 -0.7107  0.4642 -1.1117
  261MPD2    H1 4008   1.133   4.529  12.689 -2.2269 -0.7998  0.1100
  261MPD2    H2 4009   1.267   4.265  12.986  0.0295 -1.1584 -0.9505
  261MPD2    H3 4010   1.138   4.450  12.930 -0.3473  2.3047 -0.2759
  261MPD2     N 4011   1.229   4.379  12.472 -0.3218 -0.5916  0.0849
  261MPD2    H5 4012   1.267   4.306  12.413  1.0076 -0.6606  1.0342
  261MPD2    N1 4013   1.410   4.106  12.824 -0.0077  0.1303  0.3906
  261MPD2    H7 4014   1.444   4.046  12.749  2.2933  0.1858  1.3940
  262TMC3    C1 4015   1.219   4.507  12.283  0.2999  0.2475 -0.1034
  262TMC3    C2 4016   1.144   4.581  12.202  0.1337 -0.0755 -0.3181
  262TMC3    C3 4017   1.196   4.599  12.077  0.0579 -0.1051  0.2356
  262TMC3    C4 4018   1.341   4.453  12.249  0.2354  0.3256  0.4210
  262TMC3    C5 4019   1.385   4.475  12.121  0.1802  0.6507 -0.3204
  262TMC3    C6 4020   1.315   4.553  12.033  0.7201 -0.3940  0.0105
  262TMC3     C 4021   1.170   4.489  12.417  1.0366  0.8359  0.4615
  262TMC3     O 4022   1.102   4.571  12.478 -0.3137 -0.6692 -0.1781
  262TMC3     H 4023   1.047   4.612  12.238 -0.1341 -1.4162  0.1037
  262TMC3    H1 4024   1.405   4.391  12.311  0.1097  1.7560  1.9954
  262TMC3    H2 4025   1.348   4.568  11.931 -0.2732 -0.4525 -0.3144
  262TMC3    C7 4026   1.464   4.365  12.064 -0.3604 -0.4194  0.0467
  262TMC3    C8 4027   1.123   4.678  11.979  0.1418 -0.5938 -0.1674
  262TMC3    O1 4028   1.486   4.265  12.130  0.9505  0.7315  0.0298
  262TMC3    O2 4029   1.192   4.725  11.885  0.3254 -0.3967  0.4052
  263MPD2     C 4030   1.941   3.347  11.519 -0.6702 -0.0078  0.3830
  263MPD2    C1 4031   2.027   3.422  11.592 -0.4032 -0.2976 -0.2902
  263MPD2    C2 4032   2.079   3.539  11.536  0.7881  0.5703 -0.4101
  263MPD2    C3 4033   2.045   3.580  11.406  0.1835  0.2497 -0.1928
  263MPD2    C4 4034   1.950   3.506  11.338  0.2031  0.0136 -0.1556
  263MPD2    C5 4035   1.897   3.396  11.397 -0.0744  0.2523  0.6420
  263MPD2     H 4036   2.162   3.594  11.578  1.0739 -0.3082  0.1843
  263MPD2    H1 4037   1.911   3.529  11.239  1.7927 -0.9303 -0.9898
  263MPD2    H2 4038   1.915   3.248  11.555 -2.4765 -0.1819 -1.3847
  263MPD2    H3 4039   1.828   3.334  11.342 -0.4004  0.8098  0.4173
  263MPD2     N 4040   2.109   3.690  11.347 -0.1312 -0.5329  0.0738
  263MPD2    H5 4041   2.186   3.737  11.393  0.0615 -0.3948 -0.3794
  263MPD2    N1 4042   2.078   3.371  11.716 -0.1039 -0.0052  0.3297
  263MPD2    H7 4043   2.073   3.273  11.743 -4.2366  0.1181 -0.0540
  264TMC3    C1 4044   2.195   3.825  11.174 -0.3428  0.2807 -0.0693
  264TMC3    C2 4045   2.224   3.923  11.271  0.4607  0.3822  0.5525
  264TMC3    C3 4046   2.306   4.026  11.227 -0.0846 -0.7322  0.0583
  264TMC3    C4 4047   2.240   3.833  11.043  0.3428  0.5324 -1.0448
  264TMC3    C5 4048   2.315   3.939  11.003  0.8867 -0.5061  0.1847
  264TMC3    C6 4049   2.350   4.037  11.096 -0.4597  0.8055 -0.2391
  264TMC3     C 4050   2.123   3.709  11.211  0.5983  0.3065  0.0260
  264TMC3     O 4051   2.080   3.638  11.122  0.3894 -0.1379  0.8979
  264TMC3     H 4052   2.186   3.923  11.373  0.8071  0.1214  0.6804
  264TMC3    H1 4053   2.209   3.759  10.970 -1.9880 -0.4743  0.9770
  264TMC3    H2 4054   2.412   4.117  11.059 -0.3908  1.5609  1.5155
  264TMC3    C7 4055   2.363   3.952  10.866 -0.2346 -0.1055  0.7703
  264TMC3    C8 4056   2.326   4.146  11.304  0.2608  0.0769  0.2013
  264TMC3    O1 4057   2.388   3.854  10.803 -0.1091 -0.0845 -0.5161
  264TMC3    O2 4058   2.405   4.226  11.259  0.0244 -0.0311 -0.3178
  265MPD2     C 4059   3.994   3.999  15.457 -1.0198  0.5459  0.3431
  265MPD2    C1 4060   4.121   3.995  15.516  0.3390  0.6676  0.1377
  265MPD2    C2 4061   4.228   3.956  15.436 -0.0415 -1.6686  0.2640
  265MPD2    C3 4062   4.203   3.923  15.303  0.7600 -0.0702  0.1361
  265MPD2    C4 4063   4.070   3.914  15.255 -0.0966  0.1677 -0.5306
  265MPD2    C5 4064   3.960   3.955  15.329 -0.2943 -0.1686  0.4698
  265MPD2     H 4065   4.324   3.941  15.485 -0.8499 -2.4794  1.5932
  265MPD2    H1 4066   4.044   3.883  15.155 -2.5688 -1.6549  0.6722
  265MPD2    H2 4067   3.908   4.040  15.509  0.7881  2.4619  1.8130
  265MPD2    H3 4068   3.858   3.955  15.291 -0.1417 -0.7104  0.0641
  265MPD2     N 4069   4.304   3.889  15.213  0.0459 -0.0288  0.0115
  265MPD2    H5 4070   4.266   3.852  15.126 -2.4308 -1.0392  1.5097
  265MPD2    N1 4071   4.138   4.045  15.650  0.4795 -0.1604 -0.6075
  265MPD2    H7 4072   4.230   4.067  15.686 -0.1217 -0.4958  1.1316
  266TMC3    C1 4073   4.087   4.173  15.843  1.0961 -0.1199 -0.1036
  266TMC3    C2 4074   4.211   4.148  15.899 -0.2710 -0.5110 -0.1291
  266TMC3    C3 4075   4.265   4.251  15.971  0.0082  0.3511  1.2392
  266TMC3    C4 4076   4.010   4.289  15.859 -0.2145 -0.0998  0.7187
  266TMC3    C5 4077   4.073   4.385  15.941  0.0338 -0.4835 -0.1272
  266TMC3    C6 4078   4.199   4.367  15.992  0.1121 -0.7704 -0.0996
  266TMC3     C 4079   4.039   4.096  15.730  0.3157 -0.4904  0.9207
  266TMC3     O 4080   3.920   4.105  15.709  0.4987  0.3886  0.2188
  266TMC3     H 4081   4.262   4.053  15.890  0.8905  0.0818  0.2526
  266TMC3    H1 4082   3.912   4.302  15.815  0.1406  0.5310  0.1152
  266TMC3    H2 4083   4.236   4.436  16.067  1.4579  0.6931 -2.0677
  266TMC3    C7 4084   4.023   4.515  15.925  0.1334  0.2549  0.4315
  266TMC3    C8 4085   4.383   4.221  16.047 -0.0849  0.6620  0.3581
  266TMC3    O1 4086   3.901   4.521  15.933 -0.5078 -0.1928  0.1446
  266TMC3    O2 4087   4.409   4.102  16.055 -0.3596 -0.4165 -0.5128
  267MPD2     C 4088   2.024   1.494  17.399 -0.4641  0.2716 -0.2092
  267MPD2    C1 4089   2.137   1.529  17.325  0.2409 -0.4423 -0.5293
  267MPD2    C2 4090   2.128   1.507  17.187  0.2708  0.4310 -0.1146
  267MPD2    C3 4091   2.007   1.468  17.127 -0.1213 -0.0195 -0.3239
  267MPD2    C4 4092   1.900   1.439  17.203  0.2327  0.5238 -0.1535
  267MPD2    C5 4093   1.910   1.453  17.340  0.0160 -0.5002 -0.1668
  267MPD2     H 4094   2.215   1.508  17.122  0.3590  2.4114  0.0206
  267MPD2    H1 4095   1.807   1.404  17.159  1.0854 -1.5471 -0.2993
  267MPD2    H2 4096   2.011   1.479  17.506  0.9184 -1.2413 -0.2650
  267MPD2    H3 4097   1.825   1.426  17.400 -1.4049 -0.1284 -2.0349
  267MPD2     N 4098   1.999   1.435  16.989 -0.2027  0.1410  0.1295
  267MPD2    H5 4099   1.920   1.375  16.966  1.2016 -1.4402 -0.5298
  267MPD2    N1 4100   2.258   1.565  17.388  0.2560 -0.3635 -0.1405
  267MPD2    H7 4101   2.258   1.569  17.490 -0.1898  3.3168 -0.2780
  268TMC3    C1 4102   2.485   1.594  17.425 -0.8379 -0.0793 -0.5464
  268TMC3    C2 4103   2.605   1.657  17.392 -0.2380  0.8721 -0.0702
  268TMC3    C3 4104   2.713   1.638  17.479 -0.4566  0.2889  0.1950
  268TMC3    C4 4105   2.480   1.491  17.524  1.3276 -0.4334 -0.8799
  268TMC3    C5 4106   2.588   1.474  17.601 -0.4035 -0.7554 -1.1315
  268TMC3    C6 4107   2.701   1.554  17.586  0.5523 -0.4409 -0.6290
  268TMC3     C 4108   2.374   1.605  17.327 -0.0913  0.0009 -0.1335
  268TMC3     O 4109   2.395   1.660  17.219 -0.4299  0.0683  0.7385
  268TMC3     H 4110   2.603   1.725  17.308  0.1293 -1.2361 -1.7698
  268TMC3    H1 4111   2.396   1.423  17.538  1.1677  0.1653  1.0899
  268TMC3    H2 4112   2.793   1.539  17.641  0.3852 -1.3132 -0.5851
  268TMC3    C7 4113   2.585   1.383  17.708  0.6019  0.6788  0.0640
  268TMC3    C8 4114   2.846   1.664  17.433 -0.7115 -0.3983 -0.2530
  268TMC3    O1 4115   2.692   1.343   0.008  0.2755 -0.5333 -0.0466
  268TMC3    O2 4116   2.934   1.683  17.519  0.0005  0.0539  0.0739
  269MPD2     C 4117   2.285   4.735  15.209 -0.2793 -0.0367  0.1341
  269MPD2    C1 4118   2.248   0.052  15.327  0.0348 -0.0310 -0.2117
  269MPD2    C2 4119   2.224   0.192  15.331  0.2134  0.0923  0.1274
  269MPD2    C3 4120   2.237   0.270  15.220 -0.9759  0.2933 -0.3510
  269MPD2    C4 4121   2.278   0.209  15.097  0.1870 -1.2822 -0.7217
  269MPD2    C5 4122   2.296   0.076  15.096 -0.3962  0.6184 -0.0610
  269MPD2     H 4123   2.200   0.230  15.430 -1.0867  1.5852 -0.7520
  269MPD2    H1 4124   2.296   0.267  15.008 -1.1282 -1.9234 -1.4106
  269MPD2    H2 4125   2.306   4.629  15.206  1.7518  0.4345 -2.4579
  269MPD2    H3 4126   2.329   0.023  15.007  1.6463  1.7859 -0.0098
  269MPD2     N 4127   2.218   0.407  15.246  0.4994 -0.2820 -0.1125
  269MPD2    H5 4128   2.203   0.432  15.343 -0.8769 -1.1014 -0.1152
  269MPD2    N1 4129   2.231   4.702  15.440 -0.2386 -0.0207 -0.4891
  269MPD2    H7 4130   2.275   4.611  15.431 -0.1019 -0.1414  1.3654
  270TMC3    C1 4131   2.107   4.593  15.604 -0.6180 -0.5233 -0.3921
  270TMC3    C2 4132   1.985   4.588  15.659 -0.3053 -0.5520  0.0791
  270TMC3    C3 4133   1.937   4.458  15.682 -0.1353  0.4911  0.1377
  270TMC3    C4 4134   2.188   4.480  15.584 -0.3592 -0.3173 -0.5795
  270TMC3    C5 4135   2.150   4.357  15.632  0.1154  0.8547  0.5369
  270TMC3    C6 4136   2.018   4.346  15.673  0.3008  0.2472  0.2108
  270TMC3     C 4137   2.149   4.719  15.549  0.2154 -0.3235  0.0870
  270TMC3     O 4138   2.080   0.080  15.579  0.0647  0.1500  0.0737
  270TMC3     H 4139   1.914   4.671  15.654 -0.3194 -0.5754 -0.0925
  270TMC3    H1 4140   2.283   4.484  15.533  0.7362 -0.4472  1.4642
  270TMC3    H2 4141   1.971   4.254  15.705  0.3164 -0.2423 -1.2158
  270TMC3    C7 4142   2.179   4.242  15.540  0.0652 -0.1427  0.0460
  270TMC3    C8 4143   1.804   4.432  15.624 -0.7922 -0.2252 -0.4728
  270TMC3    O1 4144   2.086   4.165  15.527  0.2323 -0.0081  0.0095
  270TMC3    O2 4145   1.715   4.510  15.650  0.1088 -0.0288 -0.0759
  271MPD2     C 4146   1.226   4.302  13.835  0.0380  0.4568 -0.7566
  271MPD2    C1 4147   1.153   4.326  13.954  0.1645 -0.1528 -0.2648
  271MPD2    C2 4148   1.042   4.403  13.951  0.2310  0.6480  0.4475
  271MPD2    C3 4149   0.995   4.457  13.833 -0.2992  0.3554 -0.8527
  271MPD2    C4 4150   1.071   4.440  13.721 -0.6058  0.0553 -0.0216
  271MPD2    C5 4151   1.182   4.366  13.719  0.2052 -0.0679 -0.1817
  271MPD2     H 4152   0.987   4.404  14.044  1.1091  0.0346  0.9750
  271MPD2    H1 4153   1.040   4.487  13.628 -1.6891  0.2266  0.4245
  271MPD2    H2 4154   1.298   4.222  13.830 -0.0020  0.3957 -0.3382
  271MPD2    H3 4155   1.242   4.339  13.633  1.9423  1.1013  0.6370
  271MPD2     N 4156   0.865   4.512  13.827  0.8110  0.1968 -0.4188
  271MPD2    H5 4157   0.838   4.560  13.742 -2.0500  0.7771  0.7969
  271MPD2    N1 4158   1.187   4.260  14.076  0.1801  0.8482 -0.5232
  271MPD2    H7 4159   1.118   4.250  14.150  0.6797  0.5767 -0.0823
  272TMC3    C1 4160   1.320   4.106  14.215  0.3943  0.0112 -0.0585
  272TMC3    C2 4161   1.424   4.010  14.217 -1.4009 -0.2154  0.3873
  272TMC3    C3 4162   1.474   3.953  14.338 -0.6532  0.3404 -0.0856
  272TMC3    C4 4163   1.254   4.124  14.338  0.5967 -0.1106 -0.8417
  272TMC3    C5 4164   1.291   4.055  14.447 -0.3024 -0.2472  0.5803
  272TMC3    C6 4165   1.400   3.975  14.455  0.1631  0.3842 -0.0884
  272TMC3     C 4166   1.309   4.192  14.096  0.1020  0.6423  0.0491
  272TMC3     O 4167   1.412   4.206  14.031 -0.1969  0.7620 -0.0193
  272TMC3     H 4168   1.475   3.990  14.123 -2.9993 -4.2664  0.3823
  272TMC3    H1 4169   1.165   4.186  14.334  0.4747 -0.1024  2.0239
  272TMC3    H2 4170   1.407   3.917  14.546  1.9279 -2.1302 -1.8365
  272TMC3    C7 4171   1.243   4.110  14.564 -0.9371  0.5160 -0.8047
  272TMC3    C8 4172   1.578   3.848  14.327 -0.1580  0.5130 -0.4645
  272TMC3    O1 4173   1.128   4.154  14.566 -0.2435  0.5303 -0.2661
  272TMC3    O2 4174   1.612   3.827  14.213 -0.1682  0.2683 -0.0342
  273MPD2     C 4175   2.389   2.505  12.059  0.0201  0.0892  0.6665
  273MPD2    C1 4176   2.518   2.535  12.007  0.4110 -0.3814  0.0652
  273MPD2    C2 4177   2.536   2.543  11.871 -0.0697 -0.4172  0.1834
  273MPD2    C3 4178   2.432   2.521  11.781  0.5399 -0.1320 -0.7003
  273MPD2    C4 4179   2.305   2.491  11.837 -0.0990  0.4532 -0.1589
  273MPD2    C5 4180   2.290   2.462  11.967  0.1635 -0.2386 -0.6531
  273MPD2     H 4181   2.628   2.582  11.829  0.7204 -1.3255  1.0494
  273MPD2    H1 4182   2.227   2.452  11.772 -0.4076 -2.6893  2.0707
  273MPD2    H2 4183   2.365   2.490  12.164 -1.0309 -2.4114  0.0760
  273MPD2    H3 4184   2.199   2.417  12.006 -1.2575  4.2647  1.1849
  273MPD2     N 4185   2.446   2.535  11.640  0.7824 -0.0958  1.1282
  273MPD2    H5 4186   2.362   2.560  11.589  1.4005  0.8174  0.5616
  273MPD2    N1 4187   2.616   2.585  12.090 -0.4610 -0.3453 -0.6891
  273MPD2    H7 4188   2.698   2.618  12.040  1.1903 -0.0012  2.2474
  274TMC3    C1 4189   2.578   2.601  11.456 -0.8361  0.3301 -0.5230
  274TMC3    C2 4190   2.471   2.585  11.368  0.1060  0.9579 -0.0015
  274TMC3    C3 4191   2.468   2.685  11.266  0.0854  0.2842 -0.5722
  274TMC3    C4 4192   2.678   2.692  11.446  0.3032 -0.2900  0.5195
  274TMC3    C5 4193   2.670   2.784  11.350 -0.7574 -0.9876  0.4858
  274TMC3    C6 4194   2.563   2.793  11.265 -0.1256  0.1899  0.3779
  274TMC3     C 4195   2.569   2.523  11.580 -0.1265 -0.1780  0.1612
  274TMC3     O 4196   2.673   2.484  11.620 -0.1595  0.2226 -0.2118
  274TMC3     H 4197   2.397   2.506  11.370  0.5787  0.4638 -1.9865
  274TMC3    H1 4198   2.740   2.699  11.535  0.2325 -1.5374  0.6766
  274TMC3    H2 4199   2.563   2.861  11.180 -3.5822  0.3313  0.5189
  274TMC3    C7 4200   2.734   2.909  11.380 -0.2427 -0.0674  0.2630
  274TMC3    C8 4201   2.383   2.664  11.145 -0.5680  0.1052 -0.5885
  274TMC3    O1 4202   2.688   3.011  11.338  0.0824  0.5029 -0.4122
  274TMC3    O2 4203   2.276   2.611  11.177 -0.4302 -0.3293 -0.2607
  275MPD2     C 4204   2.445   0.799  14.484 -0.1021  0.2401  0.5050
  275MPD2    C1 4205   2.489   0.663  14.499 -0.3059  0.8453 -0.3756
  275MPD2    C2 4206   2.405   0.560  14.457  0.4118  0.3445 -0.3705
  275MPD2    C3 4207   2.283   0.579  14.393  0.0231 -0.6160 -0.4373
  275MPD2    C4 4208   2.257   0.711  14.369  0.3515  0.3593  0.4723
  275MPD2    C5 4209   2.329   0.812  14.422  0.0660  0.6544  0.1944
  275MPD2     H 4210   2.446   0.462  14.480  0.7284  0.8293  1.1469
  275MPD2    H1 4211   2.169   0.736  14.311 -0.4390 -1.7769  0.7330
  275MPD2    H2 4212   2.509   0.883  14.506 -0.0158 -0.3733  2.5710
  275MPD2    H3 4213   2.291   0.913  14.406  0.1225  0.1434 -3.1432
  275MPD2     N 4214   2.186   0.489  14.371  0.4848  0.3368 -0.5862
  275MPD2    H5 4215   2.100   0.526  14.333  0.2194 -0.1895 -0.5020
  275MPD2    N1 4216   2.619   0.625  14.561 -0.0198  0.7337  0.1192
  275MPD2    H7 4217   2.650   0.532  14.535  1.8055  1.6460 -0.9138
  276TMC3    C1 4218   2.818   0.656  14.695  0.4701  0.4817 -0.0326
  276TMC3    C2 4219   2.882   0.555  14.628  0.2787  0.5758 -0.2721
  276TMC3    C3 4220   3.017   0.544  14.648 -0.0143 -0.0171  0.1856
  276TMC3    C4 4221   2.888   0.749  14.763 -0.0864  0.3860 -0.6174
  276TMC3    C5 4222   3.025   0.746  14.771  0.1192  0.0053 -0.0178
  276TMC3    C6 4223   3.092   0.641  14.713  0.0699  0.1166  0.3585
  276TMC3     C 4224   2.692   0.711  14.647 -0.5165 -0.0967  0.6042
  276TMC3     O 4225   2.660   0.822  14.679  0.4044 -0.4350 -0.4529
  276TMC3     H 4226   2.827   0.489  14.561  0.9517 -0.4269  0.1664
  276TMC3    H1 4227   2.830   0.826  14.811  2.4908  0.1937  2.7971
  276TMC3    H2 4228   3.196   0.624  14.740 -0.1117 -2.0876 -0.2669
  276TMC3    C7 4229   3.091   0.868  14.815  0.1126  0.3053 -0.0501
  276TMC3    C8 4230   3.080   0.413  14.632 -0.2919 -0.9434 -0.0962
  276TMC3    O1 4231   3.023   0.939  14.887 -0.6273 -0.3217 -0.0868
  276TMC3    O2 4232   3.200   0.417  14.654  0.3408  0.4394 -0.3393
  277MPD2     C 4233   4.699   4.361  13.325  0.3542 -0.5324 -0.2106
  277MPD2    C1 4234   4.565   4.333  13.300 -0.0873  0.0925  0.0139
  277MPD2    C2 4235   4.489   4.293  13.408 -0.0648 -0.8939 -0.1873
  277MPD2    C3 4236   4.546   4.275  13.530 -0.4314  0.0851  0.3444
  277MPD2    C4 4237   4.674   4.298  13.556 -0.2282 -0.3242 -0.0857
  277MPD2    C5 4238   0.017   4.343  13.454 -0.2229  0.0489 -0.9281
  277MPD2     H 4239   4.382   4.272  13.405 -0.0712 -0.9636  0.6136
  277MPD2    H1 4240   4.729   4.263  13.643 -0.0412 -0.4542 -0.2545
  277MPD2    H2 4241   0.022   4.410  13.249 -1.0755  0.0543 -0.9498
  277MPD2    H3 4242   0.119   4.374  13.478 -0.2433  0.2941 -1.1669
  277MPD2     N 4243   4.456   4.233  13.631  0.0628 -0.1698  0.1292
  277MPD2    H5 4244   4.358   4.237  13.604  0.4616 -0.1148 -1.3197
  277MPD2    N1 4245   4.510   4.372  13.179  0.0443  0.1596 -0.2785
  277MPD2    H7 4246   4.574   4.399  13.105  0.4681 -1.2048 -0.4118
  278TMC3    C1 4247   4.367   4.144  13.820 -0.0764  0.8624 -0.0044
  278TMC3    C2 4248   4.346   4.009  13.835  0.6372 -0.2202  0.2082
  278TMC3    C3 4249   4.218   3.970  13.855  0.1764 -0.3095 -0.9384
  278TMC3    C4 4250   4.263   4.232  13.808  0.1370 -0.2141 -0.2385
  278TMC3    C5 4251   4.140   4.178  13.823 -0.3121 -0.3220  0.6178
  278TMC3    C6 4252   4.113   4.051  13.855 -0.2759 -0.8835  0.2680
  278TMC3     C 4253   4.487   4.178  13.751 -0.0349  0.3163  0.1787
  278TMC3     O 4254   4.593   4.143  13.796 -0.1419  0.3095  0.6892
  278TMC3     H 4255   4.426   3.938  13.817  0.4372 -0.4923  0.3981
  278TMC3    H1 4256   4.275   4.335  13.779 -2.1099 -0.7246 -3.0184
  278TMC3    H2 4257   4.016   4.007  13.880  0.0435 -3.6652 -3.3380
  278TMC3    C7 4258   4.030   4.270  13.807  0.4609  0.3918 -0.5482
  278TMC3    C8 4259   4.200   3.822  13.872 -0.1036  0.0337 -0.5136
  278TMC3    O1 4260   4.048   4.364  13.730  0.5188  0.1519  0.3786
  278TMC3    O2 4261   4.278   3.761  13.952  0.0245  0.1292 -0.1169
  279MPD2     C 4262   3.741   3.912  17.719 -0.2753 -0.2095 -0.0716
  279MPD2    C1 4263   3.773   4.048  17.692  0.4717 -0.1608 -0.2165
  279MPD2    C2 4264   3.773   4.092  17.559 -0.4588 -0.0092 -0.2539
  279MPD2    C3 4265   3.746   4.006  17.452  0.0540  0.1846  0.3150
  279MPD2    C4 4266   3.717   3.872  17.480 -0.4570 -0.0634  1.0099
  279MPD2    C5 4267   3.710   3.835  17.614  0.2233  0.6634  0.0652
  279MPD2     H 4268   3.822   4.185  17.534  0.1145  0.5057  2.7369
  279MPD2    H1 4269   3.696   3.801  17.401 -3.6528  2.7786 -0.6854
  279MPD2    H2 4270   3.730   3.879   0.075 -1.1354 -0.2180 -0.1677
  279MPD2    H3 4271   3.678   3.732  17.631  0.5476  0.5379 -0.0855
  279MPD2     N 4272   3.757   4.050  17.315 -0.0791  0.1246  0.1963
  279MPD2    H5 4273   3.731   3.979  17.247 -1.3904 -0.8239  1.6886
  279MPD2    N1 4274   3.814   4.129   0.050 -0.4038 -0.1341  0.1718
  279MPD2    H7 4275   3.834   4.087   0.140 -1.0323  0.7208  0.7086
  280TMC3    C1 4276   3.866   4.332   0.155 -0.0142 -0.3832 -0.0734
  280TMC3    C2 4277   3.974   4.277   0.222  0.4045  0.1063  0.1096
  280TMC3    C3 4278   4.025   4.355   0.327  0.0620  0.0039  0.0298
  280TMC3    C4 4279   3.826   4.458   0.169 -0.1981  0.5078  0.1173
  280TMC3    C5 4280   3.897   4.537   0.255  0.6337 -0.6850 -0.0159
  280TMC3    C6 4281   3.996   4.483   0.337  0.5406 -0.6739  0.2804
  280TMC3     C 4282   3.825   4.263   0.035  0.2520  0.9152  0.5384
  280TMC3     O 4283   3.807   4.334  17.681  0.0430  0.7694  0.1275
  280TMC3     H 4284   4.021   4.192   0.176  2.0628  1.7914 -1.2711
  280TMC3    H1 4285   3.742   4.495   0.111  0.5718  0.1261 -1.2403
  280TMC3    H2 4286   4.031   4.551   0.414  0.8713  0.1170 -0.5596
  280TMC3    C7 4287   3.833   4.664   0.306 -0.2487  0.0021 -0.3759
  280TMC3    C8 4288   4.155   4.309   0.374 -0.2106 -0.3345  0.1439
  280TMC3    O1 4289   3.848   4.705   0.420 -0.1255 -0.3262 -0.7314
  280TMC3    O2 4290   4.219   4.384   0.445 -0.1684 -0.2061  0.7128
  281TMC3    C1 4291   2.676   4.570  13.545  0.3573  0.1256 -0.3621
  281TMC3    C2 4292   2.719   4.635  13.437 -0.4011  0.3679  0.1906
  281TMC3    C3 4293   2.731   4.576  13.311 -0.2785  0.7286 -0.2507
  281TMC3    C4 4294   2.654   4.433  13.531 -0.2942 -0.5269  0.5509
  281TMC3    C5 4295   2.673   4.375  13.409  0.0144 -1.2949  0.9230
  281TMC3    C6 4296   2.708   4.442  13.296 -0.4706  0.4625 -0.3621
  281TMC3     C 4297   2.589   4.635  13.650 -0.3024 -0.0786  0.3540
  281TMC3     O 4298   2.573   4.566  13.749  0.5643  1.0732 -0.2431
  281TMC3     H 4299   2.734   0.006  13.437 -0.0211  0.3129  0.2915
  281TMC3    H1 4300   2.635   4.373  13.619 -0.2589 -3.3462 -1.3625
  281TMC3    H2 4301   2.725   4.388  13.203 -0.3591  0.6102 -0.4264
  281TMC3    C7 4302   2.626   4.242  13.378  0.6355  0.3143  0.1270
  281TMC3    C8 4303   2.789   4.651  13.199 -0.2873 -0.0202  1.0139
  281TMC3    O1 4304   2.686   4.191  13.286 -0.0445 -0.6251 -0.0952
  281TMC3    O2 4305   2.887   4.601  13.140 -0.4067 -0.5261 -0.2500
  282MPD2     C 4306   4.241   1.118  14.891  0.5653  0.8624  0.0126
  282MPD2    C1 4307   4.105   1.124  14.904 -0.2780  0.7034 -0.0336
  282MPD2    C2 4308   4.025   1.052  14.815 -0.2716 -0.0216 -0.1299
  282MPD2    C3 4309   4.080   0.989  14.708  0.1607 -0.1323 -0.5529
  282MPD2    C4 4310   4.215   0.980  14.704  0.4232  0.9192 -0.1232
  282MPD2    C5 4311   4.292   1.048  14.786  0.6191 -0.7685  0.0776
  282MPD2     H 4312   3.918   1.064  14.832 -0.3636 -0.0408 -0.6952
  282MPD2    H1 4313   4.273   0.937  14.622  1.7741  0.3803  1.1110
  282MPD2    H2 4314   4.305   1.160  14.968  0.0330  0.0263  0.9137
  282MPD2    H3 4315   4.400   1.041  14.778  0.5542 -1.0467 -0.5194
  282MPD2     N 4316   4.000   0.947  14.598 -0.1011  0.0254  0.0555
  282MPD2    H5 4317   3.901   0.966  14.612 -0.4389 -2.3241  0.8084
  282MPD2    N1 4318   4.038   1.197  15.004 -0.4440  0.1818 -0.5416
  282MPD2    H7 4319   3.937   1.196  15.011 -0.4247 -0.5179 -0.3813
  283TMC3    C1 4320   4.009   1.361  15.158 -0.0951  0.0179  0.5383
  283TMC3    C2 4321   4.048   1.490  15.189  0.1507 -0.4776  0.4241
  283TMC3    C3 4322   4.009   1.529  15.314 -0.3860 -0.3858  0.8513
  283TMC3    C4 4323   3.930   1.287  15.249  0.4305  0.0681  0.0407
  283TMC3    C5 4324   3.888   1.347  15.363  0.5258  0.1218 -0.7128
  283TMC3    C6 4325   3.913   1.473  15.396  0.6602  0.0454 -0.1424
  283TMC3     C 4326   4.102   1.279  15.091 -0.2946  0.2125  0.1415
  283TMC3     O 4327   4.220   1.298  15.115 -0.3619  0.1628 -0.4174
  283TMC3     H 4328   4.122   1.545  15.131 -2.5505  1.4031 -1.2553
  283TMC3    H1 4329   3.935   1.180  15.231 -1.3951  0.1009 -0.6837
  283TMC3    H2 4330   3.881   1.509  15.494  0.3528  0.4243 -0.3809
  283TMC3    C7 4331   3.781   1.273  15.429 -0.4226  0.3147  0.8561
  283TMC3    C8 4332   4.057   1.657  15.345 -0.1042 -0.1144 -0.2413
  283TMC3    O1 4333   3.749   1.316  15.539  0.1475  0.3375  0.5556
  283TMC3    O2 4334   4.106   1.726  15.256  0.1730 -0.1768  1.1830
  284MPD2     C 4335   1.758   0.600  12.175  0.4063 -0.1795 -0.1000
  284MPD2    C1 4336   1.877   0.573  12.117 -0.1099 -0.0860 -0.9353
  284MPD2    C2 4337   1.950   0.466  12.164  0.1690 -0.0917  0.3915
  284MPD2    C3 4338   1.898   0.388  12.272 -0.4063 -0.4938  0.7264
  284MPD2    C4 4339   1.779   0.421  12.331  0.0271  0.2336 -0.7184
  284MPD2    C5 4340   1.709   0.520  12.278  0.1562  0.5781 -0.0802
  284MPD2     H 4341   2.051   0.451  12.127 -0.0443 -0.9911  0.1685
  284MPD2    H1 4342   1.733   0.353  12.401 -0.4444  1.1182 -0.1701
  284MPD2    H2 4343   1.695   0.680  12.138  0.2444 -0.9902 -1.5783
  284MPD2    H3 4344   1.615   0.543  12.326 -0.3149 -0.1300 -0.6482
  284MPD2     N 4345   1.984   0.299  12.345  0.4229  0.1632 -0.0176
  284MPD2    H5 4346   1.955   0.262  12.435  1.8442  1.3854  0.9462
  284MPD2    N1 4347   1.945   0.656  12.023 -0.4992 -0.2706 -0.0220
  284MPD2    H7 4348   2.039   0.626  11.998 -0.2724  0.6979 -0.3511
  285TMC3    C1 4349   1.970   0.812  11.847  0.9520  0.2366 -0.4169
  285TMC3    C2 4350   2.064   0.724  11.796  0.1878 -0.6004  0.3122
  285TMC3    C3 4351   2.156   0.782  11.705  0.2191  0.6222  0.6658
  285TMC3    C4 4352   1.975   0.946  11.831 -0.2561  0.8654 -0.4559
  285TMC3    C5 4353   2.081   1.004  11.756  0.2328 -0.1062 -0.0283
  285TMC3    C6 4354   2.169   0.918  11.689  0.5193  0.4901 -0.7558
  285TMC3     C 4355   1.888   0.766  11.957 -0.1180  0.1600  0.8348
  285TMC3     O 4356   1.782   0.833  11.980 -0.0335  0.5019 -0.3935
  285TMC3     H 4357   2.053   0.616  11.802  0.5474 -0.6007  0.8554
  285TMC3    H1 4358   1.901   1.002  11.885 -0.8155 -2.0665  1.8126
  285TMC3    H2 4359   2.231   0.966  11.614 -0.7430 -0.8756 -2.6598
  285TMC3    C7 4360   2.075   1.140  11.706 -0.0057  0.6629 -0.0007
  285TMC3    C8 4361   2.270   0.699  11.669 -0.3630  0.3085 -0.1967
  285TMC3    O1 4362   2.175   1.194  11.657  0.0803  0.1383  0.6031
  285TMC3    O2 4363   2.262   0.583  11.697  0.0755 -0.0085  0.1471
  286MPD2     C 4364   3.198   4.176   1.016  0.2666  0.2040 -0.1124
  286MPD2    C1 4365   3.150   4.133   0.895  0.4968 -0.9458  0.1665
  286MPD2    C2 4366   3.199   4.013   0.853  0.0451  0.1905  0.1583
  286MPD2    C3 4367   3.304   3.945   0.919 -0.2609  0.3685 -0.3122
  286MPD2    C4 4368   3.354   4.001   1.034 -0.0375  0.3093  0.0964
  286MPD2    C5 4369   3.297   4.113   1.088  0.4144  0.2264  0.4166
  286MPD2     H 4370   3.154   3.972   0.763 -0.6566  0.4990  0.3693
  286MPD2    H1 4371   3.437   3.953   1.084 -0.5673 -0.3329  0.3636
  286MPD2    H2 4372   3.163   4.267   1.064 -0.4375 -0.1849  0.1227
  286MPD2    H3 4373   3.321   4.162   1.181 -0.2586 -0.3586  0.8951
  286MPD2     N 4374   3.371   3.827   0.868 -0.1505  0.4642 -0.5181
  286MPD2    H5 4375   3.436   3.789   0.936  0.5474  0.3168 -1.2668
  286MPD2    N1 4376   3.044   4.190   0.818  0.1618 -0.1860  0.1524
  286MPD2    H7 4377   3.018   4.147   0.730  0.1839  1.7422 -0.7817
  287TMC3    C1 4378   3.413   3.655   0.716  0.1073  0.3024 -0.0126
  287TMC3    C2 4379   3.397   3.607   0.586  0.5185  0.7270  0.9076
  287TMC3    C3 4380   3.491   3.529   0.542 -0.2937  0.2913  0.6684
  287TMC3    C4 4381   3.521   3.614   0.795 -0.0361  0.0714  0.2294
  287TMC3    C5 4382   3.609   3.523   0.742 -0.5028  0.2300 -0.3149
  287TMC3    C6 4383   3.597   3.481   0.613 -0.0382  0.1802  0.1899
  287TMC3     C 4384   3.321   3.755   0.757  0.2645  0.2291 -0.2202
  287TMC3     O 4385   3.225   3.787   0.689 -0.1719  0.4659 -0.3262
  287TMC3     H 4386   3.304   3.634   0.536  0.4986 -0.3009  0.3898
  287TMC3    H1 4387   3.539   3.641   0.898  1.5914 -4.3993  1.1231
  287TMC3    H2 4388   3.668   3.418   0.559 -1.9746 -2.0494  0.2403
  287TMC3    C7 4389   3.714   3.465   0.826 -0.1528  0.4876 -0.0195
  287TMC3    C8 4390   3.468   3.466   0.416  0.1554  0.5163  0.3931
  287TMC3    O1 4391   3.747   3.533   0.926 -0.4535  0.1936 -0.2506
  287TMC3    O2 4392   3.536   3.373   0.383  0.3359  0.3549  0.0617
  288TMC3    C1 4393   0.050   3.820  14.459  0.0879 -0.4086  0.3521
  288TMC3    C2 4394   4.656   3.835  14.505  0.5609 -0.3107 -0.2556
  288TMC3    C3 4395   4.579   3.931  14.440 -0.4915  0.2159  0.2268
  288TMC3    C4 4396   0.096   3.895  14.355 -0.3856  0.1823  0.0216
  288TMC3    C5 4397   0.011   3.995  14.301  0.6819  0.2685 -0.1853
  288TMC3    C6 4398   4.619   3.998  14.330 -0.1104  0.2686 -0.5828
  288TMC3     C 4399   0.131   3.738  14.542 -0.0543 -0.5839  0.0169
  288TMC3     O 4400   0.088   3.694  14.648  1.0930  0.6724  0.0164
  288TMC3     H 4401   4.618   3.776  14.588  2.3498  0.2346  0.9513
  288TMC3    H1 4402   0.203   3.900  14.336 -0.4954  0.2564 -0.5810
  288TMC3    H2 4403   4.551   4.057  14.269 -1.0273  2.2162  2.2750
  288TMC3    C7 4404   0.071   4.098  14.214  0.2797 -0.7436  0.1736
  288TMC3    C8 4405   4.449   3.971  14.484 -0.0081  0.1262 -0.5026
  288TMC3    O1 4406   0.175   4.075  14.161  0.0569  0.1367 -0.1387
  288TMC3    O2 4407   4.397   4.058  14.419 -0.6702  0.4154 -0.2357
  289MPD2     C 4408   4.619   2.847  14.317  0.2912 -0.4848  0.2818
  289MPD2    C1 4409   4.573   2.961  14.249 -0.8432 -0.4499 -0.6183
  289MPD2    C2 4410   4.448   2.961  14.193 -0.1722  0.1179 -0.3674
  289MPD2    C3 4411   4.373   2.840  14.181  0.1868 -0.0108  0.0895
  289MPD2    C4 4412   4.431   2.725  14.231 -0.0825 -0.3554  0.7900
  289MPD2    C5 4413   4.547   2.731  14.306  0.1694  0.4349 -0.0528
  289MPD2     H 4414   4.409   3.051  14.148  0.6971  0.9893  0.6265
  289MPD2    H1 4415   4.381   2.629  14.230  3.5873 -2.2743  2.1210
  289MPD2    H2 4416   4.707   2.854  14.380 -0.0663  1.0176  0.6058
  289MPD2    H3 4417   4.592   2.646  14.358 -0.3772  1.2880  1.7967
  289MPD2     N 4418   4.259   2.825  14.096  0.1046  0.2900  0.0003
  289MPD2    H5 4419   4.216   2.733  14.098  1.7629 -0.5031 -0.1914
  289MPD2    N1 4420   4.663   3.065  14.253  0.5079  0.0428 -0.4979
  289MPD2    H7 4421   0.009   3.029  14.300 -0.5955 -2.0673 -0.1741
  290TMC3    C1 4422   4.059   2.893  13.973  0.2157 -0.2963  0.3341
  290TMC3    C2 4423   3.990   3.004  13.923 -0.6010 -0.0773 -0.0687
  290TMC3    C3 4424   3.861   2.987  13.882 -0.6621  0.3186  0.0178
  290TMC3    C4 4425   3.997   2.770  13.993  0.5228  0.1710 -0.1024
  290TMC3    C5 4426   3.868   2.767  13.950 -0.0445  0.5386 -0.2431
  290TMC3    C6 4427   3.796   2.867  13.895  0.1556 -0.4534 -0.4333
  290TMC3     C 4428   4.184   2.926  14.036  1.0548  0.0302  0.4207
  290TMC3     O 4429   4.219   3.044  14.030  0.6509  0.1093  0.0464
  290TMC3     H 4430   4.041   3.095  13.894  0.9460 -1.3737 -1.3476
  290TMC3    H1 4431   4.045   2.680  14.031 -1.9505 -1.4018 -0.7351
  290TMC3    H2 4432   3.690   2.872  13.872 -0.0244 -1.3447  0.1926
  290TMC3    C7 4433   3.789   2.646  13.967  0.2680 -0.2669 -0.9747
  290TMC3    C8 4434   3.767   3.095  13.860  0.0977  0.5823 -0.6497
  290TMC3    O1 4435   3.684   2.644  13.899 -0.1017 -0.1774  0.4924
  290TMC3    O2 4436   3.670   3.084  13.784 -0.3084  0.2271 -1.5237
  291MPD2     C 4437   0.009   2.786   0.561 -0.4315 -0.5309  0.3919
  291MPD2    C1 4438   4.669   2.684   0.504 -0.3011  0.3040 -0.0964
  291MPD2    C2 4439   4.637   2.680   0.367 -0.5667  0.2275 -0.2655
  291MPD2    C3 4440   4.679   2.782   0.289 -0.3494  0.5043 -0.0330
  291MPD2    C4 4441   0.006   2.889   0.347 -0.3697 -0.4525 -0.0269
  291MPD2    C5 4442   0.040   2.893   0.476  0.3243 -0.6787  0.3327
  291MPD2     H 4443   4.572   2.600   0.335  0.0576 -0.3897  0.0189
  291MPD2    H1 4444   0.036   2.972   0.285 -0.3192 -1.8365 -1.8433
  291MPD2    H2 4445   0.053   2.790   0.660 -1.5711 -0.5905  0.8956
  291MPD2    H3 4446   0.089   2.978   0.522  0.0720 -0.0898 -0.4866
  291MPD2     N 4447   4.647   2.797   0.151  0.6554  0.1809 -0.0159
  291MPD2    H5 4448   4.681   2.877   0.099  0.3450 -1.3328 -2.5412
  291MPD2    N1 4449   4.614   2.583   0.581 -0.0668 -0.9071 -0.2072
  291MPD2    H7 4450   4.556   2.514   0.535  0.8015 -0.4058 -2.0436
  292TMC3    C1 4451   4.529   2.465   0.749  0.3131 -0.1160 -0.0742
  292TMC3    C2 4452   4.459   2.491   0.869  0.1353 -0.2822  0.4139
  292TMC3    C3 4453   4.336   2.435   0.880  0.1941 -0.0863  0.6329
  292TMC3    C4 4454   4.474   2.380   0.658  0.3435  0.7345  0.4628
  292TMC3    C5 4455   4.360   2.317   0.685 -0.2832 -0.6736 -0.0175
  292TMC3    C6 4456   4.283   2.349   0.790 -0.1407 -0.3014 -0.2189
  292TMC3     C 4457   4.632   2.559   0.713  0.1774 -0.3207  0.7230
  292TMC3     O 4458   4.691   2.623   0.795 -0.4714  0.0644  0.1861
  292TMC3     H 4459   4.496   2.552   0.950  3.9757 -0.1412 -1.4208
  292TMC3    H1 4460   4.526   2.357   0.565  1.5338 -1.4666  1.6676
  292TMC3    H2 4461   4.193   2.295   0.817  0.1654  0.0360  1.4521
  292TMC3    C7 4462   4.310   2.229   0.586  0.1050 -0.1790 -0.1900
  292TMC3    C8 4463   4.252   2.483   0.993 -0.5598 -0.5363  0.4201
  292TMC3    O1 4464   4.391   2.170   0.515 -0.6320  0.4065  0.3084
  292TMC3    O2 4465   4.309   2.549   1.078  0.3597  0.7602  0.1711
  293MPD2     C 4466   0.812   3.927  12.685  0.3333  0.4304  0.2354
  293MPD2    C1 4467   0.689   3.975  12.728 -0.3835 -0.2101  0.0470
  293MPD2    C2 4468   0.693   4.066  12.838  0.0173 -0.6421  0.0650
  293MPD2    C3 4469   0.813   4.092  12.904 -0.0659  0.0139  0.4464
  293MPD2    C4 4470   0.929   4.042  12.852  0.2581 -0.0145  0.2460
  293MPD2    C5 4471   0.928   3.963  12.739 -0.0649 -0.4534  0.4246
  293MPD2     H 4472   0.598   4.095  12.881 -0.3016  0.2769 -1.2620
  293MPD2    H1 4473   1.026   4.066  12.895  0.7174  0.2431 -0.9279
  293MPD2    H2 4474   0.818   3.864  12.597 -0.6303  0.2599  0.2963
  293MPD2    H3 4475   1.021   3.932  12.692  0.3409  0.5277  0.5854
  293MPD2     N 4476   0.798   4.164  13.020  0.5792 -0.0433 -0.1592
  293MPD2    H5 4477   0.704   4.191  13.050  0.1747 -2.5438  0.7731
  293MPD2    N1 4478   0.576   3.930  12.660 -0.0454 -0.1007  0.0094
  293MPD2    H7 4479   0.583   3.882  12.571 -2.9104 -0.3631 -0.0962
  294TMC3    C1 4480   0.349   3.874  12.631  0.1785 -0.1059 -1.0087
  294TMC3    C2 4481   0.244   3.807  12.685  0.5490  0.1904  0.4876
  294TMC3    C3 4482   0.153   3.753  12.601  0.5421 -0.2295 -0.5738
  294TMC3    C4 4483   0.376   3.880  12.494 -0.0296  0.0167  0.3002
  294TMC3    C5 4484   0.278   3.833  12.411  0.3272  0.0723  0.2613
  294TMC3    C6 4485   0.167   3.775  12.465  0.5183 -0.3248  0.6280
  294TMC3     C 4486   0.453   3.925  12.725 -0.2299  0.4231  0.5105
  294TMC3     O 4487   0.428   3.941  12.845  0.6242  0.2451  0.0681
  294TMC3     H 4488   0.232   3.812  12.793 -2.7168  0.7412  0.1026
  294TMC3    H1 4489   0.462   3.934  12.456  0.0343  0.2699  0.8033
  294TMC3    H2 4490   0.086   3.760  12.395  0.5365 -1.6061  0.8865
  294TMC3    C7 4491   0.259   3.883  12.279 -0.3274 -0.5302  0.2802
  294TMC3    C8 4492   0.014   3.754  12.642 -0.3253 -0.3661  0.3419
  294TMC3    O1 4493   0.143   3.894  12.235 -0.2815 -0.0604 -0.6395
  294TMC3    O2 4494   4.727   3.817  12.743  0.1347 -0.9063  0.0961
  295MPD2     C 4495   2.077   3.057   0.457 -0.3438 -0.0204  0.1694
  295MPD2    C1 4496   1.955   3.041   0.404 -0.2263  0.5000 -0.2486
  295MPD2    C2 4497   1.862   2.959   0.471 -0.0876 -0.6446 -0.0598
  295MPD2    C3 4498   1.888   2.891   0.586  0.9521 -0.1008  0.2756
  295MPD2    C4 4499   2.012   2.909   0.640 -0.2312 -0.4573 -0.9983
  295MPD2    C5 4500   2.103   2.997   0.579 -0.7427 -0.4976 -0.6658
  295MPD2     H 4501   1.766   2.939   0.425  0.1526  1.6715 -1.5934
  295MPD2    H1 4502   2.051   2.854   0.724 -0.9406 -0.4342 -0.6591
  295MPD2    H2 4503   2.152   3.117   0.408 -2.1504  1.4479 -0.7873
  295MPD2    H3 4504   2.205   3.001   0.614 -0.1322 -1.3544 -2.3477
  295MPD2     N 4505   1.804   2.808   0.662 -0.5763  0.2671 -0.2016
  295MPD2    H5 4506   1.841   2.739   0.726  0.0484  1.8092  1.0839
  295MPD2    N1 4507   1.918   3.088   0.281 -0.6432 -0.3255  0.1361
  295MPD2    H7 4508   1.844   3.040   0.230 -0.4848 -0.1024 -0.3051
  296TMC3    C1 4509   1.594   2.703   0.697  0.2197 -0.3060  0.0899
  296TMC3    C2 4510   1.467   2.728   0.722  0.7599  0.2743 -0.5210
  296TMC3    C3 4511   1.392   2.628   0.768  0.2189 -0.0279 -1.1733
  296TMC3    C4 4512   1.645   2.574   0.693  0.4217 -0.5054 -0.0338
  296TMC3    C5 4513   1.556   2.476   0.720 -0.4341 -0.3235 -0.2592
  296TMC3    C6 4514   1.435   2.502   0.770 -0.4785  0.6329  0.0141
  296TMC3     C 4515   1.668   2.813   0.633 -0.4843  0.2879 -0.2454
  296TMC3     O 4516   1.605   2.904   0.584 -0.5396  0.3135 -0.0394
  296TMC3     H 4517   1.437   2.830   0.740 -2.3707 -0.8050  0.5396
  296TMC3    H1 4518   1.751   2.562   0.671  0.3982  1.9448 -1.4758
  296TMC3    H2 4519   1.372   2.425   0.811 -1.0263  0.8598 -0.3946
  296TMC3    C7 4520   1.594   2.344   0.697 -0.4930 -0.2126  0.1590
  296TMC3    C8 4521   1.278   2.656   0.851  0.4855 -0.0993 -0.3298
  296TMC3    O1 4522   1.719   2.317   0.684 -0.1666  0.2412 -0.6434
  296TMC3    O2 4523   1.226   2.569   0.915  0.5165  0.2678 -0.0500
  297MPD2     C 4524   3.724   0.093  16.589 -1.1685  0.0596  0.4213
  297MPD2    C1 4525   3.695   0.136  16.462 -0.7924 -0.4278 -0.1339
  297MPD2    C2 4526   3.750   0.262  16.425  0.2303 -0.2908 -0.1395
  297MPD2    C3 4527   3.842   0.338  16.501 -0.5941 -0.1371  0.7846
  297MPD2    C4 4528   3.876   0.285  16.628 -0.6047 -0.1110  0.4063
  297MPD2    C5 4529   3.817   0.166  16.663 -0.2567  0.6975 -0.5439
  297MPD2     H 4530   3.726   0.308  16.330 -0.0215  1.3743  0.7277
  297MPD2    H1 4531   3.950   0.326  16.696 -1.4557  3.2735 -0.6983
  297MPD2    H2 4532   3.688   0.002  16.635  0.4728 -1.8706 -2.1148
  297MPD2    H3 4533   3.855   0.130  16.759  0.5785 -0.0629 -1.1558
  297MPD2     N 4534   3.886   0.464  16.458 -0.1899 -0.0592 -0.0883
  297MPD2    H5 4535   3.860   0.493  16.364  0.6653 -1.8138 -0.8676
  297MPD2    N1 4536   3.598   0.086  16.378  0.4143  0.0564 -0.1877
  297MPD2    H7 4537   3.595   0.137  16.291  0.8996 -1.0890 -0.8661
  298TMC3    C1 4538   3.431   4.700  16.291  0.0328 -0.4712  1.1032
  298TMC3    C2 4539   3.473   4.717  16.164 -0.2290 -0.5263 -0.6113
  298TMC3    C3 4540   3.371   4.725  16.068  0.2270  0.7587  0.6538
  298TMC3    C4 4541   3.301   4.665  16.315 -0.4403  0.5225 -0.2941
  298TMC3    C5 4542   3.208   4.675  16.221  0.6980  0.4458  0.7259
  298TMC3    C6 4543   3.238   4.704  16.093 -0.4819  0.4141  0.5292
  298TMC3     C 4544   3.514   4.722  16.408  0.2714  0.2027  0.1375
  298TMC3     O 4545   3.485   4.665  16.513 -0.1420  0.1672 -0.5576
  298TMC3     H 4546   3.577   4.734  16.140 -0.3105  1.6277  0.6499
  298TMC3    H1 4547   3.268   4.642  16.416  0.0218 -0.1341 -0.2937
  298TMC3    H2 4548   3.164   4.721  16.016  0.9417 -0.0677 -0.9307
  298TMC3    C7 4549   3.085   4.731  16.272 -0.4707 -1.2284  0.3992
  298TMC3    C8 4550   3.398   0.024  15.927  0.2938 -0.2633 -0.2053
  298TMC3    O1 4551   3.087   0.048  16.381  0.0202  0.1755 -0.9376
  298TMC3    O2 4552   3.314   0.100  15.878  0.3752  0.4255  0.2552
  299MPD2     C 4553   3.678   0.281  10.354  0.8213 -0.0325  0.2476
  299MPD2    C1 4554   3.660   0.179  10.439 -1.0989 -0.6715 -0.3200
  299MPD2    C2 4555   3.549   0.095  10.424 -0.3381 -0.0041 -0.4204
  299MPD2    C3 4556   3.471   0.108  10.315 -0.1977 -0.3218 -0.2738
  299MPD2    C4 4557   3.495   0.210  10.225 -0.0347  0.0179  1.1146
  299MPD2    C5 4558   3.605   0.298  10.245  0.5201 -0.6764 -0.0287
  299MPD2     H 4559   3.529   0.025  10.504 -2.5452  1.2748  0.1723
  299MPD2    H1 4560   3.424   0.236  10.148  1.2307  1.3061  0.3973
  299MPD2    H2 4561   3.740   0.362  10.390 -0.5874  0.4604  1.5483
  299MPD2    H3 4562   3.619   0.382  10.178 -0.5321 -0.1544  0.4082
  299MPD2     N 4563   3.358   0.023  10.295 -0.4039 -0.1053  0.0202
  299MPD2    H5 4564   3.299   0.027  10.212  0.3018  0.8396 -0.4441
  299MPD2    N1 4565   3.744   0.175  10.555  0.0369  0.1142 -0.0620
  299MPD2    H7 4566   3.797   0.259  10.577 -1.8391  1.5928 -1.1226
  300TMC3    C1 4567   3.194   4.602  10.338 -0.0211  0.4460  0.4590
  300TMC3    C2 4568   3.100   4.692  10.295  0.3925  0.0340 -0.0624
  300TMC3    C3 4569   2.981   4.693  10.357  0.0679  0.2038 -0.0147
  300TMC3    C4 4570   3.153   4.496  10.412 -0.2249 -0.4965 -0.0844
  300TMC3    C5 4571   3.033   4.504  10.474  0.2454 -0.3920  0.1079
  300TMC3    C6 4572   2.944   4.602  10.448 -0.2903 -0.0612 -0.8692
  300TMC3     C 4573   3.316   4.659  10.374  0.1624  0.4747  0.3231
  300TMC3     O 4574   3.370   4.617  10.480  0.8340  0.1942 -0.1648
  300TMC3     H 4575   3.137   0.038  10.237 -0.3855 -0.7882 -1.7254
  300TMC3    H1 4576   3.219   4.415  10.439  0.0961 -0.7749 -1.6789
  300TMC3    H2 4577   2.855   4.600  10.510  0.6588  1.4633  0.5755
  300TMC3    C7 4578   3.021   4.427  10.590  0.2597 -0.4276 -0.1741
  300TMC3    C8 4579   2.908   0.078  10.352 -0.5896  0.6107  0.4582
  300TMC3    O1 4580   3.048   4.307  10.577  0.4845 -0.0220  0.0414
  300TMC3    O2 4581   2.964   0.183  10.324  0.2254 -0.4603  0.3816
  301MPD2     C 4582   2.162   1.771   0.627 -0.4232  0.1761  1.4610
  301MPD2    C1 4583   2.061   1.699   0.559  0.8751 -0.2240 -0.1808
  301MPD2    C2 4584   2.079   1.562   0.561 -0.3867 -0.3129  0.0223
  301MPD2    C3 4585   2.181   1.492   0.624 -0.0305 -0.3822 -0.8805
  301MPD2    C4 4586   2.274   1.567   0.689  0.6317  0.6820  0.5511
  301MPD2    C5 4587   2.271   1.702   0.679 -0.6935 -0.3298  0.6618
  301MPD2     H 4588   2.004   1.505   0.508 -0.0672  1.0730 -1.9192
  301MPD2    H1 4589   2.361   1.515   0.728  0.3497 -1.2236 -1.3473
  301MPD2    H2 4590   2.161   1.879   0.636  0.2108  0.3714 -0.9311
  301MPD2    H3 4591   2.361   1.755   0.709  0.7495 -2.3991  0.0500
  301MPD2     N 4592   2.178   1.351   0.642  0.7523  0.3840 -0.8805
  301MPD2    H5 4593   2.247   1.316   0.707  1.0836 -0.0342 -1.4533
  301MPD2    N1 4594   1.945   1.755   0.504  0.3050 -0.0287  0.6718
  301MPD2    H7 4595   1.883   1.692   0.454  1.5830 -0.5675 -0.1992
  302TMC3    C1 4596   2.094   1.133   0.666 -0.8029 -0.2488  0.1387
  302TMC3    C2 4597   2.159   1.123   0.788 -0.2793 -0.2819  0.3454
  302TMC3    C3 4598   2.151   0.998   0.852 -0.5499 -0.1322 -0.7149
  302TMC3    C4 4599   2.035   1.023   0.606  0.2331  0.9861 -0.2635
  302TMC3    C5 4600   2.039   0.906   0.670  0.3923 -0.2615 -0.2158
  302TMC3    C6 4601   2.098   0.891   0.792  0.3170 -0.4053 -0.2486
  302TMC3     C 4602   2.088   1.257   0.587  0.3116  0.4197  0.0062
  302TMC3     O 4603   2.023   1.262   0.481 -0.1530 -0.5428  0.0594
  302TMC3     H 4604   2.186   1.207   0.850  0.6909 -0.3427  0.0036
  302TMC3    H1 4605   1.978   1.041   0.516  1.4955  1.0028 -1.0643
  302TMC3    H2 4606   2.099   0.794   0.840 -0.4935  0.5166  1.6551
  302TMC3    C7 4607   1.945   0.797   0.638  0.9669 -0.0765  0.1273
  302TMC3    C8 4608   2.259   0.959   0.939 -0.3846  0.0302  0.8889
  302TMC3    O1 4609   1.964   0.686   0.685 -0.1121  0.3585  0.4016
  302TMC3    O2 4610   2.311   0.850   0.930 -0.5067  0.0405  0.4080
  303MPD2     C 4611   1.186   0.457   9.706 -0.2464  0.3837  0.2435
  303MPD2    C1 4612   1.137   0.335   9.734  0.2442 -0.3935 -0.3762
  303MPD2    C2 4613   1.217   0.218   9.727 -0.3217  0.4298 -0.5526
  303MPD2    C3 4614   1.351   0.229   9.695  0.5148 -0.0615 -0.0836
  303MPD2    C4 4615   1.398   0.354   9.659 -0.0770 -0.0111 -0.4287
  303MPD2    C5 4616   1.317   0.462   9.666 -0.9809 -0.1639  0.5158
  303MPD2     H 4617   1.169   0.122   9.745  0.2748  0.2517  0.0659
  303MPD2    H1 4618   1.501   0.370   9.628  0.4933 -1.1569  0.8501
  303MPD2    H2 4619   1.126   0.546   9.692  0.2666  0.4571 -1.4667
  303MPD2    H3 4620   1.371   0.553   9.645 -1.9197  0.4035  0.5759
  303MPD2     N 4621   1.441   0.121   9.682  0.0736  0.1766 -0.0068
  303MPD2    H5 4622   1.527   0.136   9.631  0.0449  0.7010  0.1007
  303MPD2    N1 4623   1.005   0.326   9.781  0.3983  0.0019 -0.8010
  303MPD2    H7 4624   0.951   0.411   9.766  1.8329  1.0602 -0.0157
  304TMC3    C1 4625   0.796   0.220   9.819  0.3679  0.2931 -0.1671
  304TMC3    C2 4626   0.729   0.251   9.699  0.0130  0.4803  0.4134
  304TMC3    C3 4627   0.616   0.179   9.670 -0.0498 -0.1566 -0.2358
  304TMC3    C4 4628   0.750   0.113   9.891 -0.0155  0.4997  0.2498
  304TMC3    C5 4629   0.627   0.049   9.865 -0.0508  0.2085 -0.1401
  304TMC3    C6 4630   0.557   0.089   9.760 -0.0840  0.5417 -0.1448
  304TMC3     C 4631   0.942   0.213   9.827  0.4138  0.4998  0.5322
  304TMC3     O 4632   0.991   0.108   9.873 -0.2783  0.2784 -0.4668
  304TMC3     H 4633   0.762   0.320   9.622  2.3416 -1.8568 -0.6775
  304TMC3    H1 4634   0.800   0.079   9.981 -1.9354 -2.5003  0.1702
  304TMC3    H2 4635   0.464   0.042   9.731 -1.7002  2.8051  1.3716
  304TMC3    C7 4636   0.622   4.637   9.871  0.3786  0.0565  0.0394
  304TMC3    C8 4637   0.621   0.129   9.531 -0.2073  0.2818  0.0496
  304TMC3    O1 4638   0.603   4.584   9.762  0.3147 -0.5575  0.1047
  304TMC3    O2 4639   0.645   0.207   9.441 -0.2214 -0.4450 -0.2256
  305MPD2     C 4640   3.912   1.466  13.880  0.5779  0.7672 -0.2643
  305MPD2    C1 4641   3.931   1.338  13.924  0.8220  0.4862  0.3767
  305MPD2    C2 4642   3.891   1.237  13.843 -0.1009 -0.8101 -0.0090
  305MPD2    C3 4643   3.857   1.256  13.711  0.7799  0.0579 -0.2650
  305MPD2    C4 4644   3.841   1.390  13.669 -0.2882  0.3178 -1.0788
  305MPD2    C5 4645   3.870   1.494  13.753  0.3486 -0.6733  0.2462
  305MPD2     H 4646   3.885   1.138  13.886 -0.6988  0.5149  2.9310
  305MPD2    H1 4647   3.804   1.428  13.574  1.0721  0.1524 -1.6647
  305MPD2    H2 4648   3.942   1.545  13.949  1.1464  1.0910 -0.8865
  305MPD2    H3 4649   3.849   1.597  13.728 -2.4608 -1.0925  0.8218
  305MPD2     N 4650   3.836   1.145  13.621 -0.6684  0.0197  0.6000
  305MPD2    H5 4651   3.842   1.171  13.523  1.7727  0.0162  0.7354
  305MPD2    N1 4652   3.982   1.316  14.059 -0.4320 -0.1983  0.2725
  305MPD2    H7 4653   3.973   1.395  14.123 -0.1856 -0.0622  0.1419
  306TMC3    C1 4654   4.116   1.215  14.223  0.2546  0.9110  0.0204
  306TMC3    C2 4655   4.233   1.145  14.230 -0.5257 -0.0658  0.4451
  306TMC3    C3 4656   4.301   1.147  14.350  0.6953 -0.2947  1.1102
  306TMC3    C4 4657   4.058   1.280  14.328 -0.4499  0.3149 -0.2969
  306TMC3    C5 4658   4.116   1.260  14.446  0.8144  0.0868  0.0110
  306TMC3    C6 4659   4.240   1.208  14.457  0.0185 -0.2304 -0.1285
  306TMC3     C 4660   4.047   1.197  14.092  0.2456  0.5341 -0.1007
  306TMC3     O 4661   4.087   1.108  14.013  0.3293  0.1840 -0.3461
  306TMC3     H 4662   4.274   1.085  14.150  1.3944 -1.3123  2.3771
  306TMC3    H1 4663   3.966   1.335  14.315 -0.2446  0.9203  0.8443
  306TMC3    H2 4664   4.287   1.217  14.555 -1.9516 -1.0236  0.8996
  306TMC3    C7 4665   4.078   1.352  14.545  0.7410 -0.2651 -0.2602
  306TMC3    C8 4666   4.417   1.059  14.361  0.2501  0.5300 -0.5495
  306TMC3    O1 4667   3.956   1.366  14.554 -0.8424  0.3351  0.2741
  306TMC3    O2 4668   4.419   0.968  14.279 -0.0518 -0.3377  0.1464
  307MPD2     C 4669   2.542   4.422  17.652  0.4193 -0.1084 -0.2513
  307MPD2    C1 4670   2.548   4.534  17.729 -0.9206 -0.6688 -0.4008
  307MPD2    C2 4671   2.513   4.527   0.120 -0.4086  0.4323 -0.1315
  307MPD2    C3 4672   2.476   4.401   0.178 -0.1408  0.4457 -0.1146
  307MPD2    C4 4673   2.495   4.284   0.099  0.2476  0.0205  0.0782
  307MPD2    C5 4674   2.526   4.305  17.711 -0.2339  0.4818  0.1928
  307MPD2     H 4675   2.498   4.616   0.179  0.4092  0.3862  0.1429
  307MPD2    H1 4676   2.472   4.185   0.134 -1.7948  0.3645 -0.3232
  307MPD2    H2 4677   2.563   4.423  17.545 -0.3866 -0.0777 -0.4103
  307MPD2    H3 4678   2.532   4.215  17.651  0.2814  1.7786 -1.6988
  307MPD2     N 4679   2.443   4.390   0.317 -0.6929 -0.8589  1.0560
  307MPD2    H5 4680   2.457   4.473   0.375  0.2146  0.2911 -0.8296
  307MPD2    N1 4681   2.573   4.659  17.669 -0.5747 -0.4572  0.5119
  307MPD2    H7 4682   2.557   0.000  17.732  0.7654  1.0760 -1.0777
  308TMC3    C1 4683   2.159   4.227   0.629 -0.1812  0.6336  0.6895
  308TMC3    C2 4684   2.106   4.352   0.641  0.1663 -0.3766  1.0041
  308TMC3    C3 4685   2.188   4.463   0.604  0.4643 -0.7083  0.5699
  308TMC3    C4 4686   2.290   4.204   0.582 -0.5565 -0.4829 -0.9026
  308TMC3    C5 4687   2.347   4.308   0.522 -0.2390 -0.2711  0.3909
  308TMC3    C6 4688   2.306   4.438   0.530 -0.8532 -0.5798 -0.4668
  308TMC3     C 4689   2.068   4.114   0.599  0.1322 -0.7399 -0.4378
  308TMC3     O 4690   2.107   3.999   0.573  0.4081  0.2466  0.4289
  308TMC3     H 4691   2.019   4.361   0.705 -0.0389  1.2540  0.4835
  308TMC3    H1 4692   2.342   4.110   0.598 -0.4133  0.1727  2.6316
  308TMC3    H2 4693   2.361   4.525   0.497 -0.0391 -1.0847 -0.4188
  308TMC3    C7 4694   2.394   4.279   0.385 -0.7079 -0.1452  0.2916
  308TMC3    C8 4695   2.133   4.590   0.622  0.1456  0.1775 -0.1691
  308TMC3    O1 4696   2.365   4.166   0.339 -0.1174 -0.5045 -0.3255
  308TMC3    O2 4697   2.016   4.607   0.593 -0.2082  0.7042 -0.4173
  309MPD2     C 4698   1.648   0.169  17.160 -0.6301  0.1019  0.8211
  309MPD2    C1 4699   1.565   0.207  17.060 -0.1819  0.2678  0.0425
  309MPD2    C2 4700   1.432   0.233  17.085  0.1631 -0.0714 -0.1712
  309MPD2    C3 4701   1.389   0.234  17.218  0.4017  0.2906 -0.1937
  309MPD2    C4 4702   1.474   0.201  17.318 -0.1382  0.8828  0.3368
  309MPD2    C5 4703   1.597   0.169  17.283  0.0488 -0.1811 -0.3600
  309MPD2     H 4704   1.374   0.252  16.995 -0.4480 -1.7054 -0.1174
  309MPD2    H1 4705   1.439   0.188  17.420 -0.1382  1.9503  0.4679
  309MPD2    H2 4706   1.752   0.141  17.144 -0.5108 -0.2566  2.2068
  309MPD2    H3 4707   1.659   0.125  17.360  1.1031 -1.0858 -1.7128
  309MPD2     N 4708   1.254   0.245  17.252 -0.2469 -0.2877 -0.3203
  309MPD2    H5 4709   1.235   0.222  17.349  2.1141 -1.3038 -0.0911
  309MPD2    N1 4710   1.597   0.202  16.923  0.1709 -0.0337 -0.0546
  309MPD2    H7 4711   1.527   0.243  16.862 -1.2741  0.4585  1.9645
  310TMC3    C1 4712   1.711   0.132  16.717  0.1395  1.0128 -0.4628
  310TMC3    C2 4713   1.624   0.193  16.633  0.4468 -0.1485 -0.3569
  310TMC3    C3 4714   1.640   0.176  16.503  0.0948  0.9252  0.4007
  310TMC3    C4 4715   1.820   0.070  16.662 -0.0615  1.0696 -0.1741
  310TMC3    C5 4716   1.834   0.055  16.531 -0.7147  0.7085  0.2543
  310TMC3    C6 4717   1.741   0.098  16.448  0.3254  0.0500 -0.4473
  310TMC3     C 4718   1.709   0.139  16.869 -0.1136 -0.0260 -0.2127
  310TMC3     O 4719   1.794   0.074  16.933 -0.3532 -0.3655  0.2549
  310TMC3     H 4720   1.565   0.277  16.667 -0.4760 -1.2486  0.7231
  310TMC3    H1 4721   1.890   0.017  16.726  1.6060  1.0726 -2.0196
  310TMC3    H2 4722   1.753   0.073  16.343 -0.1379  1.6458 -0.8794
  310TMC3    C7 4723   1.937   4.718  16.479 -0.8193  1.2909 -0.4786
  310TMC3    C8 4724   1.544   0.244  16.413  0.7664 -0.3456 -0.1169
  310TMC3    O1 4725   1.908   4.648  16.383 -0.1248  0.4748 -0.7645
  310TMC3    O2 4726   1.427   0.229  16.448 -0.4239 -0.3370  0.1752
  311MPD2     C 4727   2.942   1.173  12.191 -0.3855 -0.0373 -0.6507
  311MPD2    C1 4728   2.985   1.168  12.315 -0.4255  0.1733  0.1164
  311MPD2    C2 4729   2.926   1.084  12.409 -0.4818  0.5543  0.3833
  311MPD2    C3 4730   2.811   1.016  12.375 -0.2619  0.4005 -0.2569
  311MPD2    C4 4731   2.766   1.015  12.248  0.8566  0.7896  0.4037
  311MPD2    C5 4732   2.833   1.099  12.154  1.2935 -0.2232  0.0188
  311MPD2     H 4733   2.963   1.085  12.511 -0.0898 -0.8696  0.2499
  311MPD2    H1 4734   2.689   0.956  12.201  1.6109  0.9417 -1.0417
  311MPD2    H2 4735   2.977   1.246  12.118  1.0059 -0.1977 -0.1441
  311MPD2    H3 4736   2.808   1.103  12.048  0.2173 -1.4348  0.2292
  311MPD2     N 4737   2.752   0.939  12.477  0.3176 -0.6506 -0.3092
  311MPD2    H5 4738   2.812   0.929  12.559  1.6664  0.1482 -1.2000
  311MPD2    N1 4739   3.101   1.243  12.348  0.0559  0.3084  0.0656
  311MPD2    H7 4740   3.143   1.291  12.268 -1.9955 -0.4685 -1.4728
  312TMC3    C1 4741   2.573   0.850  12.602 -0.4506  0.5728 -0.0471
  312TMC3    C2 4742   2.447   0.891  12.634  0.4542 -0.4339 -0.4552
  312TMC3    C3 4743   2.412   0.909  12.764 -0.3681  1.2310 -0.3891
  312TMC3    C4 4744   2.662   0.831  12.704 -0.4087  0.5664  0.0420
  312TMC3    C5 4745   2.629   0.854  12.829  0.5904  0.0420  0.2640
  312TMC3    C6 4746   2.506   0.893  12.865 -0.0714 -0.1296 -0.0323
  312TMC3     C 4747   2.621   0.897  12.473  0.0158  0.1239  0.2266
  312TMC3     O 4748   2.533   0.908  12.388  0.3912 -0.0745 -0.6794
  312TMC3     H 4749   2.377   0.913  12.554 -1.2655 -1.9087  0.6561
  312TMC3    H1 4750   2.750   0.774  12.677 -1.2453 -0.9613  0.5352
  312TMC3    H2 4751   2.470   0.894  12.967 -0.1921  0.7810 -0.0853
  312TMC3    C7 4752   2.742   0.916  12.884 -0.6244  0.0165 -0.2169
  312TMC3    C8 4753   2.277   0.904  12.808 -0.0536 -1.0722 -0.2267
  312TMC3    O1 4754   2.827   0.945  12.801 -0.0882 -0.7368 -0.0013
  312TMC3    O2 4755   2.246   0.815  12.895 -0.5277  0.1258 -0.3086
  313MPD2     C 4756   1.859   0.921  11.468  0.2738  0.1161 -0.8082
  313MPD2    C1 4757   1.977   0.929  11.395 -0.9126  0.1502  0.3651
  313MPD2    C2 4758   2.061   0.819  11.369 -0.3799 -0.4113  0.3681
  313MPD2    C3 4759   2.021   0.696  11.415  0.3856  0.0426 -0.3888
  313MPD2    C4 4760   1.911   0.692  11.495 -0.1696  0.8782 -0.1129
  313MPD2    C5 4761   1.823   0.797  11.512  0.3183  0.1652  0.5123
  313MPD2     H 4762   2.159   0.836  11.324 -0.6614  0.1559 -0.0373
  313MPD2    H1 4763   1.891   0.599  11.548  0.4270 -0.0605 -1.5337
  313MPD2    H2 4764   1.806   1.009  11.503  2.3272  0.9099  0.3014
  313MPD2    H3 4765   1.739   0.788  11.579 -0.4269 -1.2009 -0.6217
  313MPD2     N 4766   2.101   0.585  11.385 -0.7540  0.0275 -0.4121
  313MPD2    H5 4767   2.174   0.597  11.315 -0.4911  1.3904  0.1134
  313MPD2    N1 4768   2.021   1.055  11.344  0.2241 -0.5374 -0.1805
  313MPD2    H7 4769   2.113   1.062  11.300  0.9381 -3.8024  0.7445
  314TMC3    C1 4770   2.014   1.260  11.249  0.0104 -0.0883 -0.3834
  314TMC3    C2 4771   2.150   1.278  11.270  0.3586 -0.5283 -0.4045
  314TMC3    C3 4772   2.211   1.366  11.180  0.1302  0.4098  0.7947
  314TMC3    C4 4773   1.943   1.332  11.157 -0.2174 -0.4754  0.1029
  314TMC3    C5 4774   2.007   1.411  11.068  1.1534  0.6418  0.4752
  314TMC3    C6 4775   2.143   1.440  11.085 -0.0467  0.0637 -0.1037
  314TMC3     C 4776   1.944   1.163  11.322  0.2532 -0.0042  0.1431
  314TMC3     O 4777   1.821   1.179  11.333  0.0083  0.4790 -0.3092
  314TMC3     H 4778   2.198   1.227  11.352  2.5411 -1.3823 -2.2231
  314TMC3    H1 4779   1.840   1.306  11.137 -0.2900 -1.3578  1.6008
  314TMC3    H2 4780   2.199   1.503  11.017 -1.6759  0.8589 -0.7128
  314TMC3    C7 4781   1.946   1.410  10.938  0.5964  0.7571 -0.0610
  314TMC3    C8 4782   2.358   1.369  11.173  0.1356 -0.2342  0.1382
  314TMC3    O1 4783   1.833   1.454  10.937  0.2954 -0.7566 -0.3916
  314TMC3    O2 4784   2.413   1.474  11.148 -0.3211  0.0893 -0.2330
  315MPD2     C 4785   2.942   4.335  17.446 -0.7229  0.2100 -0.3219
  315MPD2    C1 4786   3.045   4.345  17.534 -0.0306 -0.5598 -0.0030
  315MPD2    C2 4787   3.098   4.468  17.559 -0.1179 -0.5577 -0.5070
  315MPD2    C3 4788   3.051   4.582  17.489 -0.3758  0.0952  0.3712
  315MPD2    C4 4789   2.941   4.569  17.405  0.7097  0.5358 -0.4997
  315MPD2    C5 4790   2.885   4.442  17.389  0.0788 -0.2134  0.0131
  315MPD2     H 4791   3.182   4.488  17.625 -0.4182  1.1246 -0.6227
  315MPD2    H1 4792   2.892   4.647  17.347  1.2971  0.7535 -0.7050
  315MPD2    H2 4793   2.898   4.239  17.425 -0.6439  0.1386 -0.1612
  315MPD2    H3 4794   2.792   4.431  17.333 -0.3377 -0.6112  0.7875
  315MPD2     N 4795   3.117   4.705  17.496  0.3912  0.2750  0.1082
  315MPD2    H5 4796   3.208   4.696  17.540 -0.3778 -1.0952  1.4379
  315MPD2    N1 4797   3.091   4.232  17.599 -0.2116 -0.0748 -0.3111
  315MPD2    H7 4798   3.157   4.252  17.673 -0.9855  1.1269  0.0463
  316TMC3    C1 4799   3.154   0.206  17.491  0.3322  0.1267  0.4462
  316TMC3    C2 4800   3.204   0.219  17.624  0.3099 -0.0538  0.3830
  316TMC3    C3 4801   3.220   0.344  17.677  0.2030 -0.7938  0.0958
  316TMC3    C4 4802   3.121   0.312  17.413 -0.4461 -0.0251 -0.3583
  316TMC3    C5 4803   3.127   0.438  17.474  0.6637  1.4211 -0.4903
  316TMC3    C6 4804   3.182   0.461  17.600  0.0596  0.6717  0.1227
  316TMC3     C 4805   3.067   0.089  17.468 -0.1370 -0.5937 -0.4545
  316TMC3     O 4806   2.971   0.115  17.399  0.6245  0.1399  0.2789
  316TMC3     H 4807   3.190   0.128  17.682  0.3605 -0.3397 -0.0461
  316TMC3    H1 4808   3.088   0.288  17.312  2.9203 -1.3467 -1.1716
  316TMC3    H2 4809   3.185   0.560  17.644  0.7039  0.8460 -0.3224
  316TMC3    C7 4810   3.046   0.552  17.432 -0.4359  0.3834 -1.0481
  316TMC3    C8 4811   3.310   0.364   0.036  0.7159  0.5936 -0.1466
  316TMC3    O1 4812   3.010   0.638  17.508 -0.1494 -0.0334  0.3877
  316TMC3    O2 4813   3.315   0.478   0.086  1.0849 -0.1443 -0.3446
  317MPD2     C 4814   4.141   3.141  12.971 -0.0433 -0.0020 -0.0836
  317MPD2    C1 4815   4.119   3.008  12.962 -0.8850 -0.3608  0.4896
  317MPD2    C2 4816   4.179   2.924  13.055 -0.7847 -0.0786 -0.7368
  317MPD2    C3 4817   4.267   2.977  13.145  0.6647  0.6809 -0.5796
  317MPD2    C4 4818   4.280   3.115  13.160 -0.6325 -0.5740 -0.1068
  317MPD2    C5 4819   4.223   3.198  13.067  0.2878  1.0874  0.2862
  317MPD2     H 4820   4.179   2.816  13.046 -1.0738 -0.3696  2.9394
  317MPD2    H1 4821   4.329   3.159  13.245  1.0467 -1.8867 -0.3938
  317MPD2    H2 4822   4.102   3.208  12.895  0.2275  0.0496 -0.1755
  317MPD2    H3 4823   4.227   3.306  13.076 -1.2885  1.3020 -1.6658
  317MPD2     N 4824   4.332   2.884  13.233 -0.5089 -0.1354 -0.0455
  317MPD2    H5 4825   4.314   2.788  13.207  1.5759 -0.7537  0.8716
  317MPD2    N1 4826   4.035   2.949  12.864 -0.3940  0.5379  0.6460
  317MPD2    H7 4827   4.047   2.850  12.850 -0.6390  0.4698  0.8991
  318TMC3    C1 4828   4.457   2.795  13.403 -0.5722  0.1517 -0.1305
  318TMC3    C2 4829   4.387   2.678  13.404 -0.3468  0.2532  0.8237
  318TMC3    C3 4830   4.448   2.566  13.436  0.1327  0.5488 -0.6763
  318TMC3    C4 4831   4.591   2.794  13.435 -0.3673  0.1746  0.7002
  318TMC3    C5 4832   4.646   2.670  13.463 -0.9854 -0.1588  0.7461
  318TMC3    C6 4833   4.575   2.554  13.468  0.0962 -0.0744 -0.1987
  318TMC3     C 4834   4.423   2.913  13.326  0.0264  0.9094 -0.1702
  318TMC3     O 4835   4.465   3.017  13.377 -0.3306  0.3950  0.6466
  318TMC3     H 4836   4.280   2.687  13.389 -0.1693  1.8663  0.4855
  318TMC3    H1 4837   4.654   2.880  13.419 -0.5464  0.2410  0.3450
  318TMC3    H2 4838   4.616   2.458  13.497  4.4647  1.8448 -0.0532
  318TMC3    C7 4839   0.043   2.671  13.527  0.8023 -0.0423  0.0489
  318TMC3    C8 4840   4.368   2.447  13.437  0.4061 -0.0809  0.2548
  318TMC3    O1 4841   0.072   2.776  13.578  0.0874 -0.2928 -0.9053
  318TMC3    O2 4842   4.412   2.362  13.514  0.0960 -0.5567  0.7546
  319MPD2     C 4843   0.813   4.141  15.900 -0.2019  0.1478  0.7539
  319MPD2    C1 4844   0.761   4.123  16.026 -0.2434  0.4056  0.1500
  319MPD2    C2 4845   0.626   4.158  16.053 -1.1241  0.4204  0.2376
  319MPD2    C3 4846   0.549   4.214  15.953  0.4521 -0.0332 -0.0215
  319MPD2    C4 4847   0.594   4.213  15.821 -1.1041  1.0793  0.1782
  319MPD2    C5 4848   0.728   4.185  15.798  0.0612  0.5701  0.1731
  319MPD2     H 4849   0.587   4.152  16.154 -1.0752  2.8798  0.4012
  319MPD2    H1 4850   0.538   4.237  15.731 -0.7833 -0.3380 -0.4061
  319MPD2    H2 4851   0.918   4.122  15.879 -0.0843  1.4397  0.1184
  319MPD2    H3 4852   0.773   4.209  15.702  1.0538 -0.1793  0.4490
  319MPD2     N 4853   0.425   4.257  15.980 -0.2905 -0.2450 -0.4961
  319MPD2    H5 4854   0.382   4.219  16.064 -1.4002  1.1698 -0.4035
  319MPD2    N1 4855   0.835   4.107  16.142  0.1411 -0.1521  0.1623
  319MPD2    H7 4856   0.786   4.133  16.227  2.2741 -0.8899  1.5990
  320TMC3    C1 4857   0.205   4.306  15.934 -0.0013  0.0887  0.2724
  320TMC3    C2 4858   0.123   4.364  15.840  0.0596 -0.1897  0.1177
  320TMC3    C3 4859   0.013   4.306  15.793 -0.4116  0.4505  0.5381
  320TMC3    C4 4860   0.172   4.179  15.962 -0.1920  0.2190  0.2003
  320TMC3    C5 4861   0.061   4.117  15.907 -0.2885  0.4719 -0.5071
  320TMC3    C6 4862   4.712   4.178  15.821  0.2795  0.2535  0.4762
  320TMC3     C 4863   0.339   4.310  15.892 -0.2635  0.5242 -0.0832
  320TMC3     O 4864   0.362   4.365  15.790  0.2138 -0.0539 -0.5833
  320TMC3     H 4865   0.151   4.461  15.801 -1.0837  1.1027  2.4969
  320TMC3    H1 4866   0.218   4.124  16.043 -0.0693  0.9952  0.6520
  320TMC3    H2 4867   4.634   4.109  15.792  1.0929 -0.6722  0.5191
  320TMC3    C7 4868   0.054   3.973  15.925  0.2312 -0.5057  0.7181
  320TMC3    C8 4869   4.654   4.410  15.749 -0.5813  0.2021 -0.2028
  320TMC3    O1 4870   4.734   3.911  15.840  0.3762 -0.3334  0.1907
  320TMC3    O2 4871   4.671   4.524  15.793  0.1491 -0.6029 -0.3615
  321TMC3    C1 4872   1.019   4.155  16.272 -0.2368  0.2184 -0.6327
  321TMC3    C2 4873   0.946   4.118  16.384 -0.1600 -0.4439 -0.9050
  321TMC3    C3 4874   0.937   4.208  16.490 -0.1236 -0.2242 -0.2704
  321TMC3    C4 4875   1.084   4.275  16.260  0.4633  0.1473 -0.1238
  321TMC3    C5 4876   1.083   4.359  16.369 -0.3291  1.0677 -0.1996
  321TMC3    C6 4877   1.001   4.331  16.475  0.5870  0.7393  0.4330
  321TMC3     C 4878   0.972   4.100  16.143  0.6121 -0.1219 -0.1826
  321TMC3     O 4879   1.052   4.075  16.057  0.0870 -0.7995 -0.6211
  321TMC3     H 4880   0.905   4.018  16.392 -0.7930 -0.1516 -0.5341
  321TMC3    H1 4881   1.139   4.294  16.168  1.4098 -2.1272 -0.0420
  321TMC3    H2 4882   1.007   4.393  16.563 -0.6137  1.4565  0.0017
  321TMC3    C7 4883   1.211   4.404  16.421 -0.3871  0.2920  0.1714
  321TMC3    C8 4884   1.004   4.142  16.603  0.5399 -0.3671  0.4052
  321TMC3    O1 4885   1.316   4.349  16.385  0.2980 -0.8308 -0.2391
  321TMC3    O2 4886   1.088   4.212  16.661 -0.4570 -0.2517 -0.1576
  322MPD2     C 4887   3.848   0.370  13.768 -0.0688 -0.1540 -0.5918
  322MPD2    C1 4888   3.980   0.408  13.743 -0.1179 -0.3771  0.8137
  322MPD2    C2 4889   4.057   0.328  13.659  0.3932  0.5344  0.4184
  322MPD2    C3 4890   4.003   0.213  13.595 -0.6116  0.6625  0.1649
  322MPD2    C4 4891   3.864   0.190  13.619  0.6348  0.4248  0.4529
  322MPD2    C5 4892   3.790   0.262  13.703 -0.2430 -0.0603  0.4377
  322MPD2     H 4893   4.157   0.354  13.625  0.8332  0.2959  1.5349
  322MPD2    H1 4894   3.810   0.109  13.573 -1.7501  0.6608  2.8409
  322MPD2    H2 4895   3.784   0.425  13.837  0.7687  0.2163 -0.1096
  322MPD2    H3 4896   3.683   0.245  13.710 -0.6609  0.9706 -3.3807
  322MPD2     N 4897   4.089   0.132  13.517 -0.6679  0.3494 -0.2278
  322MPD2    H5 4898   4.186   0.159  13.524 -0.1095 -1.8411  0.5564
  322MPD2    N1 4899   4.029   0.530  13.790 -0.1343 -0.9057 -0.4714
  322MPD2    H7 4900   3.988   0.567  13.875  0.5632 -1.1960 -0.0026
  323TMC3    C1 4901   4.207   0.666  13.853  0.6933 -0.0775  0.4767
  323TMC3    C2 4902   4.289   0.758  13.801 -0.7843 -0.4921  0.4613
  323TMC3    C3 4903   4.377   0.823  13.889 -0.1632  0.0558 -0.9176
  323TMC3    C4 4904   4.203   0.633  13.987 -0.2330  0.9036  0.6040
  323TMC3    C5 4905   4.277   0.707  14.073 -0.3540  0.8164 -1.0775
  323TMC3    C6 4906   4.374   0.797  14.025 -0.0250  0.6691  0.7595
  323TMC3     C 4907   4.143   0.586  13.749  0.8358  0.6599 -0.6560
  323TMC3     O 4908   4.189   0.586  13.636  0.0391  0.2003 -0.3207
  323TMC3     H 4909   4.280   0.783  13.696  3.8834 -1.4273 -0.2010
  323TMC3    H1 4910   4.151   0.541  14.011  1.3641  0.1460  1.1637
  323TMC3    H2 4911   4.443   0.843  14.096  1.5539 -1.0316  0.3176
  323TMC3    C7 4912   4.322   0.622  14.184  0.3180 -0.2499  0.6156
  323TMC3    C8 4913   4.485   0.900  13.832  0.9654 -0.6278 -0.8768
  323TMC3    O1 4914   4.317   0.503  14.162  0.0396  0.2162  0.0497
  323TMC3    O2 4915   4.563   0.946  13.911 -0.4930 -0.5594  0.4329
  324MPD2     C 4916   1.174   1.603  14.383 -0.0476 -0.0391 -0.0829
  324MPD2    C1 4917   1.217   1.598  14.255  0.0343  0.1637  0.1334
  324MPD2    C2 4918   1.127   1.585  14.150  0.4364 -0.5179  0.3363
  324MPD2    C3 4919   0.994   1.572  14.175 -0.9695  0.3175 -0.7113
  324MPD2    C4 4920   0.949   1.576  14.307 -0.2251 -0.1382 -0.2631
  324MPD2    C5 4921   1.044   1.594  14.408 -0.0252  0.0019  0.1997
  324MPD2     H 4922   1.162   1.573  14.048 -1.5240  0.9210 -0.5025
  324MPD2    H1 4923   0.846   1.559  14.335 -0.3380 -0.5275 -0.9274
  324MPD2    H2 4924   1.233   1.629  14.470 -0.9735 -0.8132  0.7767
  324MPD2    H3 4925   1.008   1.626  14.505 -0.0425  1.7803 -0.4069
  324MPD2     N 4926   0.891   1.576  14.071 -0.0329  0.3012 -0.6934
  324MPD2    H5 4927   0.796   1.579  14.108  0.1991 -0.4335 -0.0694
  324MPD2    N1 4928   1.355   1.622  14.218  0.4080  0.2451 -0.7512
  324MPD2    H7 4929   1.378   1.631  14.119 -0.1241  1.8207 -0.7313
  325TMC3    C1 4930   0.795   1.612  13.862  0.5866 -0.0453  0.0401
  325TMC3    C2 4931   0.676   1.590  13.921 -0.0287 -0.4788  0.0432
  325TMC3    C3 4932   0.567   1.661  13.885  0.1693  0.4778 -0.3785
  325TMC3    C4 4933   0.815   1.707  13.773  0.9942 -0.0968 -0.3056
  325TMC3    C5 4934   0.708   1.796  13.746 -0.2324 -0.6864 -0.1721
  325TMC3    C6 4935   0.587   1.769  13.809  0.2133 -0.7310 -0.1272
  325TMC3     C 4936   0.916   1.588  13.937  0.1808  0.2012 -0.5750
  325TMC3     O 4937   1.023   1.597  13.874  0.2317 -0.6909 -0.2227
  325TMC3     H 4938   0.668   1.499  13.979 -1.0778 -0.9977 -0.9299
  325TMC3    H1 4939   0.910   1.724  13.724  0.4546  3.1179 -0.2724
  325TMC3    H2 4940   0.494   1.817  13.780  1.0445  1.3681  0.7271
  325TMC3    C7 4941   0.746   1.932  13.714  0.0573 -0.1906  0.1426
  325TMC3    C8 4942   0.466   1.578  13.833  0.4337  0.2426  0.7457
  325TMC3    O1 4943   0.860   1.952  13.678  0.5163  0.0835 -0.4988
  325TMC3    O2 4944   0.485   1.551  13.716  0.1780 -0.5994  0.1713
  326MPD2     C 4945   2.065   3.069  11.323  0.2235  0.1075  0.1227
  326MPD2    C1 4946   2.072   3.070  11.184 -0.0305  0.0458  0.1488
  326MPD2    C2 4947   2.202   3.056  11.127 -0.2980 -0.4975 -0.1551
  326MPD2    C3 4948   2.307   3.066  11.207  0.0022 -0.0181 -0.2861
  326MPD2    C4 4949   2.293   3.068  11.343 -0.3023 -0.5610  0.2772
  326MPD2    C5 4950   2.175   3.068  11.408  0.3207 -0.1365  0.3873
  326MPD2     H 4951   2.216   3.042  11.020 -0.1282 -0.3088 -0.1580
  326MPD2    H1 4952   2.383   3.078  11.402 -0.3638 -0.4683  0.3566
  326MPD2    H2 4953   1.967   3.068  11.368  0.5869  0.1564  0.9189
  326MPD2    H3 4954   2.176   3.075  11.516  2.1035 -1.6381  0.4810
  326MPD2     N 4955   2.443   3.086  11.157  0.1243  0.4789  0.1687
  326MPD2    H5 4956   2.524   3.087  11.218 -0.8237  1.7903  1.3823
  326MPD2    N1 4957   1.959   3.059  11.096  0.3732 -1.0467 -0.6349
  326MPD2    H7 4958   1.986   3.052  10.998  1.3227  1.1410 -0.5466
  327TMC3    C1 4959   1.755   2.997  11.025 -0.2315  0.2829  0.1456
  327TMC3    C2 4960   1.658   3.073  10.964 -0.3041  0.2346 -0.0738
  327TMC3    C3 4961   1.618   3.041  10.836 -0.3875  0.6882  0.3595
  327TMC3    C4 4962   1.817   2.899  10.961  0.0257  0.0747  0.1759
  327TMC3    C5 4963   1.798   2.885  10.825 -0.1482 -0.2306  0.0623
  327TMC3    C6 4964   1.694   2.952  10.764  0.9145 -0.2825  0.7185
  327TMC3     C 4965   1.827   3.054  11.133 -0.1537 -0.0287  0.0737
  327TMC3     O 4966   1.765   3.117  11.219  0.8794  0.0597 -0.0436
  327TMC3     H 4967   1.604   3.143  11.027  0.4005  1.1080 -0.4383
  327TMC3    H1 4968   1.895   2.839  11.007  1.2467  2.4879  1.3030
  327TMC3    H2 4969   1.690   2.931  10.658 -0.1691  2.6286  0.1792
  327TMC3    C7 4970   1.920   2.869  10.744 -0.0158  0.1030 -0.4199
  327TMC3    C8 4971   1.559   3.154  10.763  0.5308 -0.6841  0.3172
  327TMC3    O1 4972   1.933   2.931  10.638 -0.2465 -0.6179 -0.2751
  327TMC3    O2 4973   1.573   3.134  10.646 -0.0934 -0.9585 -0.1962
  328MPD2     C 4974   0.178   2.286  16.958  0.2752  0.0927 -0.3767
  328MPD2    C1 4975   0.070   2.299  17.041 -0.1653  0.1750 -0.1496
  328MPD2    C2 4976   0.036   2.421  17.098 -0.4340  0.3364  0.5788
  328MPD2    C3 4977   0.107   2.536  17.059  0.6105 -0.4354  0.2164
  328MPD2    C4 4978   0.216   2.514  16.979 -0.6052 -0.5597 -0.2121
  328MPD2    C5 4979   0.247   2.390  16.929  0.1699  0.0301 -0.6342
  328MPD2     H 4980   4.689   2.437  17.163 -0.6036 -3.0036  1.2116
  328MPD2    H1 4981   0.268   2.600  16.937  0.6707 -1.1876  0.0897
  328MPD2    H2 4982   0.213   2.196  16.909  1.3766 -0.2901  1.1096
  328MPD2    H3 4983   0.334   2.374  16.867 -0.0069  0.3110 -0.9535
  328MPD2     N 4984   0.073   2.670  17.078  0.0894 -0.2211  0.5316
  328MPD2    H5 4985   0.132   2.744  17.043 -0.0306 -0.3663  0.0196
  328MPD2    N1 4986   4.716   2.193  17.078 -0.2273 -0.0548 -0.3379
  328MPD2    H7 4987   4.632   2.227  17.122  0.8142  1.5529  0.3922
  329TMC3    C1 4988   4.593   2.003  17.036 -0.2062 -0.3023  0.0994
  329TMC3    C2 4989   4.483   2.065  17.095  0.1786  0.3528 -0.1578
  329TMC3    C3 4990   4.364   2.064  17.028  0.3921  0.7730 -0.0748
  329TMC3    C4 4991   4.575   1.931  16.922  0.7206 -0.1810  0.4055
  329TMC3    C5 4992   4.454   1.921  16.865 -0.5179  0.5852  0.5541
  329TMC3    C6 4993   4.350   2.002  16.908 -0.3789 -0.4676  0.2679
  329TMC3     C 4994   4.727   2.055  17.049 -0.0997 -0.3349  0.1895
  329TMC3     O 4995   0.076   2.001  16.982  0.4071  0.0183  0.4532
  329TMC3     H 4996   4.497   2.110  17.192 -0.2898  0.2739 -0.0518
  329TMC3    H1 4997   4.649   1.864  16.880  0.1524  0.0348 -0.9314
  329TMC3    H2 4998   4.253   2.009  16.858 -0.2542 -1.1438 -0.0746
  329TMC3    C7 4999   4.446   1.835  16.749  0.5256  0.3531 -0.3541
  329TMC3    C8 5000   4.254   2.148  17.064 -0.1869 -0.4772  0.1985
  329TMC3    O1 5001   4.536   1.754  16.724 -0.0928 -0.3034 -0.0772
  329TMC3    O2 5002   4.145   2.133  17.009 -0.1833  0.2477  0.0021
  330TMC3    C1 5003   2.838   2.815   9.313  0.1982 -0.1184  0.4648
  330TMC3    C2 5004   2.780   2.709   9.247  0.7883  0.7593  0.2127
  330TMC3    C3 5005   2.794   2.576   9.290  0.0490 -0.3718 -0.0844
  330TMC3    C4 5006   2.899   2.783   9.433  0.1669  0.8091 -0.8429
  330TMC3    C5 5007   2.904   2.659   9.483  0.0629 -0.0249  0.6838
  330TMC3    C6 5008   2.862   2.553   9.409  0.0801  0.5498 -0.0191
  330TMC3     C 5009   2.779   2.953   9.298  0.3778  0.4667 -0.2913
  330TMC3     O 5010   2.841   3.052   9.344  0.3523  0.3166  0.0907
  330TMC3     H 5011   2.715   2.726   9.162 -0.0820 -3.6333  0.0082
  330TMC3    H1 5012   2.932   2.869   9.491  1.8721 -0.2005 -0.2992
  330TMC3    H2 5013   2.882   2.452   9.442 -1.7525  0.3831  0.5590
  330TMC3    C7 5014   2.954   2.643   9.618  0.2758  0.5994 -0.0241
  330TMC3    C8 5015   2.709   2.477   9.217 -0.0206  0.5575  0.0970
  330TMC3    O1 5016   3.028   2.734   9.649  0.2633 -0.0871  0.3531
  330TMC3    O2 5017   2.652   2.505   9.115  0.0064  0.1801  0.3883
  331MPD2     C 5018   0.267   0.758  13.088  0.0507  0.4633 -0.1771
  331MPD2    C1 5019   0.348   0.808  12.991  0.3544 -0.5154 -0.3540
  331MPD2    C2 5020   0.348   0.749  12.868  0.4514  0.5013 -0.1610
  331MPD2    C3 5021   0.288   0.627  12.850  0.0692  0.5581  0.4313
  331MPD2    C4 5022   0.222   0.566  12.953 -0.4277 -0.8717  0.2700
  331MPD2    C5 5023   0.201   0.637  13.071 -0.9127  0.3945 -0.3375
  331MPD2     H 5024   0.409   0.782  12.785 -1.7662  2.3356 -1.0798
  331MPD2    H1 5025   0.172   0.471  12.937  1.3610 -1.6487 -0.7252
  331MPD2    H2 5026   0.261   0.813  13.181 -0.4242  0.3548 -0.1462
  331MPD2    H3 5027   0.135   0.602  13.149 -1.1224  1.0878 -0.2070
  331MPD2     N 5028   0.306   0.543  12.744 -0.3833  0.0138  0.9286
  331MPD2    H5 5029   0.281   0.445  12.758  1.0790 -0.1840  2.0906
  331MPD2    N1 5030   0.416   0.929  13.024  0.2162  0.4723 -0.1170
  331MPD2    H7 5031   0.403   0.981  13.110 -0.3567 -0.2821  0.2479
  332TMC3    C1 5032   0.398   0.483  12.527 -0.0037 -1.1048 -0.9549
  332TMC3    C2 5033   0.425   0.543  12.410 -0.4644 -0.5326  0.3254
  332TMC3    C3 5034   0.548   0.519  12.352  0.0353 -0.1886 -0.4017
  332TMC3    C4 5035   0.472   0.381  12.583  0.8126  0.2994  0.2644
  332TMC3    C5 5036   0.593   0.359  12.517 -0.6182  0.2546 -0.2065
  332TMC3    C6 5037   0.635   0.429  12.409  0.4334  0.4021 -0.5641
  332TMC3     C 5038   0.360   0.585  12.623 -0.1438  0.1185 -0.0904
  332TMC3     O 5039   0.381   0.700  12.589  0.2290 -0.5262  0.2947
  332TMC3     H 5040   0.361   0.627  12.386 -2.2293 -1.9885 -0.1197
  332TMC3    H1 5041   0.439   0.330  12.672 -0.7392  1.0062  0.0968
  332TMC3    H2 5042   0.725   0.410  12.351  1.5541  1.3048  0.8626
  332TMC3    C7 5043   0.681   0.260  12.588 -0.2775  0.6343 -0.8611
  332TMC3    C8 5044   0.608   0.625  12.275 -0.3951 -0.0655 -0.2769
  332TMC3    O1 5045   0.622   0.171  12.650 -0.2052  0.7053  0.0664
  332TMC3    O2 5046   0.731   0.626  12.274 -0.2110  0.2824 -0.0492
  333MPD2     C 5047   0.663   1.768  11.271  0.4282 -0.3893 -0.4690
  333MPD2    C1 5048   0.757   1.684  11.222 -0.0632  0.4998  0.1255
  333MPD2    C2 5049   0.746   1.551  11.255  0.0788 -0.5365 -0.0755
  333MPD2    C3 5050   0.638   1.500  11.323 -0.0808 -0.2133 -0.6765
  333MPD2    C4 5051   0.538   1.590  11.362 -0.5554 -0.4941  0.0379
  333MPD2    C5 5052   0.553   1.725  11.343 -0.2708 -0.0039  0.6186
  333MPD2     H 5053   0.827   1.486  11.225  0.1579  0.1047 -1.2610
  333MPD2    H1 5054   0.453   1.556  11.419 -0.9352 -1.4152 -1.0739
  333MPD2    H2 5055   0.685   1.874  11.258 -0.3419  0.1093  2.3884
  333MPD2    H3 5056   0.489   1.794  11.397 -1.1778  0.4703 -1.0457
  333MPD2     N 5057   0.629   1.360  11.338  0.4733 -0.1209  0.3106
  333MPD2    H5 5058   0.688   1.315  11.268 -1.3608  0.7454 -1.7932
  333MPD2    N1 5059   0.868   1.733  11.153  0.0889  0.0059  0.1734
  333MPD2    H7 5060   0.862   1.834  11.137 -2.5920 -0.2314 -0.2947
  334TMC3    C1 5061   1.057   1.737  11.020 -0.4638 -0.3919  0.4134
  334TMC3    C2 5062   1.130   1.674  10.925  0.1433 -0.4644 -0.0607
  334TMC3    C3 5063   1.209   1.751  10.838  0.5699 -0.1353 -0.5422
  334TMC3    C4 5064   1.068   1.871  11.047 -0.0031  0.2733 -0.6937
  334TMC3    C5 5065   1.160   1.936  10.964  0.1849  0.7613  0.8547
  334TMC3    C6 5066   1.235   1.878  10.866  0.6313 -0.4624  0.4135
  334TMC3     C 5067   0.968   1.655  11.098  0.1651  0.4460 -0.6161
  334TMC3     O 5068   0.974   1.530  11.082  0.3281  0.2457  0.2151
  334TMC3     H 5069   1.128   1.567  10.903  2.3590 -0.3655 -0.7122
  334TMC3    H1 5070   1.018   1.921  11.129 -0.5347 -1.2939 -0.0529
  334TMC3    H2 5071   1.285   1.945  10.797 -1.3302 -0.1520 -0.6923
  334TMC3    C7 5072   1.185   2.079  10.989  0.1528  0.2371  0.6454
  334TMC3    C8 5073   1.247   1.691  10.715  0.2184  0.5166 -0.6083
  334TMC3    O1 5074   1.291   2.123  10.953  0.3356 -0.2627  0.3992
  334TMC3    O2 5075   1.180   1.603  10.670 -0.3396 -0.0719  0.5960
  335TMC3    C1 5076   1.057   3.083  17.214  0.0525  0.4737 -0.7091
  335TMC3    C2 5077   0.978   2.993  17.143 -0.0758  0.3754 -0.5351
  335TMC3    C3 5078   1.010   2.976  17.014  0.5979  0.9986 -0.1230
  335TMC3    C4 5079   1.161   3.150  17.161  0.0320 -0.6164  0.2382
  335TMC3    C5 5080   1.181   3.133  17.030 -0.2279 -0.4443  0.5289
  335TMC3    C6 5081   1.111   3.043  16.949  0.5443  0.0353 -0.5305
  335TMC3     C 5082   1.008   3.130  17.347  0.4871  0.4142  1.0310
  335TMC3     O 5083   1.028   3.247  17.385  0.3584  0.3175  0.0445
  335TMC3     H 5084   0.879   2.972  17.183 -0.3088 -1.0047 -1.8099
  335TMC3    H1 5085   1.231   3.208  17.220  0.7735 -1.4817  0.2019
  335TMC3    H2 5086   1.123   3.027  16.842  0.6580  1.2444 -0.6967
  335TMC3    C7 5087   1.306   3.171  16.979 -0.5306 -0.1230 -0.4534
  335TMC3    C8 5088   0.913   2.921  16.927  0.1800 -0.1063  0.4394
  335TMC3    O1 5089   1.356   3.102  16.892 -0.1234 -0.0473  0.0966
  335TMC3    O2 5090   0.924   2.950  16.806  0.0501  0.4429 -0.2211
  336MPD2     C 5091   0.411   0.554  16.178  0.9194 -0.0643  0.1319
  336MPD2    C1 5092   0.473   0.508  16.066  0.3628  0.6845 -1.0879
  336MPD2    C2 5093   0.539   0.385  16.070  0.3620  0.2101  0.6508
  336MPD2    C3 5094   0.524   0.297  16.175 -0.3348  0.3315 -0.5120
  336MPD2    C4 5095   0.453   0.344  16.282  0.0095 -0.2766  0.1460
  336MPD2    C5 5096   0.404   0.471  16.288 -0.8032 -0.3056  0.1013
  336MPD2     H 5097   0.592   0.352  15.981 -0.0125  1.0214  0.1316
  336MPD2    H1 5098   0.447   0.291  16.377  1.5660 -2.9643 -1.2680
  336MPD2    H2 5099   0.369   0.654  16.172 -1.2140 -0.8458  2.0700
  336MPD2    H3 5100   0.368   0.505  16.384  0.0502 -0.5508  0.5085
  336MPD2     N 5101   0.569   0.160  16.173 -0.1205  0.7910  0.3386
  336MPD2    H5 5102   0.558   0.111  16.260  0.9177  0.3598  0.2349
  336MPD2    N1 5103   0.496   0.580  15.944  0.1712  0.0705 -0.0377
  336MPD2    H7 5104   0.556   0.538  15.874 -2.2702 -1.1440 -1.4020
  337TMC3    C1 5105   0.471   0.752  15.791  0.0496  0.3623 -0.3069
  337TMC3    C2 5106   0.368   0.807  15.723  0.2768  0.2020  0.5662
  337TMC3    C3 5107   0.381   0.822  15.587 -0.7762 -0.2773 -0.5878
  337TMC3    C4 5108   0.590   0.765  15.739  0.5130  0.3706 -0.3769
  337TMC3    C5 5109   0.610   0.792  15.604  0.2089  0.3865 -0.3513
  337TMC3    C6 5110   0.501   0.800  15.523  0.0305  0.1874 -0.0720
  337TMC3     C 5111   0.441   0.702  15.919  0.0261  0.1294  0.3071
  337TMC3     O 5112   0.359   0.767  15.980  0.4824  0.6486  0.5594
  337TMC3     H 5113   0.272   0.826  15.770  0.6150  2.6320  0.2981
  337TMC3    H1 5114   0.674   0.756  15.808 -0.4055 -1.8681  0.4283
  337TMC3    H2 5115   0.509   0.810  15.415  0.5920 -1.9356 -0.2347
  337TMC3    C7 5116   0.737   0.758  15.543  0.2840 -0.4608 -0.0880
  337TMC3    C8 5117   0.267   0.842  15.506  0.3716 -0.1811 -0.4722
  337TMC3    O1 5118   0.832   0.794  15.611  0.0261  0.2749 -0.0016
  337TMC3    O2 5119   0.257   0.772  15.404  0.3309 -0.2874  0.5683
  338MPD2     C 5120   0.958   4.612   0.822  0.1069  0.2610  0.1854
  338MPD2    C1 5121   0.920   4.579   0.697 -0.0746  0.7263 -0.4647
  338MPD2    C2 5122   0.790   4.612   0.664 -0.6076 -0.1737  0.0662
  338MPD2    C3 5123   0.697   4.664   0.749  0.5880 -0.2203  0.1808
  338MPD2    C4 5124   0.741   4.692   0.878 -0.0780  0.0198 -0.3447
  338MPD2    C5 5125   0.871   4.660   0.915 -0.1354 -0.8128  0.1007
  338MPD2     H 5126   0.759   4.584   0.563  1.6483  2.7458 -1.4415
  338MPD2    H1 5127   0.672   4.706   0.960 -2.2267 -1.8932 -1.8338
  338MPD2    H2 5128   1.059   4.606   0.860  0.0301 -0.7623  0.2304
  338MPD2    H3 5129   0.898   4.680   1.018 -2.5574  0.4356  0.4920
  338MPD2     N 5130   0.568   4.679   0.701 -0.2892 -0.0069 -0.0259
  338MPD2    H5 5131   0.549   4.681   0.602 -0.7725 -0.4628  0.0564
  338MPD2    N1 5132   1.007   4.526   0.599  0.5899  0.1732  0.3402
  338MPD2    H7 5133   0.965   4.504   0.509  3.3661 -0.9291 -0.6787
  339TMC3    C1 5134   0.339   4.722   0.710 -0.5527 -0.6863  0.4051
  339TMC3    C2 5135   0.229   0.029   0.789 -0.3508 -0.3328 -0.2692
  339TMC3    C3 5136   0.120   0.063   0.726 -0.4269 -0.2825  0.3262
  339TMC3    C4 5137   0.335   4.725   0.573  0.0756 -0.4438 -0.2594
  339TMC3    C5 5138   0.214   0.029   0.512 -0.6497  0.3698  0.4348
  339TMC3    C6 5139   0.113   0.071   0.588  0.0692  0.2920  0.7637
  339TMC3     C 5140   0.461   4.695   0.784  0.8855 -1.0137  0.6068
  339TMC3     O 5141   0.442   4.685   0.906 -0.4026 -0.4742  0.7783
  339TMC3     H 5142   0.231   0.036   0.897  0.8631  1.5480 -0.4133
  339TMC3    H1 5143   0.419   4.703   0.508 -0.4750 -1.8057 -0.5195
  339TMC3    H2 5144   0.024   0.116   0.546  0.3843  1.0484  0.9025
  339TMC3    C7 5145   0.204   0.022   0.370  0.5082 -0.3196  0.5401
  339TMC3    C8 5146   0.008   0.109   0.799  0.1449 -0.2982 -1.1027
  339TMC3    O1 5147   0.309   0.011   0.308 -0.0484 -0.7298 -0.3497
  339TMC3    O2 5148   4.685   0.207   0.750  0.3129  0.0340  0.3544
  340MPD2     C 5149   0.251   2.789  10.370  0.5610  0.3782 -0.5709
  340MPD2    C1 5150   0.328   2.761  10.259 -0.5335  0.6621 -0.4772
  340MPD2    C2 5151   0.447   2.836  10.248  0.5021 -0.1087 -0.1073
  340MPD2    C3 5152   0.496   2.919  10.350 -0.2907  0.0799 -0.2986
  340MPD2    C4 5153   0.416   2.937  10.461  0.4761 -0.3341  0.3900
  340MPD2    C5 5154   0.295   2.877  10.464 -0.3803  0.1407  0.0244
  340MPD2     H 5155   0.517   2.814  10.168  0.8595  0.0742  0.1551
  340MPD2    H1 5156   0.445   3.000  10.544  0.9828  1.3165 -1.0135
  340MPD2    H2 5157   0.151   2.753  10.391  1.1446 -0.8248  0.1786
  340MPD2    H3 5158   0.235   2.896  10.552 -1.6402  0.8072 -0.9763
  340MPD2     N 5159   0.624   2.981  10.356  0.0830 -0.3622  0.2872
  340MPD2    H5 5160   0.663   3.024  10.439 -1.1169 -1.5920  1.4890
  340MPD2    N1 5161   0.299   2.665  10.164 -0.0933 -0.0168  0.2342
  340MPD2    H7 5162   0.366   2.654  10.089 -0.2396  4.1644 -0.4870
  341TMC3    C1 5163   0.173   2.483  10.064  0.4585  0.1587 -0.5000
  341TMC3    C2 5164   0.093   2.375  10.087 -0.2540 -0.4432 -0.2349
  341TMC3    C3 5165   0.114   2.263  10.003 -0.9408 -0.1433  0.8922
  341TMC3    C4 5166   0.267   2.478   9.963 -0.5828  0.2554  0.7189
  341TMC3    C5 5167   0.289   2.369   9.891 -0.3315 -0.2225  0.8137
  341TMC3    C6 5168   0.200   2.264   9.903 -0.3952  0.0456  0.4396
  341TMC3     C 5169   0.187   2.584  10.174  0.5278  0.5439 -0.1845
  341TMC3     O 5170   0.098   2.569  10.256  0.3324  0.1219  0.3130
  341TMC3     H 5171   0.017   2.381  10.164 -0.6534  0.3159 -0.6939
  341TMC3    H1 5172   0.334   2.562   9.950  1.5109 -1.8814 -2.4599
  341TMC3    H2 5173   0.208   2.175   9.841  0.8468 -1.1227  2.2743
  341TMC3    C7 5174   0.385   2.372   9.778  0.2002  0.3419 -0.0846
  341TMC3    C8 5175   0.051   2.133  10.041  0.6926 -0.1995  0.1982
  341TMC3    O1 5176   0.423   2.265   9.734  0.6274  0.1096  0.1460
  341TMC3    O2 5177   0.056   2.041   9.962  0.4550 -0.4235  0.1633
  342MPD2     C 5178   3.678   0.997  17.691 -0.1519 -0.1554  0.7926
  342MPD2    C1 5179   3.794   1.022  17.618  0.4253  0.0985 -0.0121
  342MPD2    C2 5180   3.860   1.138  17.633 -0.5302  0.7914 -0.1219
  342MPD2    C3 5181   3.826   1.234  17.724 -0.2489 -0.1779 -0.1156
  342MPD2    C4 5182   3.718   1.206   0.059  0.6404  0.4797 -0.2398
  342MPD2    C5 5183   3.638   1.085   0.041  0.8802  0.4780 -0.1418
  342MPD2     H 5184   3.944   1.149  17.565 -0.0791 -1.2638  0.1097
  342MPD2    H1 5185   3.684   1.278   0.133  1.1513 -0.3614  0.8056
  342MPD2    H2 5186   3.619   0.909  17.671  1.1303 -0.7805 -0.2789
  342MPD2    H3 5187   3.547   1.078   0.100  1.0612  0.3290  0.1197
  342MPD2     N 5188   3.904   1.346  17.743  0.0737 -0.2211  0.6509
  342MPD2    H5 5189   3.881   1.404   0.077  0.5028  1.6799 -0.5739
  342MPD2    N1 5190   3.841   0.942  17.513  0.1933 -0.8235 -0.2371
  342MPD2    H7 5191   3.918   0.978  17.458 -2.0411  2.6439 -1.0344
  343TMC3    C1 5192   3.854   0.754  17.356  0.2623  0.0550 -0.1777
  343TMC3    C2 5193   3.987   0.780  17.324  0.1374 -0.6193  0.2375
  343TMC3    C3 5194   4.042   0.730  17.210 -0.1904 -0.1520 -0.2398
  343TMC3    C4 5195   3.779   0.680  17.275  0.0965  0.6863 -0.3314
  343TMC3    C5 5196   3.828   0.639  17.155 -0.8789  0.2399 -0.0654
  343TMC3    C6 5197   3.958   0.659  17.119 -0.1054  0.3417 -0.4231
  343TMC3     C 5198   3.789   0.820  17.469 -0.0227  0.1505  0.0125
  343TMC3     O 5199   3.686   0.768  17.508 -0.1833  0.3164 -0.3621
  343TMC3     H 5200   4.053   0.831  17.393  2.1082  0.7684 -2.7218
  343TMC3    H1 5201   3.673   0.675  17.296  0.0737  1.3271 -0.2916
  343TMC3    H2 5202   3.999   0.623  17.025 -0.4409  1.2196 -0.9078
  343TMC3    C7 5203   3.729   0.549  17.084  0.4030  0.1516 -0.0798
  343TMC3    C8 5204   4.183   0.711  17.202  0.1492 -0.2993 -0.5266
  343TMC3    O1 5205   3.647   0.490  17.152 -0.1242 -0.5852 -0.4838
  343TMC3    O2 5206   4.255   0.771  17.283  0.2113 -0.8148  0.2112
  344MPD2     C 5207   3.934   0.661  11.001 -0.1010 -0.2918 -0.0681
  344MPD2    C1 5208   3.979   0.604  10.881  0.0154  0.2761  0.2985
  344MPD2    C2 5209   4.025   0.693  10.784 -0.2699 -0.6820 -0.0908
  344MPD2    C3 5210   4.025   0.835  10.800  0.9418  0.1343 -0.6419
  344MPD2    C4 5211   4.003   0.876  10.929  0.4651  0.4072  0.5457
  344MPD2    C5 5212   3.950   0.790  11.026  0.0524 -0.6706  0.4875
  344MPD2     H 5213   4.075   0.656  10.695 -1.1117 -2.4175  0.1626
  344MPD2    H1 5214   4.017   0.980  10.957 -0.3458  1.0532 -1.3918
  344MPD2    H2 5215   3.887   0.608  11.083  0.5563  0.4079  0.7554
  344MPD2    H3 5216   3.922   0.832  11.122 -2.5096 -0.6429 -0.2703
  344MPD2     N 5217   4.070   0.935  10.709  0.1599 -0.1044  0.6029
  344MPD2    H5 5218   4.068   1.030  10.745 -0.7192  0.8017 -1.8432
  344MPD2    N1 5219   3.985   0.465  10.858 -0.4650 -0.8204 -0.6008
  344MPD2    H7 5220   4.010   0.451  10.761 -2.3087 -2.2089 -0.8747
  345TMC3    C1 5221   4.176   1.019  10.512 -0.1425 -0.8207 -0.6306
  345TMC3    C2 5222   4.265   1.076  10.595 -0.1227  0.1398 -0.1457
  345TMC3    C3 5223   4.318   1.192  10.557 -0.0330  0.0806 -0.5914
  345TMC3    C4 5224   4.134   1.079  10.392  0.3372 -0.1060  0.2962
  345TMC3    C5 5225   4.187   1.199  10.360 -0.5607 -0.7611  0.6819
  345TMC3    C6 5226   4.282   1.257  10.440  0.2617 -0.0083  0.6382
  345TMC3     C 5227   4.099   0.915  10.569 -0.4102  0.2467  0.0931
  345TMC3     O 5228   4.078   0.817  10.498  0.0537 -0.1213 -0.2117
  345TMC3     H 5229   4.296   1.032  10.689  1.4147  1.5225 -0.0016
  345TMC3    H1 5230   4.046   1.047  10.338  0.4311  0.9260 -0.4886
  345TMC3    H2 5231   4.324   1.349  10.401 -0.6140  1.0030  2.0804
  345TMC3    C7 5232   4.118   1.296  10.272  0.6323  0.5734 -0.9581
  345TMC3    C8 5233   4.387   1.258  10.661 -0.2012  0.6619  0.5731
  345TMC3    O1 5234   4.122   1.410  10.304 -0.0709  0.0356 -0.0431
  345TMC3    O2 5235   4.377   1.213  10.774 -0.1244  0.2691  0.3020
  346MPD2     C 5236   4.503   2.420  14.552  0.3390 -0.1307  0.7300
  346MPD2    C1 5237   4.555   2.368  14.437 -0.1970  0.1849 -0.4786
  346MPD2    C2 5238   4.684   2.375  14.413 -0.2439  0.5098 -0.5890
  346MPD2    C3 5239   0.030   2.435  14.502 -0.3190 -0.0269  0.6810
  346MPD2    C4 5240   4.720   2.493  14.615  0.3089  0.0625 -0.3097
  346MPD2    C5 5241   4.588   2.484  14.646 -0.0466 -0.1496 -0.2264
  346MPD2     H 5242   4.726   2.339  14.319 -0.4960 -0.4738 -0.3298
  346MPD2    H1 5243   0.048   2.545  14.685 -0.3268 -0.1140  0.4100
  346MPD2    H2 5244   4.398   2.409  14.579 -0.0534  1.0478 -0.3221
  346MPD2    H3 5245   4.546   2.522  14.738 -2.0157 -0.6159 -0.9215
  346MPD2     N 5246   0.167   2.443  14.460  0.3798  0.2430 -0.0909
  346MPD2    H5 5247   0.183   2.407  14.367  0.6598 -1.8280  0.7748
  346MPD2    N1 5248   4.473   2.297  14.344  0.5945  0.1053  0.5517
  346MPD2    H7 5249   4.523   2.235  14.282 -0.3697  0.8204 -0.9329
  347TMC3    C1 5250   0.379   2.536  14.436 -0.5938  0.5515 -0.2917
  347TMC3    C2 5251   0.388   2.464  14.321 -0.0645 -0.2466 -0.1155
  347TMC3    C3 5252   0.470   2.505  14.219 -0.1528 -0.5867 -0.3010
  347TMC3    C4 5253   0.457   2.647  14.459  0.5052 -0.3225 -0.1807
  347TMC3    C5 5254   0.533   2.691  14.352 -0.0281  0.0239 -0.1157
  347TMC3    C6 5255   0.550   2.620  14.235  0.0286  0.4339 -0.4041
  347TMC3     C 5256   0.261   2.515  14.524  0.4709 -0.5947 -0.8476
  347TMC3     O 5257   0.272   2.552  14.639  0.3206 -0.5083 -0.2154
  347TMC3     H 5258   0.351   2.363  14.329  1.8486 -0.8828  0.6285
  347TMC3    H1 5259   0.452   2.687  14.559 -1.6329 -1.0815  0.0173
  347TMC3    H2 5260   0.627   2.643  14.163 -0.2219  0.3211 -0.7064
  347TMC3    C7 5261   0.637   2.791  14.383 -0.3199 -1.0212 -0.0795
  347TMC3    C8 5262   0.502   2.406  14.117 -0.5753 -0.0941 -0.9474
  347TMC3    O1 5263   0.687   2.796  14.492 -0.2390 -0.4216  0.6844
  347TMC3    O2 5264   0.484   2.294  14.149 -0.6016 -0.0130 -0.2793
  348MPD2     C 5265   2.850   1.732  11.687 -0.2392  0.2610  0.2013
  348MPD2    C1 5266   2.946   1.785  11.594 -0.0063 -0.8595  0.1212
  348MPD2    C2 5267   2.908   1.872  11.496  0.1063  0.1454  0.3746
  348MPD2    C3 5268   2.778   1.919  11.505 -0.0397 -0.2937 -0.5544
  348MPD2    C4 5269   2.692   1.878  11.598 -0.0704  0.5389  0.3963
  348MPD2    C5 5270   2.723   1.777  11.681 -0.8037 -0.2340 -0.8227
  348MPD2     H 5271   2.975   1.897  11.414 -0.0255 -3.2014 -0.7314
  348MPD2    H1 5272   2.591   1.919  11.603  0.0235  1.0109 -1.3001
  348MPD2    H2 5273   2.863   1.658  11.765  2.6734  0.4524 -0.1223
  348MPD2    H3 5274   2.653   1.752  11.760 -0.4574 -0.6297 -0.6382
  348MPD2     N 5275   2.744   2.005  11.408 -0.4202  0.1948 -0.0386
  348MPD2    H5 5276   2.821   2.050  11.360 -0.3354 -0.6736 -0.7268
  348MPD2    N1 5277   3.079   1.740  11.594  0.3989 -0.1835  1.0604
  348MPD2    H7 5278   3.140   1.772  11.519  0.0422 -3.4382 -0.6005
  349TMC3    C1 5279   3.230   1.559  11.627 -0.4849  0.7915 -0.0631
  349TMC3    C2 5280   3.229   1.446  11.705 -0.1466  0.0614 -0.3512
  349TMC3    C3 5281   3.165   1.329  11.667 -0.1753 -0.0848  0.2967
  349TMC3    C4 5282   3.200   1.533  11.495  0.4661  0.1403 -0.0392
  349TMC3    C5 5283   3.134   1.419  11.455  0.4808  0.3970 -0.0069
  349TMC3    C6 5284   3.112   1.311  11.539  0.4387  0.6918 -0.1709
  349TMC3     C 5285   3.139   1.660  11.686 -0.2321 -0.3142 -0.0656
  349TMC3     O 5286   3.111   1.635  11.801 -0.0395  0.3342 -0.6537
  349TMC3     H 5287   3.268   1.459  11.805  0.1329  1.8485 -0.7055
  349TMC3    H1 5288   3.214   1.617  11.427  3.7080 -0.8037 -0.5230
  349TMC3    H2 5289   3.060   1.221  11.508 -0.3243  0.9124  0.4628
  349TMC3    C7 5290   3.019   1.445  11.370  0.0394 -0.3803  0.4416
  349TMC3    C8 5291   3.149   1.227  11.770 -0.5758  0.9057  0.2040
  349TMC3    O1 5292   2.906   1.412  11.406 -0.2414  0.3162  0.0151
  349TMC3    O2 5293   3.218   1.232  11.867 -0.0972 -0.2188  0.6160
  350MPD2     C 5294   2.178   0.326  10.565 -0.0079 -0.1885  0.4150
  350MPD2    C1 5295   2.174   0.198  10.622  0.6713 -0.2708 -0.7495
  350MPD2    C2 5296   2.209   0.193  10.757  0.2931  0.5175 -0.3710
  350MPD2    C3 5297   2.248   0.301  10.836  0.6080 -0.7288  0.1683
  350MPD2    C4 5298   2.247   0.425  10.771  0.4954 -0.6221  0.1151
  350MPD2    C5 5299   2.211   0.433  10.641  0.6502  0.3182  0.3035
  350MPD2     H 5300   2.211   0.099  10.810  1.0373  1.9524  2.1225
  350MPD2    H1 5301   2.275   0.517  10.820 -0.0437 -0.4766  0.1524
  350MPD2    H2 5302   2.149   0.341  10.462 -0.5677 -2.0569  0.2930
  350MPD2    H3 5303   2.218   0.532  10.598  2.1558  0.1383  0.1321
  350MPD2     N 5304   2.291   0.283  10.968 -0.4603  0.8138 -0.1943
  350MPD2    H5 5305   2.289   0.190  11.008  2.3577  0.7777 -0.1999
  350MPD2    N1 5306   2.143   0.084  10.552  0.3588 -0.0187 -0.0493
  350MPD2    H7 5307   2.156   0.001  10.609  0.5155 -0.9481 -1.4408
  351TMC3    C1 5308   2.105   4.673  10.375  0.4451 -0.4009  0.3315
  351TMC3    C2 5309   2.171   4.634  10.264 -0.4293  0.2116  0.0829
  351TMC3    C3 5310   2.154   4.506  10.225  0.2758 -0.3057 -0.0603
  351TMC3    C4 5311   2.035   4.584  10.453  1.0374  0.0551 -0.5885
  351TMC3    C5 5312   2.008   4.458  10.398  0.2612  0.0777  0.2975
  351TMC3    C6 5313   2.069   4.411  10.283 -0.1209 -0.1273 -0.3328
  351TMC3     C 5314   2.133   0.077  10.416 -0.0840  0.5356  0.0648
  351TMC3     O 5315   2.141   0.160  10.327  0.2676  0.3326 -0.0718
  351TMC3     H 5316   2.229   4.705  10.207  0.1344 -0.1419  0.2152
  351TMC3    H1 5317   1.984   4.612  10.545  1.1630 -0.7345 -0.2742
  351TMC3    H2 5318   2.057   4.310  10.246 -3.6226  0.7599 -1.6041
  351TMC3    C7 5319   1.920   4.374  10.471 -0.0427  0.1312 -1.0062
  351TMC3    C8 5320   2.241   4.458  10.127 -0.7456  0.3871  0.6408
  351TMC3    O1 5321   1.893   4.393  10.588  0.1029 -1.0202 -0.4922
  351TMC3    O2 5322   2.272   4.539  10.049  0.2714  0.3632 -0.2415
  352MPD2     C 5323   1.496   2.693   0.328  0.6399 -0.7181 -0.3552
  352MPD2    C1 5324   1.411   2.611   0.394 -0.2461  0.2009  0.2288
  352MPD2    C2 5325   1.450   2.473   0.397  0.6418 -1.0935 -0.3374
  352MPD2    C3 5326   1.568   2.425   0.347  0.1860 -0.0442 -0.2404
  352MPD2    C4 5327   1.658   2.515   0.296  0.3461 -0.2924 -0.2475
  352MPD2    C5 5328   1.626   2.644   0.297  0.5490  0.3561  0.3364
  352MPD2     H 5329   1.377   2.404   0.437  1.3551 -1.3607  0.5023
  352MPD2    H1 5330   1.759   2.483   0.272  0.1436 -1.9679  1.1045
  352MPD2    H2 5331   1.471   2.798   0.322 -1.1984 -1.0818  0.8076
  352MPD2    H3 5332   1.707   2.704   0.256 -0.3238  1.0648 -0.3604
  352MPD2     N 5333   1.616   2.294   0.343  0.4082 -0.0818  0.0991
  352MPD2    H5 5334   1.709   2.280   0.305  0.6998 -1.1281  1.2155
  352MPD2    N1 5335   1.286   2.659   0.438 -0.0466  0.5256 -0.0221
  352MPD2    H7 5336   1.279   2.760   0.445  0.0532  0.5103  0.2743
  353TMC3    C1 5337   1.611   2.061   0.369  0.8796  0.4290  0.5007
  353TMC3    C2 5338   1.741   2.047   0.421 -0.7474 -0.6905  1.0103
  353TMC3    C3 5339   1.778   1.912   0.444 -0.0384 -0.7700 -0.6526
  353TMC3    C4 5340   1.536   1.958   0.335 -0.7237 -0.0025 -1.3831
  353TMC3    C5 5341   1.567   1.830   0.369 -0.4118  0.1750  0.3858
  353TMC3    C6 5342   1.685   1.809   0.428 -0.7431  0.0395 -0.3574
  353TMC3     C 5343   1.539   2.182   0.377  0.6179 -0.2902 -0.3396
  353TMC3     O 5344   1.416   2.177   0.377 -0.7258 -0.4712 -0.5362
  353TMC3     H 5345   1.809   2.129   0.442 -1.1107 -0.5999  1.8258
  353TMC3    H1 5346   1.457   1.977   0.264 -2.8391  0.1579  1.0076
  353TMC3    H2 5347   1.703   1.710   0.469  0.9773  0.7288  0.6118
  353TMC3    C7 5348   1.472   1.720   0.374 -0.6373  0.0777  0.2252
  353TMC3    C8 5349   1.907   1.888   0.504  0.2203  0.1864  0.4713
  353TMC3    O1 5350   1.511   1.612   0.409  0.4628 -0.4936 -0.5268
  353TMC3    O2 5351   1.976   1.983   0.544  0.5150  0.3304 -0.2699
  354TMC3    C1 5352   2.099   2.818  13.169 -0.9531  0.2297  0.3997
  354TMC3    C2 5353   2.137   2.922  13.258 -0.4653 -0.1987  0.3110
  354TMC3    C3 5354   2.234   3.003  13.213  0.1194 -0.4470 -0.0867
  354TMC3    C4 5355   2.165   2.796  13.048  0.3332 -1.2359  0.4642
  354TMC3    C5 5356   2.271   2.875  13.022 -0.0940 -0.4330  0.5332
  354TMC3    C6 5357   2.311   2.980  13.097 -0.2981  0.4407 -0.0314
  354TMC3     C 5358   2.052   2.699  13.238 -0.2661 -0.0664 -1.0591
  354TMC3     O 5359   2.041   2.596  13.176 -0.2102 -0.1538 -0.4523
  354TMC3     H 5360   2.088   2.942  13.352  1.2219  0.6162  1.0058
  354TMC3    H1 5361   2.143   2.702  12.999 -0.4118  0.7051 -2.9427
  354TMC3    H2 5362   2.394   3.046  13.074  0.1877  0.0573  0.6294
  354TMC3    C7 5363   2.344   2.850  12.899 -0.7224 -0.5150  0.9158
  354TMC3    C8 5364   2.230   3.145  13.255 -0.6936 -0.8577 -0.0659
  354TMC3    O1 5365   2.275   2.801  12.807  0.1690 -0.0552 -0.0372
  354TMC3    O2 5366   2.301   3.223  13.190  0.4406  0.0732 -0.4202
  355MPD2     C 5367   2.279   3.768  12.017 -0.4118 -0.4230  0.3321
  355MPD2    C1 5368   2.342   3.828  11.908  0.4593 -0.2811 -0.4184
  355MPD2    C2 5369   2.471   3.878  11.930  0.1703  0.1535  0.4104
  355MPD2    C3 5370   2.536   3.873  12.050  0.2604  0.2481 -0.0676
  355MPD2    C4 5371   2.481   3.799  12.154  0.1340  0.0183 -0.1303
  355MPD2    C5 5372   2.348   3.758  12.135 -1.0692 -0.6104  0.2782
  355MPD2     H 5373   2.517   3.926  11.844 -1.4659  0.4331 -0.3233
  355MPD2    H1 5374   2.524   3.791  12.254 -0.3336 -1.2142 -0.0341
  355MPD2    H2 5375   2.176   3.735  12.011 -0.4062 -0.7637  1.8844
  355MPD2    H3 5376   2.305   3.719  12.226 -3.1827  2.9388  0.7794
  355MPD2     N 5377   2.663   3.938  12.075 -0.6367  0.4372 -0.0916
  355MPD2    H5 5378   2.700   3.924  12.168 -2.6078 -0.0625  0.6144
  355MPD2    N1 5379   2.272   3.821  11.790 -0.2146 -0.2564  0.3723
  355MPD2    H7 5380   2.194   3.757  11.799 -2.6289  2.3907 -1.3132
  356TMC3    C1 5381   2.826   4.106  12.036  0.8502  0.3104  0.3250
  356TMC3    C2 5382   2.889   4.190  11.953  0.2741 -0.3483  0.0775
  356TMC3    C3 5383   2.980   4.281  12.003 -0.0745 -0.2538  0.1254
  356TMC3    C4 5384   2.838   4.128  12.171 -0.7192  0.0028  0.5575
  356TMC3    C5 5385   2.919   4.226  12.219  0.4975 -1.0307 -0.2011
  356TMC3    C6 5386   2.993   4.297  12.137  0.0368  0.7352 -0.0474
  356TMC3     C 5387   2.717   4.024  11.983 -0.1550 -0.0754  0.2911
  356TMC3     O 5388   2.705   4.026  11.863 -0.0958  0.3093  0.0824
  356TMC3     H 5389   2.874   4.173  11.847  2.4072 -0.5194 -0.2026
  356TMC3    H1 5390   2.779   4.071  12.242  0.9827 -0.0759  1.8962
  356TMC3    H2 5391   3.068   4.371  12.163  0.0762  1.1859 -1.4568
  356TMC3    C7 5392   2.947   4.231  12.367  0.3399  0.2934  0.5896
  356TMC3    C8 5393   3.041   4.370  11.905  0.0296 -0.4357  0.4098
  356TMC3    O1 5394   2.927   4.130  12.435  0.4983 -0.5934  0.6220
  356TMC3    O2 5395   3.030   4.328  11.790  0.0099 -0.2256 -0.3828
  357MPD2     C 5396   2.587   3.799   0.017  0.3491 -0.1266  0.6352
  357MPD2    C1 5397   2.620   3.697   0.105  0.0168 -0.0065 -0.5297
  357MPD2    C2 5398   2.536   3.670   0.211 -0.6618 -0.0304  0.0599
  357MPD2    C3 5399   2.414   3.736   0.220  0.7792  0.1761 -0.1218
  357MPD2    C4 5400   2.386   3.845   0.133  0.0942 -0.0026 -0.0686
  357MPD2    C5 5401   2.468   3.868   0.028  0.1980  0.1513 -0.1955
  357MPD2     H 5402   2.562   3.583   0.270  2.4660 -0.4696 -1.9549
  357MPD2    H1 5403   2.293   3.900   0.133 -0.0470 -0.2388 -2.9085
  357MPD2    H2 5404   2.659   3.826  17.688 -0.5037  0.9656  0.2187
  357MPD2    H3 5405   2.445   3.950  17.709  1.7560 -0.4078 -1.4314
  357MPD2     N 5406   2.312   3.689   0.300 -0.2061  0.3465 -0.1356
  357MPD2    H5 5407   2.225   3.742   0.298 -1.0016 -0.9586  0.0722
  357MPD2    N1 5408   2.739   3.618   0.091  0.5101  0.0233 -0.3242
  357MPD2    H7 5409   2.786   3.599   0.003  0.4542  0.4056 -0.4373
  358TMC3    C1 5410   2.912   3.477   0.145  0.2320 -0.3174 -0.3314
  358TMC3    C2 5411   2.877   3.385   0.056  0.4302 -0.2270 -0.0726
  358TMC3    C3 5412   2.926   3.256   0.066  0.0711 -0.1142 -0.7450
  358TMC3    C4 5413   3.004   3.447   0.247 -0.2209  0.2306  0.1595
  358TMC3    C5 5414   3.066   3.326   0.247 -0.2357  1.2462 -0.0003
  358TMC3    C6 5415   3.028   3.228   0.155  0.6979  1.0028  0.1821
  358TMC3     C 5416   2.807   3.561   0.196  0.7688 -0.1331 -0.4421
  358TMC3     O 5417   2.805   3.601   0.314  0.1915  0.3493 -0.4916
  358TMC3     H 5418   2.794   3.396  17.734  0.2610 -2.4276 -0.2414
  358TMC3    H1 5419   3.025   3.522   0.321 -0.9506  1.5700 -0.9828
  358TMC3    H2 5420   3.064   3.127   0.170  1.1469  1.2327  0.6304
  358TMC3    C7 5421   3.124   3.277   0.369 -0.3929 -0.1377 -0.8437
  358TMC3    C8 5422   2.868   3.163  17.721  0.1250  0.2596 -0.2719
  358TMC3    O1 5423   3.183   3.172   0.371 -0.1486 -0.3739  0.2477
  358TMC3    O2 5424   2.818   3.207  17.618  0.7314  0.4827 -0.3534
  359MPD2     C 5425   3.068   2.271  12.563 -0.2198  0.4826 -0.4080
  359MPD2    C1 5426   2.934   2.294  12.527 -0.4239  0.7583 -0.0184
  359MPD2    C2 5427   2.849   2.189  12.491  0.2575  0.1549 -0.5159
  359MPD2    C3 5428   2.902   2.065  12.490  0.7965  0.6540 -0.2406
  359MPD2    C4 5429   3.021   2.036  12.543  0.4068  0.2053  1.4423
  359MPD2    C5 5430   3.106   2.139  12.576 -0.7049  0.1479 -0.1729
  359MPD2     H 5431   2.742   2.202  12.475  0.2235  1.0265  0.4020
  359MPD2    H1 5432   3.061   1.936  12.543  1.9363  0.8085 -1.0152
  359MPD2    H2 5433   3.140   2.343  12.598  2.5415 -1.0284 -3.0224
  359MPD2    H3 5434   3.198   2.115  12.628  0.9866  0.7313 -2.9139
  359MPD2     N 5435   2.822   1.957  12.441 -0.6113  0.2121  0.1207
  359MPD2    H5 5436   2.857   1.862  12.437 -0.7479  0.1359  0.6776
  359MPD2    N1 5437   2.882   2.424  12.517 -0.3950 -0.6959  0.3290
  359MPD2    H7 5438   2.796   2.424  12.463  0.0636 -0.8499 -0.4052
  360TMC3    C1 5439   2.869   2.645  12.480  0.8052  0.4942 -0.5252
  360TMC3    C2 5440   2.951   2.744  12.421  0.2080 -0.4058  0.3415
  360TMC3    C3 5441   2.933   2.766  12.290 -0.5605  0.4789  0.1362
  360TMC3    C4 5442   2.750   2.611  12.423  0.1293 -0.1471  0.5322
  360TMC3    C5 5443   2.736   2.636  12.293  0.2828 -0.0225  0.0053
  360TMC3    C6 5444   2.828   2.710  12.222  0.2173 -0.0008  0.6582
  360TMC3     C 5445   2.947   2.541  12.535 -0.0391  0.0331  0.4127
  360TMC3     O 5446   3.066   2.560  12.567 -0.3496  0.0768  0.4014
  360TMC3     H 5447   3.047   2.771  12.464  0.2129  0.1768 -0.0268
  360TMC3    H1 5448   2.669   2.571  12.484  0.2100 -0.3384  0.5141
  360TMC3    H2 5449   2.814   2.723  12.116  0.1511  2.0592  0.9229
  360TMC3    C7 5450   2.620   2.573  12.234  0.2776  0.2791 -0.0113
  360TMC3    C8 5451   3.047   2.816  12.209 -0.2694 -0.4124 -0.3551
  360TMC3    O1 5452   2.546   2.516  12.312 -0.2991  0.3037 -0.1635
  360TMC3    O2 5453   3.109   2.914  12.257 -0.6683 -0.4427  0.1754
  361MPD2     C 5454   4.437   1.268  16.593  0.3229  0.4918  0.2143
  361MPD2    C1 5455   4.491   1.350  16.693  0.8754 -0.8260  0.5967
  361MPD2    C2 5456   4.611   1.324  16.750  0.4305 -0.0910 -0.1931
  361MPD2    C3 5457   4.678   1.218  16.700  0.0244  0.1303  1.1436
  361MPD2    C4 5458   4.628   1.137  16.600 -0.9326  0.4043 -0.4250
  361MPD2    C5 5459   4.512   1.168  16.536  0.0711 -0.3578  0.2649
  361MPD2     H 5460   4.654   1.394  16.820 -2.1540  2.5112 -1.2341
  361MPD2    H1 5461   4.677   1.044  16.573 -2.4436 -1.0534  1.8295
  361MPD2    H2 5462   4.335   1.269  16.559  0.8254  0.9962 -1.2842
  361MPD2    H3 5463   4.463   1.113  16.456  0.2901 -1.1957  0.7128
  361MPD2     N 5464   0.075   1.182  16.734  0.1698  0.2557  0.2506
  361MPD2    H5 5465   0.110   1.099  16.686  1.5972  1.1152 -0.2001
  361MPD2    N1 5466   4.407   1.450  16.738  0.1396  0.1429 -0.2388
  361MPD2    H7 5467   4.431   1.507  16.819  1.9791 -0.6807 -0.2273
  362TMC3    C1 5468   4.215   1.569  16.780 -0.8266 -0.1265  0.1431
  362TMC3    C2 5469   4.252   1.578  16.916 -0.1293 -0.3112 -0.3715
  362TMC3    C3 5470   4.198   1.683  16.979  0.3459  0.2875 -0.3004
  362TMC3    C4 5471   4.113   1.633  16.721 -0.8830  0.2718  0.3630
  362TMC3    C5 5472   4.052   1.728  16.798 -0.4710  0.2754 -0.2033
  362TMC3    C6 5473   4.096   1.756  16.926 -0.2235  0.3869  0.8645
  362TMC3     C 5474   4.282   1.480  16.688  0.3039  0.0010 -0.4392
  362TMC3     O 5475   4.229   1.466  16.579 -0.0167  0.3121 -0.3534
  362TMC3     H 5476   4.325   1.510  16.959 -0.1162  1.4325  2.3356
  362TMC3    H1 5477   4.093   1.629  16.614 -0.4222 -1.9685  0.3642
  362TMC3    H2 5478   4.045   1.831  16.985  0.6851  1.7113 -0.0165
  362TMC3    C7 5479   4.004   1.839  16.725  0.1690  0.3813  0.2547
  362TMC3    C8 5480   4.259   1.709  17.106  0.4055  0.2992  0.3715
  362TMC3    O1 5481   4.057   1.950  16.746 -0.4795 -0.0229  0.0306
  362TMC3    O2 5482   4.361   1.651  17.131 -0.1354 -0.3680 -0.3456
  363TMC3    C1 5483   3.080   0.445  10.038 -0.5486 -0.0424  0.2548
  363TMC3    C2 5484   3.041   0.315  10.036 -0.0536  0.3577 -0.2326
  363TMC3    C3 5485   2.931   0.291   9.956  0.3088  0.7166  0.0579
  363TMC3    C4 5486   3.009   0.550   9.982  0.7283 -0.0741  0.0962
  363TMC3    C5 5487   2.897   0.523   9.909  0.5102  0.0091  0.5384
  363TMC3    C6 5488   2.863   0.392   9.896 -0.7657  0.4960 -0.1419
  363TMC3     C 5489   3.175   0.476  10.137  0.5450  0.1397 -0.1254
  363TMC3     O 5490   3.235   0.582  10.120 -0.5629 -0.8734 -0.9006
  363TMC3     H 5491   3.096   0.238  10.090 -0.1576  0.3431 -0.1482
  363TMC3    H1 5492   3.042   0.653   9.991 -0.1576  0.1972  0.2330
  363TMC3    H2 5493   2.781   0.356   9.834 -0.8349  2.1504 -0.9992
  363TMC3    C7 5494   2.790   0.620   9.881 -0.1089 -0.2889 -0.3607
  363TMC3    C8 5495   2.864   0.168   9.977  0.3311 -0.4129  0.2073
  363TMC3    O1 5496   2.692   0.564   9.832  0.1974 -0.8171 -0.0133
  363TMC3    O2 5497   2.743   0.169   9.964  0.7264 -0.3920  0.0268
  364MPD2     C 5498   1.328   3.595  10.665  0.2343  0.3710  0.3815
  364MPD2    C1 5499   1.427   3.528  10.594 -0.0391  0.1335 -0.6068
  364MPD2    C2 5500   1.475   3.408  10.644 -0.1203 -0.6951  0.0214
  364MPD2    C3 5501   1.432   3.357  10.766  0.3168  0.9347 -0.0891
  364MPD2    C4 5502   1.329   3.428  10.834 -0.3261 -0.0688  0.0959
  364MPD2    C5 5503   1.277   3.543  10.782  0.2189  0.2236  0.4074
  364MPD2     H 5504   1.539   3.352  10.577 -0.1809  0.0887 -0.6803
  364MPD2    H1 5505   1.283   3.383  10.921  3.3189  0.0946  2.1043
  364MPD2    H2 5506   1.304   3.695  10.631 -1.5047  0.3304  1.4646
  364MPD2    H3 5507   1.193   3.589  10.833  0.8606  0.7458  0.9956
  364MPD2     N 5508   1.484   3.243  10.831 -0.3969 -0.0444 -0.3514
  364MPD2    H5 5509   1.454   3.215  10.924  1.3954 -0.2991  0.1435
  364MPD2    N1 5510   1.453   3.585  10.465 -0.4766 -0.5063  0.2179
  364MPD2    H7 5511   1.410   3.675  10.447  0.3599 -0.0891  0.2711
  365TMC3    C1 5512   1.591   3.626  10.277 -0.0105 -0.2865 -0.3644
  365TMC3    C2 5513   1.636   3.571  10.162  0.7470  0.0833 -0.3856
  365TMC3    C3 5514   1.722   3.639  10.086  0.7275  0.6408  0.4832
  365TMC3    C4 5515   1.665   3.727  10.338  0.4744 -0.2721  0.1767
  365TMC3    C5 5516   1.769   3.774  10.266  0.6864  0.3636  0.8704
  365TMC3    C6 5517   1.792   3.740  10.133 -0.2478 -0.4949 -0.3485
  365TMC3     C 5518   1.540   3.527  10.377  0.2161  0.1690 -0.2696
  365TMC3     O 5519   1.589   3.418  10.361  0.2758  0.3006  0.5001
  365TMC3     H 5520   1.578   3.489  10.120 -0.0362  0.4699 -0.0644
  365TMC3    H1 5521   1.634   3.756  10.437 -0.8617  0.5646 -0.4816
  365TMC3    H2 5522   1.877   3.779  10.078 -0.2022  0.7630  0.6017
  365TMC3    C7 5523   1.877   3.856  10.332 -0.8184 -0.5421  0.2773
  365TMC3    C8 5524   1.769   3.583   9.963  0.3044  0.2445 -0.3493
  365TMC3    O1 5525   1.956   3.917  10.263  0.3073 -0.1899  0.4002
  365TMC3    O2 5526   1.819   3.670   9.894 -0.0821 -0.4616 -0.1648
  366MPD2     C 5527   0.231   4.082  15.230 -0.0770 -0.1013  0.1685
  366MPD2    C1 5528   0.300   4.200  15.256 -0.1928  0.4590  0.2322
  366MPD2    C2 5529   0.432   4.208  15.224  0.2325  0.2208  0.0560
  366MPD2    C3 5530   0.493   4.108  15.151 -0.5167 -0.9696 -0.2460
  366MPD2    C4 5531   0.427   3.986  15.131  0.4120  0.1500  0.5966
  366MPD2    C5 5532   0.290   3.980  15.158 -0.1497  0.4579  0.2684
  366MPD2     H 5533   0.480   4.306  15.230 -1.7091  1.1349  0.7261
  366MPD2    H1 5534   0.466   3.891  15.097  0.3857  0.5470 -0.5337
  366MPD2    H2 5535   0.124   4.080  15.247 -0.2819 -0.6509 -1.1802
  366MPD2    H3 5536   0.232   3.890  15.146 -0.8003  1.3827 -3.5628
  366MPD2     N 5537   0.622   4.136  15.110  0.2190  0.5503 -0.1219
  366MPD2    H5 5538   0.666   4.221  15.143  0.0351  0.2360  0.9287
  366MPD2    N1 5539   0.242   4.312  15.320 -0.1558  0.1780 -0.0066
  366MPD2    H7 5540   0.301   4.393  15.333  1.0772 -0.5321 -1.1699
  367TMC3    C1 5541   0.096   4.449  15.437 -0.9816  0.4285  0.2700
  367TMC3    C2 5542   0.203   4.502  15.496  0.5064  0.6217  1.0082
  367TMC3    C3 5543   0.181   4.626  15.551  0.0131 -0.0690  0.6106
  367TMC3    C4 5544   4.708   4.502  15.419 -0.1745  0.2666  0.2228
  367TMC3    C5 5545   4.693   4.627  15.470 -0.0624 -0.0799 -0.3531
  367TMC3    C6 5546   0.060   4.690  15.535 -0.2358 -0.1864 -0.1128
  367TMC3     C 5547   0.111   4.324  15.365 -1.1528  0.2479 -0.8151
  367TMC3     O 5548   0.016   4.245  15.355  0.2891 -0.0368 -0.0035
  367TMC3     H 5549   0.297   4.451  15.514 -0.2505 -0.7210  1.1576
  367TMC3    H1 5550   4.638   4.451  15.355  0.9730 -0.1407 -0.7073
  367TMC3    H2 5551   0.039   0.039  15.597  0.5386 -0.3350  0.3533
  367TMC3    C7 5552   4.605   4.720  15.411  0.0983 -0.1070 -0.2121
  367TMC3    C8 5553   0.297   4.699  15.588  0.6347  0.0158 -0.4031
  367TMC3    O1 5554   4.627   0.102  15.429  0.2762 -0.7698  0.2973
  367TMC3    O2 5555   0.397   4.632  15.622 -0.1045  0.0183  0.2086
  368MPD2     C 5556   0.973   1.990  12.893 -0.0665  0.9339 -0.4656
  368MPD2    C1 5557   0.969   2.053  12.775  0.6907  0.1216 -0.2060
  368MPD2    C2 5558   1.089   2.061  12.700  0.4075 -0.2365 -0.2699
  368MPD2    C3 5559   1.207   2.012  12.741  0.0060  0.7579  0.1995
  368MPD2    C4 5560   1.207   1.942  12.858  0.8811  0.0167  0.6445
  368MPD2    C5 5561   1.096   1.939  12.934  0.5406  0.7482  0.0412
  368MPD2     H 5562   1.090   2.132  12.617 -0.6772 -0.9691 -0.9226
  368MPD2    H1 5563   1.302   1.899  12.887  0.6290 -0.0232  1.4103
  368MPD2    H2 5564   0.881   1.979  12.950  0.7315  1.9297  1.0226
  368MPD2    H3 5565   1.100   1.881  13.025 -0.2089  0.9477  0.2018
  368MPD2     N 5566   1.335   2.022  12.681  0.5751 -0.1907  0.3425
  368MPD2    H5 5567   1.409   1.974  12.732 -0.0078 -2.9861 -1.4674
  368MPD2    N1 5568   0.844   2.095  12.730 -0.0101  0.7594 -0.9338
  368MPD2    H7 5569   0.774   2.084  12.802  0.0767 -1.0472 -1.1209
  369TMC3    C1 5570   0.667   2.150  12.589 -0.0039  0.1490 -0.4774
  369TMC3    C2 5571   0.629   2.225  12.480  0.4003 -1.3208  0.3240
  369TMC3    C3 5572   0.492   2.236  12.460 -0.4486 -0.0982  0.0536
  369TMC3    C4 5573   0.573   2.102  12.680  0.5842 -0.2909 -0.2518
  369TMC3    C5 5574   0.437   2.119  12.653  0.2249 -0.6602 -0.1182
  369TMC3    C6 5575   0.398   2.190  12.546  0.0269 -0.3472  0.3457
  369TMC3     C 5576   0.807   2.134  12.605 -0.6061 -0.3552 -0.3154
  369TMC3     O 5577   0.884   2.166  12.514  0.1084 -0.1665  0.1973
  369TMC3     H 5578   0.697   2.262  12.405 -1.4086 -0.6506 -1.0028
  369TMC3    H1 5579   0.591   2.045  12.771  2.1900 -0.4219 -0.6523
  369TMC3    H2 5580   0.297   2.173  12.510  0.4623 -2.8307  0.2815
  369TMC3    C7 5581   0.352   2.064  12.750 -0.4981  0.1081 -0.8987
  369TMC3    C8 5582   0.463   2.271  12.327  0.1887 -0.6891 -0.5208
  369TMC3    O1 5583   0.402   1.985  12.831 -0.5398  0.3769  0.1227
  369TMC3    O2 5584   0.556   2.251  12.253  0.3466 -0.1186 -0.4984
  370TMC3    C1 5585   0.935   2.425  16.062 -0.4908  0.2992  0.1285
  370TMC3    C2 5586   0.914   2.366  16.191 -0.0698  0.5226  0.6545
  370TMC3    C3 5587   0.857   2.238  16.188 -0.1149 -0.1643 -0.1622
  370TMC3    C4 5588   0.894   2.368  15.941 -0.9330 -0.0674  0.5074
  370TMC3    C5 5589   0.846   2.244  15.950 -0.1346  0.1411 -0.0537
  370TMC3    C6 5590   0.835   2.173  16.071 -0.0198  0.9457 -0.3029
  370TMC3     C 5591   1.067   2.496  16.064 -0.1185 -0.9998 -0.6476
  370TMC3     O 5592   1.119   2.502  16.175  0.5086  0.1565  0.7604
  370TMC3     H 5593   0.948   2.419  16.279 -0.8792  0.9672  0.6944
  370TMC3    H1 5594   0.884   2.427  15.851 -0.1459 -1.9959 -0.8563
  370TMC3    H2 5595   0.778   2.081  16.068 -2.2598  2.3243 -0.0044
  370TMC3    C7 5596   0.845   2.162  15.826 -0.2439  0.0628  0.7807
  370TMC3    C8 5597   0.863   2.159  16.314 -0.1082 -0.1684 -0.2096
  370TMC3    O1 5598   0.810   2.217  15.719  0.5373  0.4811  0.3847
  370TMC3    O2 5599   0.845   2.038  16.308  0.6211 -0.4447  0.2368
  371TMC3    C1 5600   2.126   0.623  15.192  0.0913  0.8190  0.1165
  371TMC3    C2 5601   2.021   0.620  15.284  0.5071  0.3507 -0.9685
  371TMC3    C3 5602   1.977   0.742  15.336 -0.3687  0.2836 -0.2467
  371TMC3    C4 5603   2.168   0.740  15.132  0.4324  0.3811  0.7600
  371TMC3    C5 5604   2.110   0.862  15.181  0.2588 -0.0182 -0.7131
  371TMC3    C6 5605   2.011   0.864  15.276 -1.1124 -0.7388  0.3791
  371TMC3     C 5606   2.198   0.502  15.149  0.2708 -0.3024  0.3493
  371TMC3     O 5607   2.232   0.492  15.031  0.0284 -0.1703 -0.4752
  371TMC3     H 5608   1.993   0.527  15.331  0.3619  1.1042  0.4545
  371TMC3    H1 5609   2.250   0.731  15.062  0.8583 -1.4569  1.5047
  371TMC3    H2 5610   1.988   0.956  15.329 -0.0425 -0.1834 -0.1207
  371TMC3    C7 5611   2.170   0.989  15.156  0.1987  0.6259 -0.3527
  371TMC3    C8 5612   1.932   0.741  15.473 -0.3543  0.0015  0.1752
  371TMC3    O1 5613   2.092   1.081  15.173 -0.1984 -0.3877 -0.1172
  371TMC3    O2 5614   1.995   0.667  15.551  0.2341 -0.1409  0.2539
  372MPD2     C 5615   1.576   1.723  13.096 -0.2468  0.5333  0.0442
  372MPD2    C1 5616   1.641   1.615  13.139 -0.0467  0.0977 -0.3522
  372MPD2    C2 5617   1.597   1.545  13.246 -0.4548 -0.3497 -0.6411
  372MPD2    C3 5618   1.475   1.573  13.303 -0.3464 -0.3536 -0.4129
  372MPD2    C4 5619   1.400   1.679  13.254  0.4302  0.3549 -0.3088
  372MPD2    C5 5620   1.455   1.755  13.154  0.1314  0.3278  0.4870
  372MPD2     H 5621   1.649   1.451  13.266  0.8781  1.0713  2.5201
  372MPD2    H1 5622   1.299   1.708  13.279 -0.0599 -0.5796 -1.2459
  372MPD2    H2 5623   1.621   1.785  13.020 -0.2167  1.8156  1.0968
  372MPD2    H3 5624   1.394   1.834  13.113  2.3149  1.7458 -0.0326
  372MPD2     N 5625   1.419   1.475  13.387  0.3256  0.1309  0.6823
  372MPD2    H5 5626   1.479   1.399  13.416 -0.8684 -0.6978  1.0008
  372MPD2    N1 5627   1.754   1.567  13.067 -0.2107 -0.4506  0.0035
  372MPD2    H7 5628   1.804   1.489  13.108  2.5460  0.3086 -1.9368
  373TMC3    C1 5629   1.276   1.376  13.533 -0.1208 -0.1743  0.5238
  373TMC3    C2 5630   1.212   1.408  13.645 -0.1214 -0.1322 -0.5924
  373TMC3    C3 5631   1.157   1.305  13.715 -0.0474 -0.6372  0.0381
  373TMC3    C4 5632   1.283   1.253  13.478 -0.9241  0.7860 -0.5362
  373TMC3    C5 5633   1.223   1.154  13.550  0.3269 -0.8955 -0.2003
  373TMC3    C6 5634   1.149   1.178  13.665  0.3763 -0.5730 -0.5963
  373TMC3     C 5635   1.302   1.493  13.453  0.3274 -0.1887 -0.4940
  373TMC3     O 5636   1.226   1.590  13.459 -0.4105  0.1064 -0.4736
  373TMC3     H 5637   1.201   1.506  13.688  0.0730 -0.8420  1.0836
  373TMC3    H1 5638   1.349   1.237  13.394  0.0947  1.7437  0.0709
  373TMC3    H2 5639   1.104   1.101  13.726 -0.8429  0.9649  0.4435
  373TMC3    C7 5640   1.311   1.042  13.558  0.7856  0.3645  0.0580
  373TMC3    C8 5641   1.179   1.303  13.867  0.5042 -0.1173  0.1864
  373TMC3    O1 5642   1.420   1.061  13.514  0.1364  0.1454  0.0367
  373TMC3    O2 5643   1.106   1.235  13.935  0.4141 -0.8601 -0.0658
  374TMC3    C1 5644   2.187   2.378   9.360  0.5971 -0.0872  0.5288
  374TMC3    C2 5645   2.264   2.473   9.415  0.1772  0.6140 -0.3918
  374TMC3    C3 5646   2.343   2.543   9.339 -0.6436 -0.4198 -0.3737
  374TMC3    C4 5647   2.179   2.353   9.228 -0.2281  0.3592  0.1151
  374TMC3    C5 5648   2.263   2.427   9.141 -0.2799 -0.3981 -0.3543
  374TMC3    C6 5649   2.346   2.519   9.199 -0.3196 -0.4062 -0.3570
  374TMC3     C 5650   2.134   2.270   9.449  0.5631  0.1873  0.8465
  374TMC3     O 5651   2.052   2.193   9.401 -0.3259 -0.0962  0.8664
  374TMC3     H 5652   2.251   2.499   9.519  0.0094 -1.9753  0.2350
  374TMC3    H1 5653   2.117   2.274   9.187  0.9062 -0.2154 -0.4967
  374TMC3    H2 5654   2.418   2.568   9.135 -2.3397  2.7289 -0.2504
  374TMC3    C7 5655   2.230   2.452   9.010 -0.0013 -0.7104  1.0730
  374TMC3    C8 5656   2.430   2.647   9.394  0.2855 -0.4626  0.2950
  374TMC3    O1 5657   2.292   2.545   8.959 -0.2174  0.4141  0.1971
  374TMC3    O2 5658   2.479   2.716   9.306 -0.2945  0.4110 -0.3454
  375MPD2     C 5659   2.279   3.287  16.051 -0.3381  0.0439 -0.5402
  375MPD2    C1 5660   2.211   3.186  16.100 -0.0083  0.3244  0.2922
  375MPD2    C2 5661   2.250   3.056  16.088  0.6587 -0.1246  0.5793
  375MPD2    C3 5662   2.355   3.022  16.009  0.4775 -0.3733  0.9417
  375MPD2    C4 5663   2.431   3.120  15.961  0.2621  0.1550 -0.1496
  375MPD2    C5 5664   2.391   3.248  15.983 -0.7490  0.9688 -0.0837
  375MPD2     H 5665   2.181   2.990  16.137  2.4874 -1.3047  1.5510
  375MPD2    H1 5666   2.523   3.097  15.909  0.7381 -0.6355  1.0140
  375MPD2    H2 5667   2.265   3.392  16.072  0.5597 -0.0799  0.6769
  375MPD2    H3 5668   2.456   3.328  15.948 -0.0307  0.9949  1.3400
  375MPD2     N 5669   2.390   2.887  15.979  0.3080  0.5632 -0.2882
  375MPD2    H5 5670   2.465   2.876  15.911  0.1534  1.4378 -0.6058
  375MPD2    N1 5671   2.095   3.210  16.169  0.3743  0.1687  0.5127
  375MPD2    H7 5672   2.049   3.126  16.203  0.4732 -0.8185 -1.7442
  376TMC3    C1 5673   2.406   2.657  15.995  0.3226 -0.6663  0.0116
  376TMC3    C2 5674   2.527   2.642  16.063  0.3118  0.5999  0.0433
  376TMC3    C3 5675   2.624   2.575  16.001 -0.1210  0.0051  0.2137
  376TMC3    C4 5676   2.387   2.610  15.875 -0.1784  0.3065 -0.8084
  376TMC3    C5 5677   2.484   2.539  15.813  0.3098 -0.1852 -0.0408
  376TMC3    C6 5678   2.610   2.528  15.874 -0.3941  0.1715  0.3706
  376TMC3     C 5679   2.339   2.774  16.043  0.2730 -0.3305  0.4265
  376TMC3     O 5680   2.281   2.763  16.153 -0.0570  1.0749 -0.8784
  376TMC3     H 5681   2.545   2.692  16.157 -1.7772  0.0060  0.7656
  376TMC3    H1 5682   2.292   2.622  15.824  0.0209  1.0725 -0.9999
  376TMC3    H2 5683   2.702   2.492  15.829 -0.4749  0.7645 -0.2703
  376TMC3    C7 5684   2.486   2.537  15.663 -0.0603  0.6068 -0.1881
  376TMC3    C8 5685   2.750   2.578  16.060 -0.0755  0.5448 -0.6901
  376TMC3    O1 5686   2.584   2.581  15.614  0.0146 -0.5722 -0.0360
  376TMC3    O2 5687   2.840   2.566  15.979  0.1692  0.1218  0.3550
  377MPD2     C 5688   4.346   1.860  12.697 -0.0848  0.2862  0.8520
  377MPD2    C1 5689   4.433   1.789  12.765 -0.0394  0.4172 -0.3174
  377MPD2    C2 5690   4.401   1.751  12.898 -0.0574  1.0260  0.3912
  377MPD2    C3 5691   4.277   1.783  12.954 -0.2171 -0.0247  0.8509
  377MPD2    C4 5692   4.185   1.849  12.877  0.1103 -0.2191  0.7380
  377MPD2    C5 5693   4.222   1.885  12.750  0.2852 -0.5088 -0.0918
  377MPD2     H 5694   4.472   1.696  12.958  0.9040 -0.8504 -2.4940
  377MPD2    H1 5695   4.089   1.878  12.917  0.5095  1.0649  0.7862
  377MPD2    H2 5696   4.377   1.892  12.597 -1.0312  0.9129  0.7638
  377MPD2    H3 5697   4.151   1.950  12.699 -0.4774 -1.5152 -0.3080
  377MPD2     N 5698   4.255   1.742  13.093 -0.3112 -0.0525 -0.2258
  377MPD2    H5 5699   4.318   1.668  13.122  0.2869  0.0941 -1.1452
  377MPD2    N1 5700   4.557   1.768  12.702 -0.2384  0.0810 -0.4047
  377MPD2    H7 5701   4.579   1.824  12.620 -0.7695  0.6581 -0.1609
  378TMC3    C1 5702   0.177   1.773  12.507  0.3637  0.2357 -0.6770
  378TMC3    C2 5703   0.054   1.759  12.560  0.9104 -0.1128  0.4168
  378TMC3    C3 5704   0.044   1.702  12.682  0.1793  0.7295 -0.0636
  378TMC3    C4 5705   0.285   1.764  12.591  0.3295 -0.4344  0.1295
  378TMC3    C5 5706   0.272   1.705  12.717 -0.4584 -0.5593 -0.0183
  378TMC3    C6 5707   0.147   1.669  12.767  0.3272  0.2017 -0.0523
  378TMC3     C 5708   0.198   1.805  12.366  0.3234  0.7540 -0.0645
  378TMC3     O 5709   0.101   1.859  12.310  0.1878 -0.1833 -0.4597
  378TMC3     H 5710   4.701   1.775  12.501  0.1667 -0.0834  1.5506
  378TMC3    H1 5711   0.384   1.771  12.548  1.0338  1.5010  2.0504
  378TMC3    H2 5712   0.132   1.625  12.865 -3.2309  0.2662 -0.5664
  378TMC3    C7 5713   0.393   1.678  12.801 -0.6811  0.3913 -0.2104
  378TMC3    C8 5714   4.656   1.686  12.759  0.0516  0.1380  0.0516
  378TMC3    O1 5715   0.371   1.644  12.917 -0.6290  0.2834  0.3634
  378TMC3    O2 5716   4.651   1.607  12.853  0.2218  0.1667  0.0704
  379MPD2     C 5717   1.444   0.444  15.945 -0.4532 -0.2454  0.6122
  379MPD2    C1 5718   1.355   0.404  16.047 -0.3744  0.5257 -0.2659
  379MPD2    C2 5719   1.410   0.350  16.168 -0.3970 -0.1009 -0.6844
  379MPD2    C3 5720   1.538   0.338  16.181  0.5670  0.9465  0.2660
  379MPD2    C4 5721   1.628   0.380  16.086 -0.4945 -0.5015 -0.5768
  379MPD2    C5 5722   1.572   0.436  15.970  0.4237  0.2864 -0.3570
  379MPD2     H 5723   1.346   0.312  16.247  1.5670 -0.2023  0.8483
  379MPD2    H1 5724   1.736   0.379  16.101 -0.4450  0.2265 -0.8793
  379MPD2    H2 5725   1.411   0.483  15.850 -0.1719 -0.3311  0.4816
  379MPD2    H3 5726   1.638   0.466  15.890  3.0096  0.5177  1.8497
  379MPD2     N 5727   1.599   0.284  16.296 -0.0885 -0.3411  0.3901
  379MPD2    H5 5728   1.699   0.277  16.283 -0.1995  1.6808 -1.5707
  379MPD2    N1 5729   1.218   0.410  16.013  0.8317 -0.2546  0.1445
  379MPD2    H7 5730   1.203   0.404  15.912  2.0425 -1.2158  0.0141
  380TMC3    C1 5731   1.015   0.298  16.036 -0.9358 -0.0823  0.0003
  380TMC3    C2 5732   1.064   0.183  15.995 -0.3931  0.2844  0.1133
  380TMC3    C3 5733   1.026   0.126  15.872  0.3661 -0.7174  0.2539
  380TMC3    C4 5734   0.924   0.367  15.960  0.1029  0.1194  0.0386
  380TMC3    C5 5735   0.874   0.303  15.856  0.2597 -0.4425  0.1950
  380TMC3    C6 5736   0.916   0.182  15.805  0.1333  1.0623 -0.3220
  380TMC3     C 5737   1.116   0.377  16.100 -0.1510 -0.2522 -0.3345
  380TMC3     O 5738   1.125   0.363  16.222 -0.5513  0.0256  0.0426
  380TMC3     H 5739   1.149   0.151  16.053  0.7313  0.2897 -1.5271
  380TMC3    H1 5740   0.880   0.459  15.995 -1.5305 -0.6571 -0.0039
  380TMC3    H2 5741   0.885   0.139  15.710 -0.7640  0.1747  0.3807
  380TMC3    C7 5742   0.764   0.371  15.790 -0.4070 -0.1314  0.0658
  380TMC3    C8 5743   1.128   0.078  15.789 -0.0274 -0.3283 -0.2792
  380TMC3    O1 5744   0.750   0.489  15.811 -0.9321 -0.2235 -0.0591
  380TMC3    O2 5745   1.116   0.095  15.669 -0.2651  0.5885  0.3865
  381TMC3    C1 5746   0.927   1.325  16.187  0.3258  0.0979 -0.4211
  381TMC3    C2 5747   0.968   1.434  16.118 -0.1163 -0.0727 -0.4120
  381TMC3    C3 5748   0.973   1.550  16.186  0.6627  0.4826  0.7797
  381TMC3    C4 5749   0.905   1.323  16.322  0.2430  0.3141  0.1659
  381TMC3    C5 5750   0.918   1.444  16.385  0.5935  0.6918 -0.0946
  381TMC3    C6 5751   0.946   1.559  16.317  0.0998  0.1398 -0.1682
  381TMC3     C 5752   0.887   1.201  16.109  0.0145 -0.6062  1.0060
  381TMC3     O 5753   0.903   1.198  15.989  0.2025 -0.3382  0.2793
  381TMC3     H 5754   0.964   1.438  16.009 -1.4377 -1.6127 -0.4092
  381TMC3    H1 5755   0.874   1.230  16.370  0.5268 -0.0439 -0.3465
  381TMC3    H2 5756   0.940   1.652  16.372  3.3899 -0.5724  1.4346
  381TMC3    C7 5757   0.912   1.438  16.526 -0.3540  0.6206  0.5109
  381TMC3    C8 5758   1.048   1.654  16.111  0.2234  0.5282 -0.1779
  381TMC3    O1 5759   0.945   1.330  16.572 -0.5107 -0.2927 -0.7349
  381TMC3    O2 5760   1.085   1.628  15.996  0.0199  0.3936 -0.3667
  382MPD2     C 5761   0.664   3.810  16.927 -0.1491  0.3449  0.4488
  382MPD2    C1 5762   0.581   3.876  17.012 -0.2816  0.0531  0.3994
  382MPD2    C2 5763   0.574   3.835  17.139  0.0484  0.5497 -0.3851
  382MPD2    C3 5764   0.619   3.714  17.181 -0.0671 -0.4026  0.6920
  382MPD2    C4 5765   0.703   3.644  17.092  0.2621 -0.8173 -0.2588
  382MPD2    C5 5766   0.734   3.699  16.973  0.3274  0.1653  0.0255
  382MPD2     H 5767   0.522   3.905  17.203 -1.6153 -1.3062  0.2939
  382MPD2    H1 5768   0.755   3.557  17.130  0.5832 -0.6722 -0.3663
  382MPD2    H2 5769   0.673   3.840  16.823 -0.3605 -1.2598 -0.0238
  382MPD2    H3 5770   0.808   3.648  16.913 -2.3115 -1.4557 -1.8504
  382MPD2     N 5771   0.582   3.649  17.304 -0.3865 -0.6567 -0.2222
  382MPD2    H5 5772   0.607   3.550  17.301  2.3117 -0.0205  1.4925
  382MPD2    N1 5773   0.494   3.972  16.970 -0.1989 -0.6192  0.3775
  382MPD2    H7 5774   0.420   3.988  17.038 -0.3999 -2.9101  0.7073
  383TMC3    C1 5775   0.456   3.619  17.494  0.3257  0.6390 -0.5582
  383TMC3    C2 5776   0.378   3.525  17.430 -0.2228  0.0628 -1.0258
  383TMC3    C3 5777   0.256   3.504  17.491 -0.2924  0.4786 -0.3703
  383TMC3    C4 5778   0.433   3.679  17.612 -0.9896 -0.3924  1.2448
  383TMC3    C5 5779   0.315   3.641  17.677  0.3586 -0.4949 -0.5983
  383TMC3    C6 5780   0.228   3.554  17.614  0.3265 -0.4504  0.2832
  383TMC3     C 5781   0.511   3.710  17.402  0.7188  0.3324  0.5467
  383TMC3     O 5782   0.480   3.826  17.420  0.1047 -0.6072 -0.1013
  383TMC3     H 5783   0.402   3.483  17.333  1.2863  1.5427 -1.3043
  383TMC3    H1 5784   0.504   3.752  17.648 -1.3564  1.9112 -2.6961
  383TMC3    H2 5785   0.141   3.516  17.667  0.4396  1.3043  1.6931
  383TMC3    C7 5786   0.271   3.705   0.060  0.7600 -0.4791 -0.0724
  383TMC3    C8 5787   0.194   3.376  17.458 -0.0638  0.1830  0.2829
  383TMC3    O1 5788   0.174   3.651   0.111 -0.2655 -0.5653 -0.1663
  383TMC3    O2 5789   0.268   3.293  17.406  0.2677 -0.3345 -0.2818
  384MPD2     C 5790   1.422   0.255  11.738  0.5376 -0.4554 -0.2436
  384MPD2    C1 5791   1.434   0.233  11.875  0.1573 -0.1507 -0.3659
  384MPD2    C2 5792   1.542   0.161  11.928  0.0067  0.0384  0.3148
  384MPD2    C3 5793   1.629   0.103  11.837 -0.4608 -0.0228 -0.9176
  384MPD2    C4 5794   1.617   0.125  11.700 -0.2712  0.0230  0.6145
  384MPD2    C5 5795   1.512   0.199  11.651 -0.1113  0.3258  0.2873
  384MPD2     H 5796   1.547   0.154  12.036  0.7656  0.8177  0.3329
  384MPD2    H1 5797   1.685   0.088  11.624  0.5578 -0.1165  1.4212
  384MPD2    H2 5798   1.341   0.318  11.704 -0.8135 -1.4763  1.0662
  384MPD2    H3 5799   1.521   0.233  11.549 -1.6835  1.7610  0.6238
  384MPD2     N 5800   1.733   0.020  11.889  0.8422  0.1771  0.1853
  384MPD2    H5 5801   1.739   0.010  11.990 -0.0894 -1.8831  0.0464
  384MPD2    N1 5802   1.330   0.266  11.971  0.0699  0.1892 -0.0828
  384MPD2    H7 5803   1.348   0.228  12.063 -0.4456 -0.3871 -0.2196
  385TMC3    C1 5804   1.896   4.605  11.908 -0.3440  0.2608  0.4612
  385TMC3    C2 5805   1.899   4.467  11.896  0.2112  0.0239 -0.3164
  385TMC3    C3 5806   1.868   4.394  12.012  0.4754 -0.4337 -0.2170
  385TMC3    C4 5807   1.914   4.664  12.028  0.0258  0.2837  0.2313
  385TMC3    C5 5808   1.889   4.589  12.140 -0.3572  0.3052 -0.4826
  385TMC3    C6 5809   1.858   4.459  12.132 -1.0145  0.1658 -0.6876
  385TMC3     C 5810   1.814   4.676  11.816 -0.4905 -0.2210 -0.1260
  385TMC3     O 5811   1.816   4.638  11.698 -0.1124 -0.0076  0.0315
  385TMC3     H 5812   1.895   4.423  11.797  0.3524  0.5359 -0.5460
  385TMC3    H1 5813   1.929   0.033  12.039 -0.3778  0.6326 -2.5855
  385TMC3    H2 5814   1.845   4.408  12.228 -0.4557 -0.9129 -1.1844
  385TMC3    C7 5815   1.791   4.653  12.225 -0.0364 -0.6818  0.2690
  385TMC3    C8 5816   1.894   4.250  12.016  0.4021  0.4178 -0.2216
  385TMC3    O1 5817   1.744   0.018  12.169 -0.2560 -0.4145 -0.2930
  385TMC3    O2 5818   1.890   4.194  12.124 -0.7405 -0.1479 -0.6806
  386TMC3    C1 5819   1.840   2.050  11.268  0.1646  0.0718  0.5759
  386TMC3    C2 5820   1.838   2.147  11.165  0.0706  0.2381  0.1416
  386TMC3    C3 5821   1.723   2.153  11.092 -0.1610  0.2400 -0.3105
  386TMC3    C4 5822   1.727   1.974  11.297  0.0715  0.4604  0.4128
  386TMC3    C5 5823   1.614   1.990  11.226  0.3438 -0.0893 -0.8818
  386TMC3    C6 5824   1.607   2.082  11.124  0.4475 -0.2407 -1.2432
  386TMC3     C 5825   1.956   2.045  11.347  0.2307  0.1491  0.1608
  386TMC3     O 5826   2.064   2.067  11.289 -0.4030  0.2601 -0.1338
  386TMC3     H 5827   1.928   2.204  11.147 -1.0799  1.3394 -2.1411
  386TMC3    H1 5828   1.717   1.899  11.375 -2.5450  1.8150  1.3857
  386TMC3    H2 5829   1.518   2.098  11.065  0.5349 -0.2553 -1.3815
  386TMC3    C7 5830   1.503   1.934  11.285  0.9308  0.9280  1.2761
  386TMC3    C8 5831   1.702   2.272  11.010 -0.4711  0.2624 -0.0042
  386TMC3    O1 5832   1.523   1.815  11.306  0.3083 -0.0598  0.4576
  386TMC3    O2 5833   1.587   2.310  11.006  0.3911  0.2275 -0.5712
  387MPD2     C 5834   3.725   2.671  10.004  0.1802  0.4439 -0.2719
  387MPD2    C1 5835   3.751   2.587  10.110 -0.2149  0.2342  1.0615
  387MPD2    C2 5836   3.772   2.450  10.091 -0.2681 -0.0068  0.1783
  387MPD2    C3 5837   3.761   2.402   9.960 -0.2519 -0.1331  0.2527
  387MPD2    C4 5838   3.739   2.486   9.857  0.1246  0.3867 -0.3973
  387MPD2    C5 5839   3.721   2.621   9.882 -0.3532  0.3336  0.0638
  387MPD2     H 5840   3.791   2.388  10.178 -0.1676 -0.4779 -0.1792
  387MPD2    H1 5841   3.754   2.452   9.755 -3.4448 -2.1256 -0.0882
  387MPD2    H2 5842   3.697   2.776  10.011 -0.9210  0.1890 -0.8688
  387MPD2    H3 5843   3.695   2.690   9.802  0.7434  1.2464  0.5034
  387MPD2     N 5844   3.811   2.265   9.945  0.3454  0.3085 -0.3457
  387MPD2    H5 5845   3.844   2.228  10.033  0.8346  0.3345 -0.5211
  387MPD2    N1 5846   3.778   2.644  10.243 -0.6259  0.2714  0.7110
  387MPD2    H7 5847   3.809   2.583  10.317 -0.5141  0.8572  1.1433
  388TMC3    C1 5848   3.899   2.805  10.346 -0.1497 -1.3560  0.3061
  388TMC3    C2 5849   3.927   2.940  10.348  0.4182 -0.1894  0.3665
  388TMC3    C3 5850   4.047   2.977  10.402  0.2941 -0.4653 -0.3243
  388TMC3    C4 5851   3.999   2.718  10.381  0.5797 -0.5193 -0.2375
  388TMC3    C5 5852   4.119   2.762  10.419 -0.3323  0.2999  0.0095
  388TMC3    C6 5853   4.152   2.892  10.433  0.3755 -0.1083 -0.0118
  388TMC3     C 5854   3.780   2.776  10.272 -0.2177  0.0631  2.0640
  388TMC3     O 5855   3.707   2.867  10.230 -0.2782  0.2058 -0.4397
  388TMC3     H 5856   3.850   3.007  10.311  2.3452  0.9733 -1.5220
  388TMC3    H1 5857   3.973   2.613  10.389  2.5705 -1.0013  0.0329
  388TMC3    H2 5858   4.253   2.929  10.445  0.1756  0.2517  0.5295
  388TMC3    C7 5859   4.225   2.668  10.419 -0.2584  0.5126  0.5296
  388TMC3    C8 5860   4.059   3.116  10.435 -1.1731 -0.0856  0.5572
  388TMC3    O1 5861   4.335   2.696  10.464  0.0619  0.4113 -0.7885
  388TMC3    O2 5862   3.967   3.194  10.401  0.3898  0.4349 -0.5078
  389MPD2     C 5863   3.173   0.967  11.320  0.0323  1.0950  0.2215
  389MPD2    C1 5864   3.106   0.853  11.279 -0.7530  0.4105  0.3846
  389MPD2    C2 5865   3.083   0.748  11.370 -0.0588 -0.0579 -0.4978
  389MPD2    C3 5866   3.102   0.762  11.503 -1.1442  0.2060  0.9001
  389MPD2    C4 5867   3.155   0.882  11.552 -0.0260  0.1077 -0.3457
  389MPD2    C5 5868   3.188   0.976  11.457 -0.3908 -0.5617  0.6940
  389MPD2     H 5869   3.059   0.648  11.336 -2.4366 -0.4075  2.2176
  389MPD2    H1 5870   3.175   0.898  11.657 -1.4565  1.4291 -0.2730
  389MPD2    H2 5871   3.204   1.046  11.253 -2.9008  2.5966  0.6430
  389MPD2    H3 5872   3.251   1.058  11.490 -2.2330  1.2390 -0.2239
  389MPD2     N 5873   3.080   0.652  11.598  0.5389 -0.1686 -0.3575
  389MPD2    H5 5874   3.098   0.678  11.694  0.3484 -3.7612  0.6414
  389MPD2    N1 5875   3.072   0.837  11.145 -0.2839  0.3743 -0.1198
  389MPD2    H7 5876   3.094   0.911  11.078  2.0213 -0.5969 -0.4389
  390TMC3    C1 5877   3.012   0.441  11.689 -0.2283 -0.9410 -0.1884
  390TMC3    C2 5878   2.961   0.319  11.669  0.0796  0.7244 -0.6857
  390TMC3    C3 5879   2.940   0.244  11.782  1.1014  0.0779 -0.2574
  390TMC3    C4 5880   3.021   0.498  11.810 -0.1036  0.4287  0.0985
  390TMC3    C5 5881   2.982   0.423  11.920 -0.8126 -0.1046 -0.9126
  390TMC3    C6 5882   2.947   0.295  11.907  0.1823 -0.0993  0.0382
  390TMC3     C 5883   3.037   0.524  11.566 -0.1408  0.1179  0.0321
  390TMC3     O 5884   3.021   0.473  11.456  0.4523  0.9849  0.0104
  390TMC3     H 5885   2.955   0.280  11.568 -0.2851  1.7020 -1.0460
  390TMC3    H1 5886   3.016   0.606  11.821 -2.2261  0.5349 -2.1622
  390TMC3    H2 5887   2.944   0.230  11.994  3.6224  0.3392  0.4680
  390TMC3    C7 5888   2.973   0.486  12.054  0.3313 -0.5538  0.9207
  390TMC3    C8 5889   2.900   0.104  11.757  0.1720 -0.4069 -0.1681
  390TMC3    O1 5890   3.048   0.576  12.092 -0.0656 -0.2920 -0.4264
  390TMC3    O2 5891   2.884   0.062  11.640  0.2421  0.0327  0.6013
  391MPD2     C 5892   2.487   2.005  10.711  0.3741 -0.4814  0.3382
  391MPD2    C1 5893   2.537   2.118  10.772 -0.0377  0.3122  0.0825
  391MPD2    C2 5894   2.609   2.207  10.695 -0.4943 -0.6342 -0.4577
  391MPD2    C3 5895   2.628   2.187  10.561  0.6632  0.2340  0.0883
  391MPD2    C4 5896   2.573   2.073  10.498 -0.6299 -0.4293  0.1240
  391MPD2    C5 5897   2.506   1.988  10.580 -0.1563 -0.4528  0.2405
  391MPD2     H 5898   2.658   2.291  10.742 -0.1003 -1.5708  0.7863
  391MPD2    H1 5899   2.584   2.043  10.395 -0.8221 -1.7891  0.4980
  391MPD2    H2 5900   2.420   1.936  10.761 -1.3196  1.3826  0.6490
  391MPD2    H3 5901   2.472   1.900  10.526  0.6966  1.0112 -2.6722
  391MPD2     N 5902   2.701   2.292  10.495  0.2496  0.3476 -1.0895
  391MPD2    H5 5903   2.729   2.368  10.555 -1.7522  1.5520 -1.6852
  391MPD2    N1 5904   2.517   2.131  10.910  0.6175 -0.4988  0.0772
  391MPD2    H7 5905   2.500   2.051  10.971  2.0941 -0.7240  0.2044
  392TMC3    C1 5906   2.758   2.441  10.324 -0.6845  0.1154 -0.1763
  392TMC3    C2 5907   2.700   2.478  10.206  0.4347  0.0787  0.3422
  392TMC3    C3 5908   2.733   2.593  10.144  0.7764  0.5335  0.6712
  392TMC3    C4 5909   2.847   2.523  10.386 -0.4813 -0.0035 -0.3169
  392TMC3    C5 5910   2.877   2.641  10.329 -0.2197  0.1504  0.2521
  392TMC3    C6 5911   2.826   2.684  10.206 -0.3000 -0.0969  0.6540
  392TMC3     C 5912   2.713   2.306  10.358 -0.1937 -0.0261 -0.2250
  392TMC3     O 5913   2.679   2.225  10.272 -0.4289 -0.7702 -0.1258
  392TMC3     H 5914   2.636   2.404  10.158 -1.3439  2.3257 -0.7647
  392TMC3    H1 5915   2.907   2.491  10.471 -0.8987 -0.5928 -0.2419
  392TMC3    H2 5916   2.864   2.776  10.163  1.5861 -0.2119  2.1037
  392TMC3    C7 5917   2.982   2.718  10.397  0.5649 -0.1416  0.1881
  392TMC3    C8 5918   2.675   2.612  10.012  0.0131  0.0630  0.3275
  392TMC3    O1 5919   3.063   2.650  10.459  0.1418 -0.8085 -0.3306
  392TMC3    O2 5920   2.585   2.533   9.986 -0.7340  0.5371  0.0680
  393TMC3    C1 5921   1.536   0.406  10.561  0.4422 -0.1427  0.2111
  393TMC3    C2 5922   1.441   0.437  10.652  0.2955  0.1222 -0.3606
  393TMC3    C3 5923   1.438   0.360  10.763 -0.1900  0.5510  0.1324
  393TMC3    C4 5924   1.607   0.292  10.569 -0.7333 -0.1359 -0.3830
  393TMC3    C5 5925   1.582   0.211  10.673  0.5150 -0.3731 -0.2055
  393TMC3    C6 5926   1.512   0.250  10.782  0.4577  0.4618 -0.9327
  393TMC3     C 5927   1.564   0.496  10.458 -0.7255  0.2531  0.1200
  393TMC3     O 5928   1.482   0.563  10.400 -0.2622  0.4373 -0.3145
  393TMC3     H 5929   1.399   0.537  10.648 -0.5917 -0.1536  2.0609
  393TMC3    H1 5930   1.668   0.258  10.486 -0.7490  2.7260 -1.5804
  393TMC3    H2 5931   1.511   0.187  10.870  3.6126  2.4850  0.5432
  393TMC3    C7 5932   1.678   0.097  10.693 -0.1800 -0.0136 -0.6558
  393TMC3    C8 5933   1.329   0.382  10.855  0.0603  0.4020 -0.6487
  393TMC3    O1 5934   1.701   0.016  10.605 -0.1127  0.3501 -0.9985
  393TMC3    O2 5935   1.251   0.459  10.804  0.0082  0.2451 -0.6483
  394TMC3    C1 5936   2.968   0.757  10.944  0.4716  0.0021  0.2618
  394TMC3    C2 5937   2.852   0.698  10.904 -0.2364  0.5539  0.2083
  394TMC3    C3 5938   2.836   0.669  10.768  0.0236  0.5642  0.1121
  394TMC3    C4 5939   3.069   0.781  10.859  0.1117  0.2112 -0.5436
  394TMC3    C5 5940   3.050   0.755  10.726 -0.2136  1.1632  0.0273
  394TMC3    C6 5941   2.933   0.696  10.679 -0.4954  0.6026  0.4885
  394TMC3     C 5942   2.996   0.739  11.087  0.9220  0.2914  0.1444
  394TMC3     O 5943   2.927   0.651  11.141  0.5227 -0.2966  0.0678
  394TMC3     H 5944   2.762   0.688  10.963 -0.5621 -1.2123 -0.5854
  394TMC3    H1 5945   3.162   0.826  10.892 -0.4244  1.1130 -0.2834
  394TMC3    H2 5946   2.924   0.678  10.572  0.4761  0.5659  0.4103
  394TMC3    C7 5947   3.163   0.760  10.642  0.4944  0.9105 -0.4021
  394TMC3    C8 5948   2.729   0.583  10.730 -0.2972 -0.2890 -0.1930
  394TMC3    O1 5949   3.135   0.765  10.522  0.2082  0.3275 -0.2154
  394TMC3    O2 5950   2.622   0.604  10.778  0.3451 -0.3269  0.1652
  395TMC3    C1 5951   3.651   2.213  14.653 -0.1124 -0.1252  0.3270
  395TMC3    C2 5952   3.554   2.161  14.578  0.3606  1.1145 -0.7032
  395TMC3    C3 5953   3.502   2.240  14.473  0.0848 -0.6068 -0.6305
  395TMC3    C4 5954   3.703   2.337  14.633  0.4230  0.4894 -0.5326
  395TMC3    C5 5955   3.662   2.403  14.520 -0.7020 -0.4207 -0.1679
  395TMC3    C6 5956   3.559   2.357  14.439 -0.1771 -0.1773 -0.0830
  395TMC3     C 5957   3.708   2.125  14.748 -0.6451 -0.0105  0.4369
  395TMC3     O 5958   3.718   2.006  14.718  0.7462  0.8116  0.3305
  395TMC3     H 5959   3.520   2.059  14.593  0.8093  1.0513 -0.1292
  395TMC3    H1 5960   3.795   2.374  14.675 -1.3361  2.8511  1.2714
  395TMC3    H2 5961   3.525   2.403  14.346 -0.8433 -1.8406 -0.6705
  395TMC3    C7 5962   3.718   2.540  14.499  0.3995  0.5810 -0.5560
  395TMC3    C8 5963   3.398   2.181  14.384 -0.6376  0.5243  0.3585
  395TMC3    O1 5964   3.818   2.577  14.561 -0.0407  0.7765 -0.0214
  395TMC3    O2 5965   3.383   2.246  14.277  0.0654  0.3851  0.7121
  396MPD2     C 5966   2.474   3.608  16.644  0.4089  0.0651 -0.5982
  396MPD2    C1 5967   2.585   3.525  16.637 -0.2085  0.1673  0.2872
  396MPD2    C2 5968   2.689   3.572  16.557  0.2496  0.2412  0.8774
  396MPD2    C3 5969   2.682   3.701  16.502  0.0593 -0.4148 -0.1053
  396MPD2    C4 5970   2.569   3.780  16.510  0.1341  1.0082  0.6278
  396MPD2    C5 5971   2.471   3.736  16.594 -0.1458  0.5158  0.0873
  396MPD2     H 5972   2.779   3.515  16.537  0.1993  0.1532  0.9005
  396MPD2    H1 5973   2.553   3.882  16.476  1.0223  0.1269 -2.3629
  396MPD2    H2 5974   2.394   3.579  16.712 -0.3175 -0.6103 -1.7229
  396MPD2    H3 5975   2.382   3.793  16.621 -0.8631 -1.1310  1.2269
  396MPD2     N 5976   2.797   3.749  16.437 -0.4787 -0.2057  0.2938
  396MPD2    H5 5977   2.880   3.694  16.458 -0.0908  0.3813  0.2871
  396MPD2    N1 5978   2.579   3.394  16.688 -0.6066 -0.2842  0.1342
  396MPD2    H7 5979   2.482   3.363  16.694 -0.3476 -1.2957 -0.9882
  397TMC3    C1 5980   2.640   3.166  16.672 -0.1436 -0.8595  1.1160
  397TMC3    C2 5981   2.652   3.135  16.538  0.3363 -0.2964 -1.1560
  397TMC3    C3 5982   2.650   2.998  16.507  0.8852 -0.0774 -0.2818
  397TMC3    C4 5983   2.671   3.075  16.771  0.2168  0.3217  0.2269
  397TMC3    C5 5984   2.677   2.945  16.731 -0.2501 -0.0006  0.6518
  397TMC3    C6 5985   2.663   2.904  16.603 -0.3654  1.0893 -0.1385
  397TMC3     C 5986   2.678   3.302  16.697 -0.5283  0.4890 -0.6111
  397TMC3     O 5987   2.797   3.322  16.714 -0.3084  0.0231 -0.3362
  397TMC3     H 5988   2.598   3.202  16.473  0.3042  0.7752 -0.0207
  397TMC3    H1 5989   2.664   3.098  16.877 -0.2008  1.2031  0.0042
  397TMC3    H2 5990   2.667   2.801  16.571  0.7376  1.2621 -0.5803
  397TMC3    C7 5991   2.701   2.843  16.832 -0.3452  0.2279  0.0113
  397TMC3    C8 5992   2.684   2.967  16.370 -0.1676  0.9679  0.0372
  397TMC3    O1 5993   2.652   2.732  16.815  0.4125 -1.0895 -0.0595
  397TMC3    O2 5994   2.626   2.877  16.315 -0.2919 -0.6321 -0.6012
  398MPD2     C 5995   1.271   0.346  17.646 -0.0120 -0.0533  0.0573
  398MPD2    C1 5996   1.330   0.252  17.726 -0.6039  0.0404 -0.5902
  398MPD2    C2 5997   1.420   0.299   0.069  0.3127  0.3288 -0.2444
  398MPD2    C3 5998   1.449   0.435   0.080 -0.1370  0.1086  0.0287
  398MPD2    C4 5999   1.375   0.524   0.015  0.3153 -0.6168  0.8905
  398MPD2    C5 6000   1.282   0.481  17.668 -0.4635  0.9355  0.1971
  398MPD2     H 6001   1.476   0.226   0.126 -0.5488  0.0514  0.2416
  398MPD2    H1 6002   1.368   0.628   0.044 -1.6656 -0.3033 -0.7171
  398MPD2    H2 6003   1.205   0.321  17.564 -0.3592 -0.2946  0.4120
  398MPD2    H3 6004   1.221   0.558  17.622 -0.6168  1.1417  0.7478
  398MPD2     N 6005   1.564   0.459   0.157 -0.2775 -0.3212 -0.4346
  398MPD2    H5 6006   1.602   0.371   0.190  1.5756  0.5262 -0.3610
  398MPD2    N1 6007   1.307   0.113  17.717 -0.1359 -0.7031  0.2348
  398MPD2    H7 6008   1.354   0.063   0.045 -0.6691 -0.8639  0.4679
  399TMC3    C1 6009   1.332   4.644  17.622  0.6097  0.2123  0.4715
  399TMC3    C2 6010   1.403   4.607  17.735  0.1468 -0.3701 -0.6252
  399TMC3    C3 6011   1.488   4.499  17.734  0.6047  0.4822 -0.9785
  399TMC3    C4 6012   1.322   4.556  17.518 -0.3221 -0.6993  0.6180
  399TMC3    C5 6013   1.394   4.438  17.524 -0.4147 -0.3741 -0.8288
  399TMC3    C6 6014   1.482   4.409  17.627  0.4343 -0.4445 -0.1695
  399TMC3     C 6015   1.262   0.038  17.611 -0.1607  0.9497  0.3321
  399TMC3     O 6016   1.224   0.082  17.503  0.2904  0.1608 -0.3095
  399TMC3     H 6017   1.422   4.672   0.073 -0.0646 -0.2291 -0.6850
  399TMC3    H1 6018   1.251   4.571  17.437 -1.0187 -1.6082  1.0539
  399TMC3    H2 6019   1.531   4.313  17.638 -0.0492 -0.5849  0.7780
  399TMC3    C7 6020   1.351   4.326  17.447 -0.4825  0.4976  0.1508
  399TMC3    C8 6021   1.590   4.487   0.095  0.4327  0.7818  0.7642
  399TMC3    O1 6022   1.332   4.221  17.514  0.0367 -0.4593  0.0099
  399TMC3    O2 6023   1.565   4.549   0.196  0.0859 -0.3049  0.2593
  400TMC3    C1 6024   4.680   2.857  17.111 -0.6359 -0.4750  0.3765
  400TMC3    C2 6025   4.550   2.904  17.090 -0.4049 -0.2350 -0.6303
  400TMC3    C3 6026   4.530   3.030  17.044 -0.6421  0.2549 -0.2485
  400TMC3    C4 6027   0.044   2.941  17.087 -0.1817 -0.3336 -0.0898
  400TMC3    C5 6028   0.016   3.071  17.051  0.2809  0.0974  0.0974
  400TMC3    C6 6029   4.627   3.116  17.023  0.2060 -0.4971 -0.1653
  400TMC3     C 6030   4.698   2.718  17.136  0.0424 -0.7995 -0.6403
  400TMC3     O 6031   4.604   2.658  17.191 -0.2233 -0.2343  0.0970
  400TMC3     H 6032   4.466   2.838  17.113 -0.4094 -0.2765 -0.7649
  400TMC3    H1 6033   0.145   2.910  17.114  0.5400  1.6681 -0.5048
  400TMC3    H2 6034   4.613   3.223  17.010  4.1627 -0.0343 -0.6226
  400TMC3    C7 6035   0.120   3.172  17.059  0.4810 -0.2915 -0.0259
  400TMC3    C8 6036   4.406   3.072  16.976  0.1813  0.3018 -0.3858
  400TMC3    O1 6037   0.237   3.129  17.068  0.2228  0.1605 -0.2409
  400TMC3    O2 6038   4.382   3.194  16.975  0.1990 -0.2614 -0.2112
  401MPD2     C 6039   3.190   2.032   0.604  0.4589 -0.3880 -0.8852
  401MPD2    C1 6040   3.200   1.912   0.678 -0.5721 -0.3538  0.2423
  401MPD2    C2 6041   3.129   1.801   0.635  0.7257  0.2495  0.6459
  401MPD2    C3 6042   3.072   1.803   0.505 -0.5257  0.0386  0.4052
  401MPD2    C4 6043   3.064   1.919   0.443  0.4572 -0.1146  0.1990
  401MPD2    C5 6044   3.117   2.033   0.490 -0.0808  0.2270 -0.4074
  401MPD2     H 6045   3.139   1.702   0.677 -1.2365 -0.1262  0.2206
  401MPD2    H1 6046   3.022   1.929   0.344  0.7366 -1.6938 -0.0898
  401MPD2    H2 6047   3.237   2.125   0.634 -0.2920  0.6972 -3.0774
  401MPD2    H3 6048   3.100   2.131   0.447 -3.2118 -0.4785 -0.8198
  401MPD2     N 6049   3.022   1.677   0.454  0.0107  0.2840  0.0857
  401MPD2    H5 6050   3.051   1.594   0.505  1.4769  0.2146 -0.8672
  401MPD2    N1 6051   3.288   1.890   0.793  0.2894  0.2541  0.1039
  401MPD2    H7 6052   3.269   1.805   0.846 -0.0439 -0.5294 -1.2742
  402TMC3    C1 6053   2.922   1.525   0.326 -0.0906 -0.2031  0.3719
  402TMC3    C2 6054   2.890   1.448   0.434  0.2674  0.6374 -0.2970
  402TMC3    C3 6055   2.890   1.311   0.424 -0.0752  0.4863  0.1043
  402TMC3    C4 6056   2.933   1.469   0.202  0.7415 -0.0078 -0.3841
  402TMC3    C5 6057   2.942   1.332   0.201  0.0900  0.0966  0.3885
  402TMC3    C6 6058   2.923   1.244   0.312  0.2961 -0.1433 -0.5074
  402TMC3     C 6059   2.948   1.661   0.343 -0.0888  0.0257  0.1291
  402TMC3     O 6060   2.916   1.745   0.260 -0.5793 -0.0799  0.2474
  402TMC3     H 6061   2.867   1.499   0.527  0.8476 -0.3217  0.3707
  402TMC3    H1 6062   2.939   1.537   0.118  1.9687 -1.0804 -1.1734
  402TMC3    H2 6063   2.926   1.137   0.298  2.3868  0.0148 -1.2493
  402TMC3    C7 6064   3.025   1.275   0.099  0.2674  0.0468 -0.2486
  402TMC3    C8 6065   2.914   1.237   0.544  0.2604 -0.0313 -0.3436
  402TMC3    O1 6066   3.045   1.337  17.738 -0.2734  0.2720  0.1080
  402TMC3    O2 6067   2.985   1.143   0.536 -0.1095 -0.1622  0.1671
  403MPD2     C 6068   1.016   4.608  13.167  0.2681  0.1198 -0.3565
  403MPD2    C1 6069   0.957   4.614  13.290  0.3066 -0.5388  0.1751
  403MPD2    C2 6070   1.033   4.645  13.402 -0.5646  0.1198  0.0098
  403MPD2    C3 6071   1.171   4.660  13.393  0.6357 -0.2605 -0.1031
  403MPD2    C4 6072   1.236   4.660  13.268  0.2118  0.5573 -0.0881
  403MPD2    C5 6073   1.157   4.629  13.159  0.7937 -0.3225 -0.0782
  403MPD2     H 6074   0.981   4.649  13.497  0.3406  0.3497  0.4923
  403MPD2    H1 6075   1.341   4.680  13.249  0.0352  2.0283  0.4575
  403MPD2    H2 6076   0.958   4.570  13.084 -0.9178 -1.7324  1.3104
  403MPD2    H3 6077   1.196   4.638  13.058 -0.9352  3.0150 -0.4421
  403MPD2     N 6078   1.242   4.662  13.516 -0.5429  0.5210  0.2627
  403MPD2    H5 6079   1.182   4.668  13.597  0.8119 -0.8434  1.3952
  403MPD2    N1 6080   0.828   4.554  13.298  0.2199  0.1629  0.2515
  403MPD2    H7 6081   0.783   4.532  13.210  0.9911  0.8330 -0.3173
  404TMC3    C1 6082   0.774   4.348  13.393  0.3369 -0.0584 -0.0918
  404TMC3    C2 6083   0.821   4.274  13.504 -0.1008  0.4984 -0.4431
  404TMC3    C3 6084   0.891   4.168  13.474 -0.0041 -0.3446  0.0427
  404TMC3    C4 6085   0.777   4.310  13.259 -0.4668  0.4097  0.1789
  404TMC3    C5 6086   0.851   4.195  13.240  0.2201 -0.1367  0.0836
  404TMC3    C6 6087   0.912   4.129  13.343  1.1296  0.1089  0.2928
  404TMC3     C 6088   0.780   4.495  13.414 -0.6444  0.1495  0.2317
  404TMC3     O 6089   0.798   4.530  13.531  0.6449 -0.1670 -0.2391
  404TMC3     H 6090   0.822   4.317  13.603 -0.1947  1.6883 -0.9662
  404TMC3    H1 6091   0.739   4.370  13.176 -0.4967 -0.4836 -0.4494
  404TMC3    H2 6092   0.965   4.037  13.321 -0.7451 -0.7554 -0.5158
  404TMC3    C7 6093   0.899   4.160  13.113  0.3634  0.4954 -0.4744
  404TMC3    C8 6094   0.961   4.101  13.577 -0.5412 -0.1872 -0.1595
  404TMC3    O1 6095   1.006   4.099  13.111 -0.4860  0.2101  0.3446
  404TMC3    O2 6096   1.046   4.029  13.529 -0.2214  0.7686  0.1340
  405MPD2     C 6097   1.513   0.470  14.746 -0.4684 -0.3291  0.2958
  405MPD2    C1 6098   1.425   0.413  14.654  0.4694 -0.3579 -0.6094
  405MPD2    C2 6099   1.309   0.471  14.620 -0.7424  0.6568 -0.2045
  405MPD2    C3 6100   1.290   0.600  14.661  0.8068  0.1771 -0.0524
  405MPD2    C4 6101   1.374   0.661  14.747  0.1680  0.4475  0.1696
  405MPD2    C5 6102   1.480   0.590  14.795  0.0284 -0.0472  0.0484
  405MPD2     H 6103   1.236   0.426  14.553  0.1111  0.7115 -1.1709
  405MPD2    H1 6104   1.355   0.758  14.790  1.8217  0.4305  0.9248
  405MPD2    H2 6105   1.605   0.422  14.778  0.3063  1.0550  0.1424
  405MPD2    H3 6106   1.547   0.634  14.868 -0.4341  0.7082  0.0200
  405MPD2     N 6107   1.174   0.660  14.613  0.5774 -0.3532 -0.3063
  405MPD2    H5 6108   1.130   0.610  14.537 -1.0688 -1.6847  1.4910
  405MPD2    N1 6109   1.461   0.282  14.607 -0.3893 -0.2975  0.1580
  405MPD2    H7 6110   1.548   0.243  14.642 -0.6882 -2.0062 -0.9968
  406TMC3    C1 6111   0.751   0.835  14.623 -0.4689  0.1088 -0.2616
  406TMC3    C2 6112   0.712   0.711  14.593  0.7826  0.0387 -0.6065
  406TMC3    C3 6113   0.799   0.606  14.587  0.7210  0.4500  0.3708
  406TMC3    C4 6114   0.884   0.852  14.643  0.0368 -0.2324 -0.2652
  406TMC3    C5 6115   0.967   0.744  14.640 -0.4434 -0.0431  0.0851
  406TMC3    C6 6116   0.929   0.618  14.612 -0.1276  0.1611 -0.0248
  406TMC3     C 6117   0.682   0.951  14.566 -0.4126 -0.0231 -0.0688
  406TMC3     O 6118   0.710   1.056  14.621 -0.0054  0.3436 -0.4125
  406TMC3     H 6119   0.611   0.685  14.561  0.8854 -1.5641  0.3679
  406TMC3    H1 6120   0.921   0.951  14.664 -1.4475 -0.2404  2.3201
  406TMC3    H2 6121   0.986   0.530  14.636  0.1424  1.2055  3.0760
  406TMC3    C7 6122   1.108   0.761  14.674  0.0192 -0.2362  0.4417
  406TMC3    C8 6123   0.749   0.470  14.560  0.2236 -1.0863  0.1254
  406TMC3    O1 6124   1.147   0.850  14.750 -0.3981 -0.0438 -0.0908
  406TMC3    O2 6125   0.638   0.444  14.608  0.3033 -0.0833 -0.2973
  407MPD2     C 6126   3.409   2.282  10.016 -0.1712  0.9690  0.3562
  407MPD2    C1 6127   3.394   2.385   9.924  0.3461 -0.1139  0.4295
  407MPD2    C2 6128   3.374   2.511   9.970  0.0065 -0.1784 -0.0029
  407MPD2    C3 6129   3.379   2.543  10.106 -0.3426  0.1215 -0.1065
  407MPD2    C4 6130   3.385   2.436  10.196  0.2941  0.0893 -0.6881
  407MPD2    C5 6131   3.396   2.308  10.149 -0.5648 -0.8098 -0.8966
  407MPD2     H 6132   3.369   2.591   9.897 -0.1134  2.0502  2.4265
  407MPD2    H1 6133   3.394   2.450  10.303  1.1575 -0.3093 -0.7074
  407MPD2    H2 6134   3.430   2.182   9.980 -0.7274  1.0627 -0.2196
  407MPD2    H3 6135   3.415   2.221  10.210 -1.8028  0.2849  1.0400
  407MPD2     N 6136   3.369   2.667  10.171  0.2152 -0.4932  0.4252
  407MPD2    H5 6137   3.373   2.670  10.272 -1.7032  0.0451  0.4860
  407MPD2    N1 6138   3.417   2.370   9.781  0.0403 -0.1827 -0.0157
  407MPD2    H7 6139   3.416   2.447   9.714 -1.5655  1.4697  1.8854
  408TMC3    C1 6140   3.487   2.254   9.592  0.0897 -0.1691  0.1975
  408TMC3    C2 6141   3.547   2.144   9.542  0.5666  0.0147 -0.5253
  408TMC3    C3 6142   3.644   2.152   9.447 -0.0569  0.5049 -0.3507
  408TMC3    C4 6143   3.535   2.377   9.553 -0.0432 -0.4227 -0.0502
  408TMC3    C5 6144   3.628   2.382   9.451  0.2830 -0.4461  0.2582
  408TMC3    C6 6145   3.682   2.271   9.393  0.2722 -0.3997  0.3547
  408TMC3     C 6146   3.439   2.242   9.730  0.4728 -0.3728 -0.1567
  408TMC3     O 6147   3.417   2.127   9.774 -0.3785 -0.0535 -0.4752
  408TMC3     H 6148   3.537   2.048   9.592 -1.0071  1.0647  1.1637
  408TMC3    H1 6149   3.506   2.472   9.596 -2.5592 -0.3885 -1.8420
  408TMC3    H2 6150   3.768   2.270   9.326  0.9859 -3.0679  1.3120
  408TMC3    C7 6151   3.728   2.478   9.468 -0.0597  0.0256 -0.0619
  408TMC3    C8 6152   3.730   2.038   9.433  0.5997  0.3480 -0.1795
  408TMC3    O1 6153   3.841   2.435   9.479 -0.3891 -0.1050  0.0875
  408TMC3    O2 6154   3.688   1.930   9.399 -0.1915  0.2185 -0.3900
  409MPD2     C 6155   3.563   2.651  17.428  0.3482 -0.0397  0.1094
  409MPD2    C1 6156   3.689   2.665  17.483 -0.8928 -0.0415 -0.0646
  409MPD2    C2 6157   3.756   2.780  17.453  0.2655  0.8492  0.0238
  409MPD2    C3 6158   3.700   2.886  17.382 -0.0117  0.5131 -0.0362
  409MPD2    C4 6159   3.576   2.869  17.324 -0.1681  1.0243  0.2212
  409MPD2    C5 6160   3.510   2.752  17.351  0.3469  0.2441  0.2644
  409MPD2     H 6161   3.858   2.790  17.490  0.5571  0.0057 -0.5726
  409MPD2    H1 6162   3.538   2.946  17.258 -2.5615 -0.2987  0.0367
  409MPD2    H2 6163   3.511   2.559  17.453 -0.1743 -0.1415 -1.3871
  409MPD2    H3 6164   3.408   2.735  17.318  1.6827 -0.6658 -3.3929
  409MPD2     N 6165   3.770   3.008  17.361  0.5767  0.2052 -0.0630
  409MPD2    H5 6166   3.708   3.068  17.307 -0.7142 -0.0654  1.1228
  409MPD2    N1 6167   3.753   2.561  17.559  0.5317 -0.6018  0.3229
  409MPD2    H7 6168   3.846   2.582  17.594  1.0777 -1.1410 -0.7693
  410TMC3    C1 6169   3.948   3.157  17.343 -0.0702  0.0397 -0.0149
  410TMC3    C2 6170   4.083   3.181  17.361 -0.7529 -0.9636  0.4024
  410TMC3    C3 6171   4.149   3.262  17.269  0.2393  0.0056  0.3794
  410TMC3    C4 6172   3.883   3.213  17.239 -0.3702  0.2951  1.0459
  410TMC3    C5 6173   3.952   3.286  17.152  0.0424 -0.1010  0.0519
  410TMC3    C6 6174   4.083   3.318  17.165  0.3580  0.0448 -0.6343
  410TMC3     C 6175   3.884   3.049  17.423 -0.1749 -0.2266 -0.8309
  410TMC3     O 6176   3.959   2.990  17.496  0.1924  0.2902  0.7626
  410TMC3     H 6177   4.145   3.133  17.436 -1.9804 -1.7934  0.8691
  410TMC3    H1 6178   3.781   3.194  17.209  0.3815  0.4771 -1.6422
  410TMC3    H2 6179   4.139   3.363  17.084 -1.2527 -0.4752 -2.0398
  410TMC3    C7 6180   3.907   3.282  17.025 -0.3662 -0.4823 -0.3233
  410TMC3    C8 6181   4.292   3.289  17.282  0.8819  0.1983  0.0022
  410TMC3    O1 6182   3.828   3.196  16.998 -0.3741  0.4655  0.0067
  410TMC3    O2 6183   4.338   3.394  17.236  0.3638 -0.2739 -0.1614
  411MPD2     C 6184   2.892   3.183  13.724 -0.1122 -0.3625  0.9116
  411MPD2    C1 6185   2.862   3.185  13.862  0.5752 -0.7223 -0.2929
  411MPD2    C2 6186   2.751   3.127  13.903  0.3708 -0.0386  0.1978
  411MPD2    C3 6187   2.669   3.063  13.814 -0.6778  0.4046  0.3832
  411MPD2    C4 6188   2.695   3.060  13.678 -0.1734  0.1475 -0.0579
  411MPD2    C5 6189   2.813   3.113  13.637 -0.0981  1.0634  0.0872
  411MPD2     H 6190   2.728   3.132  14.009  0.6505 -2.2422  0.3762
  411MPD2    H1 6191   2.646   2.993  13.608  2.1495  0.5386 -2.0630
  411MPD2    H2 6192   2.984   3.222  13.683 -1.2792  0.3512 -1.0500
  411MPD2    H3 6193   2.845   3.120  13.533  0.3564 -1.3915  0.0542
  411MPD2     N 6194   2.562   2.982  13.850 -0.1075 -0.6257  0.7114
  411MPD2    H5 6195   2.527   2.934  13.768 -1.2533 -0.7295  1.2641
  411MPD2    N1 6196   2.952   3.256  13.944  0.5290  0.0181  0.5004
  411MPD2    H7 6197   3.035   3.296  13.901  0.3177 -0.0790  0.0106
  412TMC3    C1 6198   2.432   2.831  13.969 -0.1532  0.3698  0.2502
  412TMC3    C2 6199   2.388   2.777  13.848  0.6498 -0.1250 -1.0069
  412TMC3    C3 6200   2.357   2.640  13.840 -0.7599 -1.1396 -0.0047
  412TMC3    C4 6201   2.430   2.757  14.085  0.9610 -0.1807  0.1653
  412TMC3    C5 6202   2.414   2.623  14.068  0.5877 -0.0970 -0.5159
  412TMC3    C6 6203   2.369   2.560  13.949  0.6797  0.5446 -0.2385
  412TMC3     C 6204   2.521   2.947  13.974 -0.0902  0.1235  0.5230
  412TMC3     O 6205   2.579   2.973  14.079 -0.2805  0.9045 -0.2249
  412TMC3     H 6206   2.405   2.822  13.752  2.1995  1.0486 -0.1734
  412TMC3    H1 6207   2.475   2.798  14.174  0.5018 -0.4632  0.5247
  412TMC3    H2 6208   2.343   2.455  13.945  0.7792  0.4816  0.9231
  412TMC3    C7 6209   2.542   2.561  14.104 -0.0318  0.1770 -0.2291
  412TMC3    C8 6210   2.369   2.570  13.718  0.0793  0.0523 -1.2201
  412TMC3    O1 6211   2.577   2.575  14.218  0.0789  0.0993 -0.1716
  412TMC3    O2 6212   2.418   2.459  13.750  0.1003 -0.3918 -0.0891
  413MPD2     C 6213   0.562   1.904  15.125 -0.0077  0.4707 -0.1090
  413MPD2    C1 6214   0.485   1.810  15.058  0.9851 -0.8593 -1.0017
  413MPD2    C2 6215   0.539   1.687  15.026  0.1073  0.0172 -0.6917
  413MPD2    C3 6216   0.663   1.649  15.072  0.7279 -0.0323 -0.3659
  413MPD2    C4 6217   0.739   1.746  15.137  0.5045  0.3808  0.1200
  413MPD2    C5 6218   0.690   1.871  15.165 -0.1656 -0.2503  0.3861
  413MPD2     H 6219   0.485   1.622  14.958  0.1137 -0.4292 -0.2666
  413MPD2    H1 6220   0.832   1.708  15.177 -0.6514  1.1592  3.5685
  413MPD2    H2 6221   0.522   2.000  15.158  0.9213  0.6784  0.4179
  413MPD2    H3 6222   0.750   1.937  15.226 -1.5815  1.5407 -0.1867
  413MPD2     N 6223   0.703   1.518  15.063 -0.0458 -0.9211 -0.3323
  413MPD2    H5 6224   0.638   1.452  15.020 -0.1473 -0.6124 -0.6498
  413MPD2    N1 6225   0.360   1.860  15.014 -0.8402  0.2038 -0.1185
  413MPD2    H7 6226   0.331   1.956  15.033 -0.0310  0.2598  0.8474
  414TMC3    C1 6227   0.838   1.316  15.063  0.3113  0.4117 -0.3479
  414TMC3    C2 6228   0.913   1.251  15.152 -0.3525  0.3846  0.0004
  414TMC3    C3 6229   0.984   1.142  15.112 -0.0235  0.4963  0.1701
  414TMC3    C4 6230   0.827   1.279  14.932  0.2686  0.5132  0.5734
  414TMC3    C5 6231   0.901   1.171  14.893  0.3768 -0.4224  0.6364
  414TMC3    C6 6232   0.978   1.094  14.979  0.8356  0.0835  0.3777
  414TMC3     C 6233   0.829   1.462  15.093 -0.2497  0.2497  0.4569
  414TMC3     O 6234   0.932   1.514  15.136  0.0123  0.2693 -0.1188
  414TMC3     H 6235   0.906   1.276  15.257  0.3228  1.2169 -0.1498
  414TMC3    H1 6236   0.789   1.349  14.859 -0.1654  0.9958  1.2657
  414TMC3    H2 6237   1.026   1.004  14.941 -0.6960 -0.7988  0.5365
  414TMC3    C7 6238   0.975   1.209  14.771  0.3600 -0.0362 -0.0427
  414TMC3    C8 6239   1.058   1.048  15.197 -0.0503 -0.7938  0.4790
  414TMC3    O1 6240   0.926   1.291  14.696 -0.3373 -0.1005  0.1441
  414TMC3    O2 6241   1.037   0.926  15.174  0.5283 -0.5521  0.2794
  415TMC3    C1 6242   1.511   4.636   9.663 -0.0811  0.6835 -0.2135
  415TMC3    C2 6243   1.635   4.681   9.628  0.5121 -0.1216  0.3126
  415TMC3    C3 6244   1.736   4.587   9.606  0.4592  0.5102  0.2774
  415TMC3    C4 6245   1.482   4.498   9.660  0.2356 -0.5517  0.1930
  415TMC3    C5 6246   1.585   4.409   9.630  0.0132  0.2843  0.6680
  415TMC3    C6 6247   1.711   4.456   9.609 -0.2689 -0.2268  0.1723
  415TMC3     C 6248   1.413   4.730   9.711 -0.8914  0.0223  0.3149
  415TMC3     O 6249   1.314   4.675   9.762 -0.2483  0.2443 -0.4250
  415TMC3     H 6250   1.672   0.046   9.631 -0.0718  0.1143 -0.5013
  415TMC3    H1 6251   1.377   4.473   9.672 -0.2974  0.8307 -1.5638
  415TMC3    H2 6252   1.794   4.396   9.573 -1.1007 -0.1054 -1.9816
  415TMC3    C7 6253   1.571   4.273   9.587  0.1889  0.4128 -0.0768
  415TMC3    C8 6254   1.876   4.626   9.596  0.9846 -0.8813 -0.1998
  415TMC3    O1 6255   1.663   4.203   9.550 -0.2869 -0.2131 -0.3826
  415TMC3    O2 6256   1.953   4.561   9.529  0.4567  0.7800  0.1402
  416MPD2     C 6257   2.885   3.154  11.800 -0.2458 -0.1645  0.3429
  416MPD2    C1 6258   2.761   3.141  11.738 -0.0630  0.0514  0.4043
  416MPD2    C2 6259   2.753   3.059  11.625 -0.4459 -0.4566  0.3265
  416MPD2    C3 6260   2.860   2.992  11.567 -0.1978  0.3689 -0.0068
  416MPD2    C4 6261   2.973   2.996  11.645  0.3554  0.0061 -0.1462
  416MPD2    C5 6262   2.993   3.084  11.752  0.7420 -0.0116  0.4826
  416MPD2     H 6263   2.657   3.041  11.579  0.0476 -1.3929 -0.3568
  416MPD2    H1 6264   3.063   2.952  11.602  0.0185  0.2095 -1.0627
  416MPD2    H2 6265   2.913   3.217  11.884  0.2593  0.9997 -0.6965
  416MPD2    H3 6266   3.087   3.094  11.805  0.2441 -0.0249  1.3696
  416MPD2     N 6267   2.845   2.899  11.461 -0.4758  0.2674  0.1757
  416MPD2    H5 6268   2.907   2.821  11.443 -0.4520  0.3532 -0.1180
  416MPD2    N1 6269   2.650   3.199  11.804  0.6309  0.2480  0.0493
  416MPD2    H7 6270   2.667   3.261  11.883  1.4947  0.4613 -0.3101
  417TMC3    C1 6271   2.421   3.238  11.871 -0.0655 -0.1472  0.6693
  417TMC3    C2 6272   2.462   3.274  12.001 -0.3055 -0.9123  0.4806
  417TMC3    C3 6273   2.380   3.361  12.066 -0.5000 -0.2100 -0.6627
  417TMC3    C4 6274   2.297   3.266  11.818 -0.4883 -0.2425  0.0877
  417TMC3    C5 6275   2.223   3.357  11.884  0.0871 -0.0404  0.0981
  417TMC3    C6 6276   2.267   3.408  12.000  0.0913 -0.1321 -0.0608
  417TMC3     C 6277   2.518   3.174  11.775  0.0499 -0.1820 -0.0110
  417TMC3     O 6278   2.462   3.105  11.688 -0.3393  0.0748 -0.3803
  417TMC3     H 6279   2.546   3.218  12.041  0.4664  0.1241  0.3150
  417TMC3    H1 6280   2.278   3.237  11.716 -0.8968  2.3009 -0.5463
  417TMC3    H2 6281   2.211   3.479  12.060  0.2758  0.7791 -0.9650
  417TMC3    C7 6282   2.151   3.448  11.799 -0.2717 -0.2657 -0.0403
  417TMC3    C8 6283   2.394   3.402  12.199  0.4936  0.0224  0.4126
  417TMC3    O1 6284   2.171   3.567  11.798 -0.3677  0.3472 -0.6444
  417TMC3    O2 6285   2.299   3.455  12.253 -0.0707 -0.0248 -0.1793
  418TMC3    C1 6286   1.954   0.675   0.264 -0.6088 -0.2876  0.7446
  418TMC3    C2 6287   1.821   0.684   0.223 -0.3676  0.1094 -1.0700
  418TMC3    C3 6288   1.736   0.581   0.260 -0.0813 -0.4296  0.5392
  418TMC3    C4 6289   1.999   0.573   0.339  0.0096 -0.2630  0.2106
  418TMC3    C5 6290   1.905   0.472   0.378  0.0401 -1.0327  0.2155
  418TMC3    C6 6291   1.775   0.466   0.318 -0.0421 -0.6492 -0.8719
  418TMC3     C 6292   2.043   0.757   0.184 -0.1820 -0.5938 -0.4240
  418TMC3     O 6293   2.000   0.862   0.133  0.6874  0.2507  0.7988
  418TMC3     H 6294   1.784   0.757   0.151  1.9894  1.5700 -0.7875
  418TMC3    H1 6295   2.100   0.581   0.377  1.2786 -1.5638 -2.9163
  418TMC3    H2 6296   1.715   0.384   0.357 -2.3772  1.4258 -0.0817
  418TMC3    C7 6297   1.952   0.352   0.440 -0.9323  0.3725  0.2568
  418TMC3    C8 6298   1.608   0.581   0.192  0.4222 -1.2681  0.3016
  418TMC3    O1 6299   1.896   0.248   0.408 -0.2303  0.5218 -0.0316
  418TMC3    O2 6300   1.574   0.686   0.139  0.1391  0.2132 -0.0125
  419MPD2     C 6301   4.524   2.984  12.912 -0.7758 -0.2822  0.3316
  419MPD2    C1 6302   4.496   3.091  12.828 -0.6912 -0.3956 -0.2262
  419MPD2    C2 6303   4.525   3.216  12.871  0.1114  0.2131  0.1533
  419MPD2    C3 6304   4.573   3.234  12.996  0.1830 -0.9090  0.6266
  419MPD2    C4 6305   4.612   3.129  13.085 -0.2175 -0.1878  0.3692
  419MPD2    C5 6306   4.583   3.003  13.033  0.6168  1.0162 -0.3649
  419MPD2     H 6307   4.486   3.302  12.817 -0.1547  0.5684  0.9184
  419MPD2    H1 6308   4.643   3.147  13.187 -2.0288  3.1205  0.3372
  419MPD2    H2 6309   4.494   2.881  12.891  0.3379 -0.4228 -0.5823
  419MPD2    H3 6310   4.587   2.918  13.099  0.3187  1.8898  0.7814
  419MPD2     N 6311   4.582   3.367  13.035 -0.3568  0.0083  0.2508
  419MPD2    H5 6312   4.573   3.444  12.970 -3.1508 -0.1047  0.4794
  419MPD2    N1 6313   4.433   3.084  12.697  0.4735  0.6049 -0.1144
  419MPD2    H7 6314   4.428   3.171  12.644  0.8322 -0.0359 -1.1915
  420TMC3    C1 6315   4.527   3.549  13.169  0.1385  0.2031  0.9269
  420TMC3    C2 6316   4.412   3.574  13.099  0.2527  0.1650  0.2436
  420TMC3    C3 6317   4.333   3.683  13.138  0.1705 -0.5172 -0.2811
  420TMC3    C4 6318   4.564   3.628  13.273 -0.1006  0.6751  0.1503
  420TMC3    C5 6319   4.487   3.737  13.303  0.1671 -0.3130  0.5023
  420TMC3    C6 6320   4.367   3.766  13.239  0.5731  0.0486  0.3849
  420TMC3     C 6321   4.580   3.412  13.166 -0.1411  0.6311  0.2926
  420TMC3     O 6322   4.598   3.359  13.275 -0.3107  0.2933 -0.2699
  420TMC3     H 6323   4.371   3.517  13.016  0.3159  1.4351 -0.6609
  420TMC3    H1 6324   4.647   3.594  13.334 -0.2189  1.2619  0.6392
  420TMC3    H2 6325   4.303   3.846  13.276  0.0323  0.5261 -1.5764
  420TMC3    C7 6326   4.486   3.757  13.444  0.3173  0.4288  1.0005
  420TMC3    C8 6327   4.237   3.713  13.040  0.2310  0.3113 -0.2644
  420TMC3    O1 6328   4.482   3.870  13.488 -0.5659 -0.4697  0.1834
  420TMC3    O2 6329   4.211   3.829  13.018  0.1509  0.1492  0.5850
  421TMC3    C1 6330   1.403   4.596  13.675 -0.0226 -0.3838 -0.1431
  421TMC3    C2 6331   1.337   4.654  13.780  0.1382 -0.3082  0.6928
  421TMC3    C3 6332   1.357   4.615  13.907 -0.2555 -0.2206  0.0899
  421TMC3    C4 6333   1.511   4.518  13.707 -0.1451 -0.1607 -0.1499
  421TMC3    C5 6334   1.537   4.483  13.835  0.4721  0.3614  0.5666
  421TMC3    C6 6335   1.454   4.526  13.941 -0.4092  0.1325 -0.3235
  421TMC3     C 6336   1.375   4.624  13.534 -0.6386  0.0891 -0.2656
  421TMC3     O 6337   1.458   4.585  13.453 -0.1150 -0.1924  0.1651
  421TMC3     H 6338   1.266   4.735  13.762  1.1783  0.0031 -2.0140
  421TMC3    H1 6339   1.575   4.476  13.630  1.1150 -1.8150  1.8230
  421TMC3    H2 6340   1.469   4.494  14.044  2.9877 -1.1424 -1.2358
  421TMC3    C7 6341   1.668   4.423  13.857 -0.2235  0.3195 -0.3211
  421TMC3    C8 6342   1.305   4.695  14.018 -0.0933  0.3648 -0.5114
  421TMC3    O1 6343   1.759   4.444  13.783 -0.2281 -0.9192 -0.5704
  421TMC3    O2 6344   1.390   4.721  14.103 -0.0830  0.0232 -0.5466
  422TMC3    C1 6345   3.448   1.455  12.403  0.5015 -0.2612  0.2077
  422TMC3    C2 6346   3.453   1.550  12.511  0.3886 -0.2799  0.3564
  422TMC3    C3 6347   3.357   1.539  12.612 -1.2575  0.4512  0.4784
  422TMC3    C4 6348   3.353   1.351  12.395 -0.2698  0.5448  0.3611
  422TMC3    C5 6349   3.257   1.356  12.492  0.6651  0.2618 -0.3596
  422TMC3    C6 6350   3.268   1.437  12.606  0.7116  0.4523  0.2857
  422TMC3     C 6351   3.555   1.464  12.304  0.4874  0.1817 -0.5953
  422TMC3     O 6352   3.652   1.521  12.352  0.2516  0.1931 -0.3434
  422TMC3     H 6353   3.524   1.632  12.515 -0.2697  0.2795  0.6364
  422TMC3    H1 6354   3.360   1.280  12.313  0.3199  2.6139 -1.3854
  422TMC3    H2 6355   3.197   1.436  12.689 -0.7249 -1.3430 -0.9727
  422TMC3    C7 6356   3.139   1.274  12.475  0.9423  0.6678 -0.3410
  422TMC3    C8 6357   3.345   1.657  12.701  0.2544 -0.7458  0.0046
  422TMC3    O1 6358   3.084   1.239  12.584  0.3441 -0.2885 -1.1333
  422TMC3    O2 6359   3.439   1.735  12.709 -0.2430 -0.4434 -0.2914
  423MPD2     C 6360   0.541   2.303   0.483 -0.1710  0.7951  0.6766
  423MPD2    C1 6361   0.638   2.366   0.402 -0.6397  0.1769  0.4662
  423MPD2    C2 6362   0.652   2.313   0.274 -0.1081 -0.2336  0.5441
  423MPD2    C3 6363   0.589   2.196   0.236  0.4027  0.0046  0.5214
  423MPD2    C4 6364   0.491   2.137   0.322  0.2833  0.0563  0.0652
  423MPD2    C5 6365   0.465   2.203   0.434 -0.3715  0.2783  0.0672
  423MPD2     H 6366   0.716   2.360   0.200  0.4051  0.3309  1.3504
  423MPD2    H1 6367   0.437   2.043   0.307 -1.4090  0.9916  0.3025
  423MPD2    H2 6368   0.521   2.334   0.585  2.0176 -0.4848  1.4956
  423MPD2    H3 6369   0.391   2.163   0.503 -0.0766  0.3041  0.4013
  423MPD2     N 6370   0.627   2.140   0.118  0.0583 -0.1034  0.8446
  423MPD2    H5 6371   0.686   2.195   0.056 -1.3960 -0.6622 -1.0176
  423MPD2    N1 6372   0.720   2.474   0.440  0.6967 -0.2237  0.2681
  423MPD2    H7 6373   0.798   2.498   0.381  1.4446  1.8945  2.1113
  424TMC3    C1 6374   0.826   2.646   0.540 -0.2661  0.0048  0.2152
  424TMC3    C2 6375   0.950   2.593   0.533 -0.6140  0.3255  0.3539
  424TMC3    C3 6376   1.055   2.661   0.486  0.1190 -0.4794  0.2048
  424TMC3    C4 6377   0.793   2.766   0.488  0.0934 -0.0317  0.0131
  424TMC3    C5 6378   0.907   2.843   0.454  0.0820 -0.3303  0.0811
  424TMC3    C6 6379   1.041   2.794   0.457  0.2216 -0.8595  0.0068
  424TMC3     C 6380   0.716   2.550   0.551 -0.1471  0.1857  0.4274
  424TMC3     O 6381   0.643   2.551   0.645  0.5476 -0.7120 -0.2934
  424TMC3     H 6382   0.962   2.493   0.572 -0.1916 -0.6580 -2.2958
  424TMC3    H1 6383   0.689   2.794   0.482 -0.1307 -1.4328 -2.2242
  424TMC3    H2 6384   1.120   2.845   0.404 -1.2164 -0.4413 -1.7371
  424TMC3    C7 6385   0.895   2.986   0.407  0.4597 -0.8078  0.5819
  424TMC3    C8 6386   1.179   2.584   0.467  0.0314  0.0053  0.0457
  424TMC3    O1 6387   0.988   3.030   0.340  0.1405  0.3737  0.7169
  424TMC3    O2 6388   1.166   2.461   0.474 -0.8186  0.0850 -0.1388
  425MPD2     C 6389   0.067   1.477  17.354  0.4024 -0.2709 -0.5379
  425MPD2    C1 6390   4.694   1.398  17.322  1.0751 -0.2877  0.1194
  425MPD2    C2 6391   4.568   1.430  17.377  0.0157 -0.6518 -0.0274
  425MPD2    C3 6392   4.561   1.528  17.472  0.3441  0.1117 -0.4779
  425MPD2    C4 6393   4.671   1.595  17.506  0.1097  0.4634  0.3654
  425MPD2    C5 6394   0.057   1.576  17.445  0.0873 -0.4459  0.3474
  425MPD2     H 6395   4.480   1.379  17.340 -0.6784  0.3682  0.2298
  425MPD2    H1 6396   4.676   1.673  17.581  1.3345 -1.4982  2.3548
  425MPD2    H2 6397   0.168   1.456  17.319  0.0650 -0.7823 -1.2103
  425MPD2    H3 6398   0.147   1.629  17.472 -0.5151  0.3801  0.7429
  425MPD2     N 6399   4.434   1.552  17.533 -0.0521 -0.3393 -0.4359
  425MPD2    H5 6400   4.355   1.497  17.502 -0.5662 -1.0035  2.0889
  425MPD2    N1 6401   4.714   1.295  17.231  0.2739  0.1190  0.7100
  425MPD2    H7 6402   0.075   1.276  17.209  0.7244 -0.0670  2.8766
  426TMC3    C1 6403   4.686   1.106  17.096 -0.2055  0.0942 -0.2341
  426TMC3    C2 6404   4.617   1.052  16.990 -0.6828  1.0615 -0.9650
  426TMC3    C3 6405   4.676   0.953  16.918  0.6306 -0.0856  0.0636
  426TMC3    C4 6406   0.075   1.060  17.127 -0.5296 -0.3516  0.0368
  426TMC3    C5 6407   0.126   0.955  17.058 -0.2404  0.3098  0.7035
  426TMC3    C6 6408   0.064   0.905  16.946 -0.3200  0.1031  0.0276
  426TMC3     C 6409   4.619   1.217  17.169 -0.1437 -0.1529  0.6375
  426TMC3     O 6410   4.498   1.232  17.165 -0.4290 -0.1205  0.2370
  426TMC3     H 6411   4.517   1.093  16.978 -2.4577 -2.4290  1.7565
  426TMC3    H1 6412   0.128   1.101  17.212 -2.1481 -0.5506  1.1483
  426TMC3    H2 6413   0.101   0.807  16.915  0.9905  1.2177 -1.9738
  426TMC3    C7 6414   0.207   0.861  17.130 -0.2615 -0.5280  0.1728
  426TMC3    C8 6415   4.589   0.874  16.828 -0.3734 -0.6138  0.4791
  426TMC3    O1 6416   0.299   0.810  17.063 -0.1381  0.5261 -0.1611
  426TMC3    O2 6417   4.469   0.900  16.831  0.1187 -0.3174 -0.0043
  427MPD2     C 6418   2.650   3.070  14.759  0.2213  0.4194  0.1476
  427MPD2    C1 6419   2.695   3.165  14.847 -0.1569  0.0136  0.1568
  427MPD2    C2 6420   2.610   3.268  14.879  0.1246  0.2325 -0.4346
  427MPD2    C3 6421   2.491   3.288  14.816 -0.0011 -0.3060 -0.3492
  427MPD2    C4 6422   2.453   3.194  14.715 -0.4021 -0.3404 -0.0264
  427MPD2    C5 6423   2.532   3.084  14.691 -0.2023 -0.2430 -0.1515
  427MPD2     H 6424   2.646   3.334  14.956 -0.7083 -1.9753  1.8439
  427MPD2    H1 6425   2.355   3.206  14.668 -1.8469 -0.9790  2.8434
  427MPD2    H2 6426   2.714   2.984  14.738  0.5046  0.5253  0.5755
  427MPD2    H3 6427   2.506   3.011  14.615  2.9025 -0.8253 -0.6596
  427MPD2     N 6428   2.404   3.397  14.840  0.4871 -0.5208  0.0740
  427MPD2    H5 6429   2.309   3.388  14.803 -0.2122  2.0683  1.2449
  427MPD2    N1 6430   2.819   3.151  14.914  0.3067 -0.3556 -1.1143
  427MPD2    H7 6431   2.850   3.234  14.963 -3.3852  1.6861 -2.2253
  428TMC3    C1 6432   3.004   3.049  15.014  0.6562  0.1986  0.0430
  428TMC3    C2 6433   3.038   2.947  15.099  0.3790 -0.9292  0.4629
  428TMC3    C3 6434   3.134   2.973  15.198 -0.1263  0.0696 -0.6237
  428TMC3    C4 6435   3.086   3.153  15.003  0.3223  0.2701 -0.6140
  428TMC3    C5 6436   3.184   3.175  15.097 -0.2019 -0.1065 -0.1239
  428TMC3    C6 6437   3.209   3.090  15.204  0.0275 -0.0858  0.0819
  428TMC3     C 6438   2.886   3.037  14.929  0.2164 -0.2314  0.0377
  428TMC3     O 6439   2.865   2.923  14.892 -0.4753 -0.1625  0.0216
  428TMC3     H 6440   2.975   2.859  15.102 -1.5987  0.4923  0.7050
  428TMC3    H1 6441   3.054   3.229  14.932 -2.0734  1.3557  1.6268
  428TMC3    H2 6442   3.305   3.094  15.254  0.6333  6.1443 -1.5448
  428TMC3    C7 6443   3.290   3.264  15.054 -0.0499  0.0989 -0.2594
  428TMC3    C8 6444   3.147   2.867  15.297 -0.8184  0.2568 -0.5129
  428TMC3    O1 6445   3.354   3.317  15.140 -0.1971 -0.3210  0.3739
  428TMC3    O2 6446   3.156   2.752  15.256 -0.5584  0.0246 -0.1875
  429MPD2     C 6447   4.114   3.781   0.109 -0.1464  0.4514  0.4515
  429MPD2    C1 6448   4.242   3.733   0.125  0.2786 -0.1934 -0.3430
  429MPD2    C2 6449   4.343   3.803   0.068 -0.0635 -0.4308  0.5583
  429MPD2    C3 6450   4.321   3.923  17.742 -0.5842 -0.1855  0.3343
  429MPD2    C4 6451   4.188   3.967  17.730 -0.6441  0.6342 -0.6136
  429MPD2    C5 6452   4.091   3.891   0.035 -0.0862  0.4203  0.1087
  429MPD2     H 6453   4.438   3.754   0.085 -1.0846 -2.4171  0.4743
  429MPD2    H1 6454   4.162   4.062  17.686 -0.6479  1.2555  0.7468
  429MPD2    H2 6455   4.026   3.735   0.152 -1.2356  1.9960 -0.1239
  429MPD2    H3 6456   3.989   3.927   0.034  0.0098  0.7008  0.5072
  429MPD2     N 6457   4.419   3.961  17.651 -0.1449 -0.0511  0.6447
  429MPD2    H5 6458   4.510   3.919  17.661 -0.4544 -0.8247  0.2245
  429MPD2    N1 6459   4.281   3.613   0.190 -0.3677 -0.3077 -0.5357
  429MPD2    H7 6460   4.380   3.589   0.185 -0.5567 -1.2605  0.4250
  430TMC3    C1 6461   4.500   4.033  17.437 -0.3148  0.2019 -0.3709
  430TMC3    C2 6462   4.518   4.130  17.339  0.2138 -0.2892 -0.3371
  430TMC3    C3 6463   4.573   4.084  17.218  0.1687 -0.0442  0.4449
  430TMC3    C4 6464   4.568   3.916  17.434  0.0878 -0.2574  0.3995
  430TMC3    C5 6465   4.641   3.883  17.324 -0.5120 -0.6161  0.1636
  430TMC3    C6 6466   4.639   3.963  17.212 -0.5763 -0.4980  0.0254
  430TMC3     C 6467   4.414   4.052  17.550  0.3192 -0.0167  0.1784
  430TMC3     O 6468   4.353   4.157  17.551  0.6461  0.3423 -0.0641
  430TMC3     H 6469   4.474   4.227  17.357 -0.0895 -0.4028 -0.4625
  430TMC3    H1 6470   4.579   3.850  17.519 -2.5116 -0.4148  0.6261
  430TMC3    H2 6471   4.684   3.930  17.119  0.9391  0.3951  0.4426
  430TMC3    C7 6472   4.728   3.766  17.322 -0.4369 -0.0377 -0.2344
  430TMC3    C8 6473   4.548   4.155  17.093  0.2385  0.8931  0.3999
  430TMC3    O1 6474   4.689   3.673  17.386 -0.5743 -0.4231 -0.4145
  430TMC3    O2 6475   4.540   4.082  16.995 -0.3952  0.3926 -0.2398
  431MPD2     C 6476   4.449   3.745  12.671  0.4643 -0.2294  0.5851
  431MPD2    C1 6477   4.529   3.653  12.596  0.0073  0.1364  1.0650
  431MPD2    C2 6478   4.465   3.557  12.526 -0.5434 -0.2080  0.1246
  431MPD2    C3 6479   4.327   3.525  12.537  0.2063 -0.3606 -0.6898
  431MPD2    C4 6480   4.251   3.614  12.622  0.0229  0.1827  0.0165
  431MPD2    C5 6481   4.314   3.721  12.683  0.5205 -0.3611 -0.2442
  431MPD2     H 6482   4.521   3.490  12.461  1.4932  1.3098  0.3329
  431MPD2    H1 6483   4.146   3.596  12.638 -0.0421  0.9770  0.4602
  431MPD2    H2 6484   4.487   3.838  12.710 -1.4019 -0.3268  2.6408
  431MPD2    H3 6485   4.256   3.785  12.749 -2.2876 -1.4892 -1.6104
  431MPD2     N 6486   4.253   3.416  12.488  0.0833 -0.5663  0.3407
  431MPD2    H5 6487   4.161   3.401  12.527 -1.1677  1.6210 -1.7353
  431MPD2    N1 6488   4.666   3.665  12.578  0.0507 -0.1538 -0.0552
  431MPD2    H7 6489   4.708   3.605  12.508  0.8687  0.2629  0.0812
  432TMC3    C1 6490   4.254   3.215  12.380  0.5140 -0.0465 -0.3341
  432TMC3    C2 6491   4.280   3.140  12.264  0.9502  0.8348 -0.2478
  432TMC3    C3 6492   4.305   3.002  12.283 -0.4429 -0.1374 -0.4252
  432TMC3    C4 6493   4.266   3.155  12.502 -0.3252 -0.4172 -0.3339
  432TMC3    C5 6494   4.295   3.019  12.519  0.3804  0.0739 -0.1903
  432TMC3    C6 6495   4.313   2.945  12.409  0.0981  0.1875  0.5382
  432TMC3     C 6496   4.298   3.350  12.380  0.0684  0.3234 -0.4780
  432TMC3     O 6497   4.368   3.381  12.286 -0.2007  0.5765 -0.4317
  432TMC3     H 6498   4.262   3.185  12.167 -2.1422 -0.9169 -0.4694
  432TMC3    H1 6499   4.260   3.205  12.598 -0.4322 -0.7140 -0.1858
  432TMC3    H2 6500   4.353   2.845  12.428  0.4499  0.0149 -1.1734
  432TMC3    C7 6501   4.361   2.976  12.641 -0.1280 -1.0002  0.9728
  432TMC3    C8 6502   4.399   2.948  12.191 -0.0140  0.6323  0.2742
  432TMC3    O1 6503   4.345   2.865  12.682  0.8855 -0.4422 -0.3585
  432TMC3    O2 6504   4.412   2.826  12.182  0.2367 -0.5864  0.0537
  433MPD2     C 6505   3.060   2.195  10.815  0.7213 -1.2489  0.6098
  433MPD2    C1 6506   3.192   2.220  10.847 -0.4394  0.4126  0.3469
  433MPD2    C2 6507   3.228   2.220  10.978  0.1534  0.2251  0.4284
  433MPD2    C3 6508   3.138   2.199  11.079  0.6385 -0.0788  0.9790
  433MPD2    C4 6509   3.009   2.162  11.044 -0.1031 -0.2235 -0.0587
  433MPD2    C5 6510   2.971   2.162  10.914 -0.0624  0.1417  0.4749
  433MPD2     H 6511   3.330   2.233  11.013  0.0350 -0.5075  1.0421
  433MPD2    H1 6512   2.936   2.138  11.122 -0.4323 -1.4109 -0.7264
  433MPD2    H2 6513   3.032   2.175  10.713  1.4022  0.6181  0.0549
  433MPD2    H3 6514   2.874   2.127  10.882  0.3732 -0.9827  0.3620
  433MPD2     N 6515   3.181   2.211  11.212 -0.1317 -0.5515  0.4037
  433MPD2    H5 6516   3.277   2.242  11.225  0.4924 -2.9049  1.2814
  433MPD2    N1 6517   3.281   2.220  10.739  0.3174 -0.3008  0.7173
  433MPD2    H7 6518   3.238   2.208  10.648 -0.1174 -1.1577  1.0324
  434TMC3    C1 6519   3.492   2.197  10.616  0.4471 -0.4470 -0.3551
  434TMC3    C2 6520   3.628   2.193  10.623 -0.4186 -0.6446  0.3863
  434TMC3    C3 6521   3.699   2.107  10.546  0.3436  0.1202 -0.5249
  434TMC3    C4 6522   3.431   2.134  10.513 -0.2825  0.4020  0.3727
  434TMC3    C5 6523   3.504   2.051  10.430 -1.0929  0.7330  0.0597
  434TMC3    C6 6524   3.640   2.030  10.451  0.6995 -0.0390 -0.6817
  434TMC3     C 6525   3.422   2.220  10.748 -0.3274  0.1897  0.1449
  434TMC3     O 6526   3.496   2.207  10.849  0.0170 -0.0417 -0.5274
  434TMC3     H 6527   3.677   2.238  10.708 -3.4115  0.4234  1.5337
  434TMC3    H1 6528   3.323   2.129  10.511 -0.3705  2.2122  0.9030
  434TMC3    H2 6529   3.698   1.973  10.380  1.4907  0.4591 -0.4291
  434TMC3    C7 6530   3.430   1.960  10.335  0.3470 -0.0046 -0.2732
  434TMC3    C8 6531   3.822   2.051  10.620 -0.9035 -0.3942 -0.0752
  434TMC3    O1 6532   3.328   1.995  10.281  0.3272 -0.3587  0.3077
  434TMC3    O2 6533   3.890   2.128  10.688 -0.0958 -0.4509  0.3737
  435MPD2     C 6534   0.690   2.537  15.260  0.6114  0.1377  0.2279
  435MPD2    C1 6535   0.680   2.498  15.394  0.1541  0.1733  0.0202
  435MPD2    C2 6536   0.781   2.421  15.449  0.6625 -0.6776  0.0006
  435MPD2    C3 6537   0.875   2.355  15.369 -0.3586  0.2548 -0.4416
  435MPD2    C4 6538   0.877   2.386  15.236 -0.4185  0.1978 -0.4005
  435MPD2    C5 6539   0.794   2.481  15.185 -0.6969  0.5257 -0.7392
  435MPD2     H 6540   0.773   2.389  15.552 -0.7628 -0.3157  0.0138
  435MPD2    H1 6541   0.961   2.360  15.173 -0.2988  1.1137 -0.6135
  435MPD2    H2 6542   0.629   2.610  15.210 -1.0086  0.2683  2.4263
  435MPD2    H3 6543   0.794   2.503  15.079  1.0411 -1.4660 -1.1444
  435MPD2     N 6544   0.982   2.285  15.432  0.7184 -0.8179  0.4247
  435MPD2    H5 6545   0.980   2.290  15.533  0.3580 -1.3544  0.4422
  435MPD2    N1 6546   0.571   2.538  15.479  0.0465  0.3291  0.2396
  435MPD2    H7 6547   0.558   2.490  15.568  1.2574 -0.8386 -0.2195
  436TMC3    C1 6548   0.259   2.616  15.742  0.2828 -0.3471  0.5552
  436TMC3    C2 6549   0.366   2.586  15.666 -0.4941  1.1015  0.9424
  436TMC3    C3 6550   0.375   2.654  15.547 -0.3227 -0.6268 -0.2067
  436TMC3    C4 6551   0.161   2.710  15.705  0.0404  0.8656  0.1850
  436TMC3    C5 6552   0.168   2.770  15.580 -1.0952  0.3992 -0.0325
  436TMC3    C6 6553   0.279   2.745  15.503  0.2083  0.1610 -0.4188
  436TMC3     C 6554   0.243   2.540  15.859  0.3548  0.6231 -0.4538
  436TMC3     O 6555   0.228   2.418  15.849  0.1640 -0.0218 -0.3331
  436TMC3     H 6556   0.440   2.510  15.686 -1.1389  0.4598  0.8921
  436TMC3    H1 6557   0.073   2.730  15.764  0.4581 -2.2407  1.8320
  436TMC3    H2 6558   0.301   2.802  15.414  1.4209 -0.4608 -0.5206
  436TMC3    C7 6559   0.050   2.827  15.529 -0.2032 -0.0105 -0.5501
  436TMC3    C8 6560   0.485   2.640  15.449  0.3806 -0.1245  0.1491
  436TMC3    O1 6561   4.689   2.823  15.604  0.8483  0.2215 -0.5241
  436TMC3    O2 6562   0.497   2.721  15.362 -0.1641  0.2239  0.1148
  437TMC3    C1 6563   4.264   4.079  12.790  0.2433  0.4037  0.8895
  437TMC3    C2 6564   4.178   4.107  12.898 -0.1355  0.0543  0.0451
  437TMC3    C3 6565   4.060   4.170  12.871  1.0005 -0.1851 -0.0239
  437TMC3    C4 6566   4.226   4.124  12.665 -0.5319  0.1955  0.1637
  437TMC3    C5 6567   4.118   4.200  12.647  0.4980  0.0973 -0.5753
  437TMC3    C6 6568   4.033   4.220  12.751  0.3392 -0.3024  0.2576
  437TMC3     C 6569   4.405   4.082  12.813  0.1152  0.6041 -0.2482
  437TMC3     O 6570   4.467   4.119  12.716  0.1828  0.3562  0.4270
  437TMC3     H 6571   4.206   4.093  13.002 -2.4695  0.6136  0.7518
  437TMC3    H1 6572   4.287   4.090  12.582 -1.0062  0.0480 -0.1250
  437TMC3    H2 6573   3.941   4.270  12.722  1.9178  0.6992 -3.1080
  437TMC3    C7 6574   4.142   4.328  12.576 -0.3744  0.0476  0.4346
  437TMC3    C8 6575   3.942   4.142  12.949 -0.3302  0.4165  0.4066
  437TMC3    O1 6576   4.060   4.420  12.577  0.1409 -0.1629  0.1366
  437TMC3    O2 6577   3.846   4.212  12.927  0.0991  0.1323 -0.6997
  438MPD2     C 6578   2.273   0.470  16.462  0.3222  0.3740 -1.0336
  438MPD2    C1 6579   2.311   0.358  16.526 -0.0260 -0.0781 -0.0588
  438MPD2    C2 6580   2.340   0.366  16.662 -0.7084  0.1509 -0.2230
  438MPD2    C3 6581   2.316   0.474  16.743 -0.1269  0.3851  0.6000
  438MPD2    C4 6582   2.287   0.592  16.669  0.2076  0.2036  0.1668
  438MPD2    C5 6583   2.269   0.587  16.532 -0.7368 -0.2577  0.4547
  438MPD2     H 6584   2.384   0.275  16.702 -0.0884  1.0634  1.1408
  438MPD2    H1 6585   2.295   0.691  16.713 -0.8448 -0.6142  2.1787
  438MPD2    H2 6586   2.252   0.477  16.356 -0.1403 -1.5977 -1.0661
  438MPD2    H3 6587   2.236   0.680  16.485 -0.4099 -1.0106 -1.2635
  438MPD2     N 6588   2.331   0.481  16.882  0.3133  0.2363 -0.3435
  438MPD2    H5 6589   2.327   0.573  16.926  0.3495  0.3631 -0.6069
  438MPD2    N1 6590   2.344   0.235  16.457 -0.8340 -0.5652 -0.1896
  438MPD2    H7 6591   2.388   0.161  16.511  1.0503  1.8998  1.6528
  439TMC3    C1 6592   2.355   0.089  16.273  0.3839  0.5030  0.0865
  439TMC3    C2 6593   2.331   0.048  16.139 -0.3972  0.1368 -0.2583
  439TMC3    C3 6594   2.406   4.684  16.093  0.5162 -0.6653  0.3978
  439TMC3    C4 6595   2.458   0.022  16.340 -0.7252 -0.1236  0.9314
  439TMC3    C5 6596   2.542   4.665  16.281 -0.2749  0.2403  0.4703
  439TMC3    C6 6597   2.506   4.612  16.165 -0.3063 -0.9926  0.2939
  439TMC3     C 6598   2.303   0.214  16.327 -0.3103 -0.0777  0.1099
  439TMC3     O 6599   2.217   0.271  16.261 -0.4756  0.3053 -0.1628
  439TMC3     H 6600   2.259   0.095  16.073  0.5151  1.3610 -0.3794
  439TMC3    H1 6601   2.502   0.062  16.431 -1.4861 -0.8094  1.6102
  439TMC3    H2 6602   2.584   4.560  16.110  0.6446 -0.0047  0.7074
  439TMC3    C7 6603   2.670   4.629  16.347  0.0606 -0.2946  0.5679
  439TMC3    C8 6604   2.417   4.657  15.951  0.4843  0.6509  0.2874
  439TMC3    O1 6605   2.716   4.707  16.430 -0.2304 -0.3961 -0.8355
  439TMC3    O2 6606   2.459   4.547  15.918 -0.1927  1.0694 -0.4704
  440MPD2     C 6607   0.890   0.522  14.933  0.0704  0.2101  0.1291
  440MPD2    C1 6608   0.947   0.630  15.006  0.9185  0.0442  0.0960
  440MPD2    C2 6609   1.083   0.621  15.043  0.4706  0.0782  0.0408
  440MPD2    C3 6610   1.157   0.505  15.007 -0.5067 -0.4292 -0.1669
  440MPD2    C4 6611   1.098   0.408  14.934  0.2905 -0.6220 -0.2110
  440MPD2    C5 6612   0.959   0.409  14.910 -0.2803 -0.4047 -0.6874
  440MPD2     H 6613   1.122   0.693  15.114 -2.1737  0.0971  1.4603
  440MPD2    H1 6614   1.160   0.321  14.924 -0.5499 -1.4077  1.4087
  440MPD2    H2 6615   0.787   0.529  14.900 -0.2475 -0.6502  0.9218
  440MPD2    H3 6616   0.909   0.327  14.860 -2.7718 -0.9298  2.6037
  440MPD2     N 6617   1.286   0.468  15.056 -0.3287  0.1602 -0.3709
  440MPD2    H5 6618   1.336   0.387  15.022 -0.5777  0.2262 -0.8872
  440MPD2    N1 6619   0.864   0.742  15.041  0.0771  0.9757  0.3116
  440MPD2    H7 6620   0.922   0.796  15.104 -1.8629  0.8802  2.1728
  441TMC3    C1 6621   1.488   0.506  15.176 -0.7075 -0.1409 -0.2852
  441TMC3    C2 6622   1.560   0.605  15.236  0.1865  0.1520  0.3663
  441TMC3    C3 6623   1.597   0.594  15.371  0.3620  0.3458 -0.1582
  441TMC3    C4 6624   1.467   0.384  15.237 -0.8632 -0.1364 -0.3389
  441TMC3    C5 6625   1.529   0.369  15.360  0.7538  0.2064 -0.2106
  441TMC3    C6 6626   1.596   0.473  15.430 -0.1073 -0.7206  0.1608
  441TMC3     C 6627   1.371   0.561  15.109  0.0408 -0.1765 -0.3280
  441TMC3     O 6628   1.344   0.672  15.149  0.0928  0.3093 -0.2212
  441TMC3     H 6629   1.562   0.702  15.186 -1.3557  0.3307  0.6579
  441TMC3    H1 6630   1.393   0.314  15.202 -0.9760 -0.0878 -0.1997
  441TMC3    H2 6631   1.626   0.463  15.534 -0.2799 -1.2319  0.1647
  441TMC3    C7 6632   1.478   0.256  15.435 -0.0326 -0.0713 -0.0379
  441TMC3    C8 6633   1.541   0.698  15.460 -0.8579 -0.1432  0.1235
  441TMC3    O1 6634   1.365   0.218  15.414  0.1439  0.6354 -0.8141
  441TMC3    O2 6635   1.556   0.682  15.581 -0.8720 -0.3868 -0.6990
  442MPD2     C 6636   4.032   1.315  16.935  0.0986  0.7989  0.2811
  442MPD2    C1 6637   3.944   1.322  16.832 -0.7883 -0.0974  0.6333
  442MPD2    C2 6638   3.951   1.234  16.725  0.0693  0.0625 -0.2598
  442MPD2    C3 6639   4.055   1.147  16.717 -0.5232 -0.3366 -0.8471
  442MPD2    C4 6640   4.151   1.149  16.813  0.3711 -0.2785  1.2776
  442MPD2    C5 6641   4.133   1.229  16.921 -0.0887  0.1164 -0.2798
  442MPD2     H 6642   3.879   1.236  16.644 -0.1869 -1.7226 -0.0707
  442MPD2    H1 6643   4.234   1.079  16.815  0.8163  0.3171  4.3166
  442MPD2    H2 6644   4.039   1.383  17.019  1.8301  0.2505  0.5889
  442MPD2    H3 6645   4.208   1.225  16.999  1.2888  1.1007 -1.5682
  442MPD2     N 6646   4.076   1.053  16.616  0.0000  0.2982 -0.1111
  442MPD2    H5 6647   4.151   0.984  16.624  0.0433  0.1092 -2.1405
  442MPD2    N1 6648   3.834   1.409  16.833  0.5045  0.6514 -0.0718
  442MPD2    H7 6649   3.778   1.420  16.749  1.1158  0.1673 -0.5353
  443TMC3    C1 6650   3.664   1.530  16.935 -0.6933 -0.1012  0.6164
  443TMC3    C2 6651   3.646   1.602  16.820 -0.2693 -0.1685  0.3040
  443TMC3    C3 6652   3.525   1.598  16.762  0.5517 -0.4092  0.2148
  443TMC3    C4 6653   3.561   1.449  16.975  0.4731  0.3016  0.0190
  443TMC3    C5 6654   3.440   1.442  16.912  0.7571  0.4023 -1.2057
  443TMC3    C6 6655   3.419   1.519  16.805 -0.4797 -1.2805  0.5872
  443TMC3     C 6656   3.796   1.479  16.947 -0.4118  0.2290 -0.5219
  443TMC3     O 6657   3.849   1.488  17.056  0.4689  0.0728 -0.1368
  443TMC3     H 6658   3.721   1.674  16.790 -0.7413  1.5123  3.1938
  443TMC3    H1 6659   3.586   1.405  17.071 -0.7417  2.0222  1.1238
  443TMC3    H2 6660   3.323   1.514  16.757 -0.1083  0.7115 -0.3955
  443TMC3    C7 6661   3.375   1.317  16.917 -0.3540 -0.5716  0.4295
  443TMC3    C8 6662   3.508   1.667  16.630  0.6740 -0.1312 -0.8112
  443TMC3    O1 6663   3.315   1.279  16.818 -0.2420 -0.2358 -0.1939
  443TMC3    O2 6664   3.545   1.783  16.630 -0.1634 -0.3783  0.3980
  444MPD2     C 6665   4.477   0.634  17.141  0.3970 -0.5858 -0.1725
  444MPD2    C1 6666   4.365   0.569  17.093 -0.6039 -0.0224 -0.0069
  444MPD2    C2 6667   4.387   0.452  17.024  0.0742  0.3863 -0.8948
  444MPD2    C3 6668   4.513   0.413  16.980  0.4792 -0.2143  0.8920
  444MPD2    C4 6669   4.621   0.489  17.019 -0.5972  0.5074 -0.1754
  444MPD2    C5 6670   4.598   0.592  17.101 -0.1189  0.4771  0.5564
  444MPD2     H 6671   4.303   0.402  16.978  1.7083 -1.2704 -2.0930
  444MPD2    H1 6672   4.725   0.461  17.005  0.4060  3.6365  0.8951
  444MPD2    H2 6673   4.485   0.721  17.205 -0.0619  0.4119 -1.4643
  444MPD2    H3 6674   4.681   0.652  17.138 -0.3558  1.2706 -0.2001
  444MPD2     N 6675   4.528   0.300  16.894  0.2367 -0.1285 -0.5607
  444MPD2    H5 6676   4.442   0.248  16.884  0.8552 -0.8950 -1.9235
  444MPD2    N1 6677   4.230   0.610  17.120  0.1650 -0.3483  0.4202
  444MPD2    H7 6678   4.155   0.559  17.076  0.5140  0.3512 -0.9606
  445TMC3    C1 6679   4.653   0.124  16.770  0.1328  0.4070 -0.2039
  445TMC3    C2 6680   4.538   0.080  16.704 -0.0925  0.6605  0.0754
  445TMC3    C3 6681   4.538   4.697  16.642 -0.7537 -0.3202  0.5003
  445TMC3    C4 6682   0.037   0.065  16.752  0.0945 -0.3622  0.6808
  445TMC3    C5 6683   0.036   4.686  16.685  0.1546 -0.2647  0.0010
  445TMC3    C6 6684   4.656   4.627  16.627  0.7372  0.5975 -0.0299
  445TMC3     C 6685   4.653   0.247  16.856  0.2940  0.0098 -0.4419
  445TMC3     O 6686   0.026   0.292  16.872 -0.1448 -0.2370 -0.4815
  445TMC3     H 6687   4.450   0.142  16.695 -0.3034  0.1736 -1.1835
  445TMC3    H1 6688   0.124   0.097  16.809  1.8966  0.6314 -2.6495
  445TMC3    H2 6689   4.657   4.542  16.561  1.1265 -1.0220  2.0501
  445TMC3    C7 6690   0.163   4.628  16.656  0.3069  0.0159  0.2650
  445TMC3    C8 6691   4.419   4.653  16.569  0.1337 -0.0147 -0.3832
  445TMC3    O1 6692   0.254   4.707  16.654  0.7086  0.1054  0.5673
  445TMC3    O2 6693   4.355   4.736  16.512 -0.3491 -0.0545  0.0028
  446MPD2     C 6694   3.578   1.639  10.974 -0.2037 -0.3644 -0.0119
  446MPD2    C1 6695   3.496   1.730  10.920 -0.3302 -0.1105 -0.1703
  446MPD2    C2 6696   3.540   1.863  10.919  0.7858 -0.7998 -0.3577
  446MPD2    C3 6697   3.666   1.903  10.976  0.1709  0.0151  0.1472
  446MPD2    C4 6698   3.740   1.801  11.038 -0.3679 -0.1122  0.5978
  446MPD2    C5 6699   3.685   1.677  11.039 -0.2216  0.1920 -0.4244
  446MPD2     H 6700   3.479   1.939  10.871 -1.1007  0.0847  3.3847
  446MPD2    H1 6701   3.833   1.817  11.092 -1.7426 -1.8012  3.4380
  446MPD2    H2 6702   3.568   1.531  10.975  1.1611 -0.5191 -1.9303
  446MPD2    H3 6703   3.745   1.593  11.073 -0.9944 -0.5064 -0.7670
  446MPD2     N 6704   3.698   2.046  10.990  1.2131  0.6998  0.3893
  446MPD2    H5 6705   3.644   2.111  10.933  3.7583  1.2352 -1.4632
  446MPD2    N1 6706   3.366   1.693  10.873 -0.0723 -0.0502 -0.2744
  446MPD2    H7 6707   3.314   1.777  10.854  0.0126  0.8361  3.4725
  447TMC3    C1 6708   3.857   2.219  11.033 -0.1027 -0.1857 -0.1161
  447TMC3    C2 6709   3.797   2.308  10.938 -0.7186  0.1664 -1.1284
  447TMC3    C3 6710   3.872   2.411  10.894 -0.1976  0.1877 -0.7365
  447TMC3    C4 6711   3.984   2.241  11.077  0.2637 -0.2080  0.3324
  447TMC3    C5 6712   4.054   2.348  11.026  0.0248 -0.7963 -0.1990
  447TMC3    C6 6713   4.002   2.428  10.932 -0.8897 -0.1843 -0.2488
  447TMC3     C 6714   3.795   2.091  11.075  0.0406  0.3687 -0.0875
  447TMC3     O 6715   3.857   2.031  11.157 -0.2888  0.2400  0.4014
  447TMC3     H 6716   3.690   2.305  10.921 -0.5387  0.3875 -2.3247
  447TMC3    H1 6717   4.026   2.167  11.144 -0.6817 -2.1070 -1.1604
  447TMC3    H2 6718   4.056   2.520  10.912 -2.2718  0.8733  0.8995
  447TMC3    C7 6719   4.193   2.351  11.064 -0.0748 -0.2628  0.1137
  447TMC3    C8 6720   3.805   2.511  10.808  0.1103 -0.5747 -0.4755
  447TMC3    O1 6721   4.249   2.244  11.084 -0.3806  1.1615  0.3465
  447TMC3    O2 6722   3.697   2.487  10.760  0.0339 -0.6700  0.7042
  448TMC3    C1 6723   3.075   1.757  16.410  0.4127  0.3342  0.0709
  448TMC3    C2 6724   3.013   1.645  16.373  0.1936  0.6850 -0.4975
  448TMC3    C3 6725   2.993   1.554  16.478 -0.1175  0.0954 -0.6474
  448TMC3    C4 6726   3.128   1.791  16.537 -0.1028  0.0358 -0.0213
  448TMC3    C5 6727   3.108   1.697  16.631  0.4725 -0.0485 -0.0941
  448TMC3    C6 6728   3.051   1.579  16.605  0.1970 -0.8418  0.4293
  448TMC3     C 6729   3.058   1.866  16.316 -0.1300 -0.0085  0.8499
  448TMC3     O 6730   3.037   1.833  16.203  0.1128  0.1097 -0.3325
  448TMC3     H 6731   2.983   1.633  16.269  0.5352 -2.5352 -0.2243
  448TMC3    H1 6732   3.171   1.885  16.569  1.1993 -0.6699  0.2888
  448TMC3    H2 6733   3.046   1.501  16.680 -2.0947 -0.2203  0.9157
  448TMC3    C7 6734   3.158   1.725  16.767  0.0024 -0.5227  0.0098
  448TMC3    C8 6735   2.946   1.423  16.449  0.4518 -0.7470 -0.3888
  448TMC3    O1 6736   3.244   1.809  16.777 -0.5930  0.8239 -0.3434
  448TMC3    O2 6737   2.967   1.340  16.538 -0.4925  0.1154 -0.2586
  449MPD2     C 6738   3.539   4.729  13.808 -0.3808 -0.3828  0.2881
  449MPD2    C1 6739   3.405   4.717  13.758  0.3790  0.0132  0.2400
  449MPD2    C2 6740   3.298   4.716  13.847  0.3433  0.4882  0.7213
  449MPD2    C3 6741   3.311   0.015  13.976  0.9625  0.1869  0.1491
  449MPD2    C4 6742   3.441   0.034  14.025  0.3490  0.1390 -0.8920
  449MPD2    C5 6743   3.547   0.012  13.943 -0.4148  0.5991  0.1197
  449MPD2     H 6744   3.197   4.704  13.809  2.4643 -4.6297 -3.2111
  449MPD2    H1 6745   3.468   0.050  14.129  0.3156  0.2016 -0.8931
  449MPD2    H2 6746   3.625   4.734  13.743 -0.4483  1.7594  0.3689
  449MPD2    H3 6747   3.647   0.038  13.975 -0.6313  0.2177  1.1071
  449MPD2     N 6748   3.195   0.034  14.050 -0.2536  0.5408 -0.5440
  449MPD2    H5 6749   3.105   0.021  14.005 -0.0337  0.4370 -0.9507
  449MPD2    N1 6750   3.372   4.712  13.622 -0.5581  0.0963  0.8089
  449MPD2    H7 6751   3.273   4.704  13.604 -1.0276  3.2710  1.9360
  450TMC3    C1 6752   3.389   0.024  13.399  0.6243  0.2222 -0.7070
  450TMC3    C2 6753   3.435   4.735  13.274 -0.1402  0.1453 -0.4733
  450TMC3    C3 6754   3.344   0.012  13.168  0.3081 -0.9065 -0.5107
  450TMC3    C4 6755   3.259   0.071  13.423  0.5064  0.3922 -0.1238
  450TMC3    C5 6756   3.181   0.084  13.317  1.6449  0.3803  0.2687
  450TMC3    C6 6757   3.216   0.061  13.189  0.1067  0.4473 -0.4340
  450TMC3     C 6758   3.457   4.706  13.513 -0.4829 -0.1173  1.0450
  450TMC3     O 6759   3.575   4.673  13.510 -0.5019  0.2505 -0.3450
  450TMC3     H 6760   3.539   4.705  13.266  0.2239  0.9471  1.1090
  450TMC3    H1 6761   3.233   0.127  13.511  2.6987 -0.4717  1.0645
  450TMC3    H2 6762   3.142   0.077  13.111  0.5812  1.9926 -0.5503
  450TMC3    C7 6763   3.052   0.153  13.345  0.3954  0.3885 -0.7206
  450TMC3    C8 6764   3.376   4.712  13.033 -0.2636 -0.0621 -0.5836
  450TMC3    O1 6765   2.992   0.214  13.254  0.4390  0.2712 -0.2836
  450TMC3    O2 6766   3.282   4.718  12.953  0.2954  1.0540 -0.1293
  451MPD2     C 6767   4.574   3.623   0.941  0.6912  0.8781  0.5067
  451MPD2    C1 6768   4.662   3.705   0.879  0.1306  0.0728  1.5588
  451MPD2    C2 6769   0.009   3.654   0.787  0.4035 -0.4043 -0.3052
  451MPD2    C3 6770   0.005   3.519   0.763 -0.7137 -0.1230 -0.2382
  451MPD2    C4 6771   4.662   3.434   0.833 -0.4176 -0.6117 -0.5626
  451MPD2    C5 6772   4.575   3.489   0.921 -0.2436 -1.1237  0.3774
  451MPD2     H 6773   0.074   3.720   0.731  1.4999  1.5695  3.2503
  451MPD2    H1 6774   4.658   3.326   0.823  0.5379 -0.7391  0.4287
  451MPD2    H2 6775   4.513   3.655   1.026  1.6572  0.3577  1.3932
  451MPD2    H3 6776   4.509   3.430   0.983  0.1369 -1.9828 -0.0243
  451MPD2     N 6777   0.086   3.452   0.671  0.0258  0.2845 -0.0247
  451MPD2    H5 6778   0.088   3.351   0.683  2.2274  0.4315  0.8700
  451MPD2    N1 6779   4.658   3.844   0.919 -0.0758 -0.1461 -0.2379
  451MPD2    H7 6780   4.572   3.877   0.963 -0.5215  0.1924 -1.3640
  452TMC3    C1 6781   0.221   3.410   0.493  0.1276  0.1959 -0.7343
  452TMC3    C2 6782   0.228   3.279   0.538  0.1635  0.3036 -0.2140
  452TMC3    C3 6783   0.314   3.197   0.472 -0.6496 -0.3238 -0.4875
  452TMC3    C4 6784   0.296   3.457   0.388 -0.0841 -0.5996 -0.1313
  452TMC3    C5 6785   0.378   3.367   0.323  0.1669  0.0166 -0.8469
  452TMC3    C6 6786   0.384   3.237   0.360  0.1025  0.4964  0.2960
  452TMC3     C 6787   0.159   3.513   0.575  0.0296  0.2346 -0.2333
  452TMC3     O 6788   0.160   3.628   0.537 -0.2524 -0.4144 -0.3236
  452TMC3     H 6789   0.181   3.244   0.630 -2.6832 -2.1261 -2.6107
  452TMC3    H1 6790   0.278   3.557   0.350  0.5212 -1.8377 -3.6267
  452TMC3    H2 6791   0.451   3.174   0.304 -0.2627 -0.9767  1.5066
  452TMC3    C7 6792   0.466   3.426   0.228 -0.2071 -0.2725 -0.1883
  452TMC3    C8 6793   0.335   3.066   0.529  0.2375  0.3719 -0.4448
  452TMC3    O1 6794   0.530   3.366   0.147  0.0759  0.6021  0.2318
  452TMC3    O2 6795   0.294   3.061   0.643  0.5170 -0.3639 -0.7153
  453TMC3    C1 6796   0.903   0.694  11.824 -0.2396  0.2172  0.3404
  453TMC3    C2 6797   0.890   0.561  11.794  0.4277  0.0598  0.0481
  453TMC3    C3 6798   0.821   0.529  11.680  0.2922 -0.1890  0.2437
  453TMC3    C4 6799   0.866   0.793  11.734 -0.2120  0.9022 -0.6436
  453TMC3    C5 6800   0.813   0.748  11.608  0.1269 -0.2693 -0.4697
  453TMC3    C6 6801   0.780   0.618  11.589  0.0437 -0.9313 -0.3279
  453TMC3     C 6802   1.004   0.723  11.925  0.0728  0.7709  0.4628
  453TMC3     O 6803   1.088   0.805  11.892 -1.3470  0.2031  0.1736
  453TMC3     H 6804   0.935   0.487  11.859  0.5016 -1.5908 -1.8868
  453TMC3    H1 6805   0.900   0.895  11.748  0.0391  0.6885  0.3152
  453TMC3    H2 6806   0.725   0.588  11.501 -0.3126 -1.4221  0.0664
  453TMC3    C7 6807   0.823   0.832  11.489 -0.3377 -0.5234  0.5844
  453TMC3    C8 6808   0.769   0.395  11.674 -0.6654  1.0108  0.7692
  453TMC3    O1 6809   0.834   0.778  11.378 -0.3041  0.2570  0.0953
  453TMC3    O2 6810   0.659   0.380  11.626  0.3725 -0.3800 -0.2980
  454MPD2     C 6811   4.676   0.618  15.670 -0.0238 -0.1237 -0.3821
  454MPD2    C1 6812   4.657   0.478  15.664  0.3018 -0.0335 -0.1240
  454MPD2    C2 6813   4.730   0.394  15.751  0.0736 -0.1663 -0.5618
  454MPD2    C3 6814   0.081   0.450  15.840 -1.0417  0.1518 -0.0436
  454MPD2    C4 6815   0.101   0.588  15.847 -0.1341  0.5496 -0.4219
  454MPD2    C5 6816   0.028   0.674  15.760  0.6857 -0.3894 -0.1577
  454MPD2     H 6817   4.710   0.288  15.761 -1.5278  0.3042  1.1427
  454MPD2    H1 6818   0.170   0.641  15.912  1.0936 -2.6456  0.8794
  454MPD2    H2 6819   4.627   0.684  15.600  1.5602 -0.1696 -1.5379
  454MPD2    H3 6820   0.052   0.780  15.762  0.7465 -0.3745 -1.3980
  454MPD2     N 6821   0.159   0.387  15.940 -0.2616  0.0379 -0.2461
  454MPD2    H5 6822   0.217   0.438  16.005 -0.7974  1.9379 -1.2687
  454MPD2    N1 6823   4.553   0.412  15.584 -0.1371  0.6881  0.6384
  454MPD2    H7 6824   4.547   0.312  15.595  1.9727  0.6648  1.5197
  455TMC3    C1 6825   0.178   0.236  16.116 -0.1605 -0.7569  0.0617
  455TMC3    C2 6826   0.122   0.333  16.192 -0.4556 -0.1090 -0.2333
  455TMC3    C3 6827   0.066   0.290  16.309  0.0939 -0.0053  0.1103
  455TMC3    C4 6828   0.185   0.104  16.153 -0.2092  1.0324 -0.2162
  455TMC3    C5 6829   0.118   0.066  16.274 -0.0798 -0.5763  0.5056
  455TMC3    C6 6830   0.065   0.162  16.350  0.2246  0.0669  0.0345
  455TMC3     C 6831   0.159   0.254  15.972  0.1084  0.3063  0.0016
  455TMC3     O 6832   0.105   0.164  15.905  0.4787 -0.2919  0.0673
  455TMC3     H 6833   0.109   0.438  16.168 -0.1976 -0.3936 -1.6479
  455TMC3    H1 6834   0.208   0.030  16.078  3.2310  0.9247  0.9696
  455TMC3    H2 6835   0.018   0.138  16.444  0.9399  0.4830  0.4956
  455TMC3    C7 6836   0.031   4.690  16.270  0.0508  0.5065  0.0683
  455TMC3    C8 6837   0.036   0.395  16.403  0.6004  0.1160  0.3874
  455TMC3    O1 6838   4.655   4.717  16.311 -0.1445 -0.0299  0.0081
  455TMC3    O2 6839   0.110   0.493  16.394 -0.1321  0.0535 -0.2696
  456MPD2     C 6840   2.796   0.082  16.067 -0.1353  0.2428  0.4832
  456MPD2    C1 6841   2.878   0.091  16.176  0.1474  0.3998 -0.4197
  456MPD2    C2 6842   2.858   0.197  16.264  0.2743  0.1002  0.5654
  456MPD2    C3 6843   2.754   0.289  16.261 -0.4168 -0.5242 -0.3549
  456MPD2    C4 6844   2.676   0.277  16.155  0.2855  0.6029  0.2086
  456MPD2    C5 6845   2.695   0.172  16.062 -0.6125 -0.1443 -0.7905
  456MPD2     H 6846   2.919   0.195  16.353  0.5613 -2.3339  0.3239
  456MPD2    H1 6847   2.601   0.350  16.127  2.1411  2.8751  1.2235
  456MPD2    H2 6848   2.813   0.008  15.990 -0.4247  2.3030 -1.5829
  456MPD2    H3 6849   2.624   0.175  15.980 -1.4607 -1.4029 -0.0990
  456MPD2     N 6850   2.734   0.376  16.375  0.3618 -0.3066  0.4524
  456MPD2    H5 6851   2.793   0.360  16.456 -2.0470 -1.8644  1.8971
  456MPD2    N1 6852   2.988   4.734  16.183 -0.1316  0.2686 -0.7709
  456MPD2    H7 6853   2.998   4.667  16.107 -1.2729 -0.3170 -0.4128
  457TMC3    C1 6854   2.662   0.577  16.480 -0.8252 -0.2374 -0.1884
  457TMC3    C2 6855   2.682   0.702  16.425  0.6671 -0.2781  0.6945
  457TMC3    C3 6856   2.748   0.784  16.500 -0.3078 -0.2442 -0.0891
  457TMC3    C4 6857   2.718   0.539  16.601 -0.4457  0.1631 -0.4537
  457TMC3    C5 6858   2.778   0.639  16.679 -0.0393 -0.6250  0.4404
  457TMC3    C6 6859   2.805   0.758  16.627  0.0890  0.0346  0.4006
  457TMC3     C 6860   2.638   0.475  16.378 -0.4704 -0.2142  0.3282
  457TMC3     O 6861   2.566   0.514  16.287  0.0440  0.0312 -0.3935
  457TMC3     H 6862   2.611   0.736  16.350  2.6332  0.5858 -0.7709
  457TMC3    H1 6863   2.697   0.441  16.643  0.9344 -0.3849 -1.0273
  457TMC3    H2 6864   2.848   0.839  16.685 -0.2638 -0.2079  1.0090
  457TMC3    C7 6865   2.804   0.613  16.822 -0.2037 -0.4074 -1.0072
  457TMC3    C8 6866   2.788   0.914  16.451  0.5931 -0.4029  0.1881
  457TMC3    O1 6867   2.769   0.501  16.863 -0.5867  0.1525  0.1609
  457TMC3    O2 6868   2.812   0.997  16.536 -0.3040 -0.8913  0.3750
  458MPD2     C 6869   4.522   4.641  12.463 -0.1810 -0.6132 -0.3113
  458MPD2    C1 6870   4.568   4.540  12.544 -0.2799  0.9346 -0.2056
  458MPD2    C2 6871   4.485   4.433  12.571 -0.2875  0.0260 -0.3236
  458MPD2    C3 6872   4.357   4.441  12.527 -0.4806 -0.5976 -0.6625
  458MPD2    C4 6873   4.312   4.538  12.448  0.5799  0.0993  0.1063
  458MPD2    C5 6874   4.397   4.639  12.415  0.4299 -0.0524  0.2082
  458MPD2     H 6875   4.514   4.344  12.626 -0.0602 -0.3389 -1.0339
  458MPD2    H1 6876   4.212   4.546  12.409  1.5574  2.5335 -1.9107
  458MPD2    H2 6877   4.586   4.721  12.430 -0.4286 -0.4038 -0.2817
  458MPD2    H3 6878   4.366   4.708  12.337 -1.9089 -1.2021  0.1008
  458MPD2     N 6879   4.278   4.336  12.568  0.7926 -0.2824  0.3900
  458MPD2    H5 6880   4.334   4.256  12.595  1.9087  0.5315  0.4982
  458MPD2    N1 6881   4.698   4.558  12.593 -0.1158  0.3570  0.0628
  458MPD2    H7 6882   0.016   4.640  12.572 -1.4007  1.2380  0.1585
  459TMC3    C1 6883   0.169   4.483  12.671 -0.8168  0.3787  0.0781
  459TMC3    C2 6884   0.244   4.566  12.589  0.2143  0.4916 -0.0087
  459TMC3    C3 6885   0.387   4.548  12.588 -0.1863  0.1347 -0.4400
  459TMC3    C4 6886   0.230   4.429  12.778 -0.1259  0.3336  0.1361
  459TMC3    C5 6887   0.365   4.435  12.791  0.3812 -0.3021  0.2498
  459TMC3    C6 6888   0.446   4.484  12.693  0.6137  0.1877 -0.1901
  459TMC3     C 6889   0.030   4.458  12.659 -0.0458  0.3838  1.2163
  459TMC3     O 6890   4.722   4.360  12.714 -0.4368 -0.0769 -0.4719
  459TMC3     H 6891   0.209   4.619  12.501 -0.8371 -0.0053  0.1100
  459TMC3    H1 6892   0.165   4.372  12.845  0.5646  1.2556  1.5981
  459TMC3    H2 6893   0.554   4.475  12.689  0.6487  0.0127  1.3366
  459TMC3    C7 6894   0.421   4.367  12.909  0.2522 -0.1715  0.2418
  459TMC3    C8 6895   0.474   4.612  12.484  0.2280 -0.2704  0.5378
  459TMC3    O1 6896   0.529   4.314  12.899  0.6638 -0.5270 -0.0180
  459TMC3    O2 6897   0.593   4.619  12.506 -0.5405 -0.1792  0.4969
  460MPD2     C 6898   3.921   2.855  10.779  0.7642  0.2775 -0.7630
  460MPD2    C1 6899   3.841   2.747  10.752  0.1905 -0.4066 -0.2947
  460MPD2    C2 6900   3.728   2.766  10.674  0.3913 -0.0850 -0.3877
  460MPD2    C3 6901   3.707   2.889  10.618 -0.6417 -0.0480 -0.5664
  460MPD2    C4 6902   3.791   2.996  10.643 -0.0045 -0.4989  0.7425
  460MPD2    C5 6903   3.889   2.977  10.729 -0.0522  0.2837  0.1613
  460MPD2     H 6904   3.661   2.684  10.651 -1.7862  2.4015 -2.8675
  460MPD2    H1 6905   3.768   3.096  10.607  3.4773  0.4683  1.2342
  460MPD2    H2 6906   4.016   2.845  10.830  0.2110  1.3908  0.4718
  460MPD2    H3 6907   3.959   3.058  10.747 -1.8340  2.0359 -0.8411
  460MPD2     N 6908   3.591   2.910  10.538 -0.0947 -0.0757  0.3680
  460MPD2    H5 6909   3.543   2.826  10.507  0.7533  0.0007 -1.1646
  460MPD2    N1 6910   3.878   2.624  10.807  0.2038  0.1249 -0.3491
  460MPD2    H7 6911   3.956   2.628  10.872 -0.1934 -2.1263  0.2493
  461TMC3    C1 6912   3.453   3.018  10.372  0.9601 -0.2505  0.5724
  461TMC3    C2 6913   3.425   2.898  10.317 -0.4998 -0.9730 -0.1620
  461TMC3    C3 6914   3.359   2.903  10.195 -0.0550 -0.9464 -0.2017
  461TMC3    C4 6915   3.407   3.135  10.320 -0.6532 -0.9008  0.4000
  461TMC3    C5 6916   3.330   3.132  10.214  0.0824  0.2287  0.2672
  461TMC3    C6 6917   3.297   3.018  10.148  0.5846 -0.1706 -0.1540
  461TMC3     C 6918   3.545   3.028  10.481 -0.5220  0.0796  0.0434
  461TMC3     O 6919   3.581   3.142  10.507 -0.5030  0.5184 -0.2178
  461TMC3     H 6920   3.493   2.814  10.332  0.3224 -0.3124 -0.2344
  461TMC3    H1 6921   3.417   3.231  10.370 -1.1073  0.3207 -1.8616
  461TMC3    H2 6922   3.232   3.035  10.063 -0.1361 -0.2633  0.3778
  461TMC3    C7 6923   3.266   3.260  10.177  0.8611 -0.5185 -0.8988
  461TMC3    C8 6924   3.360   2.790  10.108  0.4022  0.5630 -0.4537
  461TMC3    O1 6925   3.324   3.364  10.221  0.1658  0.2891 -0.0125
  461TMC3    O2 6926   3.345   2.810   9.987  0.4237 -0.2963 -0.0191
  462TMC3    C1 6927   4.356   2.969  17.678  0.3085  0.1608 -0.9303
  462TMC3    C2 6928   4.252   2.889  17.637  0.5519  0.5733  0.1072
  462TMC3    C3 6929   4.284   2.763  17.621  0.0713 -0.3107 -0.1534
  462TMC3    C4 6930   4.476   2.920  17.729 -0.2578 -0.6297 -0.2379
  462TMC3    C5 6931   4.488   2.783  17.732  0.2180 -0.2776 -0.0089
  462TMC3    C6 6932   4.401   2.708  17.662 -0.0792 -0.6444 -0.3124
  462TMC3     C 6933   4.341   3.111  17.661  0.3315 -0.3517 -0.3150
  462TMC3     O 6934   4.446   3.176  17.680 -0.2573  0.1777  0.1759
  462TMC3     H 6935   4.153   2.917  17.601  0.4435  0.2346  0.1433
  462TMC3    H1 6936   4.556   2.981   0.024  0.3670 -0.5781 -1.5215
  462TMC3    H2 6937   4.395   2.600  17.670 -1.2560 -0.6883 -1.6963
  462TMC3    C7 6938   4.556   2.714   0.089  0.4552  0.7578 -1.0951
  462TMC3    C8 6939   4.186   2.683  17.551  0.3231  0.2557 -0.1727
  462TMC3    O1 6940   4.514   2.603   0.128  0.0638 -0.2948  0.6630
  462TMC3    O2 6941   4.069   2.708  17.570 -0.2256 -0.8451 -0.3680
  463MPD2     C 6942   0.560   2.221   0.816  0.1018 -0.0928  0.1007
  463MPD2    C1 6943   0.514   2.093   0.834  0.2368  0.3920  0.1133
  463MPD2    C2 6944   0.599   1.981   0.815 -0.5995 -0.7688 -0.1603
  463MPD2    C3 6945   0.734   1.994   0.780  0.5925  0.2643 -0.0714
  463MPD2    C4 6946   0.772   2.120   0.765 -0.0781  0.4694  0.3150
  463MPD2    C5 6947   0.692   2.233   0.788 -0.2303 -0.2587  0.1822
  463MPD2     H 6948   0.563   1.880   0.834 -1.3214 -0.4584  0.1534
  463MPD2    H1 6949   0.877   2.143   0.753 -0.1011  0.2147 -0.3674
  463MPD2    H2 6950   0.498   2.308   0.836  1.9271  1.2593 -0.0984
  463MPD2    H3 6951   0.740   2.330   0.777  0.8011 -0.8831 -0.8157
  463MPD2     N 6952   0.833   1.895   0.770 -0.4082  0.3339 -0.4575
  463MPD2    H5 6953   0.928   1.927   0.755 -0.1105 -1.2054 -1.9624
  463MPD2    N1 6954   0.382   2.080   0.867 -0.4892  0.3896 -0.0026
  463MPD2    H7 6955   0.347   1.989   0.895  2.4510 -0.7039  0.1159
  464TMC3    C1 6956   0.195   2.145   0.961 -0.2622  0.0549 -0.2247
  464TMC3    C2 6957   0.067   2.190   0.944 -0.4254 -0.4907  0.0362
  464TMC3    C3 6958   4.704   2.147   1.025 -0.3967 -0.5816  0.2306
  464TMC3    C4 6959   0.226   2.062   1.062 -0.2027  0.2008  0.6154
  464TMC3    C5 6960   0.126   2.024   1.150  0.5989 -0.3869  0.1001
  464TMC3    C6 6961   4.733   2.059   1.134 -1.0385 -0.6261  0.2776
  464TMC3     C 6962   0.292   2.178   0.865 -0.0268  0.0464 -0.6048
  464TMC3     O 6963   0.278   2.282   0.807 -0.3050 -0.9236  0.0137
  464TMC3     H 6964   0.047   2.267   0.870  2.3885 -0.3444 -0.5854
  464TMC3    H1 6965   0.330   2.050   1.090 -0.0139  1.3083  0.3858
  464TMC3    H2 6966   4.657   2.021   1.200 -0.8302 -1.1633  0.2050
  464TMC3    C7 6967   0.161   1.919   1.242 -0.1594  0.1430 -0.1349
  464TMC3    C8 6968   4.563   2.145   0.975  0.6663  0.0248  0.1155
  464TMC3    O1 6969   0.275   1.894   1.283 -0.5438 -0.0296  0.0040
  464TMC3    O2 6970   4.545   2.147   0.855  0.1512  0.2252 -0.0699
  465MPD2     C 6971   1.946   0.443  16.633 -0.3204 -0.2939 -0.2205
  465MPD2    C1 6972   1.855   0.507  16.724  0.0879 -0.3190 -0.0522
  465MPD2    C2 6973   1.731   0.539  16.685 -0.2957  0.2084  0.0109
  465MPD2    C3 6974   1.698   0.532  16.548 -0.6511  0.6133 -0.5893
  465MPD2    C4 6975   1.795   0.496  16.459 -0.1296 -0.6351  0.0973
  465MPD2    C5 6976   1.917   0.451  16.498  0.3621  0.9098 -0.2113
  465MPD2     H 6977   1.665   0.571  16.764  0.7690  2.8074 -0.1696
  465MPD2    H1 6978   1.778   0.498  16.352  0.4690  1.4991  0.0465
  465MPD2    H2 6979   2.045   0.422  16.672 -1.3145 -2.4874  1.1731
  465MPD2    H3 6980   1.989   0.421  16.423  0.1402  1.2012 -0.5438
  465MPD2     N 6981   1.562   0.550  16.514  0.1516  0.3667  0.0457
  465MPD2    H5 6982   1.493   0.543  16.589  0.7169  0.2537  0.5547
  465MPD2    N1 6983   1.874   0.516  16.862  0.5381 -0.2922 -0.3362
  465MPD2    H7 6984   1.810   0.569  16.919  2.2513  0.5609  0.7704
  466TMC3    C1 6985   1.170   0.569  16.511 -0.2161  0.1060  0.8032
  466TMC3    C2 6986   1.117   0.687  16.453  0.2377  0.3938 -0.3191
  466TMC3    C3 6987   1.186   0.744  16.351  0.5606  0.9851 -0.3437
  466TMC3    C4 6988   1.298   0.526  16.476 -0.1394 -1.0780 -0.0788
  466TMC3    C5 6989   1.367   0.606  16.380  0.1298  0.4248 -0.0997
  466TMC3    C6 6990   1.308   0.704  16.306  0.3971 -0.7175  0.3328
  466TMC3     C 6991   1.128   0.539  16.642  0.1276 -0.0827  0.5969
  466TMC3     O 6992   1.185   0.449  16.708 -0.4487  0.3419  0.0831
  466TMC3     H 6993   1.015   0.722  16.454  0.5536  1.3367 -0.5503
  466TMC3    H1 6994   1.341   0.441  16.528 -0.6769 -1.0104  0.4792
  466TMC3    H2 6995   1.370   0.757  16.235  0.4892 -1.1090  0.1232
  466TMC3    C7 6996   1.516   0.595  16.389  0.8531 -0.8882 -0.4661
  466TMC3    C8 6997   1.173   0.889  16.353 -0.2861 -0.8976 -0.0473
  466TMC3    O1 6998   1.591   0.635  16.298  0.1888  0.4341  0.5988
  466TMC3    O2 6999   1.130   0.933  16.456 -0.2501 -0.3929  0.2642
  467TMC3    C1 7000   2.255   3.858  13.967  0.0890  0.5333  0.4181
  467TMC3    C2 7001   2.184   3.972  13.934  0.2442  0.3742  0.2060
  467TMC3    C3 7002   2.068   3.959  13.859 -0.8076  0.1212  0.4627
  467TMC3    C4 7003   2.211   3.735  13.925  0.5687 -0.2143  0.0627
  467TMC3    C5 7004   2.102   3.726  13.845  0.1649 -0.1811  0.1531
  467TMC3    C6 7005   2.019   3.833  13.829 -0.0762  0.4609 -0.4313
  467TMC3     C 7006   2.399   3.879  13.954  1.1866  0.6618 -0.3119
  467TMC3     O 7007   2.447   3.961  14.033  0.3355  0.0713  0.0730
  467TMC3     H 7008   2.218   4.071  13.963 -2.4855  0.5813  2.6861
  467TMC3    H1 7009   2.270   3.644  13.929 -0.4873 -0.9741 -1.5808
  467TMC3    H2 7010   1.922   3.822  13.782 -0.3060 -0.1051  0.1828
  467TMC3    C7 7011   2.037   3.596  13.866 -0.2905  0.4085 -0.1780
  467TMC3    C8 7012   2.106   4.029  13.744 -0.0183 -0.2206 -0.2425
  467TMC3    O1 7013   2.116   3.500  13.854  0.4877  0.1004 -0.0436
  467TMC3    O2 7014   2.121   4.147  13.756 -0.1191 -0.1110 -0.6223
  468MPD2     C 7015   0.974   2.536  10.997 -0.1747  0.0942 -0.0674
  468MPD2    C1 7016   1.077   2.487  10.912  0.4842  0.9585  0.1009
  468MPD2    C2 7017   1.112   2.356  10.927  0.6655  0.3012  0.4033
  468MPD2    C3 7018   1.032   2.275  11.006 -0.5372 -0.3296  0.1612
  468MPD2    C4 7019   0.922   2.317  11.073 -0.9633  0.5844  0.0350
  468MPD2    C5 7020   0.893   2.453  11.064 -0.5839  0.3665  0.0105
  468MPD2     H 7021   1.175   2.311  10.852 -1.1976  1.7309 -2.0555
  468MPD2    H1 7022   0.861   2.258  11.141  1.6235 -1.8089  0.2822
  468MPD2    H2 7023   0.944   2.640  10.987 -0.3184  0.2218  1.7345
  468MPD2    H3 7024   0.805   2.492  11.113  0.0687  1.3366  0.4349
  468MPD2     N 7025   1.063   2.137  11.021 -0.4519 -0.6201 -0.1337
  468MPD2    H5 7026   0.982   2.080  11.040  0.5622 -2.2113 -0.5616
  468MPD2    N1 7027   1.158   2.565  10.826  0.5847  0.1632  0.0678
  468MPD2    H7 7028   1.231   2.516  10.775 -0.9706 -0.7109 -1.2985
  469TMC3    C1 7029   1.224   2.754  10.693 -0.0543 -0.3597 -0.0803
  469TMC3    C2 7030   1.308   2.674  10.621 -0.3882  0.3602 -0.5945
  469TMC3    C3 7031   1.393   2.735  10.532 -0.0615 -0.2331 -0.3838
  469TMC3    C4 7032   1.210   2.890  10.662  0.2095  0.5634  0.8057
  469TMC3    C5 7033   1.292   2.938  10.567  0.1745  0.3199 -0.2061
  469TMC3    C6 7034   1.390   2.865  10.501  0.1546  0.1271 -0.5616
  469TMC3     C 7035   1.140   2.700  10.797  1.0336 -0.2708  0.1367
  469TMC3     O 7036   1.058   2.778  10.842  0.4756  0.3768  0.4757
  469TMC3     H 7037   1.298   2.567  10.620  4.5727 -0.1011  0.8531
  469TMC3    H1 7038   1.132   2.947  10.712 -1.0220 -1.3877  1.0902
  469TMC3    H2 7039   1.459   2.910  10.431  0.6240  0.3321  0.0350
  469TMC3    C7 7040   1.268   3.076  10.511  0.4506 -0.3064  0.2473
  469TMC3    C8 7041   1.527   2.684  10.523 -0.4056 -0.3161  0.4728
  469TMC3    O1 7042   1.312   3.085  10.399 -0.0597 -0.0080  0.0702
  469TMC3    O2 7043   1.597   2.691  10.422  0.1776  0.5930  0.3004
  470TMC3    C1 7044   3.917   2.863   0.677  0.3459  0.3393 -0.3643
  470TMC3    C2 7045   3.916   2.993   0.633  1.0720  0.1155 -0.1389
  470TMC3    C3 7046   4.006   3.078   0.697  0.1437 -0.4184  0.2603
  470TMC3    C4 7047   3.995   2.819   0.780  0.0626 -0.4594 -0.1530
  470TMC3    C5 7048   4.081   2.909   0.840 -0.3926 -0.3579  0.1048
  470TMC3    C6 7049   4.093   3.045   0.796  0.2047 -0.1029  0.1994
  470TMC3     C 7050   3.851   2.759   0.605  0.0776 -0.3913 -0.1597
  470TMC3     O 7051   3.845   2.648   0.655  0.2297  0.6042  0.0248
  470TMC3     H 7052   3.876   3.022   0.537 -3.4402 -0.7150  1.5110
  470TMC3    H1 7053   4.002   2.716   0.811 -0.3197 -0.3619  0.2526
  470TMC3    H2 7054   4.159   3.117   0.842  0.7333 -1.0548  0.9249
  470TMC3    C7 7055   4.137   2.876   0.966  0.0539  0.5554  0.1915
  470TMC3    C8 7056   4.014   3.217   0.649  0.0421  0.2795  1.0313
  470TMC3    O1 7057   4.244   2.925   0.983  0.2576  0.4920  0.4829
  470TMC3    O2 7058   3.922   3.261   0.579  0.3054 -0.4461 -0.4184
  471MPD2     C 7059   4.234   4.494  16.862  0.3207  0.0506  0.2358
  471MPD2    C1 7060   4.252   4.365  16.842 -0.9806  0.0980  0.3520
  471MPD2    C2 7061   4.357   4.301  16.911 -0.3289  0.5615  0.3496
  471MPD2    C3 7062   4.441   4.367  17.007 -0.0375 -0.2674 -0.1108
  471MPD2    C4 7063   4.423   4.502  17.019  0.1842 -0.6000 -0.3795
  471MPD2    C5 7064   4.324   4.562  16.946 -0.1867 -0.2203  0.1803
  471MPD2     H 7065   4.364   4.193  16.904 -0.8074  0.5647 -0.1564
  471MPD2    H1 7066   4.489   4.568  17.073  1.2454 -1.4661 -0.6188
  471MPD2    H2 7067   4.160   4.543  16.800 -2.1239 -0.4400  2.7439
  471MPD2    H3 7068   4.314   4.670  16.953  1.6126 -0.0438  0.1264
  471MPD2     N 7069   4.510   4.288  17.106 -0.8093 -0.2444 -0.1842
  471MPD2    H5 7070   4.530   4.334  17.194  0.6150  0.5104 -0.8988
  471MPD2    N1 7071   4.168   4.277  16.772 -0.0280 -0.0052  0.4805
  471MPD2    H7 7072   4.193   4.179  16.776 -1.7580 -0.5181 -1.3864
  472TMC3    C1 7073   3.977   4.207  16.644  0.3424  0.4123 -0.3538
  472TMC3    C2 7074   3.912   4.233  16.529  0.0616 -0.6497 -0.4269
  472TMC3    C3 7075   3.869   4.121  16.471 -0.1552  0.6417 -0.2830
  472TMC3    C4 7076   3.974   4.085  16.706 -0.6991 -0.0539  0.6405
  472TMC3    C5 7077   3.926   3.982  16.643  0.3879 -0.1623 -0.5830
  472TMC3    C6 7078   3.879   3.992  16.522  0.5518  0.2879  0.3634
  472TMC3     C 7079   4.054   4.323  16.702 -0.8629 -0.1705 -0.1269
  472TMC3     O 7080   4.004   4.434  16.685 -0.6086 -0.0093 -0.0283
  472TMC3     H 7081   3.917   4.325  16.472 -1.0645 -0.2009  0.1983
  472TMC3    H1 7082   4.018   4.071  16.804  0.1233  0.0040  0.2737
  472TMC3    H2 7083   3.878   3.907  16.455 -0.2146  0.1476  0.5591
  472TMC3    C7 7084   3.922   3.856  16.716  0.5178 -0.4633  0.2423
  472TMC3    C8 7085   3.829   4.146  16.330  0.3427 -0.0862  0.4419
  472TMC3    O1 7086   3.980   3.853  16.822 -0.5366  0.2028  0.2553
  472TMC3    O2 7087   3.842   4.250  16.271 -0.0046 -0.3537  0.8729
  473MPD2     C 7088   3.516   1.280  14.173  0.2088 -0.3220 -0.3485
  473MPD2    C1 7089   3.593   1.367  14.099  0.5966  0.0732 -0.1462
  473MPD2    C2 7090   3.673   1.444  14.172  0.7354  0.0835  0.2074
  473MPD2    C3 7091   3.677   1.439  14.308  0.1708  0.4439  0.1682
  473MPD2    C4 7092   3.607   1.351  14.379  0.0896  0.5255 -0.6581
  473MPD2    C5 7093   3.524   1.264  14.311 -1.0349 -1.4101 -0.3103
  473MPD2     H 7094   3.724   1.521  14.116 -0.6985  1.1419  0.3479
  473MPD2    H1 7095   3.608   1.339  14.486  0.5726 -4.2472 -1.2040
  473MPD2    H2 7096   3.451   1.211  14.120 -1.2419  1.1769 -0.5067
  473MPD2    H3 7097   3.470   1.182  14.358 -1.6647  0.2554  1.8500
  473MPD2     N 7098   3.751   1.530  14.381  0.6027  0.2485  0.4492
  473MPD2    H5 7099   3.724   1.554  14.475  2.1507 -1.9905  1.4546
  473MPD2    N1 7100   3.570   1.404  13.963  0.0955 -0.3754 -0.4048
  473MPD2    H7 7101   3.630   1.471  13.916 -1.4364  1.0567 -0.3184
  474TMC3    C1 7102   3.924   1.690  14.424  0.2075 -0.0029  0.7993
  474TMC3    C2 7103   3.837   1.797  14.429  0.1368  0.6872 -0.2788
  474TMC3    C3 7104   3.878   1.927  14.423 -0.0228  0.3496  0.2785
  474TMC3    C4 7105   4.054   1.714  14.414 -0.4529  0.3307  0.0927
  474TMC3    C5 7106   4.094   1.840  14.402  0.0665  0.2757  0.5493
  474TMC3    C6 7107   4.011   1.948  14.398 -0.3604  0.2637 -0.0958
  474TMC3     C 7108   3.873   1.584  14.337 -0.8285 -0.1485 -0.2013
  474TMC3     O 7109   3.942   1.554  14.240  0.0053 -0.0881 -0.3291
  474TMC3     H 7110   3.731   1.776  14.441  0.1820  1.1659  0.9592
  474TMC3    H1 7111   4.121   1.631  14.392  0.8891  1.7746 -1.2889
  474TMC3    H2 7112   4.044   2.047  14.368  1.6309  0.4075  2.5547
  474TMC3    C7 7113   4.232   1.861  14.448 -0.5220  0.1760  1.0037
  474TMC3    C8 7114   3.777   2.009  14.351 -0.1626 -0.4851 -0.6694
  474TMC3    O1 7115   4.317   1.784  14.401  0.1065 -0.2802 -0.1156
  474TMC3    O2 7116   3.685   1.944  14.301  0.0934 -0.3406 -0.8427
  475MPD2     C 7117   2.025   4.633  10.990 -0.1483 -0.5707  0.1171
  475MPD2    C1 7118   1.993   0.021  11.040 -0.3724  0.4490 -0.5179
  475MPD2    C2 7119   1.890   0.088  10.978 -0.0231 -0.0202 -0.2900
  475MPD2    C3 7120   1.835   0.039  10.867 -0.4134 -0.7313  0.7259
  475MPD2    C4 7121   1.878   4.657  10.815 -0.1875  0.0302 -0.5426
  475MPD2    C5 7122   1.971   4.583  10.875 -0.0783 -0.1686 -0.2929
  475MPD2     H 7123   1.851   0.179  11.022  1.1999  0.3846 -0.0189
  475MPD2    H1 7124   1.842   4.617  10.721  0.4975 -0.8441 -0.4317
  475MPD2    H2 7125   2.109   4.584  11.039  0.6249  0.8370  0.1884
  475MPD2    H3 7126   2.012   4.492  10.833  0.1775  0.1052 -0.6467
  475MPD2     N 7127   1.730   0.113  10.820 -0.2042  0.4996 -0.2310
  475MPD2    H5 7128   1.697   0.196  10.867  0.9622  1.2503 -0.7550
  475MPD2    N1 7129   2.059   0.091  11.141  0.5909 -0.2467  0.3447
  475MPD2    H7 7130   2.030   0.187  11.157 -0.1538 -0.8030  2.3842
  476TMC3    C1 7131   2.237   0.160  11.268 -0.0269 -0.0157  0.0641
  476TMC3    C2 7132   2.347   0.201  11.200 -0.3321 -0.1241 -0.2607
  476TMC3    C3 7133   2.353   0.338  11.188 -1.2860 -0.2995 -0.7441
  476TMC3    C4 7134   2.166   0.238  11.350  0.1436 -0.8552  0.5145
  476TMC3    C5 7135   2.191   0.371  11.356  0.6585  0.3132  0.6333
  476TMC3    C6 7136   2.279   0.419  11.269 -0.5723 -0.5299 -0.0666
  476TMC3     C 7137   2.169   0.045  11.215 -0.3739  0.0998  0.5271
  476TMC3     O 7138   2.237   4.681  11.224 -0.1050  0.2909  0.5064
  476TMC3     H 7139   2.405   0.128  11.145 -0.1784 -1.0190  1.1082
  476TMC3    H1 7140   2.078   0.203  11.402 -1.1601  0.6778 -0.6668
  476TMC3    H2 7141   2.308   0.523  11.259  0.8824 -0.8922  0.2874
  476TMC3    C7 7142   2.092   0.455  11.427 -0.2942 -0.2912 -0.4215
  476TMC3    C8 7143   2.345   0.380  11.049  0.0760 -0.3820 -0.4148
  476TMC3    O1 7144   2.020   0.397  11.508  0.1014 -0.1152  0.6442
  476TMC3    O2 7145   2.344   0.503  11.036 -0.4445 -0.1878 -0.5554
  477MPD2     C 7146   4.578   1.777  11.839 -0.6770 -0.1608  0.2299
  477MPD2    C1 7147   4.503   1.703  11.747 -0.1149  0.7274  0.8529
  477MPD2    C2 7148   4.470   1.569  11.775  0.0758 -0.6431  0.6456
  477MPD2    C3 7149   4.509   1.510  11.897 -0.3985  0.0076 -0.3692
  477MPD2    C4 7150   4.589   1.580  11.978 -0.8844  0.5837 -0.6345
  477MPD2    C5 7151   4.624   1.712  11.952 -0.2792 -0.0928 -0.2243
  477MPD2     H 7152   4.405   1.509  11.712 -1.8352  2.1318 -0.0472
  477MPD2    H1 7153   4.620   1.537  12.073 -2.0533  0.1445 -0.4507
  477MPD2    H2 7154   4.597   1.879  11.810 -0.3516 -0.1398  0.5297
  477MPD2    H3 7155   4.683   1.766  12.025 -3.5302  1.7844  0.9907
  477MPD2     N 7156   4.468   1.373  11.929  0.0750 -0.4347 -0.3675
  477MPD2    H5 7157   4.385   1.340  11.881 -0.1166 -1.7640  0.8653
  477MPD2    N1 7158   4.459   1.779  11.638  0.3996 -0.6590  0.4121
  477MPD2    H7 7159   4.462   1.879  11.653 -1.1681 -0.5642  0.1521
  478TMC3    C1 7160   4.345   1.814  11.431 -0.0873  0.1301  0.3953
  478TMC3    C2 7161   4.333   1.947  11.452 -0.9665 -0.1630  0.2176
  478TMC3    C3 7162   4.269   2.018  11.351 -0.2725  0.2377  0.4551
  478TMC3    C4 7163   4.298   1.757  11.314 -0.3245  0.0980  0.5269
  478TMC3    C5 7164   4.237   1.836  11.219  0.2149 -0.2490 -0.1660
  478TMC3    C6 7165   4.209   1.970  11.241  0.2558 -0.1841 -0.0240
  478TMC3     C 7166   4.410   1.721  11.526 -0.0613 -0.4781 -0.1891
  478TMC3     O 7167   4.405   1.603  11.497 -0.8539 -0.0968  0.1638
  478TMC3     H 7168   4.377   2.001  11.535  1.8057  1.4869 -2.3227
  478TMC3    H1 7169   4.333   1.660  11.281 -1.0297 -0.8532  2.5858
  478TMC3    H2 7170   4.138   2.023  11.179  0.7169  0.0978 -0.3151
  478TMC3    C7 7171   4.175   1.761  11.107 -0.0546 -0.3007  0.0446
  478TMC3    C8 7172   4.222   2.151  11.391 -0.4885 -0.3435  0.1236
  478TMC3    O1 7173   4.172   1.640  11.122  0.6752 -0.2954 -0.6548
  478TMC3    O2 7174   4.301   2.232  11.432 -0.1441 -0.3385 -0.0308
  479MPD2     C 7175   3.387   3.398  14.712 -0.4109 -0.2239 -0.2609
  479MPD2    C1 7176   3.375   3.398  14.848  0.5395 -0.2730  0.4128
  479MPD2    C2 7177   3.434   3.501  14.923  0.7575  0.5116 -0.0069
  479MPD2    C3 7178   3.497   3.611  14.865  0.1537 -0.3954  0.3726
  479MPD2    C4 7179   3.497   3.612  14.732 -0.4174 -0.3238 -0.4808
  479MPD2    C5 7180   3.451   3.509  14.650 -0.6759 -0.0236  0.2282
  479MPD2     H 7181   3.422   3.497  15.031  0.9392 -2.1834 -0.0937
  479MPD2    H1 7182   3.550   3.693  14.683  0.2455 -1.7895 -2.1461
  479MPD2    H2 7183   3.349   3.310  14.661  0.2444  0.3707 -1.7709
  479MPD2    H3 7184   3.453   3.513  14.542 -1.0386  0.0974  0.2257
  479MPD2     N 7185   3.552   3.725  14.936  0.4551  0.3732  0.1926
  479MPD2    H5 7186   3.611   3.787  14.882  0.3328  0.4448  0.1421
  479MPD2    N1 7187   3.303   3.291  14.913 -0.2834 -0.3324 -0.4347
  479MPD2    H7 7188   3.264   3.218  14.853 -0.9807  0.4516 -0.9469
  480TMC3    C1 7189   3.356   3.618  15.336 -0.2927  0.5987 -0.0992
  480TMC3    C2 7190   3.232   3.612  15.286  0.2572 -0.0711  0.4513
  480TMC3    C3 7191   3.214   3.673  15.163 -0.6633 -0.1079 -1.4396
  480TMC3    C4 7192   3.468   3.670  15.275 -0.7912 -0.2674 -0.0881
  480TMC3    C5 7193   3.445   3.711  15.152  0.2391 -0.2585  0.7154
  480TMC3    C6 7194   3.325   3.720  15.091 -0.6838 -0.0305  0.5973
  480TMC3     C 7195   3.384   3.540  15.456  0.6034  0.2212 -0.3302
  480TMC3     O 7196   3.345   3.425  15.465 -0.0408  0.0043  0.0832
  480TMC3     H 7197   3.154   3.560  15.339 -2.4538  2.5904 -0.9219
  480TMC3    H1 7198   3.565   3.632  15.304  0.1457  1.0809 -1.4680
  480TMC3    H2 7199   3.301   3.786  15.008  3.8267  2.6508  1.4412
  480TMC3    C7 7200   3.559   3.747  15.071  0.0826  0.5945  0.1005
  480TMC3    C8 7201   3.089   3.653  15.096 -0.8740 -0.4781  0.3918
  480TMC3    O1 7202   3.638   3.812  15.133 -0.1908 -0.0621 -1.3560
  480TMC3    O2 7203   2.998   3.610  15.166  0.1427 -0.1103  0.4913
  481MPD2     C 7204   0.303   3.199  13.937  0.0416 -0.3555  0.1784
  481MPD2    C1 7205   0.242   3.081  13.978 -0.1728 -0.4056  0.3421
  481MPD2    C2 7206   0.267   3.034  14.110  0.6464  0.0849  0.5184
  481MPD2    C3 7207   0.346   3.110  14.194 -0.5786 -0.2101  0.4342
  481MPD2    C4 7208   0.406   3.229  14.146 -0.4300 -0.1905  0.0423
  481MPD2    C5 7209   0.393   3.266  14.012  0.2094  0.1376  0.0174
  481MPD2     H 7210   0.213   2.951  14.154  2.6400 -1.4879  0.0159
  481MPD2    H1 7211   0.473   3.289  14.207  2.0335 -0.1904 -2.6640
  481MPD2    H2 7212   0.275   3.240  13.841  0.1209  0.6604  0.5953
  481MPD2    H3 7213   0.438   3.360  13.982  0.6247 -0.5133 -1.3802
  481MPD2     N 7214   0.369   3.080  14.330 -0.3899 -0.1771 -0.4674
  481MPD2    H5 7215   0.430   3.146  14.378  0.7826  0.6847 -3.1492
  481MPD2    N1 7216   0.145   3.033  13.893  0.0046 -0.1984  0.0333
  481MPD2    H7 7217   0.138   3.086  13.806 -0.5781 -1.9042 -0.9532
  482TMC3    C1 7218   4.685   2.948  13.835 -0.1172 -0.4389  0.1045
  482TMC3    C2 7219   4.621   2.831  13.812  0.3581 -0.2263  0.1934
  482TMC3    C3 7220   4.489   2.841  13.765  0.1828  0.3286  0.2802
  482TMC3    C4 7221   4.618   3.069  13.822 -0.5588  0.1589  0.5583
  482TMC3    C5 7222   4.480   3.070  13.805  0.2675  0.3152  0.1559
  482TMC3    C6 7223   4.416   2.956  13.760  0.4187 -0.0107 -0.7145
  482TMC3     C 7224   0.057   2.939  13.923 -0.1660 -0.3832 -0.0835
  482TMC3     O 7225   0.060   2.850  14.008 -0.0566 -0.6700 -0.9750
  482TMC3     H 7226   4.666   2.734  13.826 -2.8874 -1.3290  2.8494
  482TMC3    H1 7227   4.668   3.160  13.854  0.0704  0.5902 -1.6932
  482TMC3    H2 7228   4.308   2.957  13.746  0.4679 -0.1064 -1.0851
  482TMC3    C7 7229   4.412   3.192  13.772 -0.6611 -0.1994  0.2604
  482TMC3    C8 7230   4.402   2.727  13.784  0.6481  0.0396  0.4857
  482TMC3    O1 7231   4.311   3.197  13.708 -0.2553 -0.7578  0.2124
  482TMC3    O2 7232   4.443   2.634  13.849 -0.0648 -0.1057  0.0115
  483TMC3    C1 7233   3.428   1.963   0.977 -1.2646  0.5091  0.4155
  483TMC3    C2 7234   3.473   2.080   1.028  0.3457 -0.2278 -1.1584
  483TMC3    C3 7235   3.593   2.079   1.096  0.0850  0.7592  0.1514
  483TMC3    C4 7236   3.497   1.847   0.981 -0.1825 -0.5212  0.0122
  483TMC3    C5 7237   3.617   1.845   1.054 -0.8808 -0.2016 -0.0572
  483TMC3    C6 7238   3.658   1.960   1.125 -0.3351  1.3081  0.6639
  483TMC3     C 7239   3.362   1.989   0.848 -0.2712 -0.8383 -0.4475
  483TMC3     O 7240   3.374   2.097   0.797 -0.1474 -0.4753 -0.3117
  483TMC3     H 7241   3.429   2.177   1.009 -0.7943 -0.5873 -0.3322
  483TMC3    H1 7242   3.474   1.762   0.917  3.9872 -1.6409 -0.0339
  483TMC3    H2 7243   3.746   1.954   1.188 -0.1127  0.2796  0.2644
  483TMC3    C7 7244   3.713   1.741   1.033 -0.2468  0.0115  1.0620
  483TMC3    C8 7245   3.680   2.199   1.085  0.3095  0.2208  0.0796
  483TMC3    O1 7246   3.803   1.746   1.118 -0.5244 -0.3591 -0.0939
  483TMC3    O2 7247   3.675   2.258   0.979  0.1379  0.7258  0.0152
  484MPD2     C 7248   0.366   0.043  12.177  0.3765 -0.0474  0.1409
  484MPD2    C1 7249   0.454   0.010  12.278 -0.2411 -0.5554 -0.5732
  484MPD2    C2 7250   0.583   0.055  12.278 -0.0744 -0.3588  0.1116
  484MPD2    C3 7251   0.628   0.125  12.163 -0.1820  0.1220  0.1690
  484MPD2    C4 7252   0.537   0.159  12.059 -0.1938 -0.0221 -0.0263
  484MPD2    C5 7253   0.407   0.115  12.069 -0.1517 -0.0103 -0.0351
  484MPD2     H 7254   0.654   0.044  12.359  1.1454  2.7229 -0.5712
  484MPD2    H1 7255   0.579   0.202  11.969 -1.3050  1.5063  0.1832
  484MPD2    H2 7256   0.264   0.006  12.170  0.3838 -0.3474  1.5057
  484MPD2    H3 7257   0.345   0.131  11.981  0.1753 -1.0159 -0.4467
  484MPD2     N 7258   0.762   0.172  12.151 -0.5836  0.0341 -0.4965
  484MPD2    H5 7259   0.782   0.234  12.074  2.6329 -1.1255 -0.6280
  484MPD2    N1 7260   0.408   4.661  12.383  0.4544 -0.4149  0.1578
  484MPD2    H7 7261   0.310   4.638  12.371  0.1842  0.9843 -0.3304
  485TMC3    C1 7262   0.996   0.207  12.208  0.2821  0.2703  0.3417
  485TMC3    C2 7263   1.092   0.182  12.305 -0.7691 -0.1126  0.3433
  485TMC3    C3 7264   1.208   0.241  12.291  0.0942  0.6722 -0.1208
  485TMC3    C4 7265   1.020   0.279  12.094  0.0427  0.2998  0.4668
  485TMC3    C5 7266   1.139   0.331  12.086 -0.6311 -0.8483  0.7101
  485TMC3    C6 7267   1.234   0.313  12.182  0.8354 -0.5680  0.2324
  485TMC3     C 7268   0.873   0.126  12.226  0.7886 -1.0496 -1.3917
  485TMC3     O 7269   0.875   0.041  12.316  0.1233  0.3269 -0.3128
  485TMC3     H 7270   1.066   0.126  12.394 -1.4919  2.2227  1.5972
  485TMC3    H1 7271   0.949   0.290  12.013 -0.7310  0.8527  1.2182
  485TMC3    H2 7272   1.322   0.376  12.182  0.3906  0.0562  0.7813
  485TMC3    C7 7273   1.208   0.331  11.954  0.7429  0.8190 -0.2395
  485TMC3    C8 7274   1.326   0.159  12.319  0.0174 -0.3517 -0.2403
  485TMC3    O1 7275   1.152   0.373  11.854 -0.0424  0.5383 -0.7778
  485TMC3    O2 7276   1.403   0.168  12.223  0.3036  0.4517  0.1032
  486MPD2     C 7277   3.381   3.714  12.958  0.2496  0.6112 -0.2252
  486MPD2    C1 7278   3.265   3.653  12.906  0.1002  0.1444 -0.5572
  486MPD2    C2 7279   3.142   3.724  12.892  0.0305 -0.4058 -0.4018
  486MPD2    C3 7280   3.135   3.855  12.927 -0.0338  0.5571 -0.8306
  486MPD2    C4 7281   3.254   3.919  12.963  0.5820  0.6741  0.4942
  486MPD2    C5 7282   3.380   3.846  12.974  0.6626  0.9639  0.1620
  486MPD2     H 7283   3.049   3.682  12.856  0.7040 -1.8803 -0.4306
  486MPD2    H1 7284   3.260   4.025  12.984 -0.1388  1.0364 -1.1640
  486MPD2    H2 7285   3.470   3.652  12.961 -0.3308 -0.3499 -2.8171
  486MPD2    H3 7286   3.476   3.885  13.006  0.2361 -0.8456  3.7011
  486MPD2     N 7287   3.010   3.922  12.917 -0.0663  0.4225  0.3666
  486MPD2    H5 7288   2.935   3.870  12.873  1.9736 -1.1689 -1.2245
  486MPD2    N1 7289   3.278   3.517  12.865 -0.3039 -0.3311 -0.8398
  486MPD2    H7 7290   3.361   3.468  12.896 -0.1485  0.8688  0.6402
  487TMC3    C1 7291   3.201   3.312  12.775  0.6326 -1.3071  0.3080
  487TMC3    C2 7292   3.125   3.249  12.681 -0.3247  0.4536  0.2721
  487TMC3    C3 7293   3.116   3.111  12.679 -0.3725 -0.2897 -0.7234
  487TMC3    C4 7294   3.243   3.247  12.885  0.3001 -0.6920  0.6123
  487TMC3    C5 7295   3.215   3.116  12.889 -0.5572 -0.0197  0.1200
  487TMC3    C6 7296   3.149   3.048  12.795 -0.1690  0.1789  0.4251
  487TMC3     C 7297   3.177   3.454  12.792  0.3986 -0.3363 -0.0817
  487TMC3     O 7298   3.070   3.487  12.745  0.3161  0.1463  0.1344
  487TMC3     H 7299   3.081   3.295  12.593  3.4704 -0.1056 -1.9155
  487TMC3    H1 7300   3.305   3.286  12.965 -1.1463  1.0545  0.8754
  487TMC3    H2 7301   3.155   2.940  12.790 -0.7836  0.1658 -0.0676
  487TMC3    C7 7302   3.257   3.047  13.012 -0.3544 -0.0806 -0.7443
  487TMC3    C8 7303   2.990   3.069  12.622  0.0137 -0.8082  0.5459
  487TMC3    O1 7304   3.305   3.121  13.101 -0.2117  0.2086  0.0750
  487TMC3    O2 7305   2.968   3.112  12.512  0.5975 -0.2914  0.6725
  488MPD2     C 7306   2.980   0.710  16.043  0.1469  0.1304  0.4504
  488MPD2    C1 7307   3.017   0.819  16.121 -0.3032 -0.4777 -0.2506
  488MPD2    C2 7308   3.056   0.786  16.251  0.1346  0.7127 -0.1332
  488MPD2    C3 7309   3.034   0.661  16.310 -0.8327  0.4299 -0.0624
  488MPD2    C4 7310   2.992   0.560  16.225 -0.1947  0.2411 -0.1845
  488MPD2    C5 7311   2.978   0.580  16.091 -0.3077 -0.0253  0.0686
  488MPD2     H 7312   3.101   0.870  16.303 -1.2478  1.6949 -0.5248
  488MPD2    H1 7313   2.979   0.458  16.258 -0.4356  0.5270  0.6006
  488MPD2    H2 7314   2.960   0.710  15.937 -0.3914  1.2674  0.5561
  488MPD2    H3 7315   2.941   0.495  16.034 -1.2051  0.8871 -0.6931
  488MPD2     N 7316   3.066   0.641  16.446 -0.0549  0.9588  0.4508
  488MPD2    H5 7317   3.102   0.721  16.496  1.3402  0.6960 -0.1396
  488MPD2    N1 7318   3.036   0.950  16.073  0.1193 -0.2494 -0.5763
  488MPD2    H7 7319   3.069   1.019  16.141  0.1997 -1.0806  0.2277
  489TMC3    C1 7320   3.135   0.529  16.647  0.1974 -0.1638 -0.8430
  489TMC3    C2 7321   3.206   0.642  16.688  1.2466  0.2169 -0.0733
  489TMC3    C3 7322   3.238   0.642  16.820 -0.2510 -0.2303 -0.2312
  489TMC3    C4 7323   3.096   0.436  16.739 -0.1097  0.0712  0.1046
  489TMC3    C5 7324   3.130   0.451  16.872  0.2215  0.2296 -0.2275
  489TMC3    C6 7325   3.203   0.550  16.914  0.4724 -0.1893  0.2419
  489TMC3     C 7326   3.062   0.526  16.515 -0.8847  0.4283  0.4483
  489TMC3     O 7327   3.000   0.424  16.496 -0.1333  0.0148  0.2839
  489TMC3     H 7328   3.242   0.721  16.622 -0.2267  0.3484 -0.7318
  489TMC3    H1 7329   3.046   0.342  16.715  1.2867 -0.0841 -2.2553
  489TMC3    H2 7330   3.216   0.572  17.020  0.5748  0.2307  0.1424
  489TMC3    C7 7331   3.129   0.338  16.965  0.1847 -0.0788  0.2872
  489TMC3    C8 7332   3.279   0.771  16.865 -0.8725 -0.2316  0.5654
  489TMC3    O1 7333   3.171   0.368  17.081 -0.4940  0.1820 -0.7865
  489TMC3    O2 7334   3.247   0.864  16.790  0.1090 -0.0882  0.3305
  490MPD2     C 7335   3.824   0.051  16.997  0.5207  0.0508 -0.1730
  490MPD2    C1 7336   3.923   4.693  17.011 -0.1546  0.5858 -0.5060
  490MPD2    C2 7337   4.046   4.725  17.064  0.0748  0.5534 -0.4228
  490MPD2    C3 7338   4.072   0.121  17.101  0.4088  0.3889  0.2516
  490MPD2    C4 7339   3.966   0.211  17.088  0.0112  0.0791  0.2567
  490MPD2    C5 7340   3.843   0.176  17.032  0.0912  1.1385  0.1330
  490MPD2     H 7341   4.115   4.643  17.080  0.5368  1.4268  2.0523
  490MPD2    H1 7342   3.972   0.313  17.127  2.0168  0.0678 -0.0191
  490MPD2    H2 7343   3.721   0.029  16.971  0.9454 -3.8374  1.3844
  490MPD2    H3 7344   3.772   0.257  17.024  0.1862  1.1629 -0.5035
  490MPD2     N 7345   4.186   0.149  17.177 -0.6268  0.1060 -0.3634
  490MPD2    H5 7346   4.244   0.072  17.210 -1.2035  0.4180  1.4037
  490MPD2    N1 7347   3.901   4.556  16.982  0.0608 -0.0855 -0.1104
  490MPD2    H7 7348   3.969   4.493  17.022 -2.7673 -1.7907  2.0201
  491TMC3    C1 7349   3.777   4.358  16.957  0.2628  0.0049  0.1097
  491TMC3    C2 7350   3.815   4.325  17.084 -0.1302  0.2923  0.4496
  491TMC3    C3 7351   3.787   4.193  17.129 -0.0429  0.0755  0.4541
  491TMC3    C4 7352   3.714   4.270  16.876 -0.1341 -0.2892 -0.2905
  491TMC3    C5 7353   3.690   4.140  16.921 -1.0856  0.2062 -0.0515
  491TMC3    C6 7354   3.725   4.105  17.050 -0.1987 -1.1226 -0.4550
  491TMC3     C 7355   3.794   4.494  16.922  0.0306 -0.1385 -0.2613
  491TMC3     O 7356   3.704   4.546  16.866  0.6930 -0.0034  0.1414
  491TMC3     H 7357   3.868   4.398  17.144  0.5760 -1.4981  1.9979
  491TMC3    H1 7358   3.695   4.296  16.772 -1.6234 -1.0719 -0.2091
  491TMC3    H2 7359   3.677   4.016  17.089 -1.2644 -0.1076  0.5450
  491TMC3    C7 7360   3.622   4.052  16.830  0.3949  0.2037  0.1093
  491TMC3    C8 7361   3.802   4.176  17.273  0.4825  0.4419  0.6924
  491TMC3    O1 7362   3.622   4.093  16.716 -0.0939  0.3213  0.3063
  491TMC3    O2 7363   3.864   4.263  17.338 -0.7850  0.2409 -0.3779
  492MPD2     C 7364   4.114   4.552  11.337 -0.0570  0.3850  0.2604
  492MPD2    C1 7365   3.993   4.555  11.265  0.1968 -0.4401  0.1719
  492MPD2    C2 7366   3.879   4.481  11.306  0.3190 -0.1382  0.1285
  492MPD2    C3 7367   3.887   4.414  11.427  0.3304  0.2528 -0.8332
  492MPD2    C4 7368   4.002   4.420  11.495 -0.1665  0.2307  0.0813
  492MPD2    C5 7369   4.117   4.478  11.454 -0.2942  0.4333 -0.0041
  492MPD2     H 7370   3.783   4.501  11.261  1.2821  1.4936 -1.2494
  492MPD2    H1 7371   4.012   4.381  11.596 -1.0185  0.0832  0.1120
  492MPD2    H2 7372   4.205   4.599  11.301  1.4411 -3.0539 -0.4836
  492MPD2    H3 7373   4.204   4.469  11.518 -0.9128 -0.4930  0.7175
  492MPD2     N 7374   3.771   4.372  11.491  0.3715  0.1077 -0.1206
  492MPD2    H5 7375   3.781   4.342  11.587 -1.6470 -1.4201 -0.3764
  492MPD2    N1 7376   3.985   4.642  11.159  0.3536  0.5815 -0.2094
  492MPD2    H7 7377   4.060   4.710  11.152  0.7906  0.2145  0.9425
  493TMC3    C1 7378   3.912   0.009  10.964 -0.5889 -0.4126 -0.6108
  493TMC3    C2 7379   3.963   0.131  10.993  0.6660  0.2436 -0.2831
  493TMC3    C3 7380   3.944   0.234  10.903 -0.3164 -0.0368 -0.3491
  493TMC3    C4 7381   3.844   4.722  10.847 -1.3101 -1.6525  0.7514
  493TMC3    C5 7382   3.830   0.086  10.761 -0.0962 -0.2909  0.7216
  493TMC3    C6 7383   3.867   0.214  10.795  0.1921 -0.1787 -0.2245
  493TMC3     C 7384   3.889   4.645  11.064  0.1420 -0.2108 -0.0501
  493TMC3     O 7385   3.790   4.573  11.046 -0.1828 -0.1251  0.4033
  493TMC3     H 7386   4.004   0.160  11.089 -2.7115  0.5396  1.0533
  493TMC3    H1 7387   3.807   4.621  10.828 -1.2952 -1.5590  0.2095
  493TMC3    H2 7388   3.857   0.295  10.724  0.5110 -0.6037 -0.7554
  493TMC3    C7 7389   3.743   0.068  10.645 -0.2259 -0.2825 -0.4753
  493TMC3    C8 7390   3.954   0.370  10.953 -0.2743  0.3409 -0.0827
  493TMC3    O1 7391   3.685   4.699  10.635 -0.2348  0.2317  0.1650
  493TMC3    O2 7392   3.923   0.386  11.065  0.2121 -0.0697 -0.1103
  494TMC3    C1 7393   0.060   1.636   0.200  0.3884  0.3651  1.5052
  494TMC3    C2 7394   0.146   1.530   0.230 -0.8259 -0.2241 -0.7214
  494TMC3    C3 7395   0.281   1.556   0.225 -0.4287  0.6808 -0.0488
  494TMC3    C4 7396   0.102   1.767   0.187 -0.7525  0.2097  0.1878
  494TMC3    C5 7397   0.238   1.780   0.175 -0.7773  0.0624 -0.2120
  494TMC3    C6 7398   0.325   1.682   0.191  0.4167  0.2682  0.8336
  494TMC3     C 7399   4.652   1.623   0.206 -0.2229 -0.4949 -0.7810
  494TMC3     O 7400   4.594   1.730   0.232  0.4452  0.0969  0.1773
  494TMC3     H 7401   0.100   1.434   0.248  1.7417 -1.3249 -0.0662
  494TMC3    H1 7402   0.033   1.840   0.147  0.1583 -1.1246 -3.8381
  494TMC3    H2 7403   0.427   1.700   0.160  0.6588  0.0241  1.4973
  494TMC3    C7 7404   0.276   1.873   0.071  0.1687  0.0082 -0.8454
  494TMC3    C8 7405   0.384   1.465   0.276  0.1394  0.1980  0.9135
  494TMC3    O1 7406   0.299   1.812  17.713 -0.0057 -0.4341  0.1422
  494TMC3    O2 7407   0.498   1.511   0.268 -0.0560 -0.0704  0.0466
  495TMC3    C1 7408   3.051   3.358  14.123 -0.0594  0.0681 -0.2979
  495TMC3    C2 7409   3.116   3.441  14.034 -0.4219  0.3531  0.1295
  495TMC3    C3 7410   3.155   3.564  14.088 -0.6830 -0.2573  0.4605
  495TMC3    C4 7411   3.044   3.392  14.257 -0.0903 -0.0247 -0.0925
  495TMC3    C5 7412   3.100   3.510  14.307  0.1123  0.1269 -0.2759
  495TMC3    C6 7413   3.158   3.596  14.222  0.2512  0.1141 -0.3844
  495TMC3     C 7414   2.935   3.281  14.076  0.0566 -0.1572 -0.0278
  495TMC3     O 7415   2.840   3.274  14.155  0.4269  0.3809  0.2308
  495TMC3     H 7416   3.134   3.421  13.929 -1.0573  0.9185 -0.0820
  495TMC3    H1 7417   2.998   3.320  14.325 -2.8998  3.0236  1.2164
  495TMC3    H2 7418   3.182   3.698  14.250 -2.4765  0.6226  0.0529
  495TMC3    C7 7419   3.098   3.546  14.443 -0.1088  0.9945 -1.0166
  495TMC3    C8 7420   3.211   3.670  14.002  0.7960 -0.2263 -0.4662
  495TMC3    O1 7421   3.184   3.626  14.475 -0.3724 -0.0007 -0.1612
  495TMC3    O2 7422   3.272   3.757  14.060  0.3005 -0.4501 -0.6831
  496MPD2     C 7423   0.503   4.045  15.499  1.0522  0.0997  0.4877
  496MPD2    C1 7424   0.532   3.918  15.472  1.1748 -0.1183 -0.2315
  496MPD2    C2 7425   0.436   3.824  15.509 -0.6844  0.2056 -0.2918
  496MPD2    C3 7426   0.326   3.857  15.590 -0.9078 -0.1040 -0.4566
  496MPD2    C4 7427   0.305   3.989  15.619  0.3471 -0.6340 -0.4381
  496MPD2    C5 7428   0.385   4.085  15.561  0.3709  0.1376  0.9661
  496MPD2     H 7429   0.446   3.723  15.470 -0.6965 -0.4139  1.2871
  496MPD2    H1 7430   0.217   4.010  15.679  1.2655  2.2173 -0.0872
  496MPD2    H2 7431   0.567   4.122  15.455 -0.8734  0.7776 -1.1473
  496MPD2    H3 7432   0.362   4.187  15.589 -0.0597 -0.3967  2.5379
  496MPD2     N 7433   0.225   3.768  15.642  0.7916  0.9538 -1.1580
  496MPD2    H5 7434   0.138   3.810  15.674  0.7795  0.0942 -0.0834
  496MPD2    N1 7435   0.654   3.893  15.415  0.0488  0.0275  0.6085
  496MPD2    H7 7436   0.716   3.969  15.389  0.9508 -1.4129 -1.4348
  497TMC3    C1 7437   0.364   3.586  15.679 -0.7727 -1.0921  0.9463
  497TMC3    C2 7438   0.415   3.480  15.606 -0.0936 -0.7469 -0.5906
  497TMC3    C3 7439   0.538   3.435  15.650  0.4828 -0.2035 -1.2160
  497TMC3    C4 7440   0.425   3.645  15.786  0.5947  0.2695 -0.4244
  497TMC3    C5 7441   0.544   3.600  15.829  0.1521 -0.2962 -0.5670
  497TMC3    C6 7442   0.603   3.489  15.761 -0.1791  0.0305  0.2207
  497TMC3     C 7443   0.235   3.631  15.658 -0.8230  0.3088 -0.4066
  497TMC3     O 7444   0.142   3.555  15.678 -0.9168 -0.2566  0.0601
  497TMC3     H 7445   0.370   3.432  15.520  0.3159 -1.2406 -0.5367
  497TMC3    H1 7446   0.382   3.732  15.835  3.6665  0.7781  1.3062
  497TMC3    H2 7447   0.696   3.442  15.790  0.9097  1.3463 -1.1141
  497TMC3    C7 7448   0.582   3.623  15.962  0.3509  0.2513  0.6207
  497TMC3    C8 7449   0.621   3.358  15.563 -0.1815  0.3115 -0.4661
  497TMC3    O1 7450   0.488   3.606  16.042  0.0485  0.0140  0.2487
  497TMC3    O2 7451   0.724   3.309  15.609 -0.2747  0.4893 -0.3369
  498MPD2     C 7452   2.294   0.152   9.766  0.3539 -0.7713  0.1858
  498MPD2    C1 7453   2.180   0.213   9.813  0.1095 -0.2380 -0.2904
  498MPD2    C2 7454   2.056   0.152   9.795  0.5184  0.3887  0.5126
  498MPD2    C3 7455   2.039   0.040   9.712  0.2306 -0.9793  0.0824
  498MPD2    C4 7456   2.159   4.718   9.673  0.1324  0.4991  0.1413
  498MPD2    C5 7457   2.281   0.036   9.705 -0.2023  0.8691 -0.1825
  498MPD2     H 7458   1.973   0.196   9.849  1.9919  1.2336  2.1080
  498MPD2    H1 7459   2.154   4.620   9.628 -1.0972 -0.0049  1.3531
  498MPD2    H2 7460   2.396   0.188   9.765  0.5877 -1.4093  0.7191
  498MPD2    H3 7461   2.365   4.709   9.683 -1.7987 -2.1801  2.6038
  498MPD2     N 7462   1.909   4.732   9.673 -0.6118 -0.5090 -0.0869
  498MPD2    H5 7463   1.838   0.044   9.727  1.1796  2.1339 -0.1219
  498MPD2    N1 7464   2.209   0.336   9.881 -0.2601  0.2989  1.3252
  498MPD2    H7 7465   2.303   0.374   9.884 -0.8282  1.7373  1.0846
  499TMC3    C1 7466   2.164   0.556   9.924  1.2753  0.6513 -0.1696
  499TMC3    C2 7467   2.261   0.581  10.018  0.1882  0.4494 -0.1113
  499TMC3    C3 7468   2.316   0.706  10.012  0.2544 -0.0358  0.1908
  499TMC3    C4 7469   2.106   0.646   9.836  0.0678 -0.4458 -0.4911
  499TMC3    C5 7470   2.164   0.770   9.832 -0.7090  0.0600 -0.1515
  499TMC3    C6 7471   2.270   0.799   9.921  0.6994  0.1526 -0.1758
  499TMC3     C 7472   2.110   0.423   9.913  0.1126 -0.3762 -0.4206
  499TMC3     O 7473   1.987   0.426   9.898  0.2682 -1.2920  0.4736
  499TMC3     H 7474   2.300   0.506  10.086 -0.4855 -0.9691 -1.2953
  499TMC3    H1 7475   2.046   0.603   9.757  0.8262 -1.4736 -0.5079
  499TMC3    H2 7476   2.320   0.895   9.910  0.1320  0.2378 -1.9899
  499TMC3    C7 7477   2.140   0.870   9.732 -0.2685  0.0807  0.0162
  499TMC3    C8 7478   2.439   0.737  10.087  0.1455  0.2092  0.6998
  499TMC3    O1 7479   2.182   0.983   9.736 -1.0589  0.1252 -0.7537
  499TMC3    O2 7480   2.471   0.851  10.104  0.1010  0.5113  0.3438
  500MPD2     C 7481   2.905   1.064  10.818  0.0699 -0.0580  0.7771
  500MPD2    C1 7482   2.965   1.100  10.696 -0.7986 -0.1637  0.6184
  500MPD2    C2 7483   2.886   1.112  10.583 -0.8306  0.3669 -0.3682
  500MPD2    C3 7484   2.753   1.085  10.588 -0.4782 -0.2552 -0.6048
  500MPD2    C4 7485   2.692   1.062  10.710  0.7114  0.0438  0.3821
  500MPD2    C5 7486   2.769   1.057  10.818 -0.3726  0.2494  1.5856
  500MPD2     H 7487   2.933   1.151  10.493  1.5430  1.0933  1.1920
  500MPD2    H1 7488   2.585   1.063  10.727  0.6382 -0.7933 -0.0183
  500MPD2    H2 7489   2.966   1.062  10.908 -0.5485  0.9468  1.2151
  500MPD2    H3 7490   2.724   1.041  10.915 -1.3054 -1.6696  0.8463
  500MPD2     N 7491   2.666   1.119  10.483  0.3527  0.6013  0.2469
  500MPD2    H5 7492   2.566   1.132  10.500  0.0087  0.8840 -2.0047
  500MPD2    N1 7493   3.104   1.132  10.681  0.0728  0.3715  0.0466
  500MPD2    H7 7494   3.124   1.186  10.597 -3.1655  2.2003  0.4513
  501TMC3    C1 7495   3.333   1.152  10.750  0.1083  0.9180 -0.0496
  501TMC3    C2 7496   3.374   1.179  10.621  0.0883 -0.0535 -0.9022
  501TMC3    C3 7497   3.493   1.233  10.605  0.4463  0.3077  0.8975
  501TMC3    C4 7498   3.421   1.153  10.856 -0.1218 -0.3310 -0.2097
  501TMC3    C5 7499   3.544   1.201  10.835  0.2478  0.3153  0.7279
  501TMC3    C6 7500   3.575   1.249  10.711 -0.2961 -0.2942  0.9116
  501TMC3     C 7501   3.198   1.097  10.773  1.1843  0.3671 -0.1119
  501TMC3     O 7502   3.186   1.047  10.882  0.2792  0.3141 -0.4083
  501TMC3     H 7503   3.312   1.171  10.532  0.0281  1.2528 -0.9736
  501TMC3    H1 7504   3.394   1.115  10.954 -0.7489 -0.8451 -0.5796
  501TMC3    H2 7505   3.667   1.305  10.692 -0.3589 -0.6469 -0.4686
  501TMC3    C7 7506   3.637   1.217  10.949 -0.2430  0.5464  0.0736
  501TMC3    C8 7507   3.500   1.357  10.525  0.0877  0.4264 -0.5090
  501TMC3    O1 7508   3.589   1.208  11.065  0.4482 -0.4964 -0.0154
  501TMC3    O2 7509   3.548   1.455  10.584  0.5894 -0.0689 -0.2178
  502TMC3    C1 7510   2.853   4.263  14.426 -0.0878  0.5445  0.1098
  502TMC3    C2 7511   2.830   4.378  14.363  0.8948  0.4282 -0.2309
  502TMC3    C3 7512   2.729   4.453  14.416 -0.0255 -0.2290  0.3562
  502TMC3    C4 7513   2.760   4.207  14.507 -0.1636  0.2510  0.4992
  502TMC3    C5 7514   2.650   4.278  14.543  0.4368  0.3511 -0.1391
  502TMC3    C6 7515   2.634   4.406  14.501  0.0478 -0.0881 -0.2009
  502TMC3     C 7516   2.982   4.267  14.491 -1.0932  0.1491  0.1594
  502TMC3     O 7517   3.065   4.326  14.425 -0.1674  0.1155 -0.2705
  502TMC3     H 7518   2.898   4.421  14.291  0.9618 -0.4897 -0.7156
  502TMC3    H1 7519   2.763   4.101  14.531  1.8336  0.3382  0.6792
  502TMC3    H2 7520   2.574   4.482  14.549  0.4863  0.2308 -0.1659
  502TMC3    C7 7521   2.609   4.247  14.677 -0.5019  0.0684 -0.2976
  502TMC3    C8 7522   2.777   4.580  14.470 -0.1696  0.2437 -0.5489
  502TMC3    O1 7523   2.697   4.187  14.736  0.2194  0.4410  0.0733
  502TMC3    O2 7524   2.698   4.666  14.500 -0.4858  0.2134 -0.0707
  503MPD2     C 7525   0.572   0.644  16.613  0.2343  1.1414  0.7717
  503MPD2    C1 7526   0.547   0.693  16.740  0.0678  0.5301  0.6751
  503MPD2    C2 7527   0.593   0.621  16.853 -0.5490 -0.0771 -0.5643
  503MPD2    C3 7528   0.657   0.500  16.842  0.4156  0.2312  0.4361
  503MPD2    C4 7529   0.674   0.443  16.717  0.1399 -0.5910 -0.2440
  503MPD2    C5 7530   0.630   0.518  16.603 -0.3691 -0.7039  0.9866
  503MPD2     H 7531   0.583   0.661  16.953  0.9652 -0.9636 -0.0466
  503MPD2    H1 7532   0.714   0.343  16.701  1.6401  0.0090 -0.2459
  503MPD2    H2 7533   0.536   0.693  16.524  1.3705 -1.0287 -0.8638
  503MPD2    H3 7534   0.628   0.468  16.507  1.7912  0.5047  0.2967
  503MPD2     N 7535   0.704   0.441  16.963  0.2044  0.4972 -0.1487
  503MPD2    H5 7536   0.708   0.495  17.049 -2.9950  0.3590  0.0751
  503MPD2    N1 7537   0.512   0.826  16.767  0.1425 -0.7720 -0.5932
  503MPD2    H7 7538   0.512   0.857  16.864  0.0890 -0.6585 -0.6290
  504TMC3    C1 7539   0.810   0.289  17.109  0.1770  0.3836  0.1401
  504TMC3    C2 7540   0.782   0.171  17.167  0.3974  0.2922  0.1415
  504TMC3    C3 7541   0.875   0.122  17.258 -0.4008 -0.0329 -0.6015
  504TMC3    C4 7542   0.935   0.337  17.131 -0.3080 -0.2172 -0.1121
  504TMC3    C5 7543   1.030   0.278  17.214  0.2110 -0.3107  0.7857
  504TMC3    C6 7544   1.005   0.160  17.269 -0.0410 -0.0775 -0.0341
  504TMC3     C 7545   0.743   0.314  16.980  0.1534  0.6005  0.4151
  504TMC3     O 7546   0.747   0.224  16.899 -0.4265  0.4286  0.1656
  504TMC3     H 7547   0.697   0.118  17.125 -0.3502  1.3671  0.2961
  504TMC3    H1 7548   0.957   0.429  17.080 -0.4609  0.2428  0.6573
  504TMC3    H2 7549   1.080   0.109  17.329  0.2690  0.4057 -0.0126
  504TMC3    C7 7550   1.162   0.290  17.170 -0.3419 -0.1690  0.3256
  504TMC3    C8 7551   0.848   4.724  17.294 -0.7370 -0.1198  0.1053
  504TMC3    O1 7552   1.178   0.337  17.059 -0.0537  0.2500  0.0312
  504TMC3    O2 7553   0.778   4.657  17.221 -0.3582  0.6136  0.1549
  505MPD2     C 7554   0.666   4.456   9.220 -0.2645 -0.1710 -0.3897
  505MPD2    C1 7555   0.651   4.409   9.347 -0.5574 -0.9191  0.0329
  505MPD2    C2 7556   0.634   4.504   9.448  0.3776 -0.0478 -0.5457
  505MPD2    C3 7557   0.627   4.641   9.424  1.0374  0.6783 -0.3741
  505MPD2    C4 7558   0.639   4.683   9.290  0.1573 -0.2706  0.8388
  505MPD2    C5 7559   0.657   4.593   9.192  0.0719  0.2620 -0.6868
  505MPD2     H 7560   0.630   4.479   9.554  1.8759 -1.5444 -0.8391
  505MPD2    H1 7561   0.639   0.047   9.251 -1.0884 -0.5680  0.0362
  505MPD2    H2 7562   0.691   4.395   9.134 -1.0027 -0.7056 -0.2279
  505MPD2    H3 7563   0.660   4.638   9.093  0.5294 -0.5276 -1.0374
  505MPD2     N 7564   0.615   4.732   9.534 -0.0414  0.1092 -0.3973
  505MPD2    H5 7565   0.596   4.683   9.621  1.5958  1.8657  0.9302
  505MPD2    N1 7566   0.648   4.266   9.379  0.4887 -0.5033  0.1079
  505MPD2    H7 7567   0.670   4.204   9.302 -0.9708  0.5384 -1.1605
  506TMC3    C1 7568   0.627   4.065   9.503 -0.1411 -0.2652  0.4306
  506TMC3    C2 7569   0.753   4.026   9.480  0.4699 -0.1463  0.0858
  506TMC3    C3 7570   0.812   3.932   9.559  0.2154 -0.2320 -0.3004
  506TMC3    C4 7571   0.565   4.026   9.629 -0.5212 -0.1935 -0.9127
  506TMC3    C5 7572   0.622   3.931   9.712 -0.0852  0.3237  0.0627
  506TMC3    C6 7573   0.744   3.879   9.669 -0.3645  0.4326 -0.2329
  506TMC3     C 7574   0.603   4.210   9.499 -0.1833 -0.1186  0.2689
  506TMC3     O 7575   0.537   4.257   9.594 -0.2436 -0.1615  0.5524
  506TMC3     H 7576   0.814   4.066   9.400  2.7138 -1.6304  1.0485
  506TMC3    H1 7577   0.462   4.056   9.650 -0.3683 -0.8717  0.8086
  506TMC3    H2 7578   0.798   3.808   9.730 -0.0980  0.7481 -0.1006
  506TMC3    C7 7579   0.625   3.985   9.851 -0.3754 -0.5842  0.3116
  506TMC3    C8 7580   0.954   3.887   9.534  0.0179  0.4317  0.0707
  506TMC3    O1 7581   0.633   3.910   9.947 -0.2938 -0.1169 -0.1531
  506TMC3    O2 7582   0.985   3.771   9.566  0.2509 -0.2780 -0.2215
  507TMC3    C1 7583   1.397   4.638  14.694 -0.4853  0.2750  0.1057
  507TMC3    C2 7584   1.320   4.564  14.605  0.3176  0.4875 -0.7177
  507TMC3    C3 7585   1.293   4.619  14.485  0.0636  0.2288 -0.2191
  507TMC3    C4 7586   1.456   0.015  14.658  0.5499  0.5366 -1.0206
  507TMC3    C5 7587   1.437   0.062  14.532 -0.3897 -0.6236  0.0774
  507TMC3    C6 7588   1.352   4.737  14.453 -0.1429  0.5610  0.0935
  507TMC3     C 7589   1.322   4.670  14.813 -0.0250  0.0677  0.2738
  507TMC3     O 7590   1.391   4.692  14.915 -0.0820  0.1767 -0.1152
  507TMC3     H 7591   1.260   4.486  14.649  0.6999 -0.2343 -1.4859
  507TMC3    H1 7592   1.529   0.063  14.723 -0.2846  0.8555 -0.3172
  507TMC3    H2 7593   1.345   0.024  14.348  0.3178 -1.8327 -0.4945
  507TMC3    C7 7594   1.383   0.198  14.531 -0.4723  0.4459 -0.5355
  507TMC3    C8 7595   1.148   4.620  14.468  0.1773 -0.5341 -0.1753
  507TMC3    O1 7596   1.282   0.213  14.469  0.1413  0.4191  0.0593
  507TMC3    O2 7597   1.080   4.521  14.497 -0.2705  0.4131  0.7397
  508MPD2     C 7598   2.279   2.326  15.459  0.1468  0.7193  0.3947
  508MPD2    C1 7599   2.377   2.419  15.486  0.1181  0.5385  0.1666
  508MPD2    C2 7600   2.445   2.477  15.376  0.0089  1.0328  0.4750
  508MPD2    C3 7601   2.416   2.439  15.246  0.3406  0.5382  0.1044
  508MPD2    C4 7602   2.315   2.352  15.225 -0.3759 -0.8293 -0.2480
  508MPD2    C5 7603   2.248   2.299  15.332  0.2830  0.1045  0.6188
  508MPD2     H 7604   2.523   2.551  15.391 -1.7749  2.0027  4.8260
  508MPD2    H1 7605   2.298   2.316  15.124 -0.1442 -0.9316 -0.2507
  508MPD2    H2 7606   2.218   2.278  15.535  1.0634  0.4734  0.9696
  508MPD2    H3 7607   2.165   2.230  15.322  1.1139 -0.6015 -1.4415
  508MPD2     N 7608   2.495   2.490  15.143  0.3568 -0.0788 -0.4389
  508MPD2    H5 7609   2.570   2.553  15.170 -0.2944  0.0486  1.0640
  508MPD2    N1 7610   2.400   2.443  15.621 -0.0075  0.0178 -0.1211
  508MPD2    H7 7611   2.337   2.395  15.685 -0.4917  0.9243  0.0892
  509TMC3    C1 7612   2.403   2.841  14.937 -0.3178 -0.6240 -0.7023
  509TMC3    C2 7613   2.496   2.902  15.017  0.1730 -0.4171  0.1159
  509TMC3    C3 7614   2.598   2.815  15.060  0.3850 -0.6281 -0.3344
  509TMC3    C4 7615   2.417   2.704  14.908  0.3865 -0.2944 -0.0966
  509TMC3    C5 7616   2.515   2.618  14.951  0.2235 -0.5631  0.5908
  509TMC3    C6 7617   2.609   2.682  15.029  0.8105 -0.5712  1.0704
  509TMC3     C 7618   2.279   2.902  14.912 -0.5329  0.7653 -0.7137
  509TMC3     O 7619   2.211   2.853  14.824 -0.3007  0.4140 -1.3026
  509TMC3     H 7620   2.486   3.005  15.049  0.1612 -0.3382 -0.1436
  509TMC3    H1 7621   2.332   2.664  14.854 -0.2428  0.4291  0.3573
  509TMC3    H2 7622   2.700   2.633  15.061 -0.4074 -1.9631  2.3947
  509TMC3    C7 7623   2.456   2.498  15.010  0.1898  0.7281 -0.2746
  509TMC3    C8 7624   2.651   2.841  15.188  0.2230  0.0076 -0.6708
  509TMC3    O1 7625   2.366   2.439  14.952 -0.6869  0.8590  0.0398
  509TMC3    O2 7626   2.676   2.743  15.254 -0.0158 -0.1062 -0.3360
  510MPD2     C 7627   0.040   4.140  14.649  0.0447  0.4970 -0.4278
  510MPD2    C1 7628   0.095   4.049  14.729  0.0886 -0.6392 -0.1519
  510MPD2    C2 7629   0.231   4.009  14.711 -0.0356  0.1177  0.2088
  510MPD2    C3 7630   0.314   4.075  14.617  0.6583  0.1241  0.3610
  510MPD2    C4 7631   0.258   4.180  14.545  0.0968 -0.0663 -0.0969
  510MPD2    C5 7632   0.124   4.204  14.556 -0.0690  0.6350 -0.4372
  510MPD2     H 7633   0.294   3.943  14.769 -0.1435 -0.9597 -0.9014
  510MPD2    H1 7634   0.323   4.253  14.498  1.5842 -0.6058  1.1105
  510MPD2    H2 7635   4.686   4.191  14.678 -0.5683 -1.4919  1.1231
  510MPD2    H3 7636   0.090   4.296  14.510  2.3032  1.6554 -0.1321
  510MPD2     N 7637   0.451   4.030  14.604 -0.3831  0.0850  0.4336
  510MPD2    H5 7638   0.482   3.969  14.678 -0.6177 -1.1418 -0.4820
  510MPD2    N1 7639   0.008   3.985  14.826  0.8771 -0.9384 -0.2597
  510MPD2    H7 7640   4.647   4.011  14.830  1.4127  0.7413  2.4286
  511TMC3    C1 7641   4.678   3.820  14.974  0.9195  0.2445  0.0191
  511TMC3    C2 7642   4.623   3.867  15.084 -0.1222 -0.3429  0.1577
  511TMC3    C3 7643   4.501   3.819  15.120  0.5711  0.0997 -0.2480
  511TMC3    C4 7644   4.612   3.738  14.884 -0.7448 -0.1589  0.3092
  511TMC3    C5 7645   4.487   3.686  14.927 -0.0895 -0.2496 -0.3457
  511TMC3    C6 7646   4.429   3.726  15.046  0.4347  0.2678 -0.1671
  511TMC3     C 7647   0.047   3.886  14.907  0.4884  0.7090 -0.3261
  511TMC3     O 7648   0.155   3.838  14.934  0.8825 -0.2958  0.1056
  511TMC3     H 7649   4.673   3.945  15.141 -0.8035 -0.4368  0.8947
  511TMC3    H1 7650   4.663   3.684  14.805 -0.4231 -1.2728  1.2626
  511TMC3    H2 7651   4.327   3.700  15.072  0.4178  0.9577  0.4480
  511TMC3    C7 7652   4.410   3.603  14.836  0.4195  0.8027 -0.2115
  511TMC3    C8 7653   4.441   3.879  15.237 -0.5866  0.4207 -0.3591
  511TMC3    O1 7654   4.445   3.628  14.722  1.0320 -0.1095  0.1434
  511TMC3    O2 7655   4.507   3.915  15.331 -0.4571 -0.2645 -0.3601
  512TMC3    C1 7656   3.479   3.524  13.350 -0.2130  0.1324 -1.2340
  512TMC3    C2 7657   3.572   3.497  13.446 -0.3756 -0.2147 -0.6581
  512TMC3    C3 7658   3.667   3.402  13.406 -0.5945  0.2623  0.0970
  512TMC3    C4 7659   3.472   3.472  13.223 -0.2371  0.1472  0.1807
  512TMC3    C5 7660   3.576   3.388  13.186 -0.5912 -0.4171  0.0717
  512TMC3    C6 7661   3.659   3.333  13.286 -0.3278  0.0243  0.3429
  512TMC3     C 7662   3.386   3.629  13.378  0.0625  0.4127 -0.7776
  512TMC3     O 7663   3.415   3.719  13.453  0.1285  0.1102  0.4356
  512TMC3     H 7664   3.562   3.531  13.548 -1.0644 -0.0211 -0.7882
  512TMC3    H1 7665   3.395   3.490  13.150  1.2880  1.2615 -1.1597
  512TMC3    H2 7666   3.749   3.278  13.259 -0.2972 -0.2369  0.9674
  512TMC3    C7 7667   3.568   3.329  13.057 -0.2567  0.5708  0.8903
  512TMC3    C8 7668   3.776   3.369  13.493 -0.1797 -0.4667  0.6627
  512TMC3    O1 7669   3.512   3.401  12.976 -0.7160 -0.1513  0.4389
  512TMC3    O2 7670   3.834   3.263  13.475 -0.2691  0.3292  0.4084
  513MPD2     C 7671   0.450   3.384  13.627  0.3075 -0.1142 -0.4169
  513MPD2    C1 7672   0.427   3.295  13.531 -0.0412 -0.9568 -0.4181
  513MPD2    C2 7673   0.511   3.183  13.524 -0.0094  0.1149 -0.4191
  513MPD2    C3 7674   0.618   3.168  13.610  0.3406 -0.1914 -0.1108
  513MPD2    C4 7675   0.641   3.262  13.707 -0.1034  0.3825  1.0259
  513MPD2    C5 7676   0.549   3.368  13.722 -0.1447  0.4999  0.3047
  513MPD2     H 7677   0.486   3.116  13.442  2.3361  0.7072 -1.5979
  513MPD2    H1 7678   0.712   3.262  13.788  3.0149  1.7926 -1.7112
  513MPD2    H2 7679   0.388   3.472  13.641  0.6471  0.4827 -2.7613
  513MPD2    H3 7680   0.554   3.432  13.809  1.5433 -0.2167  0.7503
  513MPD2     N 7681   0.702   3.067  13.582  0.4174  0.3565  0.0424
  513MPD2    H5 7682   0.676   2.998  13.512  1.4863  2.1092 -2.0632
  513MPD2    N1 7683   0.325   3.300  13.433 -0.1952 -0.2415  0.7778
  513MPD2    H7 7684   0.305   3.223  13.370 -1.5966 -0.6718  1.7580
  514TMC3    C1 7685   0.195   3.400  13.268 -0.4557  0.3230  1.0169
  514TMC3    C2 7686   0.232   3.491  13.175 -0.5275  0.3322 -0.3107
  514TMC3    C3 7687   0.262   3.450  13.049 -0.4372  0.0331  0.7105
  514TMC3    C4 7688   0.175   3.271  13.232  0.0494  0.5952 -0.2841
  514TMC3    C5 7689   0.216   3.228  13.108 -0.2993  0.2414 -0.0070
  514TMC3    C6 7690   0.262   3.320  13.014 -0.2414 -0.0606  0.3899
  514TMC3     C 7691   0.246   3.413  13.404  0.9509 -0.8506 -0.0223
  514TMC3     O 7692   0.223   3.519  13.461 -0.4944 -0.9989 -0.3992
  514TMC3     H 7693   0.276   3.586  13.203 -2.4123  1.7640 -2.2158
  514TMC3    H1 7694   0.157   3.194  13.306  0.5341  0.5842 -0.1810
  514TMC3    H2 7695   0.280   3.278  12.915  0.1544 -0.9037  0.8235
  514TMC3    C7 7696   0.310   3.120  13.124  0.4075 -0.8757 -0.2636
  514TMC3    C8 7697   0.365   3.530  12.980  0.5628  0.1872 -0.0080
  514TMC3    O1 7698   0.346   3.085  13.235  0.1156 -0.0922 -0.0884
  514TMC3    O2 7699   0.447   3.592  13.046  0.8053  0.1203  0.0495
  515MPD2     C 7700   3.575   0.779  14.851  0.0377  0.6321  0.1098
  515MPD2    C1 7701   3.660   0.696  14.784  0.3714  0.2910  0.1584
  515MPD2    C2 7702   3.793   0.680  14.835  0.6890 -0.2412 -0.6223
  515MPD2    C3 7703   3.843   0.752  14.942  0.2170  0.0873  0.8482
  515MPD2    C4 7704   3.751   0.830  15.009 -0.4801  0.4484 -0.1010
  515MPD2    C5 7705   3.620   0.839  14.963 -0.2398 -0.5087 -0.5392
  515MPD2     H 7706   3.860   0.610  14.786 -0.2807 -0.6378 -1.3791
  515MPD2    H1 7707   3.777   0.898  15.090 -1.4815  2.0806 -1.1456
  515MPD2    H2 7708   3.480   0.813  14.811 -0.5312 -1.3233 -0.2013
  515MPD2    H3 7709   3.549   0.901  15.017  1.8702  0.5612  1.0365
  515MPD2     N 7710   3.978   0.753  14.979  0.1829  0.3552 -0.6204
  515MPD2    H5 7711   3.999   0.798  15.067 -0.9915 -0.2967 -0.0080
  515MPD2    N1 7712   3.615   0.618  14.677  0.1844 -0.2211  0.1654
  515MPD2    H7 7713   3.674   0.545  14.640 -0.5007 -1.1371  0.8675
  516TMC3    C1 7714   3.488   0.514  14.520  0.3817 -0.0730  0.1092
  516TMC3    C2 7715   3.422   0.530  14.403  0.6042  0.0886 -0.6754
  516TMC3    C3 7716   3.423   0.429  14.313  0.6279  0.0899 -0.5907
  516TMC3    C4 7717   3.548   0.390  14.552  0.0966 -0.0592  0.2264
  516TMC3    C5 7718   3.535   0.284  14.458  0.0845  0.8621  0.2511
  516TMC3    C6 7719   3.481   0.309  14.330 -0.1136 -0.1608 -0.2130
  516TMC3     C 7720   3.488   0.617  14.619 -0.0518  0.7404 -0.1719
  516TMC3     O 7721   3.391   0.693  14.629 -0.1865  0.0812  0.5864
  516TMC3     H 7722   3.389   0.630  14.376  2.9035  1.5703  2.0736
  516TMC3    H1 7723   3.596   0.375  14.649  0.6011  2.4852  0.3973
  516TMC3    H2 7724   3.468   0.234  14.253  0.3932  0.4870 -0.9428
  516TMC3    C7 7725   3.561   0.144  14.497  0.2948 -0.4099  0.2257
  516TMC3    C8 7726   3.333   0.442  14.203 -0.6024  0.0125 -0.1193
  516TMC3    O1 7727   3.643   0.128  14.586  0.2939  0.3240  0.3476
  516TMC3    O2 7728   3.237   0.508  14.228  0.1147 -0.4642 -0.1367
  517MPD2     C 7729   3.943   2.052   0.277  0.8921  1.0144  0.7818
  517MPD2    C1 7730   4.077   2.015   0.276 -0.2030  0.0852  0.2215
  517MPD2    C2 7731   4.156   2.068   0.380 -0.5517 -0.0806 -0.2150
  517MPD2    C3 7732   4.097   2.168   0.465  0.0788 -0.2544  0.0993
  517MPD2    C4 7733   3.963   2.194   0.457 -0.1553 -0.4104  0.1448
  517MPD2    C5 7734   3.890   2.138   0.364  0.5356  0.2331  0.0519
  517MPD2     H 7735   4.263   2.050   0.384 -0.8283 -1.9410 -1.4382
  517MPD2    H1 7736   3.922   2.263   0.530  2.9099  1.6094 -0.0567
  517MPD2    H2 7737   3.880   2.027   0.192  3.2700 -1.3574 -0.2876
  517MPD2    H3 7738   3.784   2.159   0.350  0.3672 -1.4045 -1.1477
  517MPD2     N 7739   4.171   2.240   0.571 -0.1627 -0.1725  0.7338
  517MPD2    H5 7740   4.116   2.299   0.632 -0.9618 -0.2604  0.0998
  517MPD2    N1 7741   4.122   1.901   0.200  0.0168  0.1127  0.1455
  517MPD2    H7 7742   4.222   1.890   0.191 -0.0647  0.6469 -1.5843
  518TMC3    C1 7743   4.095   1.720   0.051 -0.8904  0.0347  0.4125
  518TMC3    C2 7744   4.024   1.605   0.035  0.4088  0.2583 -0.2870
  518TMC3    C3 7745   4.087   1.499  17.721 -0.2478 -0.8662 -0.0682
  518TMC3    C4 7746   4.226   1.736   0.003 -0.3342 -0.7393  0.1003
  518TMC3    C5 7747   4.283   1.622  17.696  0.7448 -0.1329  0.6779
  518TMC3    C6 7748   4.208   1.510  17.674  0.5600 -0.0958 -0.2226
  518TMC3     C 7749   4.034   1.818   0.135  0.9746 -0.1318  0.2815
  518TMC3     O 7750   3.914   1.810   0.143 -0.1053 -0.5433  0.0254
  518TMC3     H 7751   3.922   1.596   0.068  0.3178  1.1747 -0.3124
  518TMC3    H1 7752   4.284   1.827   0.018 -2.2442  0.4542  0.1486
  518TMC3    H2 7753   4.258   1.420  17.641 -1.0999 -0.2976 -2.2275
  518TMC3    C7 7754   4.416   1.640  17.639 -0.2629  0.2319  0.1756
  518TMC3    C8 7755   4.018   1.386  17.669  0.5714 -0.0551 -0.3216
  518TMC3    O1 7756   4.484   1.735  17.675  0.1728  0.5919  0.0648
  518TMC3    O2 7757   4.070   1.326  17.577  0.0200 -0.4674 -0.1310
  519MPD2     C 7758   0.156   0.339  14.370 -0.3146 -0.1575  0.1785
  519MPD2    C1 7759   0.180   0.362  14.239 -1.0952  0.1109  0.1516
  519MPD2    C2 7760   0.275   0.286  14.171 -0.2659  0.4677  0.3064
  519MPD2    C3 7761   0.356   0.192  14.239  0.0342  0.8969  0.5232
  519MPD2    C4 7762   0.328   0.172  14.370  0.6922 -1.1385 -1.3106
  519MPD2    C5 7763   0.237   0.249  14.433 -0.0040 -0.9413  0.1981
  519MPD2     H 7764   0.286   0.279  14.063 -2.3278 -1.4017  0.2115
  519MPD2    H1 7765   0.376   0.102  14.437  0.0847  0.3933  0.6905
  519MPD2    H2 7766   0.077   0.393  14.421  0.6952  1.0925  0.4164
  519MPD2    H3 7767   0.219   0.230  14.539 -2.5989 -0.9031 -0.2362
  519MPD2     N 7768   0.441   0.102  14.163 -0.0244  0.8200  0.2382
  519MPD2    H5 7769   0.444   0.006  14.196 -2.8989  0.0756 -1.6355
  519MPD2    N1 7770   0.086   0.434  14.159 -0.1293  0.4812 -0.7249
  519MPD2    H7 7771   4.736   0.461  14.204  1.6662  0.6663  2.6674
  520TMC3    C1 7772   0.509   0.018  13.955 -0.3489 -0.0817  0.8029
  520TMC3    C2 7773   0.474   0.040  13.820  0.1953 -0.7645 -0.3347
  520TMC3    C3 7774   0.524   4.696  13.726  0.3912  0.0835  0.2015
  520TMC3    C4 7775   0.592   4.656  13.991  0.0504  1.1030 -0.7884
  520TMC3    C5 7776   0.643   4.583  13.886 -0.3276  0.0541  0.2123
  520TMC3    C6 7777   0.605   4.585  13.755 -0.1317  0.1784 -0.2790
  520TMC3     C 7778   0.488   0.130  14.039  0.1931 -0.1726  0.3148
  520TMC3     O 7779   0.493   0.242  13.985  0.0573  0.2003  0.0197
  520TMC3     H 7780   0.415   0.128  13.796  1.0082 -0.5840 -1.6571
  520TMC3    H1 7781   0.633   4.667  14.091 -1.8094  2.1681 -0.1353
  520TMC3    H2 7782   0.619   4.496  13.695 -0.5881  1.1504 -1.8235
  520TMC3    C7 7783   0.764   4.515  13.925 -0.1927 -0.8547 -0.0732
  520TMC3    C8 7784   0.460   4.687  13.597  0.4174  0.2453 -0.3617
  520TMC3    O1 7785   0.774   4.476  14.040 -0.7716 -0.4556  0.5367
  520TMC3    O2 7786   0.518   4.624  13.509 -0.5320 -0.2619 -0.1168
  521MPD2     C 7787   1.525   3.453  17.052 -0.1802  0.2094 -0.0722
  521MPD2    C1 7788   1.462   3.354  16.974  0.5410  0.1417 -0.0181
  521MPD2    C2 7789   1.531   3.318  16.861  0.6557  0.5020  0.4752
  521MPD2    C3 7790   1.653   3.373  16.818 -0.4049  0.6566 -0.0803
  521MPD2    C4 7791   1.713   3.470  16.902  0.4675  0.6562  0.0429
  521MPD2    C5 7792   1.645   3.511  17.014 -0.5888 -0.7687  0.4536
  521MPD2     H 7793   1.483   3.254  16.788 -2.1211  0.2586  2.5153
  521MPD2    H1 7794   1.813   3.509  16.891  1.0195 -0.5250  0.7358
  521MPD2    H2 7795   1.475   3.486  17.142  1.6393  1.6041  0.4377
  521MPD2    H3 7796   1.689   3.587  17.078  1.5220 -2.2755  0.7954
  521MPD2     N 7797   1.702   3.344  16.696  0.5871 -0.0943  0.2958
  521MPD2    H5 7798   1.662   3.264  16.647  1.1312  0.8375 -1.6451
  521MPD2    N1 7799   1.342   3.295  17.024  0.0740  0.2416  0.1373
  521MPD2    H7 7800   1.277   3.350  17.080  2.3474  0.2914  2.7352
  522TMC3    C1 7801   1.807   3.352  16.498 -0.4455 -0.5919  0.1936
  522TMC3    C2 7802   1.917   3.376  16.425  0.9228 -0.6536  0.5131
  522TMC3    C3 7803   1.933   3.305  16.313 -0.7675 -0.2498  0.1152
  522TMC3    C4 7804   1.719   3.255  16.453 -0.0529 -0.9658 -0.5117
  522TMC3    C5 7805   1.736   3.190  16.333  0.4281 -0.7077 -0.4380
  522TMC3    C6 7806   1.849   3.216  16.260 -0.5678  0.2247  0.1681
  522TMC3     C 7807   1.810   3.403  16.634  0.6144 -0.3552  0.3070
  522TMC3     O 7808   1.903   3.479  16.666 -0.6193  0.2258 -0.4134
  522TMC3     H 7809   1.987   3.449  16.464  0.1407  0.4755 -0.2139
  522TMC3    H1 7810   1.631   3.230  16.510  2.4295 -1.4610  3.0583
  522TMC3    H2 7811   1.862   3.161  16.167 -1.0959  1.6712 -0.7485
  522TMC3    C7 7812   1.712   3.052  16.334 -0.3293  0.5685  0.1095
  522TMC3    C8 7813   2.051   3.326  16.230 -0.1150  0.1013 -0.2076
  522TMC3    O1 7814   1.804   2.977  16.309 -0.0907 -0.5836  0.0209
  522TMC3    O2 7815   2.119   3.425  16.240 -0.3326 -0.1503 -0.6227
  523MPD2     C 7816   2.959   3.342  10.003  0.3437 -0.0858 -0.1371
  523MPD2    C1 7817   3.083   3.363  10.048 -0.2444  0.1468  0.1942
  523MPD2    C2 7818   3.141   3.492  10.045  0.0589  0.1979 -0.1274
  523MPD2    C3 7819   3.072   3.595   9.990 -0.4958  0.2811  0.4314
  523MPD2    C4 7820   2.955   3.563   9.925 -0.0769 -0.3452 -0.6842
  523MPD2    C5 7821   2.897   3.436   9.925  0.2243  0.3796  0.2536
  523MPD2     H 7822   3.235   3.515  10.092  0.4234 -0.5685 -0.4801
  523MPD2    H1 7823   2.887   3.633   9.878 -0.4730 -0.8916 -0.9278
  523MPD2    H2 7824   2.919   3.241   9.996  1.6610 -0.7416  1.7260
  523MPD2    H3 7825   2.803   3.410   9.879  0.7461 -0.3910 -0.3631
  523MPD2     N 7826   3.109   3.724   9.989  0.1126  0.3774 -0.2797
  523MPD2    H5 7827   3.044   3.783   9.938 -0.0850  0.9484  0.6395
  523MPD2    N1 7828   3.149   3.254  10.105 -0.0383 -0.2385  0.2919
  523MPD2    H7 7829   3.099   3.166  10.109 -0.2760 -0.0486  1.5694
  524TMC3    C1 7830   3.236   3.919  10.006 -0.2871  0.2271  0.8312
  524TMC3    C2 7831   3.361   3.973  10.013 -0.1474 -0.2933  0.0179
  524TMC3    C3 7832   3.371   4.107   9.979 -0.6473  0.5603  0.0521
  524TMC3    C4 7833   3.125   3.994   9.964 -0.1601  0.3502  0.1583
  524TMC3    C5 7834   3.141   4.128   9.937  0.0578  0.0738  0.6284
  524TMC3    C6 7835   3.265   4.182   9.946  0.5235  0.2534 -0.6014
  524TMC3     C 7836   3.223   3.776  10.041 -0.2087 -0.4678 -0.3781
  524TMC3     O 7837   3.311   3.728  10.112  0.1288  0.0868  0.5359
  524TMC3     H 7838   3.449   3.909  10.006 -0.0963 -0.1213 -1.0058
  524TMC3    H1 7839   3.026   3.950   9.953  0.5086 -1.6702  2.2689
  524TMC3    H2 7840   3.284   4.285   9.919 -0.7649  0.3078 -1.2960
  524TMC3    C7 7841   3.024   4.210   9.932 -0.7818  0.2879 -0.1350
  524TMC3    C8 7842   3.501   4.177   9.958  0.2566  0.1412 -0.3143
  524TMC3    O1 7843   2.912   4.165   9.922 -0.1204  0.2863  0.0928
  524TMC3    O2 7844   3.502   4.285   9.907  0.3625  0.3640 -0.7283
  525MPD2     C 7845   1.651   4.278  14.425 -0.2992  0.3161  0.5639
  525MPD2    C1 7846   1.782   4.302  14.461 -0.2248 -0.8997 -0.0432
  525MPD2    C2 7847   1.840   4.419  14.422  0.0061  0.2086  0.7123
  525MPD2    C3 7848   1.763   4.517  14.360 -0.0704 -0.5749 -0.0827
  525MPD2    C4 7849   1.630   4.489  14.331 -0.1507  0.2345 -0.2249
  525MPD2    C5 7850   1.576   4.370  14.358 -0.1363  0.1325  0.0596
  525MPD2     H 7851   1.945   4.434  14.445  0.4548  0.3119 -1.4207
  525MPD2    H1 7852   1.570   4.566  14.283  0.6097  0.1961 -1.2449
  525MPD2    H2 7853   1.601   4.184  14.443 -0.7884  0.1329 -1.7442
  525MPD2    H3 7854   1.474   4.342  14.336 -0.3202  1.2368 -0.5122
  525MPD2     N 7855   1.809   4.643  14.327 -0.3270 -0.6591 -0.2500
  525MPD2    H5 7856   1.739   4.700  14.282  0.3813  1.8618  1.8427
  525MPD2    N1 7857   1.842   4.209  14.552  0.6897 -0.3856  0.0195
  525MPD2    H7 7858   1.941   4.221  14.569  0.2136 -1.4899  3.5807
  526TMC3    C1 7859   1.856   4.070  14.745 -0.0719  0.0488 -0.1526
  526TMC3    C2 7860   1.806   4.061  14.873 -0.4228 -0.5471 -0.8282
  526TMC3    C3 7861   1.897   4.037  14.970  0.4605 -0.3693  0.3482
  526TMC3    C4 7862   1.990   4.053  14.725  0.2939  0.0654 -0.8176
  526TMC3    C5 7863   2.083   4.031  14.826  0.2458  0.2436 -0.6171
  526TMC3    C6 7864   2.032   4.023  14.954  0.1012  0.0015  0.1667
  526TMC3     C 7865   1.780   4.116  14.627 -0.1616 -0.1771 -0.1281
  526TMC3     O 7866   1.659   4.078  14.627  0.0314 -0.3538  1.1607
  526TMC3     H 7867   1.698   4.062  14.887 -0.5004  2.7463 -1.6417
  526TMC3    H1 7868   2.020   4.060  14.621 -0.0017 -2.0204 -1.0439
  526TMC3    H2 7869   2.088   3.994  15.042  0.4938 -0.1080 -0.1202
  526TMC3    C7 7870   2.211   3.971  14.804  0.2431 -0.3136  1.1480
  526TMC3    C8 7871   1.854   4.050  15.108 -1.1739 -0.1130 -0.3235
  526TMC3    O1 7872   2.272   3.955  14.909  0.6046 -0.2026 -0.3553
  526TMC3    O2 7873   1.932   4.017  15.197 -0.6198  0.1441  0.0278
  527MPD2     C 7874   0.703   3.448   0.500  0.2150 -0.8857  0.3436
  527MPD2    C1 7875   0.654   3.361   0.595  0.7594 -0.2268  0.2252
  527MPD2    C2 7876   0.701   3.229   0.597 -0.5573  0.1643 -0.3845
  527MPD2    C3 7877   0.769   3.178   0.490 -0.2828  0.6049 -0.2296
  527MPD2    C4 7878   0.811   3.270   0.399  0.4366 -0.5044 -0.3214
  527MPD2    C5 7879   0.786   3.405   0.406  0.6330  0.0161  0.4058
  527MPD2     H 7880   0.675   3.158   0.675 -0.7988 -1.2907 -1.7911
  527MPD2    H1 7881   0.879   3.240   0.320  1.8750  1.0944  0.2988
  527MPD2    H2 7882   0.682   3.554   0.494 -1.3393 -1.1555  1.0477
  527MPD2    H3 7883   0.834   3.473   0.337  0.0738  0.0457  0.0425
  527MPD2     N 7884   0.802   3.045   0.490 -0.1545  0.0065 -0.1100
  527MPD2    H5 7885   0.755   2.988   0.560  0.0201  0.3478  0.2899
  527MPD2    N1 7886   0.566   3.408   0.694 -0.3295  0.1839 -0.5143
  527MPD2    H7 7887   0.548   3.343   0.771 -1.1480 -2.5167 -2.9913
  528TMC3    C1 7888   0.417   3.549   0.820  0.4605  0.7996  0.2605
  528TMC3    C2 7889   0.357   3.430   0.861  0.5097  0.4777  0.5161
  528TMC3    C3 7890   0.282   3.434   0.972 -0.4383 -0.9570  0.0258
  528TMC3    C4 7891   0.407   3.669   0.894 -0.4789  0.0045 -0.4276
  528TMC3    C5 7892   0.332   3.659   1.012  0.0145 -0.2005 -0.7263
  528TMC3    C6 7893   0.264   3.546   1.049 -0.0503  1.2148 -0.8526
  528TMC3     C 7894   0.505   3.537   0.705 -0.5881 -0.3250 -0.0428
  528TMC3     O 7895   0.503   3.627   0.624  0.0673 -0.0116  0.0937
  528TMC3     H 7896   0.351   3.344   0.795 -1.0320  1.1028 -0.1573
  528TMC3    H1 7897   0.463   3.755   0.859  2.2528 -2.0934 -1.2204
  528TMC3    H2 7898   0.214   3.547   1.146  0.5585  2.1921 -0.5499
  528TMC3    C7 7899   0.363   3.750   1.123  1.0718 -0.6037 -0.1796
  528TMC3    C8 7900   0.239   3.308   1.025  0.0770  0.8487  0.4571
  528TMC3    O1 7901   0.285   3.734   1.219  0.1689 -0.1818 -0.0742
  528TMC3    O2 7902   0.233   3.217   0.944  0.0334  0.4136 -0.0870
  529MPD2     C 7903   2.339   1.058   0.273  0.6384 -0.0762 -0.1632
  529MPD2    C1 7904   2.462   1.044   0.216 -0.6949  0.1003  0.0816
  529MPD2    C2 7905   2.505   1.142   0.132 -0.0252 -0.3204  0.0810
  529MPD2    C3 7906   2.420   1.250   0.098 -0.6728 -0.6073 -0.3409
  529MPD2    C4 7907   2.294   1.250   0.156 -0.0255  0.1158 -0.2505
  529MPD2    C5 7908   2.256   1.155   0.241  0.2838 -0.0299  0.2288
  529MPD2     H 7909   2.596   1.129   0.074 -0.9395  0.4503 -1.5258
  529MPD2    H1 7910   2.217   1.325   0.147 -1.0413 -0.7477  1.2043
  529MPD2    H2 7911   2.308   0.977   0.338  1.7864 -0.9742 -0.7310
  529MPD2    H3 7912   2.154   1.154   0.278  1.3309 -2.2635  3.0624
  529MPD2     N 7913   2.457   1.356   0.008  0.0414  0.1224 -0.5975
  529MPD2    H5 7914   2.386   1.426  17.736  0.6784  1.7185  2.8743
  529MPD2    N1 7915   2.550   0.943   0.237 -0.0480  0.2609 -0.0006
  529MPD2    H7 7916   2.642   0.941   0.193  0.6328  0.2204  1.4392
  530TMC3    C1 7917   2.648   0.760   0.329  0.3249  0.0895 -0.1319
  530TMC3    C2 7918   2.737   0.831   0.403  1.3300  0.6342 -0.0280
  530TMC3    C3 7919   2.818   0.763   0.488 -0.0500 -0.0563  0.0363
  530TMC3    C4 7920   2.636   0.623   0.328 -0.5517 -0.1599  0.6273
  530TMC3    C5 7921   2.728   0.557   0.414 -0.5009  0.1634  0.1880
  530TMC3    C6 7922   2.808   0.625   0.497  0.3814 -0.2481  0.2746
  530TMC3     C 7923   2.526   0.831   0.317 -0.1271  0.0282 -0.4426
  530TMC3     O 7924   2.427   0.791   0.380 -0.1095 -0.6401  0.0894
  530TMC3     H 7925   2.723   0.938   0.409 -0.9722  0.4254 -1.5616
  530TMC3    H1 7926   2.578   0.574   0.251  2.6050 -1.2465 -1.0871
  530TMC3    H2 7927   2.873   0.559   0.553 -0.2345 -1.0026  0.0959
  530TMC3    C7 7928   2.683   0.428   0.465 -0.3178 -0.1585  0.2107
  530TMC3    C8 7929   2.820   0.820   0.621 -0.2839 -0.3864  0.2702
  530TMC3    O1 7930   2.674   0.335   0.385 -0.5694  0.0618 -0.0420
  530TMC3    O2 7931   2.724   0.894   0.650 -0.7106 -0.3861  0.2520
  531MPD2     C 7932   0.679   2.828  12.921  0.1692 -0.6584  0.1118
  531MPD2    C1 7933   0.655   2.871  13.045 -0.3320  0.5453  1.0732
  531MPD2    C2 7934   0.549   2.953  13.074  0.1955  0.1437  0.7333
  531MPD2    C3 7935   0.448   2.976  12.984 -0.5289 -0.1312 -0.3272
  531MPD2    C4 7936   0.461   2.913  12.864  0.2424 -0.7520  0.1357
  531MPD2    C5 7937   0.579   2.847  12.832  0.5908 -0.1451 -0.2052
  531MPD2     H 7938   0.550   3.005  13.169 -0.1498  1.2433  0.1423
  531MPD2    H1 7939   0.388   2.928  12.785  2.2490  0.7263 -1.4200
  531MPD2    H2 7940   0.770   2.777  12.890 -0.8471 -2.2213 -0.2961
  531MPD2    H3 7941   0.604   2.805  12.735 -1.1505 -0.0478 -0.6949
  531MPD2     N 7942   0.339   3.062  13.003 -0.3574 -0.5414  0.1311
  531MPD2    H5 7943   0.287   3.099  12.924 -0.2357  1.3270  0.9204
  531MPD2    N1 7944   0.757   2.841  13.142 -0.3329  0.2532  0.2351
  531MPD2    H7 7945   0.845   2.795  13.120  0.7828  1.9720  1.1536
  532TMC3    C1 7946   0.862   2.879  13.344  0.2957  0.6451 -0.9677
  532TMC3    C2 7947   0.840   2.883  13.479  0.3601 -0.0302 -0.3535
  532TMC3    C3 7948   0.908   2.964  13.558  0.1536  0.0161 -0.0949
  532TMC3    C4 7949   0.960   2.951  13.286  0.3720  0.6023  0.0430
  532TMC3    C5 7950   1.041   3.018  13.372 -0.3293 -0.6278 -0.1908
  532TMC3    C6 7951   1.021   3.018  13.507 -0.1369 -0.1707 -0.8502
  532TMC3     C 7952   0.739   2.872  13.274  0.2032  0.4198 -0.2037
  532TMC3     O 7953   0.635   2.881  13.338  0.3945  0.3644  0.1916
  532TMC3     H 7954   0.758   2.826  13.523 -0.0225 -0.4497 -1.6115
  532TMC3    H1 7955   0.965   2.950  13.178  2.1385  0.4084  0.1145
  532TMC3    H2 7956   1.074   3.095  13.562  1.2993 -2.1802  0.5672
  532TMC3    C7 7957   1.174   3.047  13.334  0.1598  0.7068 -0.3793
  532TMC3    C8 7958   0.829   3.052  13.638  0.2292  0.1664 -0.1480
  532TMC3    O1 7959   1.255   3.107  13.409 -0.1314  0.1151 -0.2293
  532TMC3    O2 7960   0.892   3.136  13.702 -0.0637  0.3014  0.2797
  533TMC3    C1 7961   1.942   0.103  14.339  0.2545  0.1350  0.0363
  533TMC3    C2 7962   2.073   0.155  14.340 -0.6560  0.0085  0.4123
  533TMC3    C3 7963   2.081   0.286  14.390 -0.2079 -0.5564 -0.1206
  533TMC3    C4 7964   1.838   0.174  14.386 -0.2429 -1.0515 -0.3772
  533TMC3    C5 7965   1.859   0.287  14.456 -0.1485  0.2847  0.8015
  533TMC3    C6 7966   1.976   0.348  14.453 -0.1153 -0.2968  0.1673
  533TMC3     C 7967   1.936   4.694  14.345  0.0679 -0.5080 -0.0593
  533TMC3     O 7968   2.043   4.634  14.353  0.4809 -0.6714 -0.3392
  533TMC3     H 7969   2.163   0.109  14.302 -0.9025  0.4104 -0.6701
  533TMC3    H1 7970   1.737   0.134  14.382 -0.8975  0.5518  0.1807
  533TMC3    H2 7971   1.989   0.437  14.514 -3.1280 -1.0301  1.8500
  533TMC3    C7 7972   1.804   0.262  14.590  0.0369 -0.0288 -0.3917
  533TMC3    C8 7973   2.202   0.353  14.390 -0.2129 -0.4596  0.8866
  533TMC3    O1 7974   1.738   0.157  14.596  0.3591 -0.2358  0.5144
  533TMC3    O2 7975   2.298   0.285  14.414  0.1380 -0.2846 -0.3190
  534MPD2     C 7976   0.148   1.691   1.433 -0.1920  0.0260 -1.0508
  534MPD2    C1 7977   0.068   1.706   1.320 -0.1144  0.2247  0.1097
  534MPD2    C2 7978   4.715   1.603   1.288 -0.0766  0.3885  0.3001
  534MPD2    C3 7979   4.713   1.484   1.362  0.6066  0.3177  0.3594
  534MPD2    C4 7980   0.063   1.470   1.462 -0.2416  0.6601 -0.7954
  534MPD2    C5 7981   0.150   1.569   1.495 -0.0258  0.2717  0.0366
  534MPD2     H 7982   4.645   1.630   1.209 -0.8568  0.9084  1.1661
  534MPD2    H1 7983   0.077   1.377   1.517  2.4202  2.3179  1.3257
  534MPD2    H2 7984   0.214   1.767   1.473 -1.8500  0.5384  0.7303
  534MPD2    H3 7985   0.225   1.553   1.571 -0.0750 -0.5109 -0.0722
  534MPD2     N 7986   4.629   1.376   1.317  0.4920  0.6197 -0.1460
  534MPD2    H5 7987   4.545   1.399   1.264  1.6610 -0.4232 -2.4533
  534MPD2    N1 7988   0.060   1.829   1.248  0.7968  0.3145 -0.4615
  534MPD2    H7 7989   4.717   1.845   1.188  0.0854 -0.6064  0.2436
  535TMC3    C1 7990   4.582   1.172   1.237 -0.4724 -0.3524  0.2114
  535TMC3    C2 7991   4.449   1.194   1.213 -1.3453 -0.2291 -0.6320
  535TMC3    C3 7992   4.380   1.112   1.130 -0.3363  0.2590  0.6627
  535TMC3    C4 7993   4.643   1.065   1.180  0.1287 -0.8518 -0.1290
  535TMC3    C5 7994   4.574   0.973   1.103 -0.6432 -0.0682 -0.5206
  535TMC3    C6 7995   4.437   0.997   1.071  0.5884  0.0487 -0.2716
  535TMC3     C 7996   4.652   1.242   1.339  0.3502  0.0882 -0.0739
  535TMC3     O 7997   0.005   1.188   1.402  0.0131 -0.1760  0.1538
  535TMC3     H 7998   4.394   1.267   1.271  0.3287  2.2743 -2.1721
  535TMC3    H1 7999   0.008   1.043   1.208  0.2593 -2.5401 -1.8825
  535TMC3    H2 8000   4.383   0.925   1.010 -1.0908 -0.1945  1.4820
  535TMC3    C7 8001   4.654   0.881   1.025  0.3630  0.6034  0.4595
  535TMC3    C8 8002   4.246   1.139   1.096  0.2267 -0.1781  0.7159
  535TMC3    O1 8003   4.611   0.844   0.916  0.3888  0.2126  0.4049
  535TMC3    O2 8004   4.187   1.070   1.011 -0.0014 -0.3653  0.4401
  536MPD2     C 8005   3.344   4.269  15.877  0.4945 -0.7884 -0.0759
  536MPD2    C1 8006   3.223   4.195  15.880 -0.1805 -0.1950  0.5658
  536MPD2    C2 8007   3.136   4.180  15.772 -0.0205  0.1365  0.1799
  536MPD2    C3 8008   3.156   4.261  15.661 -0.5680 -0.8935 -0.4059
  536MPD2    C4 8009   3.265   4.342  15.658  0.5596  0.0217  0.3900
  536MPD2    C5 8010   3.362   4.342  15.764  0.2700  0.4729  0.3307
  536MPD2     H 8011   3.056   4.107  15.776  1.1214 -1.0157  2.0234
  536MPD2    H1 8012   3.282   4.391  15.563  0.0268 -0.6321 -0.0435
  536MPD2    H2 8013   3.413   4.287  15.959 -1.4913  1.4137  1.0878
  536MPD2    H3 8014   3.448   4.407  15.759 -1.2071  2.4457  0.3943
  536MPD2     N 8015   3.068   4.276  15.549 -0.0168  0.1682 -0.1569
  536MPD2    H5 8016   3.076   4.354  15.485 -0.7640  0.9215  0.6588
  536MPD2    N1 8017   3.200   4.131  16.006 -0.3284 -0.1724 -0.0301
  536MPD2    H7 8018   3.259   4.168  16.080 -0.6306  0.0353  0.1068
  537TMC3    C1 8019   3.070   4.013  16.178 -0.5923 -0.0211  0.2455
  537TMC3    C2 8020   3.174   4.009  16.268  0.4522 -0.2704  0.7279
  537TMC3    C3 8021   3.151   3.942  16.387 -0.6656  0.0886 -0.1721
  537TMC3    C4 8022   2.953   3.947  16.200  0.0739 -0.3825  0.4281
  537TMC3    C5 8023   2.936   3.883  16.317  0.1210 -0.6647  0.3373
  537TMC3    C6 8024   3.036   3.880  16.410 -0.3230  0.4684  0.8380
  537TMC3     C 8025   3.088   4.057  16.038  0.9683  0.3530 -0.5566
  537TMC3     O 8026   2.991   4.029  15.972  0.2499  0.5483  0.3346
  537TMC3     H 8027   3.271   4.055  16.251  2.0694 -3.4771  1.1178
  537TMC3    H1 8028   2.865   3.956  16.137 -1.7873  0.8681  3.1874
  537TMC3    H2 8029   3.014   3.841  16.509  1.4267 -0.2360  0.9455
  537TMC3    C7 8030   2.799   3.857  16.350  0.3863  0.4551  0.1042
  537TMC3    C8 8031   3.262   3.923  16.478  0.5420  0.5174 -0.1314
  537TMC3    O1 8032   2.711   3.932  16.309  0.1562 -0.3264 -0.0036
  537TMC3    O2 8033   3.347   4.012  16.475 -0.0116 -0.3584  0.0335
  538TMC3    C1 8034   4.428   3.065  11.494  0.2261 -0.5899  0.0171
  538TMC3    C2 8035   4.543   3.056  11.416 -0.5199  0.0274  0.6722
  538TMC3    C3 8036   4.534   3.100  11.284  0.6605 -0.0844  0.2081
  538TMC3    C4 8037   4.311   3.107  11.437  0.8797  0.1195 -0.5613
  538TMC3    C5 8038   4.311   3.169  11.319 -0.2473 -0.3478 -0.3014
  538TMC3    C6 8039   4.424   3.169  11.240 -0.0416  0.2581 -0.7539
  538TMC3     C 8040   4.417   2.988  11.615 -0.2498  0.6640 -0.5401
  538TMC3     O 8041   4.317   3.008  11.685 -0.0934  0.5656  0.7745
  538TMC3     H 8042   4.635   3.013  11.453 -1.6293 -2.6001  0.4027
  538TMC3    H1 8043   4.223   3.092  11.498  0.8712  1.0167 -0.3391
  538TMC3    H2 8044   4.423   3.199  11.135 -0.3587  0.1328 -0.7871
  538TMC3    C7 8045   4.184   3.184  11.255 -0.1830  0.4364  0.2296
  538TMC3    C8 8046   4.654   3.087  11.202  0.5851 -0.3539  0.1055
  538TMC3    O1 8047   4.114   3.084  11.281 -0.0719  0.8809 -0.2061
  538TMC3    O2 8048   0.013   3.104  11.275  0.5538  0.4066 -0.4700
  539MPD2     C 8049   4.047   2.392  11.420  0.4591 -0.0086  0.8183
  539MPD2    C1 8050   4.005   2.262  11.429  0.1503  0.2954 -0.4758
  539MPD2    C2 8051   3.863   2.250  11.461  0.5459 -0.4279 -0.1929
  539MPD2    C3 8052   3.779   2.361  11.485  0.3148  0.6626 -0.0781
  539MPD2    C4 8053   3.827   2.485  11.468 -0.0868 -0.4889 -0.1272
  539MPD2    C5 8054   3.959   2.494  11.420  1.0196  0.2996 -0.2808
  539MPD2     H 8055   3.827   2.150  11.485  1.0409 -0.8685 -1.3046
  539MPD2    H1 8056   3.762   2.572  11.468  0.6052  0.0301 -0.0785
  539MPD2    H2 8057   4.150   2.413  11.396  1.2249 -3.0728  1.5386
  539MPD2    H3 8058   3.998   2.593  11.400  0.9243  0.8793  2.4571
  539MPD2     N 8059   3.639   2.344  11.497  0.0742 -0.5049  0.4121
  539MPD2    H5 8060   3.587   2.428  11.518 -1.2353 -1.3715  0.6658
  539MPD2    N1 8061   4.086   2.149  11.405 -0.6137  0.6874  0.3643
  539MPD2    H7 8062   4.032   2.062  11.405 -0.0104  0.3119  0.2153
  540TMC3    C1 8063   3.425   2.241  11.493  0.3267  0.5004  0.1655
  540TMC3    C2 8064   3.339   2.171  11.415 -0.1971 -0.1244 -0.1404
  540TMC3    C3 8065   3.205   2.189  11.436  0.3038  0.0334 -0.0628
  540TMC3    C4 8066   3.383   2.320  11.598 -0.3969  0.5354 -0.1621
  540TMC3    C5 8067   3.252   2.336  11.620 -0.1228  1.4748 -0.8614
  540TMC3    C6 8068   3.163   2.269  11.540 -0.8752 -0.6293 -0.1499
  540TMC3     C 8069   3.569   2.226  11.465  0.2119 -0.2836 -0.6633
  540TMC3     O 8070   3.599   2.142  11.387 -0.2475  0.2624 -0.1489
  540TMC3     H 8071   3.376   2.108  11.335 -0.6227  1.4209 -1.5448
  540TMC3    H1 8072   3.455   2.355  11.670 -0.3227 -0.4974  0.2574
  540TMC3    H2 8073   3.057   2.293  11.553 -0.3584  0.8363  1.4343
  540TMC3    C7 8074   3.213   2.434  11.715  0.0457 -0.0057  0.0491
  540TMC3    C8 8075   3.112   2.189  11.323 -0.0216 -0.0089  0.5958
  540TMC3    O1 8076   3.095   2.431  11.750 -0.1660 -0.7105  0.6360
  540TMC3    O2 8077   2.997   2.171  11.350 -0.0876  0.7470  0.2337
  541MPD2     C 8078   1.911   3.310  13.324 -0.1222  0.3357 -0.4410
  541MPD2    C1 8079   2.045   3.301  13.303 -0.2910  0.3483 -0.7660
  541MPD2    C2 8080   2.101   3.413  13.250  0.2588  0.3598  0.3062
  541MPD2    C3 8081   2.029   3.529  13.214 -0.1838  0.3475 -0.5963
  541MPD2    C4 8082   1.894   3.527  13.224  0.3235 -0.4167  0.9102
  541MPD2    C5 8083   1.837   3.415  13.273  0.3877 -0.0710 -0.1521
  541MPD2     H 8084   2.208   3.403  13.238  0.5968  1.3916  2.3963
  541MPD2    H1 8085   1.833   3.614  13.203  0.7314 -0.1598  0.7720
  541MPD2    H2 8086   1.865   3.219  13.363 -0.2821  1.1543  1.3097
  541MPD2    H3 8087   1.730   3.422  13.288  0.2692 -1.5501 -0.2419
  541MPD2     N 8088   2.091   3.635  13.145  0.4212 -0.8208 -0.0291
  541MPD2    H5 8089   2.017   3.700  13.118  0.4875 -1.0344 -0.7367
  541MPD2    N1 8090   2.105   3.173  13.312 -0.7399  0.8032 -0.1677
  541MPD2    H7 8091   2.049   3.092  13.337 -0.9164  0.6473 -1.0806
  542TMC3    C1 8092   2.230   3.730  12.975  0.0288  0.5905 -0.0752
  542TMC3    C2 8093   2.321   3.682  12.881  0.4376  0.3656 -0.1892
  542TMC3    C3 8094   2.319   3.757  12.763  0.0001 -0.2560 -0.7496
  542TMC3    C4 8095   2.148   3.838  12.963  0.1742  0.2019  0.3394
  542TMC3    C5 8096   2.149   3.902  12.845 -0.1012  0.1187 -0.1698
  542TMC3    C6 8097   2.235   3.862  12.744  0.3871 -0.9797 -0.0471
  542TMC3     C 8098   2.219   3.638  13.095 -0.3158  0.2987  1.1200
  542TMC3     O 8099   2.318   3.574  13.127 -0.1016  0.0813  0.2546
  542TMC3     H 8100   2.373   3.588  12.894  1.4261  0.9991  0.4425
  542TMC3    H1 8101   2.079   3.862  13.042  2.0224  0.9842  1.7311
  542TMC3    H2 8102   2.237   3.904  12.644 -1.3524  1.5590  0.9750
  542TMC3    C7 8103   2.067   4.013  12.813  0.4017 -0.1286 -0.2118
  542TMC3    C8 8104   2.380   3.700  12.643  0.2939 -0.8628 -0.5056
  542TMC3    O1 8105   2.030   4.027  12.696 -0.4740 -0.3906  0.1889
  542TMC3    O2 8106   2.328   3.727  12.535  0.2563 -0.3128  0.2150
  543TMC3    C1 8107   2.347   0.404  17.112 -0.0127  0.1252  0.2960
  543TMC3    C2 8108   2.354   0.294  17.192  0.1080 -0.6225 -0.6486
  543TMC3    C3 8109   2.309   0.296  17.324  0.0791  0.2334 -0.1269
  543TMC3    C4 8110   2.294   0.523  17.165  0.6577  0.7955 -0.0564
  543TMC3    C5 8111   2.254   0.514  17.301 -0.8728  0.0499 -0.2303
  543TMC3    C6 8112   2.266   0.410  17.386  0.4368  0.4754 -0.8716
  543TMC3     C 8113   2.346   0.372  16.972  0.1221 -0.1218 -0.0403
  543TMC3     O 8114   2.327   0.258  16.938  0.0052  0.3580  0.0585
  543TMC3     H 8115   2.379   0.197  17.152  1.9808 -1.0755  1.6408
  543TMC3    H1 8116   2.272   0.608  17.102  2.6109  0.1437 -1.5941
  543TMC3    H2 8117   2.225   0.426  17.485  2.2161 -1.3319  0.1398
  543TMC3    C7 8118   2.223   0.645  17.367 -0.0383  0.2623 -0.0630
  543TMC3    C8 8119   2.313   0.167  17.403  0.4663  0.7110 -0.3729
  543TMC3    O1 8120   2.153   0.636  17.467 -0.7052 -0.4798  0.2248
  543TMC3    O2 8121   2.339   0.062  17.342 -0.2654 -0.4540  0.0200
  544MPD2     C 8122   2.202   4.586   0.024 -0.2195 -0.5999 -0.9011
  544MPD2    C1 8123   2.199   4.570  17.640 -0.4781  0.4691 -0.1762
  544MPD2    C2 8124   2.202   4.677  17.554  0.2275  0.8087 -0.0586
  544MPD2    C3 8125   2.230   0.066  17.610  0.3906 -0.5484 -0.1136
  544MPD2    C4 8126   2.220   0.086   0.002 -0.6327  0.2905 -0.4045
  544MPD2    C5 8127   2.210   4.710   0.084 -0.1240  0.3284 -0.6556
  544MPD2     H 8128   2.183   4.674  17.448  0.0672 -1.1669  0.0338
  544MPD2    H1 8129   2.242   0.183   0.046 -1.1904  0.6136 -0.8407
  544MPD2    H2 8130   2.187   4.506   0.095  1.2442  0.0445  0.1416
  544MPD2    H3 8131   2.212   4.716   0.192 -1.0714 -0.7487 -0.5802
  544MPD2     N 8132   2.253   0.176  17.528  0.3577 -0.3434 -0.1188
  544MPD2    H5 8133   2.238   0.270  17.563 -3.3003 -0.2412 -1.9567
  544MPD2    N1 8134   2.186   4.439  17.592  0.8441 -0.3674 -0.9105
  544MPD2    H7 8135   2.180   4.367  17.663 -0.1864 -0.1624 -0.7882
  545TMC3    C1 8136   2.180   4.267  17.416  0.4982 -0.4232 -0.1139
  545TMC3    C2 8137   2.121   4.257  17.292  0.0605 -0.0553  0.4746
  545TMC3    C3 8138   2.070   4.133  17.252 -0.1158  0.0832 -0.4434
  545TMC3    C4 8139   2.180   4.164  17.497  0.3206 -0.4670  0.3322
  545TMC3    C5 8140   2.147   4.042  17.446 -0.6133 -0.3006  0.2455
  545TMC3    C6 8141   2.081   4.024  17.327 -0.2798  0.1295  0.3760
  545TMC3     C 8142   2.213   4.403  17.457  0.6789 -0.1538  0.0191
  545TMC3     O 8143   2.248   4.475  17.365  0.7027  0.5475 -0.0409
  545TMC3     H 8144   2.111   4.350  17.236  0.8403 -0.3853 -0.2294
  545TMC3    H1 8145   2.239   4.168  17.588  1.6282 -2.8684 -0.3921
  545TMC3    H2 8146   2.040   3.927  17.300  2.3264 -1.1078  0.8793
  545TMC3    C7 8147   2.148   3.935  17.544  0.5113 -0.2379  0.6180
  545TMC3    C8 8148   2.015   4.113  17.119  1.3721 -0.0619  0.0757
  545TMC3    O1 8149   2.157   3.965  17.662  1.1827  0.1701 -0.5827
  545TMC3    O2 8150   1.976   4.006  17.083 -0.0727 -0.0261  0.0962
  546MPD2     C 8151   3.510   0.398  16.647  0.1684  0.6494 -0.0945
  546MPD2    C1 8152   3.501   0.335  16.772 -0.2356 -0.2016  0.8278
  546MPD2    C2 8153   3.574   0.395  16.876  0.1633 -0.2766  0.3289
  546MPD2    C3 8154   3.649   0.515  16.854 -0.0960 -0.7505  0.5730
  546MPD2    C4 8155   3.641   0.576  16.728 -0.7508  0.3123  0.3850
  546MPD2    C5 8156   3.570   0.522  16.629 -0.5051 -0.0264  0.3624
  546MPD2     H 8157   3.587   0.356  16.977 -4.1696 -1.6430  0.3937
  546MPD2    H1 8158   3.696   0.668  16.715  0.5001 -0.6215 -0.9044
  546MPD2    H2 8159   3.475   0.349  16.556 -0.8769 -1.1207  1.2607
  546MPD2    H3 8160   3.571   0.562  16.528  0.0994  1.3328  0.9042
  546MPD2     N 8161   3.728   0.579  16.953 -0.2458 -0.3391  0.1360
  546MPD2    H5 8162   3.781   0.659  16.920  1.8700 -1.5152  0.6838
  546MPD2    N1 8163   3.439   0.209  16.781 -0.4454 -0.0390 -0.1921
  546MPD2    H7 8164   3.398   0.168  16.698  0.1037 -1.3593  0.1832
  547TMC3    C1 8165   3.386   0.002  16.872  1.2411  0.4226 -0.3529
  547TMC3    C2 8166   3.292   4.723  16.776  0.0965 -0.0928  0.0685
  547TMC3    C3 8167   3.223   4.605  16.766 -0.8040  0.0961 -0.5274
  547TMC3    C4 8168   3.416   4.641  16.961  0.9822  0.7606 -0.3405
  547TMC3    C5 8169   3.353   4.522  16.938 -0.2026 -0.2476  1.0318
  547TMC3    C6 8170   3.256   4.491  16.839  0.0068 -0.7018 -0.3462
  547TMC3     C 8171   3.453   0.124  16.894 -0.2140 -0.9104  0.1982
  547TMC3     O 8172   3.504   0.141  17.003  0.6930  0.1011  0.4236
  547TMC3     H 8173   3.249   0.065  16.716 -1.6017  0.3487  1.8706
  547TMC3    H1 8174   3.489   4.646  17.041 -1.2298  0.3008  1.7195
  547TMC3    H2 8175   3.193   4.403  16.834 -0.4654 -0.3591 -0.4794
  547TMC3    C7 8176   3.391   4.405  17.021  0.5787  0.1061  0.2556
  547TMC3    C8 8177   3.135   4.586  16.658  0.6532  0.4944  0.5493
  547TMC3    O1 8178   3.454   4.435  17.118 -0.1282 -0.5352 -0.0382
  547TMC3    O2 8179   3.060   4.682  16.643  0.4388  0.3921 -0.0623
  548MPD2     C 8180   2.836   0.634  13.070  0.1265  0.4395  0.0015
  548MPD2    C1 8181   2.796   0.540  12.982  0.1973 -0.1799  0.3053
  548MPD2    C2 8182   2.890   0.473  12.901  0.7206  0.3857 -0.6583
  548MPD2    C3 8183   3.024   0.501  12.925  0.3601 -0.3394  0.0880
  548MPD2    C4 8184   3.063   0.608  12.995  0.0701  0.0293  0.3171
  548MPD2    C5 8185   2.964   0.671  13.062 -0.8162  0.1360 -0.2337
  548MPD2     H 8186   2.866   0.396  12.829  0.4241  0.6981 -0.8936
  548MPD2    H1 8187   3.163   0.651  12.994  0.0471  0.0590 -1.7208
  548MPD2    H2 8188   2.772   0.680  13.144 -0.9175 -0.7434 -0.1536
  548MPD2    H3 8189   2.985   0.747  13.136 -0.8979 -2.4745  2.4728
  548MPD2     N 8190   3.124   0.413  12.878 -0.2154  0.0420  0.0101
  548MPD2    H5 8191   3.093   0.356  12.800 -1.0033  1.6253 -0.8382
  548MPD2    N1 8192   2.657   0.504  12.974 -0.3709  0.2298  0.0566
  548MPD2    H7 8193   2.584   0.554  13.023 -1.8740 -0.2932 -1.6543
  549TMC3    C1 8194   2.461   0.402  12.883 -0.2132  1.6437 -0.4148
  549TMC3    C2 8195   2.386   0.521  12.874 -0.1479  0.1114  0.0004
  549TMC3    C3 8196   2.250   0.496  12.851 -0.0106  0.3304  0.4463
  549TMC3    C4 8197   2.408   0.280  12.904 -0.1171  0.3759 -0.3985
  549TMC3    C5 8198   2.271   0.264  12.905  0.1046 -0.3454 -0.1323
  549TMC3    C6 8199   2.194   0.374  12.884  0.3283 -1.0273 -0.2683
  549TMC3     C 8200   2.608   0.403  12.896  0.3938 -0.7599  0.4946
  549TMC3     O 8201   2.667   0.303  12.849  0.4766  0.6729  0.0378
  549TMC3     H 8202   2.430   0.610  12.832  1.6613 -1.6137 -1.7749
  549TMC3    H1 8203   2.475   0.194  12.908 -1.5504 -0.6886  0.6607
  549TMC3    H2 8204   2.086   0.374  12.893  0.2702  0.2246 -0.9962
  549TMC3    C7 8205   2.197   0.130  12.920 -0.8259 -0.3037 -0.1952
  549TMC3    C8 8206   2.182   0.560  12.747 -0.3349 -0.1857  0.2910
  549TMC3    O1 8207   2.075   0.133  12.909  0.2611 -0.0221 -0.3033
  549TMC3    O2 8208   2.061   0.577  12.757 -0.0815 -0.1047  0.2294
  550TMC3    C1 8209   1.560   3.139  12.097  0.4650 -0.1009 -0.0408
  550TMC3    C2 8210   1.639   3.198  12.192  0.3798  0.2405 -0.0098
  550TMC3    C3 8211   1.581   3.296  12.268 -0.3089 -0.5886  0.7324
  550TMC3    C4 8212   1.428   3.169  12.081  0.2186  0.1518 -0.0556
  550TMC3    C5 8213   1.373   3.270  12.152 -0.0006  0.7633 -0.0070
  550TMC3    C6 8214   1.448   3.336  12.249  0.2428  0.0511  0.3795
  550TMC3     C 8215   1.615   3.020  12.035  0.2017 -0.0038  0.1243
  550TMC3     O 8216   1.718   2.980  12.087  0.2157  0.4389 -0.0076
  550TMC3     H 8217   1.742   3.166  12.206  0.6102  0.7690 -0.5145
  550TMC3    H1 8218   1.366   3.115  12.010  0.6410  1.1040 -1.1550
  550TMC3    H2 8219   1.397   3.412  12.306  0.3782  1.0962 -0.8985
  550TMC3    C7 8220   1.240   3.313  12.123 -0.2698  0.4922  0.9307
  550TMC3    C8 8221   1.647   3.358  12.381 -0.5241  0.2028  0.0237
  550TMC3    O1 8222   1.166   3.353  12.215 -0.0997 -0.1332  0.0505
  550TMC3    O2 8223   1.565   3.399  12.459 -0.0899  0.0133 -0.2156
  551TMC3    C1 8224   3.784   0.855  13.316 -0.2877 -0.3046  0.1744
  551TMC3    C2 8225   3.877   0.759  13.331  0.0906 -0.8193  0.2172
  551TMC3    C3 8226   3.957   0.754  13.434  0.5416 -0.0802  0.0404
  551TMC3    C4 8227   3.748   0.941  13.416  0.7767  0.1520  0.0063
  551TMC3    C5 8228   3.822   0.928  13.533  0.9567 -0.7315 -0.6028
  551TMC3    C6 8229   3.926   0.838  13.533  0.3765  0.9313 -0.3835
  551TMC3     C 8230   3.743   0.875  13.179  0.1767 -0.1969  0.6558
  551TMC3     O 8231   3.741   0.775  13.110  0.1373 -0.0569 -0.3972
  551TMC3     H 8232   3.911   0.692  13.252  0.1234  0.2350 -0.6538
  551TMC3    H1 8233   3.670   1.016  13.414  1.4852  0.8908  0.5838
  551TMC3    H2 8234   3.976   0.817  13.626 -1.4621 -4.2557 -0.5575
  551TMC3    C7 8235   3.826   1.016  13.648  0.6961 -0.6859 -0.2464
  551TMC3    C8 8236   4.097   0.772  13.391  0.4685 -0.5516 -0.1610
  551TMC3    O1 8237   3.820   0.955  13.757  0.2080  0.1156 -0.3454
  551TMC3    O2 8238   4.143   0.703  13.299  0.4511  0.3930  0.4756
  552MPD2     C 8239   1.362   2.959  13.844  0.4724  0.0017  0.3218
  552MPD2    C1 8240   1.352   2.820  13.874 -0.2468 -0.2264  0.5956
  552MPD2    C2 8241   1.396   2.776  13.999 -0.0386 -0.2894  0.3900
  552MPD2    C3 8242   1.449   2.866  14.090  0.6497  0.4638  0.0576
  552MPD2    C4 8243   1.455   3.000  14.054 -0.6676  0.3906  0.1890
  552MPD2    C5 8244   1.405   3.047  13.936  0.1768 -0.3705  0.1893
  552MPD2     H 8245   1.406   2.672  14.028 -1.3660 -0.9864 -1.6089
  552MPD2    H1 8246   1.504   3.075  14.115 -1.4110  1.2171 -0.2339
  552MPD2    H2 8247   1.320   2.995  13.751  0.8249  1.1174  0.5917
  552MPD2    H3 8248   1.418   3.151  13.906 -0.2551  0.2102  2.0064
  552MPD2     N 8249   1.512   2.833  14.211 -0.1475  0.3751 -0.5800
  552MPD2    H5 8250   1.564   2.910  14.253  2.3119 -0.8696 -1.3639
  552MPD2    N1 8251   1.321   2.727  13.772  0.3409 -0.2487  0.3845
  552MPD2    H7 8252   1.313   2.629  13.798  1.1640 -0.4317 -0.0418
  553TMC3    C1 8253   1.239   2.659  13.563  0.1139 -0.5450 -0.8033
  553TMC3    C2 8254   1.189   2.700  13.442 -0.3900 -0.3415  0.0095
  553TMC3    C3 8255   1.096   2.621  13.390  0.4643  0.6563  0.2107
  553TMC3    C4 8256   1.209   2.538  13.619  0.3806  0.1219  0.6734
  553TMC3    C5 8257   1.123   2.464  13.550 -0.2233  0.4801  0.2038
  553TMC3    C6 8258   1.056   2.504  13.444 -0.3010  0.6254  0.0686
  553TMC3     C 8259   1.307   2.759  13.643  0.6917 -0.5285  0.2733
  553TMC3     O 8260   1.337   2.861  13.581  0.0309  0.2613  0.0788
  553TMC3     H 8261   1.230   2.789  13.394  0.6174  0.2392  1.9162
  553TMC3    H1 8262   1.259   2.498  13.707  0.9239 -0.1248  0.2570
  553TMC3    H2 8263   0.994   2.429  13.395  1.9110 -0.5172 -0.9954
  553TMC3    C7 8264   1.136   2.315  13.568  0.0372 -0.7873 -0.4281
  553TMC3    C8 8265   1.070   2.637  13.247 -0.0982 -0.7707 -0.0553
  553TMC3    O1 8266   1.035   2.248  13.543  0.7513  0.5905  0.6507
  553TMC3    O2 8267   1.153   2.705  13.189 -0.6681  0.1323  0.8247
  554TMC3    C1 8268   2.610   2.159  11.295  0.4715  0.0951 -0.7381
  554TMC3    C2 8269   2.525   2.158  11.186 -0.4968  0.4964  0.4751
  554TMC3    C3 8270   2.534   2.269  11.102 -1.0056 -0.1636  0.2379
  554TMC3    C4 8271   2.698   2.256  11.327  0.8337  0.3321 -0.6776
  554TMC3    C5 8272   2.701   2.365  11.245  0.7609 -0.7405 -0.0205
  554TMC3    C6 8273   2.617   2.370  11.136 -0.8043  0.4406 -0.4136
  554TMC3     C 8274   2.617   2.044  11.378  0.3511 -0.3612 -0.4231
  554TMC3     O 8275   2.510   1.995  11.412  0.1904  0.4846  0.3068
  554TMC3     H 8276   2.453   2.078  11.175  2.8761 -2.1276 -2.7604
  554TMC3    H1 8277   2.763   2.245  11.413 -0.7126  1.7104  0.6820
  554TMC3    H2 8278   2.638   2.444  11.060  2.9353  0.1212  0.2757
  554TMC3    C7 8279   2.825   2.447  11.242 -0.6076 -0.4647  0.3173
  554TMC3    C8 8280   2.513   2.260  10.960 -0.2875  0.0141 -0.5332
  554TMC3    O1 8281   2.828   2.526  11.150  0.5688 -0.2510 -0.1390
  554TMC3    O2 8282   2.494   2.366  10.896 -0.3540 -0.2269  0.1804
  555TMC3    C1 8283   2.322   1.844  14.988 -0.1954  0.0366  0.5567
  555TMC3    C2 8284   2.356   1.906  15.105 -0.3262 -0.3809 -0.4476
  555TMC3    C3 8285   2.353   1.830  15.218  0.4186 -0.1010 -0.4614
  555TMC3    C4 8286   2.265   1.718  14.982 -0.5202 -0.2200  0.4186
  555TMC3    C5 8287   2.263   1.644  15.099  1.0719  0.3196  0.1275
  555TMC3    C6 8288   2.294   1.701  15.220 -0.5345  0.5153  0.4248
  555TMC3     C 8289   2.324   1.930  14.865  0.2193 -0.5234 -0.0016
  555TMC3     O 8290   2.389   2.036  14.871  0.2059  0.1134 -0.2200
  555TMC3     H 8291   2.406   2.002  15.101 -2.2947  0.6259 -0.6600
  555TMC3    H1 8292   2.259   1.659  14.891  0.0381 -0.6913  0.6778
  555TMC3    H2 8293   2.298   1.646  15.314 -0.0740  1.1797  0.7938
  555TMC3    C7 8294   2.284   1.499  15.084 -0.0266 -0.6476  0.5423
  555TMC3    C8 8295   2.377   1.889  15.347 -0.7141  0.1565 -0.3941
  555TMC3    O1 8296   2.226   1.442  14.993 -0.9596 -0.0788  0.2911
  555TMC3    O2 8297   2.316   1.848  15.444 -0.5253 -0.2653  0.3483
  556MPD2     C 8298   4.654   3.877  10.591  0.0463 -0.7345  0.4788
  556MPD2    C1 8299   4.638   3.775  10.682 -0.1582 -0.2886 -0.4865
  556MPD2    C2 8300   4.604   3.648  10.640 -0.1323 -0.1972 -0.7646
  556MPD2    C3 8301   4.588   3.626  10.502 -0.3782 -0.1838  0.7226
  556MPD2    C4 8302   4.585   3.728  10.411  0.0454 -0.4893  0.0304
  556MPD2    C5 8303   4.632   3.852  10.455  0.1304  0.1107 -0.1488
  556MPD2     H 8304   4.588   3.574  10.718  0.3623 -0.1900 -0.6552
  556MPD2    H1 8305   4.567   3.715  10.305  0.7120  0.1201 -0.1557
  556MPD2    H2 8306   4.694   3.971  10.629  1.8080 -0.9513 -0.8503
  556MPD2    H3 8307   4.643   3.933  10.384  1.1153  0.5647  0.5293
  556MPD2     N 8308   4.574   3.488  10.467  0.3506 -0.0861  0.5271
  556MPD2    H5 8309   4.587   3.420  10.541 -0.3326 -1.3321 -0.5141
  556MPD2    N1 8310   4.669   3.804  10.820  0.2212  0.8617 -0.4835
  556MPD2    H7 8311   4.693   3.900  10.845 -1.9925  0.9238  1.3983
  557TMC3    C1 8312   4.529   3.285  10.362 -0.1506 -0.0112  0.7429
  557TMC3    C2 8313   4.442   3.220  10.279  0.1806 -0.0863 -0.8410
  557TMC3    C3 8314   4.444   3.082  10.266  0.1411  0.2203 -0.4004
  557TMC3    C4 8315   4.618   3.226  10.439  0.3317 -1.0719  0.0404
  557TMC3    C5 8316   4.610   3.084  10.434  0.3437 -0.2291  0.4002
  557TMC3    C6 8317   4.528   3.016  10.354  0.3096  0.5796  0.2226
  557TMC3     C 8318   4.543   3.432  10.345 -0.7699  0.0438 -0.5575
  557TMC3     O 8319   4.494   3.490  10.248 -0.2757 -0.7670  0.2408
  557TMC3     H 8320   4.365   3.285  10.239  0.7482 -0.9652 -3.4181
  557TMC3    H1 8321   4.691   3.273  10.505 -0.8954  3.1770 -1.6003
  557TMC3    H2 8322   4.527   2.908  10.363  0.3071  0.6352  0.8907
  557TMC3    C7 8323   4.646   3.012  10.552  0.4935 -0.1898  0.1908
  557TMC3    C8 8324   4.345   3.013  10.182 -0.1357  0.3487 -0.2788
  557TMC3    O1 8325   4.566   2.929  10.595  0.0485  0.5957 -0.4786
  557TMC3    O2 8326   4.238   3.071  10.156 -0.8582 -0.3307  0.8326
  558TMC3    C1 8327   2.614   1.244  10.281  0.6143  0.4323  0.4365
  558TMC3    C2 8328   2.484   1.263  10.320  0.5275  0.8768 -0.1659
  558TMC3    C3 8329   2.394   1.333  10.247 -0.5693 -0.2192 -0.8105
  558TMC3    C4 8330   2.663   1.303  10.166  0.0525 -0.3830 -0.1594
  558TMC3    C5 8331   2.572   1.385  10.098  0.2127  0.4141  0.3474
  558TMC3    C6 8332   2.439   1.392  10.128 -0.5395 -0.5653  0.2599
  558TMC3     C 8333   2.709   1.174  10.366 -0.0867  0.4601  0.2906
  558TMC3     O 8334   2.817   1.162  10.311  0.0089 -0.0805 -0.6162
  558TMC3     H 8335   2.446   1.196  10.396  2.0513 -1.6544 -1.6456
  558TMC3    H1 8336   2.766   1.290  10.132  0.3936 -0.0469  0.7524
  558TMC3    H2 8337   2.377   1.468  10.083 -1.4592 -1.9995 -0.8822
  558TMC3    C7 8338   2.615   1.446   9.977 -0.7849 -0.3358  0.5921
  558TMC3    C8 8339   2.250   1.344  10.272 -1.2383 -0.0033 -0.0780
  558TMC3    O1 8340   2.737   1.457   9.949 -0.4248 -0.0959 -0.1849
  558TMC3    O2 8341   2.175   1.376  10.179  0.3908 -0.1641 -0.2869
  559MPD2     C 8342   2.680   1.792  10.158  0.5691 -0.3765 -0.1380
  559MPD2    C1 8343   2.602   1.736  10.254 -0.0064  0.0647 -0.4659
  559MPD2    C2 8344   2.670   1.680  10.362 -0.0705 -0.0682 -1.0201
  559MPD2    C3 8345   2.808   1.675  10.376 -0.6318 -0.2890 -0.5676
  559MPD2    C4 8346   2.879   1.734  10.277 -0.1165 -0.8764 -0.2248
  559MPD2    C5 8347   2.817   1.793  10.167 -0.2940 -0.3235 -0.1277
  559MPD2     H 8348   2.612   1.629  10.438  0.3600  0.3358 -0.4323
  559MPD2    H1 8349   2.987   1.735  10.278 -0.1137 -0.9463 -0.5142
  559MPD2    H2 8350   2.634   1.838  10.072  0.7587  0.4349  0.1963
  559MPD2    H3 8351   2.877   1.844  10.092 -0.6569  0.4389  0.1030
  559MPD2     N 8352   2.865   1.631  10.497  0.0357 -0.3470 -0.2681
  559MPD2    H5 8353   2.810   1.597  10.575 -1.8191 -0.0472 -1.4704
  559MPD2    N1 8354   2.464   1.749  10.244 -0.2712 -0.0963 -0.0766
  559MPD2    H7 8355   2.432   1.809  10.169  2.0032  0.8465 -0.3002
  560TMC3    C1 8356   3.027   1.573  10.657  0.6192  0.3811 -0.6281
  560TMC3    C2 8357   2.924   1.510  10.722 -0.3080 -0.3566 -0.0551
  560TMC3    C3 8358   2.955   1.460  10.846 -0.1799  0.0791  0.4346
  560TMC3    C4 8359   3.144   1.605  10.714 -0.5120  0.3916  0.5022
  560TMC3    C5 8360   3.169   1.567  10.842 -0.0863  0.3353 -0.2119
  560TMC3    C6 8361   3.083   1.481  10.903  0.1981  0.4738 -1.0983
  560TMC3     C 8362   2.996   1.644  10.529 -0.4530  0.3080 -0.3252
  560TMC3     O 8363   3.092   1.701  10.477  0.4663  0.4183 -0.3897
  560TMC3     H 8364   2.834   1.479  10.669  0.3561 -1.9933 -0.2315
  560TMC3    H1 8365   3.227   1.651  10.661 -1.3698  0.5298 -0.7120
  560TMC3    H2 8366   3.109   1.460  11.006 -2.9844 -0.4040 -0.4653
  560TMC3    C7 8367   3.309   1.574  10.893  0.4150  0.1879  0.1372
  560TMC3    C8 8368   2.842   1.427  10.931  0.9332 -0.2100 -0.4397
  560TMC3    O1 8369   3.355   1.470  10.935 -0.1990 -0.1143 -0.0886
  560TMC3    O2 8370   2.732   1.455  10.881  0.2629 -0.4072 -0.1907
  561TMC3    C1 8371   0.586   0.982  11.228 -0.8618  0.0864  0.6255
  561TMC3    C2 8372   0.558   0.890  11.318  0.3158  0.0315 -0.1915
  561TMC3    C3 8373   0.512   0.931  11.442 -1.4301  0.4744 -0.0505
  561TMC3    C4 8374   0.569   1.116  11.254 -0.1385  0.6827 -0.5716
  561TMC3    C5 8375   0.533   1.156  11.384  0.7144 -0.0105 -0.7804
  561TMC3    C6 8376   0.509   1.060  11.485 -0.3500  0.3069  0.3027
  561TMC3     C 8377   0.640   0.946  11.101  0.8109 -0.1257  0.0346
  561TMC3     O 8378   0.614   1.014  11.002  0.4550 -0.1208 -0.1361
  561TMC3     H 8379   0.567   0.786  11.288 -0.3724 -0.0986  0.0450
  561TMC3    H1 8380   0.573   1.191  11.176 -1.1176  1.4827  0.1430
  561TMC3    H2 8381   0.483   1.089  11.586 -1.1257  1.5937 -0.2649
  561TMC3    C7 8382   0.539   1.290  11.417 -0.1804  1.0113 -0.2246
  561TMC3    C8 8383   0.446   0.825  11.521  0.2569 -0.0094 -0.2563
  561TMC3    O1 8384   0.491   1.317  11.527  0.3356  0.7573  0.4772
  561TMC3    O2 8385   0.490   0.714  11.513 -0.6382 -0.2507 -0.0194
  562TMC3    C1 8386   2.129   1.861  16.323 -0.7760  0.7836 -0.4866
  562TMC3    C2 8387   2.077   1.986  16.307  0.2062  0.7202  0.0025
  562TMC3    C3 8388   2.075   2.036  16.181  0.2901  0.2471  1.3783
  562TMC3    C4 8389   2.196   1.791  16.227 -0.9551 -0.1141  0.0904
  562TMC3    C5 8390   2.204   1.842  16.105  0.0624  0.2139 -0.7939
  562TMC3    C6 8391   2.145   1.965  16.084 -1.0280 -0.4593  0.4476
  562TMC3     C 8392   2.188   1.839  16.454  0.1701  0.0588  0.2563
  562TMC3     O 8393   2.190   1.726  16.497 -0.0298  0.2784  0.3877
  562TMC3     H 8394   2.027   2.037  16.389 -0.2723 -1.0686  0.8457
  562TMC3    H1 8395   2.239   1.695  16.254  1.4911  1.2058  0.9239
  562TMC3    H2 8396   2.159   2.003  15.984  2.6726 -2.5721  0.1855
  562TMC3    C7 8397   2.218   1.738  15.999 -0.0746  0.3432  0.7215
  562TMC3    C8 8398   2.062   2.184  16.159  0.4700 -0.4637  0.1695
  562TMC3    O1 8399   2.148   1.638  16.003 -0.3386  0.4244  0.0797
  562TMC3    O2 8400   2.098   2.264  16.243 -0.4077 -0.1984 -0.3983
  563MPD2     C 8401   4.156   3.622  15.541  0.0432 -0.2030  0.4326
  563MPD2    C1 8402   4.180   3.591  15.673  0.0574  0.5656  0.4808
  563MPD2    C2 8403   4.291   3.514  15.692 -0.5404  0.1636  0.2346
  563MPD2    C3 8404   4.382   3.472  15.593  0.1910  0.9622  0.3337
  563MPD2    C4 8405   4.356   3.523  15.466  0.2462  0.2021 -0.3462
  563MPD2    C5 8406   4.243   3.593  15.437 -0.0891  0.5573 -0.7206
  563MPD2     H 8407   4.318   3.488  15.793  1.2518  3.6427  0.6153
  563MPD2    H1 8408   4.432   3.515  15.390  0.3263 -0.3254 -0.2092
  563MPD2    H2 8409   4.075   3.688  15.515 -1.5514 -2.5247 -0.5360
  563MPD2    H3 8410   4.229   3.629  15.336  0.0700 -1.4447 -1.4727
  563MPD2     N 8411   4.491   3.394  15.638 -0.4060  0.2314  0.1494
  563MPD2    H5 8412   4.489   3.381  15.739  3.2458 -2.3180 -0.1079
  563MPD2    N1 8413   4.085   3.629  15.774  0.7969 -0.3921 -0.0960
  563MPD2    H7 8414   4.000   3.670  15.737  1.4980  1.0459 -0.1181
  564TMC3    C1 8415   3.993   3.673  15.985  0.0300  0.2764 -0.1312
  564TMC3    C2 8416   3.896   3.575  15.977 -0.1144  0.2214 -0.2093
  564TMC3    C3 8417   3.848   3.517  16.096  0.1458 -0.5733  0.7573
  564TMC3    C4 8418   4.032   3.719  16.108 -0.4471 -0.1356 -0.6083
  564TMC3    C5 8419   3.974   3.664  16.224 -0.1578  0.6072 -0.1862
  564TMC3    C6 8420   3.880   3.566  16.217 -0.1819 -0.3358 -0.3645
  564TMC3     C 8421   4.105   3.629  15.909  0.1263  0.6248 -0.0250
  564TMC3     O 8422   4.201   3.599  15.974  0.0776  0.1326 -0.0051
  564TMC3     H 8423   3.885   3.529  15.879  2.8804 -0.9602  0.0131
  564TMC3    H1 8424   4.113   3.790  16.112 -0.4629 -0.2647  1.8331
  564TMC3    H2 8425   3.830   3.531  16.306  0.9743  0.5462  0.6269
  564TMC3    C7 8426   4.059   3.683  16.342 -0.3994 -0.5055 -0.0825
  564TMC3    C8 8427   3.827   3.374  16.093  0.1641 -0.0378 -0.2880
  564TMC3    O1 8428   4.081   3.797  16.387  0.3370 -0.2720  0.0179
  564TMC3    O2 8429   3.817   3.320  16.201 -0.1672 -0.1631  0.2098
  565TMC3    C1 8430   0.305   0.067  10.187  0.0951  0.3202 -0.8184
  565TMC3    C2 8431   0.371   0.023  10.297  0.9092 -0.0397  0.3710
  565TMC3    C3 8432   0.429   4.635  10.295  0.0362  0.2550  0.3865
  565TMC3    C4 8433   0.280   4.711  10.085 -0.4346  0.7221  0.7755
  565TMC3    C5 8434   0.321   4.578  10.097  0.1638  0.1812 -0.5984
  565TMC3    C6 8435   0.395   4.535  10.203  0.2021  0.2294  0.4097
  565TMC3     C 8436   0.224   0.191  10.191 -0.2031 -0.5165 -0.5862
  565TMC3     O 8437   0.200   0.246  10.086 -0.6605 -0.4016  0.2695
  565TMC3     H 8438   0.393   0.095  10.375  1.3741 -0.1034  0.3017
  565TMC3    H1 8439   0.209   0.012  10.012  0.8004  0.4936 -0.5388
  565TMC3    H2 8440   0.452   4.443  10.200 -0.0026  0.0973  0.5663
  565TMC3    C7 8441   0.261   4.478  10.008 -0.0878  0.1094 -0.0693
  565TMC3    C8 8442   0.505   4.580  10.400  0.3929  0.1839  0.6587
  565TMC3    O1 8443   0.189   4.517   9.921  0.1766  0.2727 -0.1070
  565TMC3    O2 8444   0.472   4.465  10.420 -0.0425  0.0106 -0.1950
  566MPD2     C 8445   1.575   1.243  14.193 -0.1354 -0.1290  0.1163
  566MPD2    C1 8446   1.613   1.326  14.085 -0.4335 -0.7777  0.1251
  566MPD2    C2 8447   1.523   1.345  13.983  0.2820 -0.3327 -0.3515
  566MPD2    C3 8448   1.387   1.311  13.993 -0.1090  0.5337  0.0765
  566MPD2    C4 8449   1.347   1.244  14.103  0.0697 -0.0314  0.2510
  566MPD2    C5 8450   1.442   1.214  14.200 -0.6355 -0.6185  0.4719
  566MPD2     H 8451   1.556   1.388  13.889  0.3065  0.0860 -0.1520
  566MPD2    H1 8452   1.247   1.206  14.123  0.5385 -0.5472  1.6027
  566MPD2    H2 8453   1.647   1.202  14.262  0.2259  0.0733 -0.1419
  566MPD2    H3 8454   1.406   1.161  14.287  3.1962 -2.8862  0.6466
  566MPD2     N 8455   1.305   1.342  13.882 -0.6133  0.3917 -0.2917
  566MPD2    H5 8456   1.345   1.402  13.812 -2.6748  1.3446 -0.6510
  566MPD2    N1 8457   1.749   1.370  14.071  0.3783 -0.1407 -0.0625
  566MPD2    H7 8458   1.805   1.346  14.152 -1.1493 -1.3209  0.6351
  567TMC3    C1 8459   1.928   1.476  13.968 -0.9329  0.0141 -0.1038
  567TMC3    C2 8460   1.960   1.528  13.843 -0.3748  0.5211  0.7226
  567TMC3    C3 8461   2.087   1.582  13.822 -0.3639  0.0936  0.1135
  567TMC3    C4 8462   2.019   1.475  14.070  0.4564 -0.1588 -0.2287
  567TMC3    C5 8463   2.148   1.529  14.041 -0.5268  0.6633 -0.2194
  567TMC3    C6 8464   2.179   1.587  13.921  0.3608  0.0380  0.1279
  567TMC3     C 8465   1.789   1.449  13.968  0.0238  0.1409  0.1012
  567TMC3     O 8466   1.726   1.522  13.897 -0.4070  0.0779  0.3872
  567TMC3     H 8467   1.888   1.515  13.763  1.3019 -1.1524 -0.5420
  567TMC3    H1 8468   1.981   1.445  14.167  1.2749  1.2256  0.5107
  567TMC3    H2 8469   2.280   1.621  13.903 -0.0670  1.4934  0.4962
  567TMC3    C7 8470   2.233   1.564  14.154 -0.0374  0.6696 -0.4484
  567TMC3    C8 8471   2.125   1.584  13.678  0.6253 -0.7490  0.1425
  567TMC3    O1 8472   2.341   1.607  14.118  0.1898  0.4948  0.3452
  567TMC3    O2 8473   2.036   1.548  13.601  0.0805  0.1266  0.3568
  568MPD2     C 8474   3.794   1.836  16.420  0.0783 -0.7014 -0.0875
  568MPD2    C1 8475   3.873   1.889  16.521 -0.1309 -0.0278 -0.3755
  568MPD2    C2 8476   3.883   2.029  16.531  0.3360  0.2656  0.6830
  568MPD2    C3 8477   3.853   2.107  16.419  0.3329 -0.7382 -0.8397
  568MPD2    C4 8478   3.791   2.046  16.311  0.4553  0.4875 -0.0258
  568MPD2    C5 8479   3.766   1.916  16.314 -0.4825  0.4747  0.4521
  568MPD2     H 8480   3.936   2.074  16.614  1.7857  0.0505 -0.1121
  568MPD2    H1 8481   3.768   2.094  16.217 -0.8364  1.1640  0.6332
  568MPD2    H2 8482   3.758   1.734  16.417  0.6472 -0.9303  1.2298
  568MPD2    H3 8483   3.725   1.871  16.224 -0.7748  1.2481  0.1923
  568MPD2     N 8484   3.899   2.238  16.421 -0.2148  0.1574 -0.0362
  568MPD2    H5 8485   3.939   2.286  16.501  0.9825 -2.0855  0.6862
  568MPD2    N1 8486   3.927   1.801  16.617  0.5091 -0.5715 -0.5316
  568MPD2    H7 8487   3.903   1.704  16.600 -1.4966  0.1099 -1.5097
  569TMC3    C1 8488   3.956   2.449  16.316 -0.1985 -0.0544 -0.3006
  569TMC3    C2 8489   4.019   2.497  16.432  0.2501  0.1981  0.2733
  569TMC3    C3 8490   4.053   2.632  16.427 -0.7487 -1.1671  0.1892
  569TMC3    C4 8491   3.938   2.532  16.204  0.5940  0.2295 -0.2927
  569TMC3    C5 8492   3.982   2.658  16.205  0.4851  0.1909 -0.7006
  569TMC3    C6 8493   4.038   2.714  16.316 -0.2024  0.0636 -0.1121
  569TMC3     C 8494   3.897   2.316  16.307  0.3180 -0.2466 -0.2546
  569TMC3     O 8495   3.868   2.288  16.193 -0.4763 -0.1570 -0.0673
  569TMC3     H 8496   4.036   2.447  16.527  0.7315 -0.9675 -0.4374
  569TMC3    H1 8497   3.876   2.495  16.123  2.5222 -0.6932 -1.3483
  569TMC3    H2 8498   4.081   2.813  16.310  0.9809 -0.5104 -1.1089
  569TMC3    C7 8499   3.967   2.724  16.080 -0.4590 -0.6044  0.6581
  569TMC3    C8 8500   4.096   2.691  16.552  0.3440 -0.2872 -0.9305
  569TMC3    O1 8501   3.972   2.652  15.980 -0.3034  0.4366 -0.1632
  569TMC3    O2 8502   4.154   2.616  16.633 -0.2040 -0.2099  0.2160
  570TMC3    C1 8503   3.078   1.121  15.912 -1.0274  0.4476  0.0655
  570TMC3    C2 8504   3.151   1.131  15.801 -0.1931 -0.2953  0.0068
  570TMC3    C3 8505   3.216   1.250  15.782 -0.7274 -0.0973  0.0272
  570TMC3    C4 8506   3.067   1.220  16.011  0.9445 -0.3171  0.3727
  570TMC3    C5 8507   3.143   1.337  15.983  0.1281 -0.0118 -0.6671
  570TMC3    C6 8508   3.217   1.349  15.870  0.1182 -0.0824 -0.0098
  570TMC3     C 8509   3.025   0.989  15.941 -0.0177 -0.3564 -0.1397
  570TMC3     O 8510   2.994   0.919  15.847 -0.3622  0.0848 -0.5390
  570TMC3     H 8511   3.175   1.042  15.745  0.4676 -0.1397  0.0445
  570TMC3    H1 8512   3.011   1.215  16.103  2.3873 -1.6565  1.1741
  570TMC3    H2 8513   3.295   1.425  15.860 -0.3348  0.5832  1.4878
  570TMC3    C7 8514   3.182   1.405  16.103 -0.7253 -0.5487  0.5913
  570TMC3    C8 8515   3.298   1.281  15.666 -0.0087 -0.2890  0.1361
  570TMC3    O1 8516   3.149   1.360  16.213 -0.2464 -0.3485  0.0158
  570TMC3    O2 8517   3.391   1.359  15.674 -0.1329  0.6442 -0.4087
  571MPD2     C 8518   1.892   2.744  17.096  0.2325 -0.0554 -0.0127
  571MPD2    C1 8519   1.808   2.711  17.203 -0.2469  0.1465  0.2304
  571MPD2    C2 8520   1.793   2.804  17.310 -0.9768  0.1580  0.1585
  571MPD2    C3 8521   1.862   2.922  17.310  0.5401 -0.4695  0.1291
  571MPD2    C4 8522   1.940   2.958  17.200  0.5480 -0.9741 -0.5520
  571MPD2    C5 8523   1.957   2.871  17.091 -0.5736  0.0952  0.0435
  571MPD2     H 8524   1.735   2.782  17.399 -1.7232 -2.4206 -0.9493
  571MPD2    H1 8525   1.999   3.048  17.188  0.1277 -0.9516 -2.4419
  571MPD2    H2 8526   1.902   2.664  17.023 -0.2187  1.0974 -1.3256
  571MPD2    H3 8527   2.012   2.903  17.003  1.1852  1.4615  1.6070
  571MPD2     N 8528   1.850   3.023  17.410 -0.0516  0.3587 -0.7914
  571MPD2    H5 8529   1.869   3.121  17.394 -1.7257  0.5967 -1.2507
  571MPD2    N1 8530   1.734   2.587  17.196 -0.4119 -0.2032 -0.2516
  571MPD2    H7 8531   1.761   2.524  17.121  0.0449  1.0411 -1.1469
  572TMC3    C1 8532   1.822   3.105  17.628 -0.1954  0.2839  0.2579
  572TMC3    C2 8533   1.872   3.091   0.010 -0.1319  0.3154 -0.9812
  572TMC3    C3 8534   1.913   3.202   0.073 -0.1233 -0.1193  0.6717
  572TMC3    C4 8535   1.805   3.229  17.571 -0.3434 -0.3715 -0.1732
  572TMC3    C5 8536   1.847   3.344  17.640 -0.8416 -0.6419 -0.0026
  572TMC3    C6 8537   1.895   3.333   0.020 -0.1642  0.4322  0.3806
  572TMC3     C 8538   1.822   2.987  17.538  0.5487  0.5027  0.2755
  572TMC3     O 8539   1.824   2.875  17.586  0.3574 -0.0468 -0.0767
  572TMC3     H 8540   1.899   2.992   0.045  0.1082  0.9924  0.7376
  572TMC3    H1 8541   1.744   3.239  17.482  0.6236 -1.4142 -0.9644
  572TMC3    H2 8542   1.917   3.416   0.086  1.9028 -2.0765  2.8864
  572TMC3    C7 8543   1.838   3.473  17.570 -0.1191 -0.5251 -0.2079
  572TMC3    C8 8544   1.970   3.188   0.205  0.7036  0.3681  0.0218
  572TMC3    O1 8545   1.824   3.470  17.449 -0.1101 -0.0935 -0.0670
  572TMC3    O2 8546   2.045   3.282   0.242 -0.4635 -0.1542  0.4690
  573MPD2     C 8547   2.840   2.794   0.011  0.2821 -0.4731  0.0223
  573MPD2    C1 8548   2.802   2.921  17.720  0.0094  0.3783  0.3833
  573MPD2    C2 8549   2.708   2.935  17.619  0.2708  0.2054  0.1403
  573MPD2    C3 8550   2.660   2.829  17.555 -0.6163 -0.0242  0.9970
  573MPD2    C4 8551   2.685   2.704  17.612  0.2624 -0.3366 -0.0393
  573MPD2    C5 8552   2.776   2.687  17.711  0.4753 -0.0633  0.5857
  573MPD2     H 8553   2.680   3.031  17.577  0.7704 -0.3774 -1.5089
  573MPD2    H1 8554   2.649   2.619  17.555  1.7491 -1.0750  0.1404
  573MPD2    H2 8555   2.927   2.769   0.071 -0.5726 -1.6404  0.7676
  573MPD2    H3 8556   2.820   2.594  17.745 -2.3058 -1.1829  1.1395
  573MPD2     N 8557   2.565   2.846  17.451 -0.5706 -0.0419 -0.6661
  573MPD2    H5 8558   2.506   2.765  17.430  0.5836 -1.2761  0.8454
  573MPD2    N1 8559   2.876   3.034   0.018 -0.9803 -0.0694 -0.4163
  573MPD2    H7 8560   2.926   3.014   0.105  0.6017  0.1165 -1.2798
  574TMC3    C1 8561   2.429   2.968  17.295  0.1009 -0.3509  0.8483
  574TMC3    C2 8562   2.341   3.018  17.389  0.7486  0.0856  0.6097
  574TMC3    C3 8563   2.247   3.114  17.355 -0.7297  0.0823  0.2137
  574TMC3    C4 8564   2.431   3.030  17.168 -0.0241  0.7011 -0.3687
  574TMC3    C5 8565   2.333   3.121  17.136 -0.4443 -0.1876 -0.7276
  574TMC3    C6 8566   2.243   3.165  17.228  0.3267 -0.1445  0.7110
  574TMC3     C 8567   2.554   2.959  17.368 -0.3221  0.1463  0.3373
  574TMC3     O 8568   2.624   3.057  17.362 -0.0254  0.2188  0.3695
  574TMC3     H 8569   2.330   2.982  17.491  1.1341 -0.7384  0.3625
  574TMC3    H1 8570   2.497   2.986  17.094 -0.0535 -1.4739  0.8927
  574TMC3    H2 8571   2.164   3.232  17.196  1.2348  0.4307 -0.2771
  574TMC3    C7 8572   2.347   3.199  17.021 -0.1921  0.5892  1.2603
  574TMC3    C8 8573   2.219   3.202  17.467  0.8178  0.7162  0.0484
  574TMC3    O1 8574   2.331   3.320  17.037  0.1336 -0.1211  0.3243
  574TMC3    O2 8575   2.245   3.159  17.577  0.2414  1.4000 -0.5451
  575TMC3    C1 8576   0.720   4.242  11.217  0.0599 -0.2731  0.0642
  575TMC3    C2 8577   0.598   4.201  11.267 -0.3896 -0.2671  0.0510
  575TMC3    C3 8578   0.496   4.195  11.181  0.1627 -0.0761  0.4615
  575TMC3    C4 8579   0.738   4.268  11.081 -0.4024 -0.3424 -0.6262
  575TMC3    C5 8580   0.627   4.269  11.006  0.6002 -0.1579 -0.0013
  575TMC3    C6 8581   0.505   4.233  11.046 -0.2672 -0.0111 -0.4810
  575TMC3     C 8582   0.836   4.229  11.312  0.5592 -0.0163  0.1445
  575TMC3     O 8583   0.816   4.165  11.416  0.6029 -0.0701 -0.8286
  575TMC3     H 8584   0.586   4.198  11.375  1.1700 -2.0706  0.1727
  575TMC3    H1 8585   0.837   4.297  11.046 -0.1522 -0.5036 -0.0446
  575TMC3    H2 8586   0.427   4.223  10.972  0.5012  1.5231 -1.5009
  575TMC3    C7 8587   0.647   4.319  10.872  0.0554 -0.0040 -0.3118
  575TMC3    C8 8588   0.369   4.150  11.240 -0.4753 -1.2558 -0.2666
  575TMC3    O1 8589   0.564   4.285  10.788 -0.2960  0.4921 -0.6178
  575TMC3    O2 8590   0.360   4.092  11.346 -0.3768 -0.0409  0.0979
  576MPD2     C 8591   4.427   1.082  12.635  0.1611 -0.1485 -0.4276
  576MPD2    C1 8592   4.321   1.120  12.561  0.3330  0.2242  0.9182
  576MPD2    C2 8593   4.229   1.203  12.615 -0.4509  0.1778 -0.7499
  576MPD2    C3 8594   4.247   1.250  12.742  0.2795 -0.5761  0.9986
  576MPD2    C4 8595   4.358   1.219  12.810  0.7616 -0.1494  0.1502
  576MPD2    C5 8596   4.453   1.137  12.755 -0.4461  0.5573 -0.1086
  576MPD2     H 8597   4.137   1.226  12.561 -2.0992  0.5352  2.2266
  576MPD2    H1 8598   4.377   1.250  12.912  0.3456 -2.0385  0.8001
  576MPD2    H2 8599   4.503   1.013  12.600  1.6945  0.9016  0.8407
  576MPD2    H3 8600   4.532   1.101  12.820 -0.7657  1.7426  0.9311
  576MPD2     N 8601   4.134   1.316  12.792 -0.2928 -0.0769  0.3329
  576MPD2    H5 8602   4.056   1.336  12.730 -0.1677 -0.1928  0.1353
  576MPD2    N1 8603   4.324   1.096  12.422  0.8056 -0.2762 -0.3912
  576MPD2    H7 8604   4.254   1.138  12.362  0.8900  1.2972  0.6213
  577TMC3    C1 8605   4.425   1.023  12.217  0.7263  0.0353  0.5135
  577TMC3    C2 8606   4.480   0.914  12.153 -0.1603  0.1820 -0.6578
  577TMC3    C3 8607   4.547   0.944  12.042 -0.0876 -0.6564  0.0862
  577TMC3    C4 8608   4.409   1.146  12.159  0.4548 -0.2464 -0.7326
  577TMC3    C5 8609   4.472   1.167  12.042  0.4983 -0.9382 -0.5796
  577TMC3    C6 8610   4.549   1.069  11.983  0.4738 -0.1989 -0.6077
  577TMC3     C 8611   4.409   1.005  12.364  0.1642 -1.1710 -0.3894
  577TMC3     O 8612   4.463   0.905  12.411  0.0737  0.2530  0.1880
  577TMC3     H 8613   4.480   0.810  12.187 -0.5791 -0.1835 -1.7889
  577TMC3    H1 8614   4.386   1.235  12.217 -0.5744 -0.7976 -0.3087
  577TMC3    H2 8615   4.618   1.091  11.902  0.2715  3.2341  0.1349
  577TMC3    C7 8616   4.539   1.295  12.014  0.9319 -1.1787 -0.1686
  577TMC3    C8 8617   4.643   0.843  11.995  0.4900 -0.1823  0.2305
  577TMC3    O1 8618   4.643   1.314  12.078 -0.3442  0.1073 -0.1614
  577TMC3    O2 8619   4.652   0.744  12.062 -0.3447  0.4568 -0.3044
  578MPD2     C 8620   2.763   1.290   0.875 -0.1921  0.0464 -0.1652
  578MPD2    C1 8621   2.853   1.245   0.784  0.3540  0.0806  0.1043
  578MPD2    C2 8622   2.954   1.160   0.823 -0.4021  0.5653 -0.2295
  578MPD2    C3 8623   2.974   1.142   0.960  0.4228 -0.2449  0.1463
  578MPD2    C4 8624   2.887   1.191   1.050 -0.5538 -0.2489  0.5253
  578MPD2    C5 8625   2.778   1.264   1.007  0.0996 -0.0064 -0.6881
  578MPD2     H 8626   3.025   1.118   0.753 -2.2209  0.6904 -2.1445
  578MPD2    H1 8627   2.895   1.177   1.157  1.0342 -0.7298  0.3456
  578MPD2    H2 8628   2.679   1.350   0.844  1.4090  0.8478 -2.9103
  578MPD2    H3 8629   2.714   1.315   1.079  0.6914 -1.2234  0.6765
  578MPD2     N 8630   3.092   1.074   0.998  0.0847  0.7607  0.2277
  578MPD2    H5 8631   3.148   1.015   0.937  2.7528  1.1368  2.3428
  578MPD2    N1 8632   2.840   1.282   0.653 -0.5842 -0.2230  0.2429
  578MPD2    H7 8633   2.764   1.349   0.641 -0.1497  0.0853 -0.8125
  579TMC3    C1 8634   3.269   1.017   1.134 -0.3627 -1.2471 -0.3195
  579TMC3    C2 8635   3.369   1.080   1.208  0.4657 -0.0227  0.0552
  579TMC3    C3 8636   3.500   1.049   1.204  0.0200  0.3373 -0.0639
  579TMC3    C4 8637   3.310   0.932   1.037 -0.5521 -0.6650 -0.1257
  579TMC3    C5 8638   3.448   0.907   1.025 -0.5478 -0.5934  1.2512
  579TMC3    C6 8639   3.547   0.959   1.109 -0.1317  0.0201  0.8736
  579TMC3     C 8640   3.141   1.084   1.116 -0.1531  0.0603  0.2452
  579TMC3     O 8641   3.106   1.160   1.204 -0.6074  0.2127  0.3506
  579TMC3     H 8642   3.339   1.167   1.265  1.7662  1.1584 -1.0798
  579TMC3    H1 8643   3.237   0.874   0.983 -0.0818  0.4852 -1.9851
  579TMC3    H2 8644   3.649   0.923   1.100 -0.3447 -0.2737 -0.3599
  579TMC3    C7 8645   3.485   0.790   0.947 -0.5745  1.1264  0.2265
  579TMC3    C8 8646   3.583   1.165   1.234  0.2270 -0.1433 -0.3898
  579TMC3    O1 8647   3.586   0.728   0.985  0.0823 -0.2030  0.0298
  579TMC3    O2 8648   3.535   1.276   1.270 -0.5966  0.1262 -0.0709
  580TMC3    C1 8649   2.142   0.140  12.372  0.4491  0.8437 -0.1505
  580TMC3    C2 8650   2.226   0.205  12.456 -0.3919 -0.0872  0.2638
  580TMC3    C3 8651   2.347   0.159  12.475 -0.0850 -0.3260 -0.0534
  580TMC3    C4 8652   2.175   0.026  12.307  0.1718  0.1810 -0.4740
  580TMC3    C5 8653   2.288   4.712  12.333  0.1600 -0.0051 -0.0181
  580TMC3    C6 8654   2.377   0.042  12.411 -0.0664  0.2963 -0.2946
  580TMC3     C 8655   2.075   0.224  12.275  0.0420 -0.7009  0.1196
  580TMC3     O 8656   2.091   0.204  12.156 -0.1538  0.0385  0.2551
  580TMC3     H 8657   2.197   0.301  12.498 -0.0757 -0.4672  1.3464
  580TMC3    H1 8658   2.104   4.727  12.233  0.5521  1.9408 -1.7047
  580TMC3    H2 8659   2.477   0.001  12.398  0.0241  0.5225 -0.3081
  580TMC3    C7 8660   2.312   4.575  12.283 -0.4553 -0.1690 -0.2263
  580TMC3    C8 8661   2.456   0.252  12.510 -0.0841  0.0979 -0.2746
  580TMC3    O1 8662   2.245   4.536  12.188  0.3046 -0.9009  0.3276
  580TMC3    O2 8663   2.426   0.345  12.581 -0.5784  0.1556 -0.1878
  581MPD2     C 8664   0.614   4.439  14.439  1.1339  0.0870 -0.3202
  581MPD2    C1 8665   0.572   4.462  14.569  0.6126 -0.0033  0.0303
  581MPD2    C2 8666   0.449   4.531  14.589 -0.0862  0.2076  0.5100
  581MPD2    C3 8667   0.365   4.560  14.482 -0.2179 -0.3816  0.3067
  581MPD2    C4 8668   0.412   4.542  14.352  0.0427 -0.4639  0.0854
  581MPD2    C5 8669   0.537   4.483  14.333 -0.3448  0.0645  0.3110
  581MPD2     H 8670   0.413   4.543  14.690  1.9071  0.4440  1.1956
  581MPD2    H1 8671   0.357   4.564  14.262  1.2589  3.5336  0.3273
  581MPD2    H2 8672   0.709   4.390  14.420  1.2929  0.5956 -0.8579
  581MPD2    H3 8673   0.584   4.471  14.236 -1.1545  0.3608 -0.1203
  581MPD2     N 8674   0.228   4.584  14.520 -0.3283  0.0628  0.0639
  581MPD2    H5 8675   0.207   4.594  14.619  0.3653  2.6970 -0.0734
  581MPD2    N1 8676   0.663   4.421  14.670 -0.2518 -0.0856  0.2881
  581MPD2    H7 8677   0.747   4.377  14.634 -0.3318 -0.7093  0.8651
  582TMC3    C1 8678   0.752   4.376  14.881 -0.3892  0.1923 -0.1943
  582TMC3    C2 8679   0.777   4.428  15.001  0.8690  0.0944  0.4835
  582TMC3    C3 8680   0.839   4.354  15.100 -0.2886  0.2282  0.0674
  582TMC3    C4 8681   0.756   4.243  14.862  0.4428  0.6956 -0.2731
  582TMC3    C5 8682   0.800   4.167  14.970  0.1282 -0.3196  1.0578
  582TMC3    C6 8683   0.848   4.218  15.087 -0.3201 -0.1069 -0.0324
  582TMC3     C 8684   0.647   4.447  14.807 -0.4089 -0.7451  0.1215
  582TMC3     O 8685   0.582   4.540  14.851  0.1128  0.5246  0.2310
  582TMC3     H 8686   0.773   4.535  15.020 -1.3326  0.1476 -0.2685
  582TMC3    H1 8687   0.717   4.199  14.771 -1.2852  0.9224  0.3617
  582TMC3    H2 8688   0.884   4.152  15.165  0.8879 -0.5880 -1.0033
  582TMC3    C7 8689   0.688   4.078  15.005  0.5335 -0.0723 -0.2360
  582TMC3    C8 8690   0.859   4.415  15.232  0.1115  0.1706 -1.1473
  582TMC3    O1 8691   0.651   3.992  14.930 -0.2192 -0.0246  0.1554
  582TMC3    O2 8692   0.767   4.489  15.267  0.5114  0.4682  0.0479
  583MPD2     C 8693   0.908   1.483  16.811 -0.0889  0.4422 -0.3009
  583MPD2    C1 8694   0.852   1.574  16.721  0.3242  0.0255 -0.0499
  583MPD2    C2 8695   0.776   1.679  16.760  0.1429 -0.3479  1.0733
  583MPD2    C3 8696   0.741   1.693  16.893  0.8791 -0.0891  0.1232
  583MPD2    C4 8697   0.791   1.599  16.981  0.1412 -0.8506  0.2035
  583MPD2    C5 8698   0.881   1.503  16.942  0.2719  0.6997 -0.0583
  583MPD2     H 8699   0.739   1.757  16.695  1.6484  0.0815  0.7443
  583MPD2    H1 8700   0.775   1.605  17.088 -1.3869 -0.4311 -0.0394
  583MPD2    H2 8701   0.981   1.407  16.785  0.4962  0.3246  1.6780
  583MPD2    H3 8702   0.934   1.443  17.015  1.0489 -2.1267 -2.9356
  583MPD2     N 8703   0.654   1.803  16.925  0.3844 -0.0921 -0.2186
  583MPD2    H5 8704   0.627   1.865  16.849  2.3554 -0.1335 -0.9434
  583MPD2    N1 8705   0.867   1.554  16.582  0.5551  0.9686 -0.7010
  583MPD2    H7 8706   0.817   1.613  16.516 -1.3810  2.5431  2.1839
  584TMC3    C1 8707   0.528   1.945  17.060  0.2914  0.4592 -0.7987
  584TMC3    C2 8708   0.593   2.054  17.012  0.6683  0.5908 -0.0857
  584TMC3    C3 8709   0.568   2.178  17.059  0.0064  0.2188 -0.0578
  584TMC3    C4 8710   0.444   1.958  17.165  0.3836 -0.1150 -0.5524
  584TMC3    C5 8711   0.428   2.085  17.213 -0.5143  0.2501  0.7779
  584TMC3    C6 8712   0.478   2.198  17.161 -0.1385  0.7980 -0.3413
  584TMC3     C 8713   0.595   1.819  17.047  0.1042 -0.6062 -0.1878
  584TMC3     O 8714   0.604   1.759  17.152 -0.2735 -0.2283  0.5400
  584TMC3     H 8715   0.667   2.045  16.933  1.1350  0.7631  0.3360
  584TMC3    H1 8716   0.397   1.871  17.210 -2.2803  0.4785 -2.1465
  584TMC3    H2 8717   0.434   2.292  17.192  1.8350  1.9571 -1.0492
  584TMC3    C7 8718   0.359   2.088  17.344 -0.3189  0.0770  0.3148
  584TMC3    C8 8719   0.597   2.287  16.963 -0.1541  0.1895 -0.0846
  584TMC3    O1 8720   0.291   1.991  17.371  0.3489  0.1881  0.1901
  584TMC3    O2 8721   0.582   2.255  16.847  0.8218 -0.0150 -0.0064
  585MPD2     C 8722   4.472   0.488   0.330  0.6422  0.4339 -0.0515
  585MPD2    C1 8723   4.583   0.426   0.275  0.5426 -0.5219 -0.2576
  585MPD2    C2 8724   4.584   0.386   0.138 -0.1902  0.2899  0.2231
  585MPD2    C3 8725   4.467   0.422   0.065 -0.5544  0.1100 -0.1198
  585MPD2    C4 8726   4.354   0.478   0.125  0.1004 -0.1400 -0.0201
  585MPD2    C5 8727   4.358   0.515   0.259  0.5311 -0.1579 -0.0607
  585MPD2     H 8728   4.664   0.332   0.090 -1.4329 -0.5720 -0.8915
  585MPD2    H1 8729   4.266   0.509   0.069  1.5302 -1.7250 -3.1251
  585MPD2    H2 8730   4.482   0.533   0.428  0.0671  3.4925 -1.4039
  585MPD2    H3 8731   4.274   0.567   0.303  0.9104 -0.7767  1.3834
  585MPD2     N 8732   4.447   0.405  17.673  0.0439 -0.5712  0.1201
  585MPD2    H5 8733   4.352   0.410  17.639 -0.1931 -2.6260  0.4860
  585MPD2    N1 8734   4.692   0.408   0.362  0.1674 -0.3495  0.0173
  585MPD2    H7 8735   4.675   0.431   0.459 -0.7322  0.7892 -0.3933
  586TMC3    C1 8736   4.506   0.351  17.450 -0.4948 -0.4817 -0.6245
  586TMC3    C2 8737   4.610   0.299  17.371  0.3870 -0.0141  0.0277
  586TMC3    C3 8738   4.577   0.222  17.266  1.3958 -0.3915  0.2422
  586TMC3    C4 8739   4.376   0.323  17.429 -0.0299 -0.0407  0.2824
  586TMC3    C5 8740   4.349   0.243  17.321  0.7220  0.0384 -0.1103
  586TMC3    C6 8741   4.445   0.184  17.241  0.1839  0.1898  0.1611
  586TMC3     C 8742   4.554   0.390  17.585  0.3550 -0.2512  0.5306
  586TMC3     O 8743   4.673   0.383  17.605 -0.4425 -0.4975 -0.1499
  586TMC3     H 8744   4.713   0.312  17.403  0.0669  1.1922  0.5651
  586TMC3    H1 8745   4.299   0.350  17.499  0.0281  2.2447 -0.5356
  586TMC3    H2 8746   4.423   0.121  17.155  5.1932  0.3264 -1.2300
  586TMC3    C7 8747   4.214   0.254  17.262  0.5888 -0.5895  0.6256
  586TMC3    C8 8748   4.681   0.146  17.190  0.2960 -0.4472 -0.1260
  586TMC3    O1 8749   4.136   0.346  17.296  0.7778 -0.1224 -0.4671
  586TMC3    O2 8750   4.641   0.042  17.137  0.1039 -0.6986  0.1793
  587TMC3    C1 8751   2.221   4.115  16.063  0.4577 -0.1546  0.6876
  587TMC3    C2 8752   2.273   4.222  16.140 -0.2537  0.1991  0.5175
  587TMC3    C3 8753   2.383   4.195  16.219  0.7794 -0.7467  0.3760
  587TMC3    C4 8754   2.274   3.990  16.065 -0.0492  0.1746  0.3923
  587TMC3    C5 8755   2.382   3.967  16.148 -0.8480  0.5023  0.3782
  587TMC3    C6 8756   2.436   4.070  16.222  0.9478  0.0153  0.1317
  587TMC3     C 8757   2.089   4.145  16.003 -0.0663  0.1778  0.1442
  587TMC3     O 8758   2.020   4.225  16.068  0.4749  0.2011 -0.4994
  587TMC3     H 8759   2.245   4.324  16.117 -0.6592 -0.2157 -0.8196
  587TMC3    H1 8760   2.226   3.901  16.027 -1.8283  1.8232 -1.2020
  587TMC3    H2 8761   2.492   4.046  16.312  1.2911 -1.0416 -0.3698
  587TMC3    C7 8762   2.376   3.833  16.193 -0.0645  0.0766 -0.0931
  587TMC3    C8 8763   2.403   4.274  16.335  0.2595 -1.4999  0.1108
  587TMC3    O1 8764   2.275   3.786  16.242 -0.2730 -0.0512  0.7735
  587TMC3    O2 8765   2.503   4.261  16.403 -0.0646  0.4724 -0.1215
  588TMC3    C1 8766   3.923   2.095   9.830  0.4361  0.2998  0.1556
  588TMC3    C2 8767   3.895   1.965   9.797 -0.5757 -0.4290 -0.1497
  588TMC3    C3 8768   4.001   1.879   9.826  0.8492  0.6341  0.6230
  588TMC3    C4 8769   4.037   2.136   9.885  0.1525  0.3432 -0.0645
  588TMC3    C5 8770   4.133   2.041   9.909  0.6683  0.2219 -0.2424
  588TMC3    C6 8771   4.124   1.911   9.881  0.6097 -0.3925  0.6067
  588TMC3     C 8772   3.814   2.189   9.833 -0.7200 -0.4470 -0.5361
  588TMC3     O 8773   3.765   2.211   9.723  0.4357  0.1487  0.6675
  588TMC3     H 8774   3.800   1.929   9.758 -1.3033  2.1396 -0.7304
  588TMC3    H1 8775   4.059   2.242   9.889  0.5059  0.2961 -0.6756
  588TMC3    H2 8776   4.208   1.845   9.901  2.3145  0.5932 -3.2395
  588TMC3    C7 8777   4.238   2.073  10.003 -0.3327 -0.3250 -0.2041
  588TMC3    C8 8778   3.963   1.743   9.812 -0.1432 -0.5304  0.2612
  588TMC3    O1 8779   4.321   1.989  10.036  0.5187 -0.5071 -0.0374
  588TMC3    O2 8780   3.869   1.718   9.736 -0.0225  0.0156  0.7455
  589TMC3    C1 8781   3.612   3.953   0.691 -0.5202  0.0588  0.8710
  589TMC3    C2 8782   3.625   3.986   0.825 -0.8272  0.4877  0.0871
  589TMC3    C3 8783   3.744   3.946   0.887  0.2988  1.0628  0.1747
  589TMC3    C4 8784   3.705   3.882   0.614  0.4192  0.7435  0.2929
  589TMC3    C5 8785   3.813   3.850   0.682  0.4907 -0.2683 -0.1008
  589TMC3    C6 8786   3.839   3.875   0.811  0.1398 -0.2347  0.9847
  589TMC3     C 8787   3.512   4.018   0.614 -0.3299  0.9568  0.4871
  589TMC3     O 8788   3.495   3.977   0.499 -0.1973 -0.0736  0.0083
  589TMC3     H 8789   3.546   4.039   0.877 -0.9199  0.5127 -0.0774
  589TMC3    H1 8790   3.682   3.846   0.514 -0.2518  0.8616  0.4073
  589TMC3    H2 8791   3.936   3.845   0.847  0.6209 -0.9873 -0.9488
  589TMC3    C7 8792   3.895   3.742   0.615  0.1512  0.9839 -0.2972
  589TMC3    C8 8793   3.776   4.018   1.004  1.1956  0.3141 -0.3594
  589TMC3    O1 8794   3.829   3.656   0.557 -0.4067  0.2093 -0.2443
  589TMC3    O2 8795   3.700   4.098   1.052 -0.3526  0.0889  0.9407
  590MPD2     C 8796   2.836   2.660  16.406 -0.5393  0.4504  0.1195
  590MPD2    C1 8797   2.858   2.653  16.273 -0.2947 -0.6385  0.0262
  590MPD2    C2 8798   2.972   2.709  16.211 -0.7156 -1.0561  0.4851
  590MPD2    C3 8799   3.061   2.780  16.292  0.1697 -0.0048 -0.1488
  590MPD2    C4 8800   3.037   2.789  16.428  0.6498  0.0145 -0.2070
  590MPD2    C5 8801   2.928   2.726  16.483  0.0616  0.5338 -0.6147
  590MPD2     H 8802   2.992   2.699  16.105  0.2942 -1.7254  0.7407
  590MPD2    H1 8803   3.098   2.847  16.498  0.0799  1.4337 -0.8789
  590MPD2    H2 8804   2.752   2.609  16.452  1.4814 -1.5648  1.5443
  590MPD2    H3 8805   2.908   2.725  16.589 -0.4515 -0.2266 -0.7192
  590MPD2     N 8806   3.172   2.846  16.232 -0.8153 -0.0024  0.1739
  590MPD2    H5 8807   3.170   2.837  16.131 -3.0372  0.4176  0.1893
  590MPD2    N1 8808   2.756   2.593  16.198  0.0272  0.1863 -0.0670
  590MPD2    H7 8809   2.673   2.568  16.250  1.5797 -3.0260  0.8945
  591TMC3    C1 8810   3.368   2.965  16.206  0.1073  0.0632  0.0503
  591TMC3    C2 8811   3.413   2.879  16.111 -0.0544 -0.6157  0.0282
  591TMC3    C3 8812   3.483   2.917  16.000  0.1312 -0.3807 -0.1010
  591TMC3    C4 8813   3.389   3.101  16.188 -0.2949  1.0611 -0.3531
  591TMC3    C5 8814   3.452   3.133  16.068 -0.3109 -0.4745 -0.1418
  591TMC3    C6 8815   3.501   3.049  15.975 -0.2072 -0.2183 -0.2027
  591TMC3     C 8816   3.263   2.922  16.299 -0.0048 -0.6229  0.1904
  591TMC3     O 8817   3.267   2.965  16.414  0.2508  0.2270  0.1051
  591TMC3     H 8818   3.384   2.774  16.116 -1.5629 -0.3278 -2.3716
  591TMC3    H1 8819   3.345   3.178  16.251 -4.4011  0.1306 -2.0902
  591TMC3    H2 8820   3.554   3.085  15.888  0.0672  1.8610  0.8130
  591TMC3    C7 8821   3.478   3.274  16.050 -0.4194  0.7808 -0.6994
  591TMC3    C8 8822   3.578   2.828  15.936 -0.3829  0.0659 -0.4460
  591TMC3    O1 8823   3.484   3.350  16.141  0.1342  0.0061 -0.1860
  591TMC3    O2 8824   3.604   2.730  16.005 -1.2229 -0.3330 -0.3768
  592MPD2     C 8825   3.283   0.056  11.747 -0.8280 -0.2509 -0.3889
  592MPD2    C1 8826   3.254   0.072  11.880 -0.2772  0.2471  0.5830
  592MPD2    C2 8827   3.213   4.696  11.952 -0.5781  0.0447  0.4618
  592MPD2    C3 8828   3.166   4.584  11.883 -0.2917 -0.3835 -0.1042
  592MPD2    C4 8829   3.176   4.580  11.746 -0.1516  0.6679  0.4367
  592MPD2    C5 8830   3.226   4.684  11.678 -0.1294 -0.0599  0.6058
  592MPD2     H 8831   3.193   4.698  12.058  1.7703 -1.6169  0.9398
  592MPD2    H1 8832   3.143   4.489  11.697 -0.1306  2.0270 -2.1081
  592MPD2    H2 8833   3.337   0.130  11.689  0.8468 -1.1024  0.0671
  592MPD2    H3 8834   3.233   4.682  11.570 -1.5589  1.6284  0.4800
  592MPD2     N 8835   3.103   4.477  11.958  0.0572 -0.2858 -0.2066
  592MPD2    H5 8836   3.102   4.497  12.057  1.7757  1.6452 -0.5734
  592MPD2    N1 8837   3.303   0.190  11.947 -0.3434 -0.1104 -0.1693
  592MPD2    H7 8838   3.360   0.254  11.894 -0.3053 -0.3067 -0.3681
  593TMC3    C1 8839   3.312   0.352  12.115 -0.6746 -0.3841 -0.5226
  593TMC3    C2 8840   3.328   0.375  12.246 -0.4663  0.0615 -0.0961
  593TMC3    C3 8841   3.381   0.499  12.276 -0.3791  0.5230 -1.0057
  593TMC3    C4 8842   3.343   0.435  12.016  0.3613 -0.0425 -0.5002
  593TMC3    C5 8843   3.397   0.554  12.054  0.2564 -0.1981  0.3001
  593TMC3    C6 8844   3.424   0.580  12.181  0.1691  0.2134  0.1738
  593TMC3     C 8845   3.272   0.223  12.079  0.5845  0.0781  0.4164
  593TMC3     O 8846   3.197   0.170  12.161 -0.2235  0.0476  0.1898
  593TMC3     H 8847   3.307   0.294  12.316  1.6966  0.2897  0.8020
  593TMC3    H1 8848   3.309   0.439  11.913 -2.6726 -0.2121  0.4863
  593TMC3    H2 8849   3.475   0.672  12.207  0.9447 -0.2165  0.1589
  593TMC3    C7 8850   3.437   0.658  11.952 -0.7006 -1.1706  0.2489
  593TMC3    C8 8851   3.437   0.518  12.406 -0.4450  0.0102  0.4052
  593TMC3    O1 8852   3.490   0.757  11.995 -0.1324  0.0240 -0.2341
  593TMC3    O2 8853   3.358   0.525  12.503 -0.2461 -0.4183  0.4170
  594MPD2     C 8854   2.049   2.827  14.000  0.3702 -0.6993  0.1319
  594MPD2    C1 8855   2.052   2.885  14.122 -0.1785 -0.6095 -0.1561
  594MPD2    C2 8856   2.113   3.009  14.138  0.3260  0.3819 -0.5148
  594MPD2    C3 8857   2.162   3.070  14.026 -0.4657 -0.8504  0.7183
  594MPD2    C4 8858   2.144   3.017  13.897 -0.4222 -0.3624  0.4158
  594MPD2    C5 8859   2.086   2.895  13.890  0.1314 -0.0108  0.0960
  594MPD2     H 8860   2.118   3.065  14.230 -0.0968  1.1519 -0.9615
  594MPD2    H1 8861   2.181   3.071  13.811  0.5620  1.2449  1.8679
  594MPD2    H2 8862   2.003   2.730  13.985 -0.4897 -0.2965  0.1584
  594MPD2    H3 8863   2.080   2.855  13.790 -0.2346 -1.2091  0.5870
  594MPD2     N 8864   2.237   3.189  14.041  0.6757 -0.7943  0.4651
  594MPD2    H5 8865   2.249   3.225  14.135 -0.4511  2.5836 -0.6802
  594MPD2    N1 8866   1.986   2.815  14.230  0.3521 -0.3704 -0.5099
  594MPD2    H7 8867   1.951   2.725  14.199  1.1465 -1.5565  2.0440
  595TMC3    C1 8868   2.553   3.526  13.975 -0.2496 -0.5194 -0.6619
  595TMC3    C2 8869   2.481   3.420  13.926 -0.6019  1.0264 -0.7713
  595TMC3    C3 8870   2.380   3.376  14.001  0.2218  0.4134  0.2076
  595TMC3    C4 8871   2.522   3.589  14.088 -0.4090  0.5990  0.2863
  595TMC3    C5 8872   2.413   3.541  14.160  0.4537  0.0294 -0.0201
  595TMC3    C6 8873   2.335   3.434  14.119 -0.3040 -0.1101 -0.4007
  595TMC3     C 8874   2.693   3.550  13.942 -0.9890  0.2782  0.0827
  595TMC3     O 8875   2.762   3.583  14.043  0.5888 -0.0209  0.7571
  595TMC3     H 8876   2.507   3.366  13.836 -1.1500 -0.1140 -0.2375
  595TMC3    H1 8877   2.573   3.681  14.112  0.3084 -0.2141  1.9106
  595TMC3    H2 8878   2.244   3.405  14.171  0.2874 -0.2307  0.5510
  595TMC3    C7 8879   2.383   3.624  14.265 -0.0087  0.0481 -0.0430
  595TMC3    C8 8880   2.312   3.261  13.946 -0.9556 -0.3331 -0.5163
  595TMC3    O1 8881   2.267   3.655  14.279 -0.1219 -0.0523 -0.6165
  595TMC3    O2 8882   2.331   3.235  13.830  0.3669  0.8337 -0.0465
  596MPD2     C 8883   1.633   1.519  16.541 -0.0083  0.3596  0.0739
  596MPD2    C1 8884   1.585   1.633  16.479  0.6430 -0.3390 -0.6494
  596MPD2    C2 8885   1.578   1.638  16.339 -0.0969 -0.0384 -1.2006
  596MPD2    C3 8886   1.614   1.530  16.260 -0.0068  0.0169  0.4094
  596MPD2    C4 8887   1.662   1.417  16.325  0.6709  0.2047 -0.1427
  596MPD2    C5 8888   1.672   1.412  16.459  0.0521  0.7367 -1.4802
  596MPD2     H 8889   1.533   1.723  16.288  0.7549  1.2457  0.2084
  596MPD2    H1 8890   1.694   1.328  16.273  1.8621  1.2557 -1.1910
  596MPD2    H2 8891   1.645   1.511  16.648  1.1021 -1.0886 -0.1560
  596MPD2    H3 8892   1.705   1.315  16.495 -1.2790  0.4863 -0.9282
  596MPD2     N 8893   1.596   1.511  16.119  0.2822  0.3066 -0.9984
  596MPD2    H5 8894   1.623   1.420  16.081 -0.7817  0.5201 -2.2830
  596MPD2    N1 8895   1.545   1.752  16.545 -0.0348 -0.3019  0.0415
  596MPD2    H7 8896   1.527   1.829  16.481  0.2775 -0.7237 -0.5565
  597TMC3    C1 8897   1.479   1.900  16.708  0.5367 -0.2982  0.1326
  597TMC3    C2 8898   1.508   1.999  16.628 -0.0707  0.0615  0.2500
  597TMC3    C3 8899   1.467   2.124  16.668 -0.2792  0.0027 -0.1625
  597TMC3    C4 8900   1.391   1.915  16.821 -0.2435  0.6390 -0.5799
  597TMC3    C5 8901   1.345   2.038  16.854 -0.0409  0.0412 -0.3756
  597TMC3    C6 8902   1.381   2.147  16.776  0.3690 -0.3067 -0.5740
  597TMC3     C 8903   1.521   1.767  16.675  0.3896 -0.0246 -0.3299
  597TMC3     O 8904   1.512   1.685  16.764  0.1260 -0.3532 -0.4061
  597TMC3     H 8905   1.596   1.986  16.566 -0.2341  0.2984 -0.0334
  597TMC3    H1 8906   1.355   1.833  16.882 -0.1980 -1.0231 -2.7851
  597TMC3    H2 8907   1.343   2.247  16.790 -0.1285 -0.5609 -0.1263
  597TMC3    C7 8908   1.233   2.039  16.948 -0.4407 -0.5434 -0.6074
  597TMC3    C8 8909   1.522   2.234  16.594  0.1191 -0.3788 -0.4085
  597TMC3    O1 8910   1.167   1.941  16.975  0.0795  0.4319  0.1473
  597TMC3    O2 8911   1.550   2.327  16.673 -0.5673  0.0578  0.4755
  598TMC3    C1 8912   3.943   2.786  15.121 -0.1774 -0.2889  0.1941
  598TMC3    C2 8913   3.830   2.704  15.083 -0.5872  0.5254  0.6501
  598TMC3    C3 8914   3.772   2.718  14.955  0.2396  0.5485  0.3743
  598TMC3    C4 8915   4.001   2.875  15.035  0.4349 -0.4989  0.1572
  598TMC3    C5 8916   3.940   2.878  14.906  0.4983  0.3753 -0.0161
  598TMC3    C6 8917   3.821   2.810  14.867  0.9902 -0.2188 -0.5324
  598TMC3     C 8918   3.996   2.769  15.252  0.5298 -0.3810 -0.3479
  598TMC3     O 8919   3.998   2.652  15.281 -0.0659  0.5793  0.0156
  598TMC3     H 8920   3.814   2.624  15.154  0.4447  0.4397  0.7854
  598TMC3    H1 8921   4.086   2.936  15.062 -0.6772  0.6559  1.0745
  598TMC3    H2 8922   3.782   2.823  14.768  2.3617 -0.6163 -1.1309
  598TMC3    C7 8923   3.982   2.988  14.814 -0.1993  0.5293  0.0964
  598TMC3    C8 8924   3.654   2.633  14.942 -0.6827  0.8996  0.1039
  598TMC3    O1 8925   3.928   2.984  14.703 -0.1256 -0.1187 -0.2971
  598TMC3    O2 8926   3.634   2.551  15.028  0.3759 -0.2999 -0.1440
  599MPD2     C 8927   4.338   0.813  15.721 -0.1701  0.0901 -0.5484
  599MPD2    C1 8928   4.233   0.729  15.744  0.0758 -0.8124 -0.0066
  599MPD2    C2 8929   4.161   0.731  15.860 -1.0309 -0.2148 -0.3978
  599MPD2    C3 8930   4.191   0.821  15.955 -0.4046 -0.7299  0.5692
  599MPD2    C4 8931   4.302   0.902  15.932  0.9871 -0.2534 -1.4082
  599MPD2    C5 8932   4.374   0.898  15.817 -0.2363  1.1728 -0.2173
  599MPD2     H 8933   4.102   0.643  15.878  1.0798 -1.1463  1.9614
  599MPD2    H1 8934   4.333   0.971  16.010  0.9248  1.2258 -2.6790
  599MPD2    H2 8935   4.390   0.800  15.627 -1.4008 -0.7740 -1.1029
  599MPD2    H3 8936   4.469   0.949  15.810  1.1307 -1.3768 -0.2527
  599MPD2     N 8937   4.127   0.835  16.079  0.3877 -0.4523  0.7046
  599MPD2    H5 8938   4.171   0.906  16.137  0.6414 -0.8531  1.0035
  599MPD2    N1 8939   4.204   0.636  15.638 -0.0637 -0.1633 -0.8586
  599MPD2    H7 8940   4.279   0.623  15.570 -0.4145  0.1882 -1.3185
  600TMC3    C1 8941   3.978   0.787  16.255 -0.6345  0.0669  0.1663
  600TMC3    C2 8942   3.953   0.673  16.323 -0.1128 -0.4448 -0.5410
  600TMC3    C3 8943   3.964   0.679  16.458 -0.4069  0.5869 -0.0009
  600TMC3    C4 8944   4.003   0.910  16.308 -0.0029  0.5768  0.1764
  600TMC3    C5 8945   4.002   0.910  16.445  0.0839  0.4130 -0.7060
  600TMC3    C6 8946   3.991   0.804  16.526  0.9716 -0.1018  0.2789
  600TMC3     C 8947   4.013   0.768  16.116  0.8710  0.0030 -0.3638
  600TMC3     O 8948   3.952   0.686  16.052 -0.5235 -0.0947 -0.7644
  600TMC3     H 8949   3.933   0.584  16.264 -2.4090  1.3089 -2.4109
  600TMC3    H1 8950   4.009   1.005  16.256 -0.9917  0.4244 -0.2202
  600TMC3    H2 8951   3.991   0.821  16.633  0.3564 -0.7492  0.3793
  600TMC3    C7 8952   3.996   1.042  16.505 -0.3317  0.6626 -0.7038
  600TMC3    C8 8953   3.956   0.560  16.532  0.7121  0.3096 -0.2458
  600TMC3    O1 8954   3.925   1.122  16.444  0.3682 -0.4635 -0.2509
  600TMC3    O2 8955   3.998   0.565  16.648 -0.4018 -0.3942  0.7377
  601MPD2     C 8956   1.742   3.980  17.583  0.4924 -0.3322  0.2241
  601MPD2    C1 8957   1.755   3.892  17.478 -0.0317  0.2439  0.4135
  601MPD2    C2 8958   1.796   3.762  17.501 -0.1742 -0.4163 -0.2917
  601MPD2    C3 8959   1.791   3.706  17.629  0.2327 -0.4623 -0.4204
  601MPD2    C4 8960   1.769   3.795  17.732  0.2214  0.2201 -0.5094
  601MPD2    C5 8961   1.752   3.927  17.711  0.4945  0.0671  0.1590
  601MPD2     H 8962   1.820   3.706  17.411 -0.5211 -2.8388  1.1123
  601MPD2    H1 8963   1.763   3.753   0.086  1.8679  0.1941 -0.4206
  601MPD2    H2 8964   1.711   4.083  17.577 -0.7967 -0.7180  0.2785
  601MPD2    H3 8965   1.734   3.991   0.050  1.3895  0.3061  0.1661
  601MPD2     N 8966   1.826   3.574  17.666 -0.2537  0.0180 -0.0585
  601MPD2    H5 8967   1.831   3.545   0.017  0.2889  1.3285  0.3054
  601MPD2    N1 8968   1.723   3.937  17.340  0.8362  0.4892  0.2891
  601MPD2    H7 8969   1.707   3.861  17.274 -2.9279 -0.1572  1.9171
  602TMC3    C1 8970   1.669   4.085  17.161 -0.7905 -0.0109  0.0162
  602TMC3    C2 8971   1.679   4.203  17.096  0.4530  0.5677  0.3644
  602TMC3    C3 8972   1.634   4.217  16.962  0.1298 -0.2888  0.4776
  602TMC3    C4 8973   1.615   3.977  17.099 -1.1169  0.6769  0.0816
  602TMC3    C5 8974   1.573   3.987  16.966 -0.4414 -0.3394  0.4205
  602TMC3    C6 8975   1.591   4.105  16.891 -0.6412  0.0914 -0.4312
  602TMC3     C 8976   1.705   4.070  17.300 -0.1725 -0.3958 -0.8336
  602TMC3     O 8977   1.717   4.172  17.364  0.2969  0.3319  0.2377
  602TMC3     H 8978   1.715   4.284  17.158 -1.2127  0.0163  2.0713
  602TMC3    H1 8979   1.589   3.890  17.159 -0.6442 -0.8761 -1.9578
  602TMC3    H2 8980   1.572   4.110  16.785  0.0300 -0.5637 -0.5782
  602TMC3    C7 8981   1.458   3.895  16.940 -0.1044  0.0456 -0.1585
  602TMC3    C8 8982   1.616   4.353  16.905  0.4275  0.1003 -0.6484
  602TMC3    O1 8983   1.436   3.807  17.022 -0.3554  0.2830 -0.6395
  602TMC3    O2 8984   1.637   4.443  16.984  0.0081 -0.3245  0.1561
  603TMC3    C1 8985   4.168   4.026  11.047  0.5489  0.3088  0.1937
  603TMC3    C2 8986   4.214   4.004  11.180 -0.4522 -0.4231  0.3688
  603TMC3    C3 8987   4.251   4.110  11.257  0.2707  0.9968  0.2499
  603TMC3    C4 8988   4.161   4.148  10.997 -0.4809  0.0911  1.2978
  603TMC3    C5 8989   4.198   4.251  11.073  0.1378  0.1264 -0.0073
  603TMC3    C6 8990   4.240   4.245  11.201 -0.3366 -0.0678  0.0218
  603TMC3     C 8991   4.066   3.927  11.016 -0.4163  0.2307  0.7467
  603TMC3     O 8992   4.068   3.827  11.086  0.4305 -0.2500  0.1142
  603TMC3     H 8993   4.240   3.907  11.221 -0.4976 -0.3592  0.5517
  603TMC3    H1 8994   4.137   4.159  10.892  0.5275 -2.8733  0.7552
  603TMC3    H2 8995   4.253   4.336  11.258  0.8371 -0.6104  0.6233
  603TMC3    C7 8996   4.217   4.378  11.012 -0.0636  0.2841 -0.2280
  603TMC3    C8 8997   4.314   4.084  11.382  0.5751  0.3281 -0.0127
  603TMC3    O1 8998   4.300   4.442  11.075  0.1015  0.0271 -0.2687
  603TMC3    O2 8999   4.344   3.969  11.421 -0.8560  0.2424 -0.1362
  604MPD2     C 9000   0.104   2.483  16.351 -0.6652 -0.1111 -0.5274
  604MPD2    C1 9001   0.050   2.604  16.308 -0.9045 -0.6948 -0.1090
  604MPD2    C2 9002   0.089   2.652  16.185  0.5949  0.4866 -0.5059
  604MPD2    C3 9003   0.163   2.576  16.095 -0.1157 -0.4454 -0.0302
  604MPD2    C4 9004   0.216   2.455  16.136  0.0218  0.2576  0.1192
  604MPD2    C5 9005   0.180   2.405  16.261 -0.6061 -0.0471  0.6900
  604MPD2     H 9006   0.074   2.756  16.160  0.1757  0.1025 -1.8692
  604MPD2    H1 9007   0.280   2.391  16.077  0.5613  1.9652 -1.1645
  604MPD2    H2 9008   0.088   2.448  16.452  1.0242  0.4355 -0.0549
  604MPD2    H3 9009   0.217   2.313  16.306  1.4883  1.6438  2.4003
  604MPD2     N 9010   0.185   2.617  15.955  0.0330 -0.1108 -0.5899
  604MPD2    H5 9011   0.180   2.717  15.938  1.5426  0.1988  0.8219
  604MPD2    N1 9012   4.707   2.672  16.402  0.2303 -0.4081  0.0365
  604MPD2    H7 9013   4.699   2.647  16.500 -0.1853 -2.3704 -0.4861
  605TMC3    C1 9014   4.573   2.841  16.489 -0.4452  0.3163 -0.3815
  605TMC3    C2 9015   4.673   2.868  16.579 -0.4962 -0.1760 -0.2982
  605TMC3    C3 9016   4.661   2.972  16.666 -1.0972  0.4080  0.3397
  605TMC3    C4 9017   4.457   2.916  16.477  0.5459 -0.0957  0.7071
  605TMC3    C5 9018   4.445   3.014  16.567  0.1247 -0.2156  0.0386
  605TMC3    C6 9019   4.546   3.045  16.654  0.2184  0.1206  0.0622
  605TMC3     C 9020   4.618   2.773  16.369 -0.0837 -0.2103 -0.2148
  605TMC3     O 9021   4.594   2.829  16.262  0.7674  0.1420 -0.0560
  605TMC3     H 9022   0.025   2.807  16.577  0.8855  1.8048  1.0989
  605TMC3    H1 9023   4.386   2.898  16.397  1.1717  0.1786  0.0864
  605TMC3    H2 9024   4.534   3.123  16.728 -2.7048 -0.5761  0.3191
  605TMC3    C7 9025   4.350   3.121  16.532  0.0344  0.7267 -0.3715
  605TMC3    C8 9026   0.041   3.049  16.688  0.4721 -0.0179 -1.1737
  605TMC3    O1 9027   4.304   3.112  16.421 -0.0229 -0.2434  0.4364
  605TMC3    O2 9028   0.023   3.165  16.707 -0.3847 -0.2465  0.0674
  606TMC3    C1 9029   2.150   1.338  16.546 -0.0514  0.2099  0.2666
  606TMC3    C2 9030   2.165   1.404  16.665  0.5332  0.5368 -0.2754
  606TMC3    C3 9031   2.084   1.370  16.769  0.5945 -0.7065  0.0182
  606TMC3    C4 9032   2.066   1.226  16.540 -0.0414 -0.3229  0.0658
  606TMC3    C5 9033   1.990   1.189  16.644  0.3918  0.0050  0.5826
  606TMC3    C6 9034   1.990   1.265  16.764 -0.3694 -0.7177  0.0116
  606TMC3     C 9035   2.211   1.379  16.419  0.0081 -0.1307 -0.2219
  606TMC3     O 9036   2.153   1.328  16.324 -0.0356  0.5432 -0.1128
  606TMC3     H 9037   2.207   1.504  16.666 -0.1274  0.8048 -0.0592
  606TMC3    H1 9038   2.059   1.161  16.453  0.8408 -1.5923  0.9452
  606TMC3    H2 9039   1.924   1.241  16.846  0.6822  1.3262  1.4602
  606TMC3    C7 9040   1.890   1.089  16.617  0.5262 -0.1728  0.0428
  606TMC3    C8 9041   2.090   1.457  16.884 -0.0351  0.2766 -0.1858
  606TMC3    O1 9042   1.862   1.081  16.498  0.2576 -0.0231 -0.4986
  606TMC3    O2 9043   2.180   1.539  16.886  0.4045 -0.0920 -0.6942
  607MPD2     C 9044   3.095   3.937  11.776  0.5879 -0.0275  0.1466
  607MPD2    C1 9045   3.191   4.010  11.842 -0.7188 -0.6971  0.2362
  607MPD2    C2 9046   3.215   3.979  11.974 -0.4141  0.4966  0.0672
  607MPD2    C3 9047   3.138   3.880  12.042  0.2562 -0.5296  1.2023
  607MPD2    C4 9048   3.039   3.807  11.973 -0.0323  1.1284  0.4793
  607MPD2    C5 9049   3.023   3.841  11.842  0.5262 -0.3765 -0.0535
  607MPD2     H 9050   3.289   4.035  12.031 -0.1351  0.8267 -0.6192
  607MPD2    H1 9051   2.985   3.723  12.016  1.3304 -0.2904 -0.5594
  607MPD2    H2 9052   3.072   3.947  11.671 -1.3230  1.9026  0.7599
  607MPD2    H3 9053   2.943   3.796  11.785 -0.7662  2.3728 -0.4025
  607MPD2     N 9054   3.161   3.858  12.178  0.1709 -0.0984 -1.1746
  607MPD2    H5 9055   3.224   3.927  12.218  0.1242 -0.3942 -0.5982
  607MPD2    N1 9056   3.280   4.099  11.781  0.1067  0.0218  0.4603
  607MPD2    H7 9057   3.357   4.127  11.841 -0.4532  1.3613  0.5409
  608TMC3    C1 9058   3.345   4.269  11.639  0.7030 -0.0151 -0.0805
  608TMC3    C2 9059   3.381   4.331  11.758 -0.4563  0.0574  0.2695
  608TMC3    C3 9060   3.489   4.407  11.772 -0.2517 -0.1154 -0.0872
  608TMC3    C4 9061   3.423   4.285  11.527  0.0702 -0.1432  0.1363
  608TMC3    C5 9062   3.544   4.362  11.552  0.2971 -0.1360 -0.5160
  608TMC3    C6 9063   3.573   4.427  11.669 -0.3702 -0.2248  0.1801
  608TMC3     C 9064   3.272   4.146  11.654  0.2964  0.1206 -0.1956
  608TMC3     O 9065   3.211   4.112  11.551  0.3777  0.0704 -0.2730
  608TMC3     H 9066   3.315   4.328  11.845  0.3236 -0.8278  0.8242
  608TMC3    H1 9067   3.401   4.227  11.438  1.5001 -1.0044  0.3374
  608TMC3    H2 9068   3.659   4.491  11.679 -0.3156 -0.5826  1.9561
  608TMC3    C7 9069   3.640   4.369  11.442  0.1265 -0.5564 -0.0558
  608TMC3    C8 9070   3.517   4.468  11.896  0.1207  0.1287  0.6146
  608TMC3    O1 9071   3.602   4.373  11.326  0.1224 -0.0818 -0.3669
  608TMC3    O2 9072   3.560   4.584  11.903  0.2833 -0.1849  0.1582
  609TMC3    C1 9073   2.280   4.105   9.648 -0.3290 -0.4351 -0.4052
  609TMC3    C2 9074   2.313   4.214   9.573 -0.2870 -0.9533  0.6235
  609TMC3    C3 9075   2.419   4.208   9.489  0.2046  0.4114 -0.9211
  609TMC3    C4 9076   2.351   3.991   9.649  0.2627  0.3491  0.3077
  609TMC3    C5 9077   2.468   4.002   9.579  0.1174 -0.0665 -0.0938
  609TMC3    C6 9078   2.507   4.103   9.499 -0.0525  0.5614 -0.4676
  609TMC3     C 9079   2.145   4.103   9.701  0.4785 -0.2074 -0.0405
  609TMC3     O 9080   2.080   3.997   9.706 -0.5146  0.2929 -0.0279
  609TMC3     H 9081   2.244   4.298   9.575  1.2666  0.4669 -4.0776
  609TMC3    H1 9082   2.330   3.910   9.717 -0.4313  0.2513 -0.0248
  609TMC3    H2 9083   2.600   4.096   9.444  0.4210  2.5270  0.0732
  609TMC3    C7 9084   2.570   3.900   9.597  0.3525 -0.0086 -0.7676
  609TMC3    C8 9085   2.489   4.323   9.443 -0.0746 -0.2337 -0.6333
  609TMC3    O1 9086   2.684   3.936   9.594  0.4120 -0.2061  0.4686
  609TMC3    O2 9087   2.610   4.314   9.418  0.3113  0.0309 -0.0500
  610TMC3    C1 9088   3.633   4.135  12.673  0.2000 -0.3609  0.9211
  610TMC3    C2 9089   3.647   4.209  12.562 -0.0611  0.4039 -0.0133
  610TMC3    C3 9090   3.745   4.167  12.479  0.7658  0.0075  0.2390
  610TMC3    C4 9091   3.712   4.029  12.709 -0.2081  0.3877  0.2632
  610TMC3    C5 9092   3.801   3.986  12.619 -0.5292 -0.4271  0.1144
  610TMC3    C6 9093   3.829   4.062  12.507 -0.1805 -0.7059  0.3025
  610TMC3     C 9094   3.537   4.190  12.769 -0.2969 -0.0758  0.1382
  610TMC3     O 9095   3.424   4.204  12.723 -0.0010 -0.3974  0.3204
  610TMC3     H 9096   3.584   4.294  12.541  0.4396  1.1386  1.4361
  610TMC3    H1 9097   3.705   3.995  12.812  0.4892 -0.6972 -0.0478
  610TMC3    H2 9098   3.922   4.029  12.462  1.0489  1.4069  1.3401
  610TMC3    C7 9099   3.897   3.887  12.665  0.1029 -0.1531  0.5586
  610TMC3    C8 9100   3.784   4.275  12.379 -0.3272 -0.2999 -0.4103
  610TMC3    O1 9101   4.016   3.915  12.660  0.4811  0.2078  0.5116
  610TMC3    O2 9102   3.730   4.381  12.405  0.0540  0.5927  0.7042
  611MPD2     C 9103   3.542   4.013  10.462 -0.4562 -0.0730  0.1509
  611MPD2    C1 9104   3.463   4.099  10.387 -0.5471  0.0624 -0.6148
  611MPD2    C2 9105   3.519   4.221  10.350 -0.0160  0.2529 -0.3830
  611MPD2    C3 9106   3.650   4.256  10.366 -0.6624 -0.2289 -0.4699
  611MPD2    C4 9107   3.733   4.156  10.426  0.4578  0.2834  0.0241
  611MPD2    C5 9108   3.678   4.040  10.480 -0.2133 -0.8607  0.3386
  611MPD2     H 9109   3.454   4.304  10.326 -0.6231  0.2728  1.2848
  611MPD2    H1 9110   3.837   4.183  10.439  0.2141  0.8425  0.8072
  611MPD2    H2 9111   3.504   3.917  10.496  0.7516 -0.8727 -0.7166
  611MPD2    H3 9112   3.738   3.969  10.536  2.1498  1.0532  0.2223
  611MPD2     N 9113   3.704   4.383  10.335  0.2215  0.1220  0.8254
  611MPD2    H5 9114   3.799   4.396  10.368  0.7845 -1.3318 -0.2032
  611MPD2    N1 9115   3.323   4.073  10.388 -0.5449  0.6945 -0.5402
  611MPD2    H7 9116   3.295   3.980  10.419 -1.2044  0.7765 -0.9053
  612TMC3    C1 9117   3.740   4.595  10.251  0.2219  0.4402 -0.7953
  612TMC3    C2 9118   3.836   4.623  10.347  0.5106 -0.3224 -0.4541
  612TMC3    C3 9119   3.913   4.734  10.333  0.2056 -0.5971 -0.2976
  612TMC3    C4 9120   3.725   4.684  10.148  0.3865 -0.7413  0.5791
  612TMC3    C5 9121   3.804   0.054  10.134  0.1465 -0.0122 -0.4510
  612TMC3    C6 9122   3.899   0.083  10.231 -0.6576  0.0176  0.1801
  612TMC3     C 9123   3.643   4.488  10.271  0.8035 -0.3048  0.2695
  612TMC3     O 9124   3.538   4.493  10.207  0.7219 -0.3297 -0.0097
  612TMC3     H 9125   3.837   4.572  10.443  4.0745 -1.1761 -0.9326
  612TMC3    H1 9126   3.660   4.647  10.070  0.0261  1.6344 -0.2550
  612TMC3    H2 9127   3.947   0.180  10.236 -0.2238 -0.4014  4.1965
  612TMC3    C7 9128   3.784   0.139  10.013 -0.9926 -0.6964 -0.0586
  612TMC3    C8 9129   4.006   0.026  10.439 -0.1103 -0.1122 -0.6052
  612TMC3    O1 9130   3.713   0.091   9.919 -0.0881 -0.1543  0.5696
  612TMC3    O2 9131   4.046   0.144  10.446 -0.1739 -0.3427  0.4143
  613MPD2     C 9132   3.409   2.125  15.141 -1.1548 -0.4434 -0.5570
  613MPD2    C1 9133   3.310   2.127  15.233  0.2145  0.0232  0.1219
  613MPD2    C2 9134   3.239   2.008  15.263 -0.3121 -0.2776  0.3696
  613MPD2    C3 9135   3.273   1.892  15.200  0.2424 -0.4607 -0.8753
  613MPD2    C4 9136   3.383   1.887  15.116  0.0398  0.0302  0.0634
  613MPD2    C5 9137   3.446   2.010  15.088  0.0597 -1.0090 -0.5690
  613MPD2     H 9138   3.144   2.023  15.313 -0.9906  0.3487 -1.1155
  613MPD2    H1 9139   3.406   1.803  15.052  0.9578  0.7149 -0.5007
  613MPD2    H2 9140   3.461   2.217  15.118 -1.4114 -0.6661 -2.0418
  613MPD2    H3 9141   3.521   2.013  15.011  0.5364 -0.3020 -0.0753
  613MPD2     N 9142   3.186   1.784  15.210 -0.2446 -0.3410 -0.7232
  613MPD2    H5 9143   3.189   1.720  15.131  2.6547 -1.6848  0.4634
  613MPD2    N1 9144   3.269   2.253  15.273 -0.1914 -0.2511 -0.2904
  613MPD2    H7 9145   3.322   2.327  15.229 -0.0535 -1.2085 -1.7266
  614TMC3    C1 9146   3.133   2.409  15.384  0.1170 -0.2919  0.1891
  614TMC3    C2 9147   3.085   2.459  15.262  0.2128 -0.3868 -0.7854
  614TMC3    C3 9148   2.947   2.487  15.255  0.1716 -0.2313 -0.1233
  614TMC3    C4 9149   3.064   2.434  15.499 -0.9042  0.4848 -0.3934
  614TMC3    C5 9150   2.935   2.472  15.491 -0.4349 -0.3943 -0.1010
  614TMC3    C6 9151   2.874   2.493  15.367 -0.5174 -0.4870  0.5307
  614TMC3     C 9152   3.182   2.274  15.375  0.1048  0.0487  1.0081
  614TMC3     O 9153   3.162   2.206  15.473  0.2969  0.6230 -0.0765
  614TMC3     H 9154   3.154   2.466  15.179 -1.6064  0.2417 -2.2095
  614TMC3    H1 9155   3.088   2.394  15.597 -1.1222  0.8286 -0.1997
  614TMC3    H2 9156   2.771   2.524  15.355 -1.2345 -2.0262  2.6981
  614TMC3    C7 9157   2.858   2.389  15.581 -0.4695 -0.4445 -0.0851
  614TMC3    C8 9158   2.876   2.429  15.152 -0.3094  0.3954  0.1524
  614TMC3    O1 9159   2.888   2.375  15.699 -0.2456 -0.8846  0.6774
  614TMC3    O2 9160   2.773   2.382  15.194  0.2240 -0.1437 -0.2053
  615MPD2     C 9161   2.303   2.888  15.339  0.4346 -0.3211  0.1825
  615MPD2    C1 9162   2.192   2.961  15.367 -0.4709 -0.0139  0.0922
  615MPD2    C2 9163   2.071   2.920  15.317 -0.7356 -0.6923 -0.4766
  615MPD2    C3 9164   2.062   2.811  15.233 -0.0870 -0.0515  0.0867
  615MPD2    C4 9165   2.183   2.744  15.202 -0.3533 -0.6944  0.5588
  615MPD2    C5 9166   2.302   2.782  15.257 -0.0888 -0.3828  0.8000
  615MPD2     H 9167   1.990   2.992  15.324 -0.1103 -0.2141  2.1099
  615MPD2    H1 9168   2.197   2.654  15.143 -0.1124  0.1449 -0.6695
  615MPD2    H2 9169   2.394   2.920  15.388  0.3972 -0.9282  0.6605
  615MPD2    H3 9170   2.396   2.730  15.241 -0.3760 -1.3149  2.1148
  615MPD2     N 9171   1.938   2.785  15.177 -0.0919 -0.9334  0.0840
  615MPD2    H5 9172   1.934   2.736  15.088  0.7323 -0.8052 -0.0215
  615MPD2    N1 9173   2.189   3.078  15.448 -0.9501  0.9182  0.0975
  615MPD2    H7 9174   2.097   3.118  15.460 -0.7777  1.4805 -0.4820
  616TMC3    C1 9175   2.272   3.270  15.581  0.2236  0.4184 -0.1777
  616TMC3    C2 9176   2.373   3.362  15.582  0.0500 -0.4577 -0.1947
  616TMC3    C3 9177   2.355   3.474  15.655 -0.1891 -0.5925  0.7619
  616TMC3    C4 9178   2.161   3.279  15.658 -0.3686 -0.2530  0.1913
  616TMC3    C5 9179   2.155   3.377  15.747  0.0767  0.0899  0.1867
  616TMC3    C6 9180   2.248   3.481  15.738 -0.3436  0.3990 -0.4136
  616TMC3     C 9181   2.300   3.149  15.497 -0.9376  0.1120 -0.9374
  616TMC3     O 9182   2.412   3.142  15.442 -0.1761  0.7154  0.7981
  616TMC3     H 9183   2.453   3.376  15.511  3.2130  1.0108  3.6337
  616TMC3    H1 9184   2.078   3.210  15.651  2.2563 -3.4007 -0.0502
  616TMC3    H2 9185   2.230   3.573  15.794  2.0932  0.7050 -0.1543
  616TMC3    C7 9186   2.024   3.407  15.815  0.3492  0.2771 -0.1158
  616TMC3    C8 9187   2.465   3.554  15.673 -0.2086  0.4708 -0.5451
  616TMC3    O1 9188   2.009   3.525  15.833  0.1394 -0.3256 -0.0033
  616TMC3    O2 9189   2.566   3.489  15.668  0.4520 -0.1585  0.6081
  617MPD2     C 9190   0.088   0.966  13.459 -0.6216 -0.1370 -0.1234
  617MPD2    C1 9191   0.089   1.021  13.588  0.2852 -0.4825 -0.0607
  617MPD2    C2 9192   4.723   0.990  13.676  0.1636  0.5676  0.0760
  617MPD2    C3 9193   4.621   0.907  13.625 -0.2369 -1.1304  0.1997
  617MPD2    C4 9194   4.624   0.845  13.502 -0.2653 -0.7045  0.2130
  617MPD2    C5 9195   4.727   0.875  13.415 -0.1702  0.0590  0.1649
  617MPD2     H 9196   4.717   1.028  13.777 -1.4833 -0.6238  0.4346
  617MPD2    H1 9197   4.548   0.770  13.484  1.1599 -2.1524  0.2685
  617MPD2    H2 9198   0.172   0.986  13.394 -1.6422 -1.5748 -1.8634
  617MPD2    H3 9199   4.734   0.837  13.314 -0.7259 -0.1894  0.2209
  617MPD2     N 9200   4.514   0.863  13.702 -0.1865 -0.6007 -0.6816
  617MPD2    H5 9201   4.442   0.822  13.643 -1.2041 -1.2400  1.0224
  617MPD2    N1 9202   0.197   1.107  13.620  0.2478 -0.3145  0.0638
  617MPD2    H7 9203   0.267   1.108  13.547 -0.3245 -0.3950 -0.4823
  618TMC3    C1 9204   0.346   1.236  13.739  0.1723 -0.2076  0.2743
  618TMC3    C2 9205   0.426   1.231  13.852  0.4244 -0.1384  0.3226
  618TMC3    C3 9206   0.559   1.238  13.839 -0.8588 -0.8830 -0.4975
  618TMC3    C4 9207   0.410   1.261  13.619  0.3126 -0.4414  0.3849
  618TMC3    C5 9208   0.545   1.272  13.612 -0.9681 -0.0188  0.7407
  618TMC3    C6 9209   0.622   1.259  13.722 -0.4352 -0.7978  0.3634
  618TMC3     C 9210   0.223   1.162  13.746  0.4375 -0.3667  0.1277
  618TMC3     O 9211   0.170   1.136  13.853  0.0047 -0.0257 -0.0529
  618TMC3     H 9212   0.376   1.231  13.948 -0.6271  1.0481 -0.2232
  618TMC3    H1 9213   0.367   1.296  13.527  4.0729  0.3677 -1.0843
  618TMC3    H2 9214   0.729   1.239  13.724 -0.2537 -0.0935 -2.4740
  618TMC3    C7 9215   0.597   1.218  13.496  0.1518 -1.2207  0.3085
  618TMC3    C8 9216   0.625   1.163  13.948  0.2585  0.2352 -1.1805
  618TMC3    O1 9217   0.510   1.156  13.432 -0.7807  0.1825 -0.1706
  618TMC3    O2 9218   0.638   1.214  14.057 -0.2111  0.0687 -0.1609
  619MPD2     C 9219   1.457   2.178  13.007 -0.1710  0.0827  0.8490
  619MPD2    C1 9220   1.359   2.260  12.962 -0.1631  0.1085  0.4596
  619MPD2    C2 9221   1.238   2.251  13.018  0.4705 -0.1122 -0.6526
  619MPD2    C3 9222   1.217   2.159  13.123 -0.0491 -0.2792  0.8184
  619MPD2    C4 9223   1.315   2.081  13.170  0.7946 -0.1734  0.0393
  619MPD2    C5 9224   1.436   2.094  13.112 -0.7142  0.2719 -0.1503
  619MPD2     H 9225   1.160   2.322  12.994  1.2856  1.6319  1.8685
  619MPD2    H1 9226   1.294   2.000  13.238 -0.5798  0.5661  0.4937
  619MPD2    H2 9227   1.558   2.174  12.967  0.5336  1.1749  2.4901
  619MPD2    H3 9228   1.517   2.027  13.140 -1.0630 -0.5560 -1.1516
  619MPD2     N 9229   1.089   2.149  13.176 -0.5390  0.4678  0.2728
  619MPD2    H5 9230   1.034   2.229  13.148 -2.2292 -0.2532  1.5091
  619MPD2    N1 9231   1.370   2.338  12.846 -0.4228 -0.6908  0.0148
  619MPD2    H7 9232   1.291   2.392  12.810  0.8522 -0.8825 -3.0231
  620TMC3    C1 9233   1.463   2.476  12.684  0.3318  0.1622 -0.1978
  620TMC3    C2 9234   1.329   2.490  12.657 -0.2398  0.3744  0.0358
  620TMC3    C3 9235   1.284   2.620  12.645  0.2094 -0.0379  0.1138
  620TMC3    C4 9236   1.546   2.583  12.698  0.9376 -0.1720 -0.2687
  620TMC3    C5 9237   1.497   2.711  12.676 -0.1325 -0.0224  0.4699
  620TMC3    C6 9238   1.370   2.725  12.651 -0.5836 -0.5690 -0.4684
  620TMC3     C 9239   1.490   2.378  12.793  0.4144 -0.1440 -0.2430
  620TMC3     O 9240   1.602   2.368  12.834 -0.1236 -0.3859  0.0180
  620TMC3     H 9241   1.264   2.405  12.641 -1.5652  1.1224  1.3664
  620TMC3    H1 9242   1.644   2.572  12.743  0.5521  1.0184  0.8658
  620TMC3    H2 9243   1.337   2.824  12.621 -0.0979 -0.5971 -1.0926
  620TMC3    C7 9244   1.542   2.822  12.763  0.3566 -0.6570 -0.1292
  620TMC3    C8 9245   1.167   2.647  12.731 -0.2654 -0.1989 -0.3282
  620TMC3    O1 9246   1.660   2.840  12.778 -0.3469  0.1078 -0.1488
  620TMC3    O2 9247   1.182   2.740  12.804 -0.0093 -0.0606 -0.1012
  621MPD2     C 9248   1.826   2.219  10.392 -0.4486 -0.4442  0.0367
  621MPD2    C1 9249   1.731   2.190  10.291  0.5481 -0.4042 -0.3572
  621MPD2    C2 9250   1.750   2.231  10.157 -0.2346  0.1151  0.4057
  621MPD2    C3 9251   1.855   2.310  10.128 -0.3738  0.2679  0.0557
  621MPD2    C4 9252   1.951   2.319  10.225  0.2586  0.4710 -1.0049
  621MPD2    C5 9253   1.935   2.290  10.357  0.3813 -0.6866  0.0192
  621MPD2     H 9254   1.680   2.213  10.076 -0.1837 -1.7841  0.7898
  621MPD2    H1 9255   2.047   2.360  10.196  1.7916 -2.1377  0.4160
  621MPD2    H2 9256   1.819   2.186  10.495 -0.2479  2.3181  0.9204
  621MPD2    H3 9257   2.024   2.292  10.420  1.0329  1.0053 -0.9420
  621MPD2     N 9258   1.863   2.394  10.017  0.4904 -0.5946  0.0886
  621MPD2    H5 9259   1.788   2.396   9.948 -0.4276 -1.6662  1.0495
  621MPD2    N1 9260   1.625   2.106  10.316 -0.4913 -0.1826 -0.0190
  621MPD2    H7 9261   1.571   2.074  10.237 -1.0133 -1.6292  0.9471
  622TMC3    C1 9262   1.443   2.004  10.416  0.4545  0.4247 -0.0328
  622TMC3    C2 9263   1.345   2.023  10.510  0.6018 -0.3969  0.0902
  622TMC3    C3 9264   1.215   1.991  10.472 -1.0399  0.0960 -0.2576
  622TMC3    C4 9265   1.417   1.951  10.293  0.0819  0.0443 -0.1181
  622TMC3    C5 9266   1.285   1.918  10.265 -0.2237 -0.1236 -0.0788
  622TMC3    C6 9267   1.182   1.933  10.353 -0.6624 -0.2723  0.7635
  622TMC3     C 9268   1.569   2.076  10.436  0.0215  0.6807  0.0907
  622TMC3     O 9269   1.595   2.112  10.553  0.3641 -0.3775  0.7441
  622TMC3     H 9270   1.366   2.069  10.606 -0.0412  0.4901 -0.1907
  622TMC3    H1 9271   1.486   1.932  10.212 -0.9819 -2.6028 -0.3935
  622TMC3    H2 9272   1.077   1.933  10.327 -0.3974  0.6439 -0.3537
  622TMC3    C7 9273   1.255   1.922  10.123 -0.4980  0.3706  0.5625
  622TMC3    C8 9274   1.105   2.060  10.539  0.6447 -0.1958  0.1832
  622TMC3    O1 9275   1.323   1.990  10.050 -0.4327  0.0894 -0.7180
  622TMC3    O2 9276   1.007   1.989  10.574 -0.1379  0.0994 -0.1262
  623MPD2     C 9277   0.532   2.962  15.599  0.1047 -0.0264  1.0074
  623MPD2    C1 9278   0.453   2.960  15.713  0.1168  0.1608 -0.5625
  623MPD2    C2 9279   0.502   2.910  15.832  1.0778 -0.1891  0.5957
  623MPD2    C3 9280   0.626   2.860  15.848 -0.3651  0.0718  0.1454
  623MPD2    C4 9281   0.700   2.845  15.732  0.2760  0.5191  0.0391
  623MPD2    C5 9282   0.653   2.898  15.613  0.4838  0.4230 -0.3627
  623MPD2     H 9283   0.442   2.922  15.921 -0.1194 -0.4470 -0.1684
  623MPD2    H1 9284   0.798   2.800  15.723 -0.3359 -0.7611 -0.2436
  623MPD2    H2 9285   0.510   3.016  15.508  0.2084 -0.3514  0.7875
  623MPD2    H3 9286   0.723   2.887  15.530 -0.2086  2.4909 -1.2061
  623MPD2     N 9287   0.666   2.809  15.977 -0.0202  0.0332  0.6517
  623MPD2    H5 9288   0.600   2.815  16.053  0.3819 -0.8278  1.0693
  623MPD2    N1 9289   0.322   3.013  15.713  0.2749  0.8344  0.0460
  623MPD2    H7 9290   0.271   3.016  15.801  1.1227  3.2428  0.4482
  624TMC3    C1 9291   0.957   2.870  16.323  0.0523  0.0367 -0.4888
  624TMC3    C2 9292   0.848   2.886  16.403 -0.6865 -0.2726 -0.4535
  624TMC3    C3 9293   0.722   2.849  16.358  0.1973  0.1533 -0.4022
  624TMC3    C4 9294   0.951   2.817  16.191  0.0503  0.6026 -0.2655
  624TMC3    C5 9295   0.823   2.780  16.152 -0.4918 -0.2345 -0.1786
  624TMC3    C6 9296   0.714   2.799  16.233 -0.3600 -0.3232 -0.0038
  624TMC3     C 9297   1.090   2.882  16.382  0.5526  0.6219 -0.3556
  624TMC3     O 9298   1.110   2.985  16.448  0.0514  0.4615 -0.9348
  624TMC3     H 9299   0.864   2.913  16.506 -0.2566 -1.7084 -0.1515
  624TMC3    H1 9300   1.035   2.812  16.123  1.7874  2.0842  1.7510
  624TMC3    H2 9301   0.613   2.772  16.204 -0.1149 -0.8091 -0.4123
  624TMC3    C7 9302   0.800   2.800  16.007 -0.8862  0.1639  1.0979
  624TMC3    C8 9303   0.601   2.863  16.432  0.1941  0.2880  0.2063
  624TMC3    O1 9304   0.896   2.801  15.931 -0.0893  0.6374 -0.0387
  624TMC3    O2 9305   0.509   2.785  16.407  0.3089 -0.3694  0.2384
  625MPD2     C 9306   1.614   3.994   0.382  0.8991 -0.3046 -0.9203
  625MPD2    C1 9307   1.605   4.123   0.437  0.2930 -0.4968 -0.2190
  625MPD2    C2 9308   1.709   4.166   0.518 -1.0727  0.5936 -0.0940
  625MPD2    C3 9309   1.828   4.093   0.533  0.0732 -0.1279  0.3498
  625MPD2    C4 9310   1.841   3.965   0.480 -0.5555 -0.6542 -0.1356
  625MPD2    C5 9311   1.731   3.921   0.406  0.0311 -0.1059  0.2504
  625MPD2     H 9312   1.701   4.268   0.555  1.3014  0.4386  0.8379
  625MPD2    H1 9313   1.934   3.908   0.480 -0.6814 -0.8689  1.3217
  625MPD2    H2 9314   1.540   3.951   0.315  0.8144  0.2130 -1.1587
  625MPD2    H3 9315   1.738   3.822   0.362  2.2839  0.0106  0.3708
  625MPD2     N 9316   1.936   4.157   0.598 -0.6197 -0.8168  0.3574
  625MPD2    H5 9317   1.930   4.255   0.624  0.2617 -0.6949  0.1175
  625MPD2    N1 9318   1.489   4.201   0.435  0.7135 -0.5935 -0.5888
  625MPD2    H7 9319   1.491   4.280   0.499 -3.1987 -1.0943  0.1785
  626TMC3    C1 9320   1.307   4.304   0.358  0.2058 -0.4270 -0.0059
  626TMC3    C2 9321   1.249   4.350   0.242 -0.7005 -0.2075 -0.2017
  626TMC3    C3 9322   1.176   4.462   0.248 -0.2874  0.2994  0.8756
  626TMC3    C4 9323   1.274   4.354   0.483 -0.2246 -0.1254 -0.1581
  626TMC3    C5 9324   1.192   4.459   0.480  0.5853  0.1046  0.8395
  626TMC3    C6 9325   1.147   4.519   0.368  0.2014  0.1182  0.8029
  626TMC3     C 9326   1.389   4.192   0.351  0.9614 -0.6465  0.0559
  626TMC3     O 9327   1.390   4.132   0.242  0.1712  0.3053  0.1705
  626TMC3     H 9328   1.301   4.320   0.152  0.3837 -0.6528  0.5741
  626TMC3    H1 9329   1.295   4.308   0.578  0.0824  0.4071  0.0313
  626TMC3    H2 9330   1.105   4.619   0.374  0.2025  0.1998 -0.5698
  626TMC3    C7 9331   1.133   4.486   0.614 -0.4872  0.0857  0.2808
  626TMC3    C8 9332   1.116   4.519   0.127 -0.3988  0.4475 -0.3008
  626TMC3    O1 9333   1.209   4.497   0.710 -0.3991 -0.3491 -0.1384
  626TMC3    O2 9334   1.104   4.639   0.129  0.6661  0.5875 -0.1223
  627MPD2     C 9335   4.177   4.536  14.210 -0.4149 -0.3622  0.5029
  627MPD2    C1 9336   4.262   4.462  14.287  0.5416  0.8576  0.3661
  627MPD2    C2 9337   4.245   4.330  14.303 -0.0198  0.0573 -0.8061
  627MPD2    C3 9338   4.135   4.263  14.251 -0.3912  0.5112 -0.1877
  627MPD2    C4 9339   4.039   4.337  14.186 -0.0770 -0.2033 -0.1135
  627MPD2    C5 9340   4.062   4.477  14.166 -0.3206  0.0863  0.1692
  627MPD2     H 9341   4.332   4.269  14.327  0.0968  0.6757  0.3492
  627MPD2    H1 9342   3.940   4.301  14.159 -0.2393  0.5860 -0.5747
  627MPD2    H2 9343   4.191   4.641  14.186  0.8273  0.0725  3.0955
  627MPD2    H3 9344   3.979   4.532  14.121 -0.9223 -0.0818  1.0772
  627MPD2     N 9345   4.133   4.124  14.246 -0.0360  0.4547 -0.7271
  627MPD2    H5 9346   4.197   4.067  14.300 -0.5599 -0.3056 -0.9051
  627MPD2    N1 9347   4.375   4.522  14.349  1.1808 -0.5045  0.5305
  627MPD2    H7 9348   4.438   4.457  14.396  1.3168 -0.4741  0.3928
  628TMC3    C1 9349   4.512   4.682  14.451  0.0119  0.0050 -0.2741
  628TMC3    C2 9350   4.631   4.625  14.430 -0.1334  0.0551 -0.2973
  628TMC3    C3 9351   0.009   4.670  14.484 -0.4844  0.0210 -0.0629
  628TMC3    C4 9352   4.512   0.052  14.527  0.8159 -0.5671 -0.1701
  628TMC3    C5 9353   4.631   0.100  14.582  0.0729 -0.0557 -0.2359
  628TMC3    C6 9354   0.012   0.032  14.575  0.0932  0.6311 -0.3793
  628TMC3     C 9355   4.395   4.657  14.368  0.6588  0.4239  0.5455
  628TMC3     O 9356   4.327   0.016  14.324 -0.3745 -0.3557  0.6586
  628TMC3     H 9357   4.638   4.546  14.355  1.5642  0.0452 -0.1204
  628TMC3    H1 9358   4.414   0.097  14.537  1.1002  0.2163 -0.9406
  628TMC3    H2 9359   0.101   0.082  14.611 -0.6412  1.2929  0.5244
  628TMC3    C7 9360   4.651   0.244  14.597 -0.3401  0.7294  0.1219
  628TMC3    C8 9361   0.130   4.612  14.427 -0.5872  0.5458 -0.0094
  628TMC3    O1 9362   4.725   0.282  14.691  0.5336 -0.2623 -0.1694
  628TMC3    O2 9363   0.138   4.596  14.307  0.4401  0.0660 -0.6369
  629MPD2     C 9364   2.741   3.958  15.827  0.0076 -0.6109  0.4674
  629MPD2    C1 9365   2.771   3.821  15.833 -0.0071  0.1928  0.0666
  629MPD2    C2 9366   2.672   3.730  15.800 -0.3680 -0.8406  0.3631
  629MPD2    C3 9367   2.550   3.772  15.754 -0.1832  0.3550  0.2953
  629MPD2    C4 9368   2.522   3.903  15.735 -0.5849  0.0983 -0.7371
  629MPD2    C5 9369   2.616   3.995  15.770  0.1396 -0.4450  0.2034
  629MPD2     H 9370   2.694   3.625  15.812 -0.7990 -0.7388  2.0276
  629MPD2    H1 9371   2.428   3.944  15.700 -0.5732 -1.6042 -2.7267
  629MPD2    H2 9372   2.822   4.028  15.846 -0.4788 -0.2565  1.2164
  629MPD2    H3 9373   2.598   4.102  15.771 -0.8790 -0.6089  0.1208
  629MPD2     N 9374   2.442   3.686  15.713  0.2236 -0.0828  0.7336
  629MPD2    H5 9375   2.352   3.732  15.706 -0.0250 -0.3108  2.3109
  629MPD2    N1 9376   2.908   3.788  15.876  0.3294  0.7187  0.1520
  629MPD2    H7 9377   2.971   3.867  15.890  1.9256 -0.4404 -0.4215
  630TMC3    C1 9378   3.101   3.643  15.918 -0.5302  0.6720 -0.2512
  630TMC3    C2 9379   3.170   3.742  15.984 -0.5644  0.0508 -0.1620
  630TMC3    C3 9380   3.249   3.697  16.086 -0.5948 -0.1712  0.1932
  630TMC3    C4 9381   3.122   3.507  15.943  0.1182  0.1746 -0.0415
  630TMC3    C5 9382   3.202   3.475  16.046  0.1600  0.8712 -0.0649
  630TMC3    C6 9383   3.247   3.569  16.131  0.1588  0.1224  0.5770
  630TMC3     C 9384   2.962   3.657  15.873  0.3618  0.0317 -0.2426
  630TMC3     O 9385   2.902   3.552  15.846 -0.1914  0.0292 -0.7956
  630TMC3     H 9386   3.155   3.847  15.962  1.8281  0.2094 -1.0676
  630TMC3    H1 9387   3.102   3.427  15.873 -3.1753  2.5654 -1.8315
  630TMC3    H2 9388   3.307   3.545  16.218 -3.2809 -2.9704  2.0453
  630TMC3    C7 9389   3.145   3.358  16.118 -0.7288 -0.6215  0.1295
  630TMC3    C8 9390   3.354   3.771  16.138 -0.0491 -0.6079 -0.4356
  630TMC3    O1 9391   3.151   3.366  16.240 -0.0557 -0.1605  0.7535
  630TMC3    O2 9392   3.402   3.741  16.243 -0.1828 -0.3662  0.0439
  631MPD2     C 9393   1.033   3.192  15.510  0.4111  0.0661 -0.3064
  631MPD2    C1 9394   1.089   3.280  15.423  0.2319 -0.3818  0.2336
  631MPD2    C2 9395   1.198   3.236  15.352 -0.3960  0.0344 -0.7214
  631MPD2    C3 9396   1.243   3.103  15.370  0.3070  0.1838  0.5481
  631MPD2    C4 9397   1.185   3.023  15.461 -0.5282 -1.0674  0.1572
  631MPD2    C5 9398   1.076   3.063  15.530 -0.3430 -0.2779  0.5905
  631MPD2     H 9399   1.248   3.289  15.273 -0.6275 -1.5105 -1.9009
  631MPD2    H1 9400   1.213   2.921  15.484 -2.4830 -2.2270 -2.5366
  631MPD2    H2 9401   0.953   3.236  15.569  0.0717 -0.4978 -0.3537
  631MPD2    H3 9402   1.015   3.003  15.596  1.2392 -2.1826  0.3082
  631MPD2     N 9403   1.356   3.055  15.297  0.3743 -0.8215  0.3511
  631MPD2    H5 9404   1.402   3.118  15.233 -0.9075  1.7199  1.9266
  631MPD2    N1 9405   1.041   3.413  15.421  0.4134 -0.0249  0.0060
  631MPD2    H7 9406   0.947   3.434  15.453 -0.0652  0.0078 -1.4364
  632TMC3    C1 9407   1.060   3.646  15.395  0.7050 -0.6281  0.3823
  632TMC3    C2 9408   0.922   3.650  15.412  0.5881  0.3265  0.5248
  632TMC3    C3 9409   0.849   3.753  15.359  0.3361 -0.3130  0.5039
  632TMC3    C4 9410   1.118   3.742  15.325 -0.3699 -0.3640 -0.7612
  632TMC3    C5 9411   1.041   3.837  15.265  0.0888 -0.0983  0.0980
  632TMC3    C6 9412   0.907   3.853  15.287 -0.1935  0.3277  0.0696
  632TMC3     C 9413   1.120   3.522  15.388  0.6742 -0.1414  0.1277
  632TMC3     O 9414   1.240   3.511  15.371 -0.0343  0.2446 -0.0165
  632TMC3     H 9415   0.867   3.576  15.469 -0.7783  1.2397  0.4105
  632TMC3    H1 9416   1.223   3.721  15.308  0.2073  2.7021 -1.0125
  632TMC3    H2 9417   0.852   3.932  15.237  1.3430 -0.1718 -2.3901
  632TMC3    C7 9418   1.091   3.892  15.136 -0.6069 -0.2265  0.4075
  632TMC3    C8 9419   0.710   3.765  15.413 -0.7198  0.0032 -0.1398
  632TMC3    O1 9420   1.001   3.908  15.046 -0.3873 -0.2172  0.4770
  632TMC3    O2 9421   0.661   3.661  15.462 -0.4620 -0.4461  0.3824
  633MPD2     C 9422   1.389   1.457  17.240  0.8521 -0.6351  0.5594
  633MPD2    C1 9423   1.344   1.373  17.138  0.0537  0.1187 -0.1437
  633MPD2    C2 9424   1.360   1.235  17.148  0.1753 -0.2736  0.3766
  633MPD2    C3 9425   1.400   1.181  17.266 -0.1460  0.1347 -0.2837
  633MPD2    C4 9426   1.438   1.267  17.376 -0.4552 -0.2974 -0.1610
  633MPD2    C5 9427   1.442   1.405  17.356 -0.1492  0.2997 -0.5440
  633MPD2     H 9428   1.342   1.168  17.064 -1.9876  2.2256 -1.1530
  633MPD2    H1 9429   1.471   1.234  17.474  0.9163 -0.6802 -0.7598
  633MPD2    H2 9430   1.385   1.565  17.245  0.0627 -0.5948 -1.1323
  633MPD2    H3 9431   1.469   1.473  17.436 -3.0224  1.1540 -0.3064
  633MPD2     N 9432   1.395   1.041  17.283 -0.0368 -0.0107 -0.1903
  633MPD2    H5 9433   1.377   0.988  17.198  2.9559 -0.5713 -0.4755
  633MPD2    N1 9434   1.302   1.423  17.014 -0.0552  0.4922  0.2735
  633MPD2    H7 9435   1.267   1.361  16.942  0.3212  2.3481 -1.5164
  634TMC3    C1 9436   1.262   1.567  16.841  1.0056  0.4140 -0.2046
  634TMC3    C2 9437   1.313   1.479  16.752 -0.3279  0.4203  0.0066
  634TMC3    C3 9438   1.283   1.498  16.621 -0.4443  0.2991 -0.6831
  634TMC3    C4 9439   1.186   1.674  16.801 -0.3585  0.0545 -0.5441
  634TMC3    C5 9440   1.163   1.687  16.666  0.0008 -0.1260  0.3006
  634TMC3    C6 9441   1.210   1.599  16.574  0.3957 -0.8022 -0.5465
  634TMC3     C 9442   1.280   1.554  16.987 -0.7491 -0.3755  0.5269
  634TMC3     O 9443   1.255   1.647  17.062  0.8696 -0.1975 -0.0852
  634TMC3     H 9444   1.369   1.391  16.783  0.7594  1.1413  0.1070
  634TMC3    H1 9445   1.161   1.740  16.883 -1.6025 -0.6714 -0.3461
  634TMC3    H2 9446   1.174   1.606  16.472  0.8858 -0.8173 -0.7213
  634TMC3    C7 9447   1.081   1.793  16.618  0.1748  0.1834 -0.0084
  634TMC3    C8 9448   1.316   1.379  16.537 -0.4700 -0.9696 -0.0076
  634TMC3    O1 9449   1.064   1.803  16.495  0.6897  0.5122  0.0634
  634TMC3    O2 9450   1.341   1.274  16.586 -0.0583  0.6958 -0.6906
  635TMC3    C1 9451   1.563   2.432  17.242  0.5134  0.8292 -0.2754
  635TMC3    C2 9452   1.629   2.334  17.171  0.3859  0.2626 -0.0535
  635TMC3    C3 9453   1.559   2.214  17.164 -0.0608 -0.2510  0.0921
  635TMC3    C4 9454   1.430   2.414  17.294 -0.5173 -0.6453 -0.0125
  635TMC3    C5 9455   1.371   2.292  17.284  0.2910  0.6773 -0.0180
  635TMC3    C6 9456   1.433   2.196  17.217 -0.9570  0.1267 -0.7338
  635TMC3     C 9457   1.623   2.558  17.271 -0.0997 -0.0587  0.2281
  635TMC3     O 9458   1.552   2.637  17.337  0.2247 -0.3944 -0.1209
  635TMC3     H 9459   1.735   2.339  17.151  1.0910 -0.3101  3.4726
  635TMC3    H1 9460   1.381   2.492  17.350 -0.6448  0.2351 -1.3561
  635TMC3    H2 9461   1.391   2.099  17.197  0.2542 -0.6259  0.4038
  635TMC3    C7 9462   1.283   2.259  17.393 -0.5868 -0.5524 -0.2397
  635TMC3    C8 9463   1.616   2.100  17.102 -0.2876 -0.3892 -0.6594
  635TMC3    O1 9464   1.224   2.342  17.463  0.0264  0.3573 -0.3656
  635TMC3    O2 9465   1.584   1.987  17.138  0.4933 -0.0308 -0.5588
  636MPD2     C 9466   2.290   1.581  15.763  0.3700 -0.2548 -0.2650
  636MPD2    C1 9467   2.360   1.689  15.798 -0.4489 -0.5439  0.0342
  636MPD2    C2 9468   2.470   1.730  15.720  0.1545  0.0975  0.4167
  636MPD2    C3 9469   2.500   1.661  15.598 -0.3273  0.3572 -0.0447
  636MPD2    C4 9470   2.422   1.557  15.559 -0.2844  0.3124 -0.6027
  636MPD2    C5 9471   2.325   1.511  15.645 -0.1835  0.2097  0.5762
  636MPD2     H 9472   2.530   1.810  15.762 -1.9921  2.4137 -0.9037
  636MPD2    H1 9473   2.437   1.498  15.470 -0.7856  1.9694 -1.7784
  636MPD2    H2 9474   2.210   1.539  15.822 -0.2164 -0.3887 -1.1622
  636MPD2    H3 9475   2.282   1.417  15.614 -0.8017  0.3946  0.8738
  636MPD2     N 9476   2.618   1.701  15.525 -0.0428  0.1401 -0.3544
  636MPD2    H5 9477   2.677   1.770  15.569 -2.8171  1.0167  2.0188
  636MPD2    N1 9478   2.326   1.762  15.914 -0.2553 -0.2207 -0.4720
  636MPD2    H7 9479   2.397   1.830  15.939  0.4309 -1.3440  0.6696
  637TMC3    C1 9480   2.732   1.750  15.324 -0.1066  0.0694  0.0958
  637TMC3    C2 9481   2.862   1.736  15.351  0.1170  1.1163 -0.0184
  637TMC3    C3 9482   2.962   1.756  15.257  0.1344 -0.0044 -0.6588
  637TMC3    C4 9483   2.694   1.768  15.197 -0.2218 -0.4273  0.4815
  637TMC3    C5 9484   2.796   1.802  15.106 -0.3885  0.0169 -0.8441
  637TMC3    C6 9485   2.930   1.796  15.130  0.6148  0.3980 -1.0150
  637TMC3     C 9486   2.625   1.678  15.390  0.5210  0.1970  0.0832
  637TMC3     O 9487   2.553   1.614  15.316  0.4344  0.2873 -0.3294
  637TMC3     H 9488   2.893   1.711  15.452  0.2479  0.0685 -0.3228
  637TMC3    H1 9489   2.593   1.779  15.161 -0.5459  2.1462  2.1780
  637TMC3    H2 9490   3.005   1.809  15.053  2.6319 -3.4956  0.2409
  637TMC3    C7 9491   2.772   1.932  15.053 -0.1421  0.1634 -0.1738
  637TMC3    C8 9492   3.094   1.779  15.309 -0.1849  0.5081  0.0975
  637TMC3    O1 9493   2.690   2.000  15.106  0.0724  0.0197 -0.0765
  637TMC3    O2 9494   3.114   1.816  15.424  0.5376 -1.1110 -0.1603
  638MPD2     C 9495   1.826   0.450  14.907 -0.1197  0.7464  0.1571
  638MPD2    C1 9496   1.832   0.336  14.828  0.2278  0.3744  0.2169
  638MPD2    C2 9497   1.826   0.213  14.888 -0.3938  0.4531  0.7796
  638MPD2    C3 9498   1.837   0.205  15.028  0.2800 -0.1769  0.4224
  638MPD2    C4 9499   1.825   0.314  15.102 -0.3290 -0.5108 -0.8926
  638MPD2    C5 9500   1.823   0.437  15.039 -0.6601 -0.9446  0.6883
  638MPD2     H 9501   1.840   0.126  14.825  2.3796  1.5720 -0.1473
  638MPD2    H1 9502   1.843   0.311  15.209 -0.7719 -2.1927 -0.8648
  638MPD2    H2 9503   1.821   0.552  14.872  2.3818  0.7576 -0.1286
  638MPD2    H3 9504   1.816   0.525  15.102 -1.4262  0.5769 -1.5299
  638MPD2     N 9505   1.819   0.077  15.077 -0.6723  0.2200 -0.5232
  638MPD2    H5 9506   1.821   0.003  15.008 -1.0066 -1.0093  0.7865
  638MPD2    N1 9507   1.829   0.359  14.686  0.0655  0.5547 -0.0754
  638MPD2    H7 9508   1.844   0.454  14.656  1.5114  0.4505  0.3046
  639TMC3    C1 9509   1.794   4.641  15.211  0.0562  0.3968 -0.3313
  639TMC3    C2 9510   1.709   4.588  15.113 -0.6860 -0.7417 -0.1431
  639TMC3    C3 9511   1.756   4.475  15.056 -1.0042 -0.7750 -0.4176
  639TMC3    C4 9512   1.925   4.596  15.226  0.2738 -0.7447 -0.1182
  639TMC3    C5 9513   1.963   4.489  15.150 -0.5172 -0.3818 -0.0025
  639TMC3    C6 9514   1.878   4.426  15.068  0.1405 -0.0685  0.7975
  639TMC3     C 9515   1.794   0.042  15.208  0.4218  0.7068 -0.0755
  639TMC3     O 9516   1.784   0.109  15.313  0.6345  0.1927  0.0366
  639TMC3     H 9517   1.610   4.627  15.093 -0.4621 -1.0895 -1.8735
  639TMC3    H1 9518   1.997   4.653  15.284 -1.5487  0.9743  0.4359
  639TMC3    H2 9519   1.902   4.325  15.035 -0.1018  0.1360 -0.0091
  639TMC3    C7 9520   2.095   4.437  15.170 -0.1915  0.9642 -0.2603
  639TMC3    C8 9521   1.661   4.405  14.964 -0.6521 -0.6824 -0.8608
  639TMC3    O1 9522   2.136   4.442  15.281  0.2261  0.1258  0.5512
  639TMC3    O2 9523   1.714   4.340  14.875  0.8827  0.0368 -0.6878
  640MPD2     C 9524   2.543   4.100   9.928 -0.9136  1.2704  0.3700
  640MPD2    C1 9525   2.541   4.234   9.908  0.3583  1.0595 -0.3716
  640MPD2    C2 9526   2.462   4.307   9.996  0.1382 -0.0213  0.9203
  640MPD2    C3 9527   2.369   4.251  10.078 -0.2057  0.3963 -0.5931
  640MPD2    C4 9528   2.373   4.118  10.104  0.4951  0.0459 -0.1683
  640MPD2    C5 9529   2.460   4.051  10.025  0.3897 -0.1138  0.2187
  640MPD2     H 9530   2.467   4.415   9.986 -1.3298  0.0311  0.7483
  640MPD2    H1 9531   2.304   4.066  10.169  0.6933  0.8307  0.6791
  640MPD2    H2 9532   2.609   4.039   9.866 -0.7787  2.3344 -0.5364
  640MPD2    H3 9533   2.459   3.945  10.051 -1.6320 -0.6423 -2.0035
  640MPD2     N 9534   2.281   4.328  10.150 -0.1032 -0.0515 -0.1291
  640MPD2    H5 9535   2.218   4.288  10.219 -1.8241  0.5341 -1.3653
  640MPD2    N1 9536   2.623   4.294   9.807  0.4139 -0.2109  0.2857
  640MPD2    H7 9537   2.695   4.228   9.781  1.3873  0.9814 -0.0617
  641TMC3    C1 9538   2.749   4.443   9.691 -0.1314 -0.9087  0.0091
  641TMC3    C2 9539   2.814   4.332   9.643 -0.1461  0.1082  0.4443
  641TMC3    C3 9540   2.954   4.341   9.624 -0.4458  0.0739  0.1887
  641TMC3    C4 9541   2.814   4.564   9.703 -0.3192  0.2684  0.0717
  641TMC3    C5 9542   2.947   4.564   9.672 -0.0793 -0.4987 -0.3403
  641TMC3    C6 9543   3.019   4.460   9.625  0.3573  1.0680  0.3650
  641TMC3     C 9544   2.637   4.422   9.773 -0.2591 -0.6247 -0.6719
  641TMC3     O 9545   2.565   4.517   9.807  0.2323  0.1786 -0.0671
  641TMC3     H 9546   2.761   4.243   9.610 -1.0517  1.1403 -0.8917
  641TMC3    H1 9547   2.776   4.650   9.758  3.9582  1.4372  1.2540
  641TMC3    H2 9548   3.124   4.485   9.617 -0.1122  2.3216 -1.9577
  641TMC3    C7 9549   3.022   4.694   9.674  0.4602  0.5864  0.0534
  641TMC3    C8 9550   3.025   4.216   9.594 -0.6914  0.6973  0.3146
  641TMC3    O1 9551   3.135   4.692   9.721  0.3373  0.4199  0.5328
  641TMC3    O2 9552   2.960   4.110   9.595  0.3939 -0.5049 -0.1561
  642TMC3    C1 9553   3.323   0.300  12.845  0.1691 -0.0838  0.6002
  642TMC3    C2 9554   3.462   0.300  12.834  0.4002 -0.2374 -0.0201
  642TMC3    C3 9555   3.516   0.226  12.729  0.3177  0.1442 -0.6559
  642TMC3    C4 9556   3.252   0.214  12.773 -0.7682  0.3923  0.4931
  642TMC3    C5 9557   3.311   0.136  12.676 -0.1503 -0.2290 -0.6580
  642TMC3    C6 9558   3.442   0.145  12.647  0.2656  0.4050 -0.1733
  642TMC3     C 9559   3.254   0.406  12.916  0.0149 -0.4040 -0.1322
  642TMC3     O 9560   3.315   0.472  13.000  0.4481 -0.8063 -0.4504
  642TMC3     H 9561   3.527   0.368  12.887 -2.4263  1.9156  0.7271
  642TMC3    H1 9562   3.148   0.190  12.792 -0.4497 -1.1609  0.2375
  642TMC3    H2 9563   3.485   0.084  12.569 -0.9517  0.0417 -0.5574
  642TMC3    C7 9564   3.234   0.034  12.602 -0.3862  0.0969  0.2226
  642TMC3    C8 9565   3.657   0.202  12.715 -0.1337 -0.1987  0.2141
  642TMC3    O1 9566   3.255   0.012  12.482  0.1588  0.2593 -0.3851
  642TMC3    O2 9567   3.684   0.094  12.657 -0.2896  0.6788  0.4384
  643TMC3    C1 9568   3.328   4.109   0.024  0.3311 -0.4706  0.2248
  643TMC3    C2 9569   3.194   4.079  17.746  0.4738  0.2351  0.1703
  643TMC3    C3 9570   3.166   4.018  17.629 -0.3376  0.1066 -0.6235
  643TMC3    C4 9571   3.422   4.091  17.671 -0.6914 -0.2364 -0.4143
  643TMC3    C5 9572   3.383   4.014  17.557 -0.1208 -0.3435  0.2159
  643TMC3    C6 9573   3.253   3.974  17.534  0.2881  0.5264  1.0072
  643TMC3     C 9574   3.342   4.232   0.098 -0.2147  0.7666  0.4934
  643TMC3     O 9575   3.242   4.304   0.090 -0.1918 -0.5749 -0.0909
  643TMC3     H 9576   3.111   4.101   0.065  0.5802  0.8601  0.0994
  643TMC3    H1 9577   3.510   4.155  17.675 -0.4234 -0.4441 -2.8625
  643TMC3    H2 9578   3.220   3.919  17.447  1.1645  2.0267 -0.2728
  643TMC3    C7 9579   3.426   4.071  17.436  0.2224  0.0759  0.4411
  643TMC3    C8 9580   3.064   4.099  17.561  0.4188  0.7181  0.0392
  643TMC3    O1 9581   3.449   4.191  17.431 -0.6194 -0.1642 -0.3107
  643TMC3    O2 9582   3.039   4.066  17.447 -0.5010  0.5943 -0.5686
  644MPD2     C 9583   2.729   0.976   9.951  0.2281 -0.7118  0.2689
  644MPD2    C1 9584   2.719   0.856   9.881  0.4661 -0.0929  0.4533
  644MPD2    C2 9585   2.635   0.844   9.771  0.5830  0.4098 -0.2110
  644MPD2    C3 9586   2.568   0.956   9.726 -0.3430  0.4840  0.8726
  644MPD2    C4 9587   2.585   1.082   9.786  0.6132  0.1130 -0.4239
  644MPD2    C5 9588   2.664   1.085   9.901  0.2448 -0.5932  0.0233
  644MPD2     H 9589   2.620   0.751   9.717 -1.6575 -0.5487  2.0562
  644MPD2    H1 9590   2.538   1.173   9.752  1.7158  0.9523  0.3029
  644MPD2    H2 9591   2.794   0.977  10.038 -0.5059 -0.0713  0.8151
  644MPD2    H3 9592   2.679   1.175   9.960  2.0883  0.1155 -1.5277
  644MPD2     N 9593   2.489   0.936   9.607 -0.3810 -0.2932 -0.2469
  644MPD2    H5 9594   2.501   0.843   9.567  2.1182 -0.7503  1.4933
  644MPD2    N1 9595   2.803   0.750   9.916 -0.8559 -0.2507  0.3676
  644MPD2    H7 9596   2.872   0.781   9.983 -1.4821  1.6832  0.1116
  645TMC3    C1 9597   2.368   0.978   9.418 -0.5113  0.1391 -0.4400
  645TMC3    C2 9598   2.377   0.850   9.391 -0.4938 -0.2244 -0.3971
  645TMC3    C3 9599   2.347   0.810   9.263  0.0439 -0.1815 -0.1792
  645TMC3    C4 9600   2.350   1.068   9.318  0.5184 -0.0589 -0.3717
  645TMC3    C5 9601   2.326   1.026   9.191  0.7653  0.0454 -1.0060
  645TMC3    C6 9602   2.312   0.897   9.168  0.3131  0.6474 -0.3435
  645TMC3     C 9603   2.424   1.033   9.539 -0.1951 -0.8143 -0.1846
  645TMC3     O 9604   2.405   1.149   9.567 -0.2825 -0.1918 -0.2140
  645TMC3     H 9605   2.365   0.773   9.467 -2.0154  1.1850  0.8039
  645TMC3    H1 9606   2.346   1.173   9.346 -0.5699  0.5031 -2.6490
  645TMC3    H2 9607   2.273   0.868   9.071 -1.1560  0.4247  0.3244
  645TMC3    C7 9608   2.261   1.113   9.090 -0.2393 -0.1779  0.0236
  645TMC3    C8 9609   2.340   0.665   9.232 -0.0044 -0.2197 -0.6744
  645TMC3    O1 9610   2.170   1.067   9.021  0.8843  0.2959  0.3513
  645TMC3    O2 9611   2.324   0.597   9.333 -0.2018  0.2748 -0.0430
  646MPD2     C 9612   1.942   3.534  14.482  0.4651 -0.1102 -0.5247
  646MPD2    C1 9613   1.910   3.616  14.585 -0.0294 -0.1154  0.3588
  646MPD2    C2 9614   1.818   3.716  14.573  0.0665  0.1300 -0.4305
  646MPD2    C3 9615   1.739   3.723  14.456 -0.4210  0.0946 -0.0027
  646MPD2    C4 9616   1.751   3.623  14.365 -0.4923  0.1881 -1.4506
  646MPD2    C5 9617   1.852   3.531  14.377 -0.6168  0.5244 -0.7740
  646MPD2     H 9618   1.792   3.793  14.646 -2.1013 -0.2970 -0.7441
  646MPD2    H1 9619   1.677   3.624  14.286 -1.9006  2.0802 -0.0851
  646MPD2    H2 9620   2.022   3.460  14.484 -1.2431 -1.9694 -0.8982
  646MPD2    H3 9621   1.867   3.458  14.299  0.3485  0.0738 -0.1760
  646MPD2     N 9622   1.642   3.823  14.442  0.0550  0.3120  0.1716
  646MPD2    H5 9623   1.625   3.889  14.517 -0.6940  0.0774  0.2103
  646MPD2    N1 9624   1.990   3.597  14.699  0.2426  0.6964 -0.2813
  646MPD2    H7 9625   2.071   3.536  14.687 -0.4642 -0.0691 -1.1346
  647TMC3    C1 9626   2.085   3.630  14.916 -0.3570  0.4233  0.0024
  647TMC3    C2 9627   2.059   3.633  15.050 -0.3559  0.2961 -0.4490
  647TMC3    C3 9628   2.158   3.599  15.138 -0.1766  0.1767  0.2725
  647TMC3    C4 9629   2.208   3.583  14.866 -0.3135  0.4065 -0.4303
  647TMC3    C5 9630   2.316   3.573  14.955  0.7857  0.5193  0.0386
  647TMC3    C6 9631   2.286   3.579  15.090 -0.4458 -0.1151 -0.1412
  647TMC3     C 9632   1.973   3.652  14.825 -0.0998 -0.0872 -0.4504
  647TMC3     O 9633   1.871   3.708  14.869 -0.1160 -0.1210 -0.4581
  647TMC3     H 9634   1.959   3.662  15.080  0.1630  1.3842  0.2158
  647TMC3    H1 9635   2.231   3.583  14.760  0.3896 -0.2087 -0.2782
  647TMC3    H2 9636   2.360   3.550  15.164 -1.1825 -1.0817  0.2200
  647TMC3    C7 9637   2.431   3.491  14.932  0.8781  0.1049 -0.2503
  647TMC3    C8 9638   2.113   3.473  15.201  0.1623 -0.4124 -0.4655
  647TMC3    O1 9639   2.522   3.502  15.013  0.2440  0.1412 -0.4443
  647TMC3    O2 9640   2.198   3.405  15.255 -0.1293  0.1626 -0.6331
  648TMC3    C1 9641   1.510   1.556  15.900  0.0095  0.5927 -0.4001
  648TMC3    C2 9642   1.571   1.437  15.867 -0.8309  0.3539 -0.4499
  648TMC3    C3 9643   1.515   1.369  15.759 -0.1127  0.5158 -0.4598
  648TMC3    C4 9644   1.409   1.605  15.833  0.1060  0.1608 -0.1404
  648TMC3    C5 9645   1.360   1.547  15.718  0.3336 -0.7302 -0.0866
  648TMC3    C6 9646   1.422   1.431  15.677 -0.1010  0.5586 -0.1255
  648TMC3     C 9647   1.534   1.604  16.040  0.5349 -0.5209  0.6374
  648TMC3     O 9648   1.482   1.706  16.079  0.3562  0.0353  0.0021
  648TMC3     H 9649   1.648   1.388  15.926 -0.6848 -0.6674 -1.4922
  648TMC3    H1 9650   1.376   1.701  15.871 -1.3027  0.4843 -2.1978
  648TMC3    H2 9651   1.389   1.384  15.585 -0.8065  0.3789  0.2155
  648TMC3    C7 9652   1.265   1.620  15.637  0.2845 -0.1171  0.4674
  648TMC3    C8 9653   1.586   1.264  15.699  0.3476 -0.0496 -0.2003
  648TMC3    O1 9654   1.280   1.608  15.516 -0.2645 -0.3918  0.0987
  648TMC3    O2 9655   1.587   1.256  15.574 -0.2564 -0.2355  0.3624
  649TMC3    C1 9656   4.398   2.218  13.118  0.1387  0.0916  0.1991
  649TMC3    C2 9657   4.521   2.278  13.086  0.5221  0.1764 -0.5983
  649TMC3    C3 9658   4.624   2.256  13.172  0.0878  0.3715 -0.3111
  649TMC3    C4 9659   4.382   2.130  13.225  0.4696 -0.4356  0.3309
  649TMC3    C5 9660   4.492   2.102  13.299 -0.4242 -0.1408 -0.5781
  649TMC3    C6 9661   4.610   2.169  13.277  0.6755 -0.3574 -0.3159
  649TMC3     C 9662   4.287   2.269  13.043  0.9253 -0.0617  0.3407
  649TMC3     O 9663   4.306   2.373  12.982 -0.0960 -0.3534 -0.2356
  649TMC3     H 9664   4.527   2.348  13.004  0.7421 -0.1741 -0.8852
  649TMC3    H1 9665   4.287   2.090  13.258  0.0200  0.0488 -0.3823
  649TMC3    H2 9666   4.687   2.167  13.354  0.1239  0.3767  0.2612
  649TMC3    C7 9667   4.474   2.046  13.430 -0.5117 -0.0360  0.0436
  649TMC3    C8 9668   0.004   2.335  13.167 -0.2173 -0.5966  0.1350
  649TMC3    O1 9669   4.358   2.018  13.457  0.0341  0.1494 -0.7562
  649TMC3    O2 9670   0.041   2.380  13.276 -0.2617  0.2633  0.2664
  650TMC3    C1 9671   2.848   4.086  12.913 -0.5601 -0.2084  0.6300
  650TMC3    C2 9672   2.786   4.195  12.966 -0.2919  0.3893  0.3407
  650TMC3    C3 9673   2.661   4.225  12.928  0.4143 -0.6462  0.0410
  650TMC3    C4 9674   2.796   4.015  12.809  0.3772  0.2649 -0.0954
  650TMC3    C5 9675   2.669   4.038  12.777 -0.0344  0.3521 -0.5605
  650TMC3    C6 9676   2.598   4.137  12.838  0.6190  0.5406 -0.0565
  650TMC3     C 9677   2.986   4.052  12.954 -0.0618  0.2619  0.1534
  650TMC3     O 9678   3.060   4.123  13.015  0.0551  0.0649  0.1396
  650TMC3     H 9679   2.830   4.259  13.041  0.4170 -0.0716  0.3152
  650TMC3    H1 9680   2.845   3.939  12.748 -0.5177  0.4266 -1.0286
  650TMC3    H2 9681   2.491   4.134  12.824  0.5901  1.3827 -0.0356
  650TMC3    C7 9682   2.646   4.041  12.637  0.7139 -0.1673  0.5941
  650TMC3    C8 9683   2.594   4.343  12.966  1.0065  0.0899 -0.4442
  650TMC3    O1 9684   2.658   3.941  12.567 -0.0738  0.3633 -0.2353
  650TMC3    O2 9685   2.653   4.447  12.946  0.1360  0.4815 -0.1461
  651MPD2     C 9686   1.395   1.626  10.472  0.2954 -0.1708 -0.1263
  651MPD2    C1 9687   1.453   1.685  10.589 -0.0586 -0.0417 -0.5124
  651MPD2    C2 9688   1.587   1.724  10.582  0.6555 -0.0339 -0.7064
  651MPD2    C3 9689   1.664   1.698  10.464 -0.6335 -0.0046  0.2239
  651MPD2    C4 9690   1.602   1.630  10.363 -0.0164 -0.5715 -0.2018
  651MPD2    C5 9691   1.470   1.596  10.363 -0.0349  0.0617 -0.1834
  651MPD2     H 9692   1.628   1.774  10.669  0.9530 -0.3130 -0.6864
  651MPD2    H1 9693   1.651   1.613  10.267  1.2599 -1.7499  0.6591
  651MPD2    H2 9694   1.292   1.593  10.474  1.1624 -2.8434  1.1766
  651MPD2    H3 9695   1.423   1.555  10.275 -0.8933  0.8063 -0.0642
  651MPD2     N 9696   1.803   1.740  10.461  0.3730 -0.3278  0.3205
  651MPD2    H5 9697   1.830   1.794  10.542 -0.7611  0.1442  0.3842
  651MPD2    N1 9698   1.380   1.727  10.693  0.2933  0.2744  0.4908
  651MPD2    H7 9699   1.432   1.776  10.766 -1.1303  1.8393  0.4461
  652TMC3    C1 9700   2.241   1.758  10.302  0.4840  0.0642 -0.2263
  652TMC3    C2 9701   2.130   1.683  10.336  0.3613  0.1267  0.2246
  652TMC3    C3 9702   2.027   1.745  10.401  0.2435 -0.3414  0.3381
  652TMC3    C4 9703   2.249   1.892  10.330 -1.1943 -0.1128 -0.8180
  652TMC3    C5 9704   2.146   1.943  10.400  0.6337 -0.2432 -0.6789
  652TMC3    C6 9705   2.030   1.878  10.425  0.3247 -0.5681 -0.0288
  652TMC3     C 9706   2.367   1.702  10.333 -0.3028 -0.9045 -0.2696
  652TMC3     O 9707   2.368   1.608  10.414  0.0892  0.5224  0.1379
  652TMC3     H 9708   2.142   1.576  10.324  2.1128  0.3573 -0.0537
  652TMC3    H1 9709   2.341   1.946  10.313 -3.0379  3.4308  0.5488
  652TMC3    H2 9710   1.957   1.922  10.493 -0.0911  0.7873 -1.3642
  652TMC3    C7 9711   2.172   2.062  10.473 -0.4785  0.2208 -0.5417
  652TMC3    C8 9712   1.898   1.696  10.372  0.7837 -0.0898  0.0565
  652TMC3    O1 9713   2.099   2.083  10.570 -0.0687 -0.5325  0.4221
  652TMC3    O2 9714   1.873   1.616  10.280 -0.0011  0.1364 -0.3187
  653MPD2     C 9715   0.787   1.407  17.444 -0.2181 -0.3029  0.1901
  653MPD2    C1 9716   0.711   1.498  17.377  0.0365 -0.5302 -0.5833
  653MPD2    C2 9717   0.642   1.445  17.270  0.0301  0.2517 -0.3467
  653MPD2    C3 9718   0.652   1.313  17.223 -0.0438  0.6545  0.1452
  653MPD2    C4 9719   0.740   1.230  17.292  0.5374  0.3887 -0.6928
  653MPD2    C5 9720   0.801   1.279  17.402 -0.2250  0.7075  0.2879
  653MPD2     H 9721   0.573   1.510  17.217 -1.5716  0.3681  1.8860
  653MPD2    H1 9722   0.760   1.126  17.270  0.0665 -0.0992  1.2221
  653MPD2    H2 9723   0.846   1.429  17.532 -0.5674 -0.1375  0.3828
  653MPD2    H3 9724   0.862   1.208  17.456 -2.0680 -0.4532  0.8527
  653MPD2     N 9725   0.581   1.282  17.107  0.1764 -0.2942  0.5047
  653MPD2    H5 9726   0.535   1.361  17.063  1.1252  0.0420  0.1019
  653MPD2    N1 9727   0.704   1.634  17.409  0.3551 -0.2869  0.1184
  653MPD2    H7 9728   0.660   1.693  17.339 -1.7697 -1.0535  0.8115
  654TMC3    C1 9729   0.497   1.166  16.925  0.5558 -0.3526 -0.3938
  654TMC3    C2 9730   0.370   1.219  16.926 -0.1551  0.5851 -0.1281
  654TMC3    C3 9731   0.295   1.200  16.821  0.5122  0.0524  0.6482
  654TMC3    C4 9732   0.540   1.073  16.838  0.5401 -0.1245 -0.0397
  654TMC3    C5 9733   0.455   1.054  16.736 -0.0674  0.8156  0.2329
  654TMC3    C6 9734   0.335   1.116  16.721  0.5830  0.1111  0.1545
  654TMC3     C 9735   0.579   1.163  17.034 -0.0766 -0.1953  0.0105
  654TMC3     O 9736   0.609   1.052  17.074  0.0555 -0.4144  0.1253
  654TMC3     H 9737   0.343   1.281  17.011 -1.3752  0.6426 -0.5569
  654TMC3    H1 9738   0.631   1.016  16.852 -0.0970 -1.7794 -2.6281
  654TMC3    H2 9739   0.273   1.106  16.633  0.0707 -0.8714  0.6270
  654TMC3    C7 9740   0.467   0.920  16.673 -0.5334 -0.2066 -0.0514
  654TMC3    C8 9741   0.157   1.247  16.824 -0.1705  0.6546  0.1108
  654TMC3    O1 9742   0.422   0.897  16.559  0.4637  0.7230 -0.0331
  654TMC3    O2 9743   0.130   1.323  16.912  0.2129 -0.2475  0.5306
  655MPD2     C 9744   1.773   2.050  15.252  0.1446  0.3995  0.7876
  655MPD2    C1 9745   1.672   1.959  15.259 -0.3861 -0.0066  0.4818
  655MPD2    C2 9746   1.692   1.824  15.223  0.0135  0.3040 -0.2334
  655MPD2    C3 9747   1.819   1.788  15.186  0.3053  0.2506  0.4878
  655MPD2    C4 9748   1.917   1.878  15.180 -0.1061  0.6120 -0.5455
  655MPD2    C5 9749   1.892   2.008  15.207  0.2142 -0.3433  0.0268
  655MPD2     H 9750   1.607   1.758  15.213  0.7537 -0.9847  1.9937
  655MPD2    H1 9751   2.018   1.842  15.163  0.4915  1.6692  0.7818
  655MPD2    H2 9752   1.771   2.148  15.298 -0.2635  1.2396 -1.0249
  655MPD2    H3 9753   1.978   2.073  15.211 -1.1688  1.4331  1.0246
  655MPD2     N 9754   1.847   1.658  15.138 -0.1173 -0.3192 -0.7112
  655MPD2    H5 9755   1.942   1.636  15.108  0.1381  1.6376 -1.3252
  655MPD2    N1 9756   1.541   1.990  15.300  0.2597 -0.3953  0.0301
  655MPD2    H7 9757   1.480   1.910  15.286  0.1396 -0.2069 -0.5076
  656TMC3    C1 9758   1.386   2.073  15.455 -0.4166  0.1870  0.0173
  656TMC3    C2 9759   1.388   2.094  15.591 -0.3695  0.0727 -0.0592
  656TMC3    C3 9760   1.278   2.144  15.654 -0.1404  0.0948  0.0886
  656TMC3    C4 9761   1.275   2.107  15.381  0.7921 -0.7445 -0.3868
  656TMC3    C5 9762   1.169   2.150  15.446  0.9656  0.4361 -0.2472
  656TMC3    C6 9763   1.172   2.186  15.577 -0.8642 -0.6280  0.0162
  656TMC3     C 9764   1.512   2.088  15.391  0.2601 -0.4830 -0.6628
  656TMC3     O 9765   1.592   2.156  15.448  0.1825  0.7170  0.1499
  656TMC3     H 9766   1.476   2.083  15.652  0.4362  0.2016 -1.1985
  656TMC3    H1 9767   1.274   2.094  15.274 -0.2109  0.3553 -0.5084
  656TMC3    H2 9768   1.082   2.220  15.627 -0.4774 -2.2096  1.7879
  656TMC3    C7 9769   1.069   2.202  15.358 -0.4305 -0.5595 -0.1126
  656TMC3    C8 9770   1.274   2.155  15.792  0.0291 -0.2283  1.1050
  656TMC3    O1 9771   1.068   2.165  15.240 -0.5438  0.2384 -0.2165
  656TMC3    O2 9772   1.203   2.249  15.819 -0.0789 -0.0218  0.3029
  657TMC3    C1 9773   0.683   0.904  15.050  0.1181 -0.7662 -0.5837
  657TMC3    C2 9774   0.700   0.933  15.179 -0.2606  0.0300  0.5003
  657TMC3    C3 9775   0.627   1.041  15.225 -0.0105  0.1962  0.6965
  657TMC3    C4 9776   0.617   0.993  14.966 -0.2541 -0.1211 -0.9401
  657TMC3    C5 9777   0.535   1.089  15.021  1.1132 -0.0104 -0.3681
  657TMC3    C6 9778   0.551   1.116  15.150  0.0186  0.5674 -0.2686
  657TMC3     C 9779   0.730   0.774  15.005  0.3040 -0.1197 -0.2290
  657TMC3     O 9780   0.665   0.717  14.919 -0.4071 -0.4356 -0.7377
  657TMC3     H 9781   0.753   0.867  15.247  0.2936  0.6653  0.6818
  657TMC3    H1 9782   0.619   0.972  14.859  1.7196  1.8765 -1.3203
  657TMC3    H2 9783   0.507   1.205  15.194  0.2369  0.6510 -0.2190
  657TMC3    C7 9784   0.499   1.206  14.939  0.0388 -0.8252  0.1876
  657TMC3    C8 9785   0.639   1.060  15.366  0.4517 -0.6303  0.0090
  657TMC3    O1 9786   0.521   1.318  14.985 -0.3059  0.1654 -0.3770
  657TMC3    O2 9787   0.753   1.061  15.415 -0.4601  0.2498  0.1150
  658MPD2     C 9788   2.316   1.559  14.665 -0.0916 -0.0322 -0.1471
  658MPD2    C1 9789   2.192   1.510  14.643 -0.6157 -0.0984 -0.1338
  658MPD2    C2 9790   2.148   1.518  14.511 -0.0184 -0.2269 -0.5094
  658MPD2    C3 9791   2.225   1.564  14.407  0.4357  0.1055 -0.6768
  658MPD2    C4 9792   2.348   1.624  14.429 -0.6132 -1.0708  1.1422
  658MPD2    C5 9793   2.389   1.616  14.562 -0.2993  0.1981 -0.4913
  658MPD2     H 9794   2.049   1.488  14.481  0.1230 -1.0523 -0.1339
  658MPD2    H1 9795   2.416   1.666  14.355 -1.9172  1.1097  1.1712
  658MPD2    H2 9796   2.367   1.562  14.761  0.8221 -1.3868 -0.5933
  658MPD2    H3 9797   2.482   1.666  14.586 -0.3502 -0.0539  0.2410
  658MPD2     N 9798   2.175   1.546  14.275 -0.1870  0.2297 -0.0462
  658MPD2    H5 9799   2.090   1.490  14.272 -1.1736  1.6806  0.8831
  658MPD2    N1 9800   2.108   1.475  14.752 -0.0489 -0.7863 -0.5303
  658MPD2    H7 9801   2.140   1.475  14.848  0.7231  0.0031 -0.7802
  659TMC3    C1 9802   1.912   1.381  14.851  0.6341 -0.8239 -0.0621
  659TMC3    C2 9803   1.915   1.455  14.965 -0.2056  0.0592 -0.3443
  659TMC3    C3 9804   1.826   1.435  15.069  0.0396  0.1854 -0.5429
  659TMC3    C4 9805   1.828   1.282  14.843 -0.2904 -0.2365 -0.0770
  659TMC3    C5 9806   1.737   1.258  14.940 -0.5303 -0.3367 -0.3426
  659TMC3    C6 9807   1.738   1.334  15.057  0.3555 -0.1792 -0.1239
  659TMC3     C 9808   1.983   1.415  14.734 -0.4068  0.4688 -0.1662
  659TMC3     O 9809   1.924   1.400  14.631  0.0570 -0.1900  0.5000
  659TMC3     H 9810   1.991   1.533  14.972  1.3987 -1.6658  1.6754
  659TMC3    H1 9811   1.834   1.207  14.764 -2.0693 -1.2250  0.7279
  659TMC3    H2 9812   1.647   1.334  15.116 -0.1656 -0.5507 -0.9317
  659TMC3    C7 9813   1.604   1.241  14.890  0.0186 -0.9158  0.0535
  659TMC3    C8 9814   1.777   1.545  15.146  0.8261  0.1597 -0.0965
  659TMC3    O1 9815   1.519   1.222  14.972  0.2502 -0.0434  0.4389
  659TMC3    O2 9816   1.673   1.531  15.211  0.3281 -0.6124 -0.1571
  660MPD2     C 9817   4.616   0.438  12.897 -0.1013 -0.0491  0.3367
  660MPD2    C1 9818   4.546   0.393  12.790  0.1439  0.1142 -0.0222
  660MPD2    C2 9819   4.498   0.262  12.792 -0.3194  0.2248  0.4331
  660MPD2    C3 9820   4.509   0.185  12.911 -0.0925  0.7611  0.0991
  660MPD2    C4 9821   4.574   0.234  13.010  0.1335  0.6974  0.0236
  660MPD2    C5 9822   4.633   0.360  13.005 -0.4479 -0.3486  0.5123
  660MPD2     H 9823   4.439   0.230  12.707  2.0758 -3.7279  0.2271
  660MPD2    H1 9824   4.573   0.172  13.099 -0.6650 -0.0438 -0.5113
  660MPD2    H2 9825   4.658   0.538  12.890 -0.5239  0.0390 -1.0724
  660MPD2    H3 9826   4.674   0.382  13.103  1.6146  2.2700 -0.9526
  660MPD2     N 9827   4.462   0.049  12.920  0.6701  0.3364  0.4351
  660MPD2    H5 9828   4.487   4.724  12.996  1.2888 -0.0543 -0.0926
  660MPD2    N1 9829   4.539   0.476  12.672 -0.7921 -0.6946 -0.2788
  660MPD2    H7 9830   4.545   0.577  12.675  2.1824 -0.8660 -0.7695
  661TMC3    C1 9831   4.429   0.531  12.474 -0.6859 -0.2540 -0.2761
  661TMC3    C2 9832   4.431   0.515  12.340  0.0748  0.3441  0.5699
  661TMC3    C3 9833   4.351   0.588  12.260  0.0240 -0.0083 -0.2509
  661TMC3    C4 9834   4.347   0.626  12.540 -0.4566  0.0512 -0.2076
  661TMC3    C5 9835   4.261   0.683  12.446 -0.2283  0.5509  0.1626
  661TMC3    C6 9836   4.253   0.661  12.311 -0.1598 -0.0975 -1.2819
  661TMC3     C 9837   4.499   0.431  12.550  1.3718  0.8337 -0.3793
  661TMC3     O 9838   4.534   0.324  12.498  0.3997 -0.3578 -0.3013
  661TMC3     H 9839   4.519   0.462  12.306 -0.8100 -0.6458 -0.1643
  661TMC3    H1 9840   4.320   0.642  12.644 -1.0758 -2.2721 -0.0021
  661TMC3    H2 9841   4.182   0.710  12.245 -1.0937  1.2879  0.7481
  661TMC3    C7 9842   4.138   0.738  12.503  0.7293  0.2755 -0.2387
  661TMC3    C8 9843   4.361   0.591  12.117  0.4873 -0.3368  0.5303
  661TMC3    O1 9844   4.150   0.788  12.614  0.4003  0.5108 -0.3077
  661TMC3    O2 9845   4.304   0.683  12.061  0.0472 -0.2384  0.2280
  662MPD2     C 9846   0.435   0.026  17.065 -0.0844  0.5904 -0.3918
  662MPD2    C1 9847   0.319   4.692  17.041 -1.0579 -0.1308  0.4292
  662MPD2    C2 9848   0.201   0.012  17.079  0.9018  0.6634  0.6299
  662MPD2    C3 9849   0.187   0.138  17.141  0.2789 -0.1669 -0.6096
  662MPD2    C4 9850   0.305   0.205  17.164 -0.7032 -0.1272 -0.2531
  662MPD2    C5 9851   0.426   0.152  17.128 -0.1454  0.6498  0.0319
  662MPD2     H 9852   0.107   4.699  17.062 -0.6284  2.9854  2.1472
  662MPD2    H1 9853   0.311   0.300  17.216 -1.7358 -0.8433  1.1560
  662MPD2    H2 9854   0.532   4.735  17.025  0.2398  0.5082  0.4697
  662MPD2    H3 9855   0.515   0.206  17.158  0.9979 -1.8271  1.0869
  662MPD2     N 9856   0.069   0.197  17.194  0.0172 -0.2563 -0.3101
  662MPD2    H5 9857   0.074   0.292  17.229 -1.3124 -0.1973 -0.3013
  662MPD2    N1 9858   0.306   4.570  16.982  0.3216 -0.0863 -0.2942
  662MPD2    H7 9859   0.213   4.531  16.988  0.3851 -0.3962 -1.4366
  663TMC3    C1 9860   0.358   4.358  16.916  0.1901 -0.3011 -0.9239
  663TMC3    C2 9861   0.261   4.310  17.001 -0.1878 -0.2727  0.1444
  663TMC3    C3 9862   0.220   4.178  17.000  0.0253 -0.0070 -0.5446
  663TMC3    C4 9863   0.432   4.268  16.842  0.2185  0.4206 -0.3060
  663TMC3    C5 9864   0.390   4.138  16.844  0.0804 -0.2728  0.4486
  663TMC3    C6 9865   0.276   4.092  16.904 -0.0771 -0.6400  0.7526
  663TMC3     C 9866   0.409   4.488  16.940 -0.0193  0.3968 -0.0548
  663TMC3     O 9867   0.526   4.518  16.908 -0.1586  0.8578 -0.0872
  663TMC3     H 9868   0.240   4.373  17.087 -1.6088 -1.1095  0.4137
  663TMC3    H1 9869   0.518   4.292  16.781  0.7350  0.0140  0.2665
  663TMC3    H2 9870   0.261   3.986  16.921 -2.3311 -0.2916  0.8403
  663TMC3    C7 9871   0.494   4.040  16.847 -0.4256  0.8052  0.4399
  663TMC3    C8 9872   0.221   4.114  17.132 -0.1264  0.1309  0.0135
  663TMC3    O1 9873   0.570   4.024  16.750  0.1454  0.0022 -0.0151
  663TMC3    O2 9874   0.249   3.999  17.126 -0.4068 -0.4728  0.4823
  664MPD2     C 9875   2.870   2.681  16.996 -0.3056 -0.0334 -0.1274
  664MPD2    C1 9876   2.855   2.814  17.028 -0.2170  0.8325  0.4275
  664MPD2    C2 9877   2.924   2.867  17.137 -0.0211  0.6199 -0.1741
  664MPD2    C3 9878   3.002   2.785  17.214 -0.7597  0.4204 -0.5563
  664MPD2    C4 9879   3.010   2.653  17.180  1.3289 -0.1500  0.0171
  664MPD2    C5 9880   2.952   2.599  17.075  0.5016 -0.3131  0.1709
  664MPD2     H 9881   2.914   2.974  17.156 -0.2144  0.3072  1.4450
  664MPD2    H1 9882   3.086   2.595  17.232  0.9097 -1.9688 -1.4055
  664MPD2    H2 9883   2.842   2.641  16.899  0.3253 -0.2616 -0.2171
  664MPD2    H3 9884   2.971   2.497  17.046 -1.4594 -1.3195  2.4071
  664MPD2     N 9885   3.062   2.848  17.327  0.0036  0.0173 -0.0681
  664MPD2    H5 9886   3.046   2.948  17.334  0.5357  0.0723  0.3729
  664MPD2    N1 9887   2.788   2.893  16.930 -0.4675  0.2709 -0.1697
  664MPD2    H7 9888   2.815   2.991  16.934 -3.2936  1.1435 -2.5210
  665TMC3    C1 9889   3.180   2.849  17.527  0.2801  0.0019 -0.4669
  665TMC3    C2 9890   3.214   2.781  17.642  0.5046  0.4924 -0.1462
  665TMC3    C3 9891   3.261   2.859  17.744  0.1347  0.0257 -0.1368
  665TMC3    C4 9892   3.223   2.976  17.504  0.6368 -0.1328  0.2561
  665TMC3    C5 9893   3.271   3.046  17.612 -0.3022 -0.7125 -0.4446
  665TMC3    C6 9894   3.284   2.993  17.733 -0.1964  0.0046  0.0731
  665TMC3     C 9895   3.124   2.769  17.424  0.9985  0.6705 -0.2179
  665TMC3     O 9896   3.129   2.644  17.442 -0.3804  0.5379  0.8015
  665TMC3     H 9897   3.187   2.679  17.667 -1.1226  1.0390  0.3652
  665TMC3    H1 9898   3.205   3.020  17.407 -1.6173 -2.7565 -0.5158
  665TMC3    H2 9899   3.318   3.049   0.072 -1.2800  0.7071  0.0397
  665TMC3    C7 9900   3.276   3.189  17.597  0.6621  0.1998 -1.2051
  665TMC3    C8 9901   3.239   2.797   0.127 -0.5317 -0.0265 -0.9451
  665TMC3    O1 9902   3.199   3.242  17.518 -0.1872 -0.0364  0.1580
  665TMC3    O2 9903   3.199   2.867   0.219  0.3822 -0.1084 -0.4212
  666TMC3    C1 9904   1.919   2.587   9.894  0.1926  0.2846 -0.1956
  666TMC3    C2 9905   1.920   2.536   9.766 -0.6950  0.4771  0.2465
  666TMC3    C3 9906   1.902   2.628   9.665  0.4375  1.0491  0.4890
  666TMC3    C4 9907   1.907   2.724   9.926  0.2006  0.4712  0.7009
  666TMC3    C5 9908   1.869   2.803   9.821 -0.1814 -0.3197 -0.2599
  666TMC3    C6 9909   1.873   2.758   9.692 -0.6049  0.0131  0.2213
  666TMC3     C 9910   1.955   2.503  10.003  0.3889 -0.4853 -0.0521
  666TMC3     O 9911   2.035   2.548  10.081  0.7030  0.3583  0.1207
  666TMC3     H 9912   1.958   2.435   9.753  0.7525  1.0689 -0.1770
  666TMC3    H1 9913   1.941   2.759  10.023  1.4489  0.8407  0.1326
  666TMC3    H2 9914   1.858   2.824   9.607  1.4671  1.7859  1.2312
  666TMC3    C7 9915   1.831   2.937   9.858 -0.3535 -0.4042  0.3678
  666TMC3    C8 9916   1.925   2.585   9.529  0.8411 -0.2325  0.2262
  666TMC3    O1 9917   1.830   2.976   9.975  0.3301  0.2786 -0.4382
  666TMC3    O2 9918   1.873   2.483   9.500  0.3481  0.3907  0.2727
  667MPD2     C 9919   3.653   2.996  14.261  0.5359 -0.1164 -0.1041
  667MPD2    C1 9920   3.709   2.968  14.388 -0.0888 -0.7372 -0.2716
  667MPD2    C2 9921   3.709   2.835  14.435  0.2115  0.6024  0.1894
  667MPD2    C3 9922   3.653   2.735  14.361  0.4497 -0.2337  0.1806
  667MPD2    C4 9923   3.596   2.761  14.243 -0.6960  0.3214  0.5866
  667MPD2    C5 9924   3.590   2.889  14.198 -0.1980  0.4701 -0.7075
  667MPD2     H 9925   3.728   2.817  14.540 -0.0517 -0.6569  0.0241
  667MPD2    H1 9926   3.548   2.680  14.189  1.2842  1.8002 -3.3124
  667MPD2    H2 9927   3.645   3.098  14.225 -0.0929 -0.6455 -1.4512
  667MPD2    H3 9928   3.530   2.909  14.110  1.6459 -2.0287 -2.5206
  667MPD2     N 9929   3.650   2.599  14.396  0.4243 -0.7464 -0.7006
  667MPD2    H5 9930   3.590   2.537  14.343 -3.1904  0.4019  2.0938
  667MPD2    N1 9931   3.755   3.060  14.478 -0.1510 -0.0597 -0.0867
  667MPD2    H7 9932   3.776   3.021  14.570  0.5594 -1.1318 -0.6997
  668TMC3    C1 9933   3.778   3.269  14.586  0.1583  0.4132 -0.0545
  668TMC3    C2 9934   3.823   3.399  14.577 -0.0625  1.1257 -0.4850
  668TMC3    C3 9935   3.823   3.467  14.695 -0.2984 -0.0389  0.4382
  668TMC3    C4 9936   3.744   3.214  14.707  0.0819 -0.5217 -0.1871
  668TMC3    C5 9937   3.736   3.290  14.818 -0.5379 -0.7312 -0.1617
  668TMC3    C6 9938   3.784   3.413  14.816  0.0423 -0.2476 -0.1737
  668TMC3     C 9939   3.774   3.194  14.458 -0.5021  0.3138  0.2971
  668TMC3     O 9940   3.773   3.255  14.351  0.0232  0.1371  0.1565
  668TMC3     H 9941   3.849   3.444  14.481  2.8155  1.2419  0.3454
  668TMC3    H1 9942   3.723   3.107  14.709 -0.4163 -0.4147  0.2403
  668TMC3    H2 9943   3.770   3.475  14.904  0.9165 -0.1641 -0.0880
  668TMC3    C7 9944   3.732   3.221  14.939 -0.4094 -0.1341  0.1506
  668TMC3    C8 9945   3.874   3.601  14.707  0.3187  0.1825 -0.3556
  668TMC3    O1 9946   3.789   3.281  15.030  0.4517 -0.2243 -0.3723
  668TMC3    O2 9947   3.813   3.677  14.778 -0.2836  0.0653  0.5625
  669TMC3    C1 9948   1.702   2.694  14.582 -0.1235 -0.1782  0.1703
  669TMC3    C2 9949   1.605   2.665  14.491 -0.1742  0.1029 -0.3011
  669TMC3    C3 9950   1.623   2.690  14.358 -0.1481 -0.0959 -0.2721
  669TMC3    C4 9951   1.808   2.769  14.548  0.4560 -0.3463  0.5696
  669TMC3    C5 9952   1.836   2.787  14.415 -0.4358  0.9093  0.7980
  669TMC3    C6 9953   1.740   2.756  14.319 -0.3772  0.8617  0.0255
  669TMC3     C 9954   1.698   2.628  14.717 -0.3465  0.1559 -0.6814
  669TMC3     O 9955   1.588   2.580  14.753 -0.1613  0.0062 -0.6312
  669TMC3     H 9956   1.506   2.639  14.525  0.1916 -0.4628  0.3323
  669TMC3    H1 9957   1.883   2.779  14.626 -1.7634  2.2122  2.3816
  669TMC3    H2 9958   1.756   2.784  14.216  2.3110 -0.2315  0.1428
  669TMC3    C7 9959   1.957   2.854  14.361  0.3970  0.6083  0.2052
  669TMC3    C8 9960   1.503   2.710  14.278 -0.2806 -0.4391  0.7376
  669TMC3    O1 9961   2.023   2.924  14.437 -0.0925 -0.7215  0.3342
  669TMC3    O2 9962   1.438   2.610  14.263  0.3293 -0.4865  0.0040
  670MPD2     C 9963   0.200   0.301  13.238  0.3851  0.1518  0.4013
  670MPD2    C1 9964   0.292   0.374  13.308  0.0759 -0.5168  0.7853
  670MPD2    C2 9965   0.251   0.440  13.424 -0.6838  0.0467 -1.0235
  670MPD2    C3 9966   0.117   0.434  13.461 -0.1458  0.5326  0.8884
  670MPD2    C4 9967   0.038   0.342  13.405  0.1503 -0.2154 -0.1874
  670MPD2    C5 9968   0.076   0.277  13.290  0.4720 -0.3668  0.4435
  670MPD2     H 9969   0.319   0.497  13.487  1.5709 -1.3269 -2.2448
  670MPD2    H1 9970   4.681   0.302  13.442 -1.4605  4.8536  1.1694
  670MPD2    H2 9971   0.222   0.241  13.150 -1.1889  2.7005 -1.7252
  670MPD2    H3 9972   0.011   0.208  13.238 -1.2856  1.7105 -0.1497
  670MPD2     N 9973   0.077   0.494  13.581  0.3190  0.1413  0.2380
  670MPD2    H5 9974   0.153   0.539  13.632  0.1727 -1.0204  1.4764
  670MPD2    N1 9975   0.423   0.400  13.265  0.1169  0.0724 -0.0371
  670MPD2    H7 9976   0.486   0.462  13.315  1.3181 -0.9233 -0.3253
  671TMC3    C1 9977   4.654   0.549  13.743  0.1338 -0.2722  0.1637
  671TMC3    C2 9978   0.020   0.535  13.827  0.0848  0.2406 -0.1328
  671TMC3    C3 9979   4.725   0.511  13.960  0.0210  0.5368  0.0300
  671TMC3    C4 9980   4.525   0.523  13.782  0.1699 -0.6114  0.7292
  671TMC3    C5 9981   4.500   0.473  13.906 -1.3462 -0.3932 -0.9259
  671TMC3    C6 9982   4.603   0.476  14.001  0.5223  0.4171  0.3262
  671TMC3     C 9983   4.682   0.531  13.606 -0.5093 -0.8680 -0.0546
  671TMC3     O 9984   4.585   0.521  13.539 -0.3270 -0.2155 -0.2153
  671TMC3     H 9985   0.122   0.565  13.805  0.4209 -0.8786 -0.1201
  671TMC3    H1 9986   4.445   0.534  13.710  1.4238 -0.1536 -0.6017
  671TMC3    H2 9987   4.566   0.451  14.100 -0.0809 -0.4072 -0.1004
  671TMC3    C7 9988   4.448   0.336  13.884  0.5628 -0.0903  0.1544
  671TMC3    C8 9989   0.111   0.472  14.033  0.0053  0.0923  0.2579
  671TMC3    O1 9990   4.479   0.283  13.779  0.8287  0.3513  0.5401
  671TMC3    O2 9991   0.217   0.472  13.976 -0.0063  0.2737 -0.8734
  672MPD2     C 9992   0.982   1.574   0.276  0.5628 -0.8247  0.9179
  672MPD2    C1 9993   1.096   1.500   0.299 -0.0714  0.4475  0.0731
  672MPD2    C2 9994   1.216   1.562   0.329  0.1990  0.0031  0.0788
  672MPD2    C3 9995   1.230   1.699   0.330 -0.1920  0.2504  0.0920
  672MPD2    C4 9996   1.111   1.771   0.318 -0.0903 -0.0587 -0.1510
  672MPD2    C5 9997   0.992   1.713   0.292  0.6836  0.1894 -0.1654
  672MPD2     H 9998   1.305   1.501   0.337 -0.3840 -0.8773 -0.1369
  672MPD2    H1 9999   1.107   1.879   0.324  0.3074  0.0030 -0.9042
  672MPD2    H210000   0.887   1.531   0.246 -0.4151  0.4429  2.1915
  672MPD2    H310001   0.906   1.779   0.285 -1.6095 -2.9395 -1.2304
  672MPD2     N10002   1.345   1.767   0.353 -0.0594 -0.2414  0.4071
  672MPD2    H510003   1.332   1.868   0.348 -0.4281 -0.3548 -0.7750
  672MPD2    N110004   1.080   1.362   0.296  0.2992  0.2292 -0.5566
  672MPD2    H710005   0.999   1.321   0.250  0.9621  0.1138 -1.6321
  673TMC3    C110006   1.130   1.133   0.328 -1.0995 -0.6043 -0.3429
  673TMC3    C210007   1.221   1.031   0.334 -0.6398 -0.0478 -0.0781
  673TMC3    C310008   1.169   0.903   0.339 -0.3379 -0.2338 -0.4554
  673TMC3    C410009   0.995   1.112   0.332 -0.3616 -0.2090 -0.3989
  673TMC3    C510010   0.946   0.980   0.348 -0.9402  0.2089 -0.0592
  673TMC3    C610011   1.038   0.875   0.344 -0.4050 -0.2831  0.1572
  673TMC3     C10012   1.176   1.273   0.336 -0.0742 -0.1330  0.1611
  673TMC3     O10013   1.277   1.286   0.401 -0.6456 -0.2281 -0.0106
  673TMC3     H10014   1.325   1.063   0.333 -1.1188  1.4884 -0.0084
  673TMC3    H110015   0.932   1.200   0.343 -0.2015 -0.3349  1.5691
  673TMC3    H210016   1.010   0.770   0.350 -0.7200 -0.2368 -0.6617
  673TMC3    C710017   0.808   0.958   0.368 -0.3379  0.0177  0.5516
  673TMC3    C810018   1.260   0.793   0.365  0.2521  1.1666 -0.6084
  673TMC3    O110019   0.776   0.856   0.423  0.6580  0.2278  0.4972
  673TMC3    O210020   1.215   0.678   0.363  0.0579 -0.0131  0.1688
  674MPD2     C10021   0.742   4.641   0.093 -0.0617 -0.2002  0.6349
  674MPD2    C110022   0.678   4.733   0.024 -0.3683  0.0943 -0.2523
  674MPD2    C210023   0.627   0.108   0.088 -1.2618 -0.0442  0.0180
  674MPD2    C310024   0.635   0.124   0.222 -0.4498  0.6428 -0.6624
  674MPD2    C410025   0.718   0.036   0.291  1.2823 -0.0046 -0.5415
  674MPD2    C510026   0.770   4.662   0.230 -0.0849 -0.5884  0.6090
  674MPD2     H10027   0.542   0.162   0.048 -0.4343 -0.3764 -2.1945
  674MPD2    H110028   0.743   0.042   0.397 -0.3165  0.3318 -0.1748
  674MPD2    H210029   0.766   4.550   0.039  2.4466  0.5651  0.4868
  674MPD2    H310030   0.822   4.582   0.280 -0.9979 -1.4073  0.2417
  674MPD2     N10031   0.550   0.222   0.281  0.0338  0.7296 -0.3750
  674MPD2    H510032   0.496   0.283   0.221 -0.0574  1.9293  0.9278
  674MPD2    N110033   0.633   4.694  17.640  0.2886  0.1663  0.3507
  674MPD2    H710034   0.631   4.595  17.618 -2.3235  0.4022 -0.4326
  675TMC3    C110035   0.516   4.712  17.446 -0.3420  0.4264 -0.1376
  675TMC3    C210036   0.386   4.730  17.444 -0.2693  0.1270 -0.0200
  675TMC3    C310037   0.300   4.632  17.418  0.0567 -0.2411  0.9794
  675TMC3    C410038   0.564   4.582  17.414 -1.1054 -0.4712  0.2010
  675TMC3    C510039   0.477   4.488  17.374  0.2162 -0.3336  0.1627
  675TMC3    C610040   0.345   4.509  17.386 -0.5794 -0.1325 -0.0141
  675TMC3     C10041   0.581   0.042  17.551  0.9510  0.6590  0.8300
  675TMC3     O10042   0.577   0.165  17.554 -0.4548  0.2217  0.3541
  675TMC3     H10043   0.342   0.092  17.443  0.8257  0.6162  0.0987
  675TMC3    H110044   0.669   4.557  17.413 -1.2498 -1.0667 -0.2044
  675TMC3    H210045   0.273   4.430  17.374  0.5942 -1.3989  1.3279
  675TMC3    C710046   0.520   4.380  17.290  0.5689 -0.0562 -0.5620
  675TMC3    C810047   0.168   4.651  17.478 -0.4342 -0.3125 -0.3013
  675TMC3    O110048   0.441   4.288  17.278 -0.4216 -0.1396 -0.2748
  675TMC3    O210049   0.066   4.659  17.410  0.9115 -0.2690 -0.7994
  676MPD2     C10050   2.999   3.823  11.354 -0.7510  0.5422  0.3073
  676MPD2    C110051   2.865   3.794  11.336  0.3778  0.8941 -0.2107
  676MPD2    C210052   2.832   3.691  11.251  0.2208 -0.0324 -0.3236
  676MPD2    C310053   2.924   3.613  11.182  0.0550 -0.2617 -0.4747
  676MPD2    C410054   3.059   3.646  11.207 -0.2085 -0.6633 -0.6208
  676MPD2    C510055   3.091   3.749  11.285 -0.1391 -0.5920  0.4609
  676MPD2     H10056   2.726   3.673  11.238  0.9135 -1.6425 -3.6573
  676MPD2    H110057   3.141   3.591  11.161  1.4202  0.1472  1.3252
  676MPD2    H210058   3.032   3.895  11.428 -0.8312  1.3638 -0.4681
  676MPD2    H310059   3.194   3.776  11.305  0.1680  0.3659 -2.4047
  676MPD2     N10060   2.901   3.493  11.109 -0.3405  0.4434  0.1743
  676MPD2    H510061   2.981   3.442  11.074  0.3000  2.1387 -0.8198
  676MPD2    N110062   2.761   3.853  11.414  0.0936 -0.5926  0.9257
  676MPD2    H710063   2.667   3.817  11.398  0.8876 -2.6209  0.9381
  677TMC3    C110064   2.641   3.999  11.559 -0.2088 -0.1130  0.7093
  677TMC3    C210065   2.531   3.914  11.572  0.4649 -0.1288 -0.4813
  677TMC3    C310066   2.421   3.960  11.642 -0.5151  0.1453  0.5030
  677TMC3    C410067   2.627   4.135  11.591  0.3503  0.3748  0.0645
  677TMC3    C510068   2.527   4.177  11.664 -0.3320 -1.1029 -0.4682
  677TMC3    C610069   2.419   4.098  11.677  0.2138 -0.2368 -0.0462
  677TMC3     C10070   2.771   3.959  11.502  0.0241  0.0571  0.2270
  677TMC3     O10071   2.868   4.034  11.514  0.2685  0.2589  0.7403
  677TMC3     H10072   2.534   3.814  11.528 -3.8018 -0.7290  0.5675
  677TMC3    H110073   2.709   4.202  11.570 -0.1210  0.8802 -0.1586
  677TMC3    H210074   2.330   4.135  11.727 -0.5227 -0.0283 -1.5253
  677TMC3    C710075   2.543   4.268  11.780  0.2223 -0.0288 -0.0267
  677TMC3    C810076   2.300   3.873  11.665  0.4500  0.2494 -0.4218
  677TMC3    O110077   2.457   4.264  11.869 -0.2640  0.5540  0.3912
  677TMC3    O210078   2.243   3.835  11.562  0.2729  0.1108  0.3573
  678MPD2     C10079   4.162   4.307   1.156 -0.0782  0.1014  0.8122
  678MPD2    C110080   4.216   4.200   1.089 -0.5115 -0.3176 -0.1764
  678MPD2    C210081   4.123   4.097   1.070  0.3742  0.1315  0.3614
  678MPD2    C310082   3.989   4.115   1.080  0.5112  0.0387  0.5016
  678MPD2    C410083   3.941   4.233   1.123 -0.3027  0.5543 -0.3031
  678MPD2    C510084   4.023   4.318   1.171  0.3490  0.1201 -0.1305
  678MPD2     H10085   4.159   4.001   1.035 -0.5770 -1.1583  2.9337
  678MPD2    H110086   3.835   4.255   1.122  0.3869  3.8162 -1.9246
  678MPD2    H210087   4.225   4.381   1.204  0.4301  0.8025 -0.9377
  678MPD2    H310088   3.986   4.404   1.225 -0.0580 -0.0007 -0.2186
  678MPD2     N10089   3.908   4.008   1.032 -0.1617  0.8789 -0.8470
  678MPD2    H510090   3.949   3.920   1.002 -0.6513  0.1205  0.6737
  678MPD2    N110091   4.352   4.170   1.078  0.7364  0.0577 -0.2470
  678MPD2    H710092   4.370   4.089   1.020  1.2823 -0.0786  0.1113
  679TMC3    C110093   4.726   4.070   0.947  0.2449 -0.2586  0.6870
  679TMC3    C210094   4.608   4.096   1.009 -0.3628 -0.7820 -0.6224
  679TMC3    C310095   4.579   4.226   1.040  0.1916  1.1106 -0.3248
  679TMC3    C410096   0.079   4.168   0.916 -0.0999  0.6680 -0.5167
  679TMC3    C510097   0.053   4.299   0.955 -0.0182 -0.0851 -0.3078
  679TMC3    C610098   4.668   4.326   1.011  0.3306  0.5672 -0.9018
  679TMC3     C10099   0.028   3.933   0.902  0.2649 -0.0054  0.5435
  679TMC3     O10100   0.133   3.911   0.840  0.1481 -0.6241 -0.7291
  679TMC3     H10101   4.550   4.019   1.061 -2.7977  1.1015 -0.5318
  679TMC3    H110102   0.171   4.143   0.863  0.2079  0.5546  0.0774
  679TMC3    H210103   4.640   4.430   1.023  0.2294  0.3590  0.7269
  679TMC3    C710104   0.117   4.408   0.887  0.4542  0.0102  0.4698
  679TMC3    C810105   4.451   4.258   1.101  0.1037 -0.0516  0.0519
  679TMC3    O110106   0.043   4.504   0.862 -0.2941 -0.4864  0.5351
  679TMC3    O210107   4.438   4.377   1.131 -0.0894  0.1878 -0.7353
  680MPD2     C10108   4.001   2.419  13.765 -0.0688 -0.1123  0.9807
  680MPD2    C110109   4.092   2.433  13.863 -0.0392  0.3158  0.0013
  680MPD2    C210110   4.182   2.538  13.851  0.1438 -1.0702  0.5287
  680MPD2    C310111   4.181   2.624  13.748 -0.7631  0.8602 -0.4899
  680MPD2    C410112   4.080   2.617  13.659 -0.0846  0.3366  0.0467
  680MPD2    C510113   3.999   2.507  13.666 -0.0393  0.0507  0.0399
  680MPD2     H10114   4.261   2.544  13.925 -1.2800  1.1629  1.8595
  680MPD2    H110115   4.074   2.681  13.572  1.3255 -1.1267 -1.1367
  680MPD2    H210116   3.928   2.339  13.767 -0.1755  0.0372  2.9393
  680MPD2    H310117   3.915   2.487  13.601 -2.1908  1.2877  2.4195
  680MPD2     N10118   4.276   2.728  13.723  0.3676 -0.1156  0.4432
  680MPD2    H510119   4.245   2.786  13.646  1.3335 -0.3390 -0.1145
  680MPD2    N110120   4.109   2.347  13.970  0.3873  0.3067 -0.2324
  680MPD2    H710121   4.191   2.362  14.029 -1.6929 -2.2598  3.3062
  681TMC3    C110122   4.125   2.148  14.086  0.2915  0.0042  0.0974
  681TMC3    C210123   4.171   2.228  14.184 -0.5404  0.3066 -0.1131
  681TMC3    C310124   4.283   2.191  14.252 -0.0758 -0.1703  0.4162
  681TMC3    C410125   4.204   2.045  14.042  0.1602  0.5886 -0.3038
  681TMC3    C510126   4.315   2.008  14.106  0.1681  0.0958  0.3077
  681TMC3    C610127   4.359   2.081  14.218 -0.6275  0.6170  0.1732
  681TMC3     C10128   4.052   2.223  13.984 -0.5564 -0.5575  0.9087
  681TMC3     O10129   3.986   2.156  13.906  0.4949  0.0692 -0.0498
  681TMC3     H10130   4.111   2.311  14.219 -0.1220  0.9317 -0.8717
  681TMC3    H110131   4.168   1.993  13.954  2.8722  1.4695 -1.9310
  681TMC3    H210132   4.453   2.067  14.270 -1.3361 -3.9577  0.1918
  681TMC3    C710133   4.428   1.948  14.036 -0.0690 -0.1519  0.3981
  681TMC3    C810134   4.339   2.290  14.342 -0.3067  0.4047  0.4285
  681TMC3    O110135   4.527   1.931  14.106 -0.1306  0.2395 -0.2489
  681TMC3    O210136   4.257   2.373  14.385 -0.3518 -0.5862 -0.3657
  682MPD2     C10137   1.997   4.020  10.544  0.6335  0.3350 -0.4733
  682MPD2    C110138   1.923   3.908  10.564  0.7413 -0.1310  0.4637
  682MPD2    C210139   1.876   3.878  10.688 -0.8908 -0.2089  0.8574
  682MPD2    C310140   1.906   3.958  10.798 -0.2310  0.0115  0.1687
  682MPD2    C410141   1.972   4.073  10.780 -0.3618  0.5274 -0.2823
  682MPD2    C510142   2.016   4.100  10.653  0.0722 -0.5728 -0.2303
  682MPD2     H10143   1.820   3.787  10.707  1.3885 -1.6021  0.9997
  682MPD2    H110144   2.005   4.139  10.859  1.6639 -1.0821  0.2362
  682MPD2    H210145   2.036   4.051  10.448  0.4658  0.7402 -0.4088
  682MPD2    H310146   2.072   4.193  10.652 -0.4696 -0.2479 -0.7136
  682MPD2     N10147   1.867   3.934  10.930  0.6125 -0.5949 -0.2610
  682MPD2    H510148   1.888   4.000  11.004  0.1165  0.2451 -0.8658
  682MPD2    N110149   1.863   3.832  10.465  0.6245 -0.8691 -0.3166
  682MPD2    H710150   1.801   3.758  10.494 -0.7253 -0.0234 -1.0342
  683TMC3    C110151   1.803   3.885  11.341 -0.2755  0.6274 -0.4053
  683TMC3    C210152   1.707   3.799  11.380 -0.1795 -0.0535  0.2541
  683TMC3    C310153   1.644   3.730  11.278 -0.2950  0.5154 -0.1087
  683TMC3    C410154   1.836   3.903  11.215  0.5181 -0.2820  0.3717
  683TMC3    C510155   1.776   3.825  11.119  0.2687 -0.1430  0.9207
  683TMC3    C610156   1.673   3.740  11.144  0.1484  0.2602  0.3617
  683TMC3     C10157   1.897   3.934  11.447 -0.4409 -0.0472 -0.2102
  683TMC3     O10158   1.967   4.029  11.420 -0.0990  0.1361  0.0592
  683TMC3     H10159   1.691   3.776  11.485  1.7405 -0.1494  0.5364
  683TMC3    H110160   1.924   3.961  11.187  0.2576  0.6070  1.3925
  683TMC3    H210161   1.624   3.680  11.068 -0.5805  1.2974  0.0094
  683TMC3    C710162   1.808   3.823  10.979 -1.2820  0.7126 -0.5460
  683TMC3    C810163   1.511   3.686  11.312  0.6828  0.2705 -0.1265
  683TMC3    O110164   1.803   3.714  10.921  0.1644  0.3061 -0.2288
  683TMC3    O210165   1.473   3.715  11.425 -0.0583 -0.7269 -0.1344
  684MPD2     C10166   0.109   3.542  16.196  0.8301  0.6145 -0.0740
  684MPD2    C110167   0.094   3.566  16.062  0.1188  1.4296 -0.4874
  684MPD2    C210168   0.090   3.696  16.015  0.0528 -0.2426  0.5137
  684MPD2    C310169   0.115   3.798  16.096  0.2700 -0.3495  0.4842
  684MPD2    C410170   0.143   3.776  16.225  0.2517  1.0383  0.4515
  684MPD2    C510171   0.141   3.649  16.284 -0.4555  0.0809 -0.0979
  684MPD2     H10172   0.071   3.712  15.910  0.3728  0.2536  0.5333
  684MPD2    H110173   0.166   3.857  16.294  0.8295 -0.7337  2.3499
  684MPD2    H210174   0.135   3.445  16.237 -1.1228  1.2104  2.5565
  684MPD2    H310175   0.173   3.634  16.386 -0.3062 -1.5522 -0.3909
  684MPD2     N10176   0.096   3.930  16.048 -0.5117  0.6969 -0.6215
  684MPD2    H510177   0.114   4.003  16.116  0.1069  1.1859 -1.3106
  684MPD2    N110178   0.064   3.472  15.963  0.2152 -0.2059  0.1352
  684MPD2    H710179   0.065   3.495  15.864 -1.1660 -0.4292  0.0682
  685TMC3    C110180   0.072   3.277  15.854 -0.9022  0.4982  0.3078
  685TMC3    C210181   4.707   3.327  15.771  1.1304  0.5573 -0.3323
  685TMC3    C310182   4.700   3.278  15.642 -0.4734  0.7670 -0.4811
  685TMC3    C410183   0.166   3.193  15.810 -0.4579  0.1420 -0.5229
  685TMC3    C510184   0.157   3.156  15.676  0.8165 -0.3910  0.0605
  685TMC3    C610185   0.066   3.211  15.585  0.2814  0.2864  0.7230
  685TMC3     C10186   0.087   3.340  15.981 -0.2898  0.3751  0.2345
  685TMC3     O10187   0.135   3.284  16.077 -0.4832 -0.0462  0.0636
  685TMC3     H10188   4.639   3.391  15.826 -0.3514 -1.4664  0.1859
  685TMC3    H110189   0.248   3.174  15.878 -0.2286 -0.2755 -0.9138
  685TMC3    H210190   0.043   3.164  15.491  3.1932  0.0458  0.1632
  685TMC3    C710191   0.267   3.088  15.612  0.4068  0.1711 -0.3257
  685TMC3    C810192   4.598   3.342  15.557 -0.6420  0.2831 -0.0659
  685TMC3    O110193   0.299   3.103  15.494 -0.2411  0.7210 -0.9235
  685TMC3    O210194   4.607   3.319  15.436 -0.5516 -0.2528 -0.3395
  686MPD2     C10195   1.406   3.462  15.096  0.2906 -0.8946 -0.0974
  686MPD2    C110196   1.479   3.367  15.160 -0.4793  0.4568  0.7976
  686MPD2    C210197   1.524   3.268  15.081 -0.1175 -0.1736 -0.1669
  686MPD2    C310198   1.499   3.261  14.946 -0.5391  0.1961 -0.1842
  686MPD2    C410199   1.432   3.360  14.887  0.6267 -1.3143 -0.4755
  686MPD2    C510200   1.374   3.452  14.963 -0.0829  0.4172  0.0246
  686MPD2     H10201   1.593   3.197  15.124  0.1652 -0.3922 -0.9880
  686MPD2    H110202   1.414   3.350  14.781  0.6089 -2.3814 -0.3803
  686MPD2    H210203   1.368   3.542  15.158  1.1908  0.3701 -1.1782
  686MPD2    H310204   1.321   3.537  14.920  2.3477  0.5641 -2.6396
  686MPD2     N10205   1.536   3.157  14.854 -0.4607 -0.4983 -0.1338
  686MPD2    H510206   1.532   3.188  14.757 -1.2905  2.9767  1.0149
  686MPD2    N110207   1.487   3.376  15.304 -0.5904 -0.3856  0.0828
  686MPD2    H710208   1.415   3.428  15.352  0.3702  2.0601 -1.1291
  687TMC3    C110209   1.590   2.968  14.994 -0.1675  0.7702 -0.1667
  687TMC3    C210210   1.478   2.967  15.074  0.1071 -0.0805  0.2966
  687TMC3    C310211   1.490   2.898  15.195 -0.4976 -0.3702  0.2214
  687TMC3    C410212   1.703   2.894  15.024  0.1029 -0.6572  0.0756
  687TMC3    C510213   1.710   2.824  15.142 -0.0923  0.0009  0.0922
  687TMC3    C610214   1.599   2.820  15.219 -0.0475 -0.1454 -0.0074
  687TMC3     C10215   1.588   3.034  14.872 -0.2136  0.0617 -0.0227
  687TMC3     O10216   1.646   2.982  14.778 -0.1002 -0.4428 -0.3863
  687TMC3     H10217   1.388   3.023  15.052  1.2720  1.7367  0.2347
  687TMC3    H110218   1.790   2.911  14.962  0.1126  0.9929  0.5601
  687TMC3    H210219   1.585   2.768  15.314 -0.6585  2.4566  1.3312
  687TMC3    C710220   1.824   2.826  15.236  0.6535  0.1759 -0.1621
  687TMC3    C810221   1.406   2.929  15.308  0.5005 -0.5687  0.0933
  687TMC3    O110222   1.795   2.834  15.352 -0.0608  0.1721  0.7811
  687TMC3    O210223   1.394   2.837  15.389 -0.1255 -0.0293  0.5097
  688MPD2     C10224   0.926   2.328  17.226  0.6949  0.0972 -0.1097
  688MPD2    C110225   0.946   2.190  17.235 -0.7929  1.0918  0.7911
  688MPD2    C210226   1.045   2.136  17.156  0.2222 -0.0602  0.1838
  688MPD2    C310227   1.115   2.216  17.065  1.0014 -0.9062  0.0683
  688MPD2    C410228   1.091   2.355  17.060  0.1454 -0.2566  0.3595
  688MPD2    C510229   0.994   2.409  17.140  0.8905 -0.6248 -0.0595
  688MPD2     H10230   1.074   2.032  17.167  1.5526  0.2233 -0.5699
  688MPD2    H110231   1.156   2.418  17.001  0.0777  0.8541  1.4776
  688MPD2    H210232   0.855   2.375  17.293  1.5604 -1.9758  2.2745
  688MPD2    H310233   0.971   2.515  17.139  0.3859 -0.7323 -0.3265
  688MPD2     N10234   1.218   2.166  16.980 -0.0620 -0.5371  0.2420
  688MPD2    H510235   1.261   2.238  16.924  0.0213 -0.6933  0.1060
  688MPD2    N110236   0.866   2.108  17.321  0.0924 -0.4337  0.1317
  688MPD2    H710237   0.895   2.011  17.317 -1.3757 -0.8796  0.5232
  689TMC3    C110238   0.713   2.044  17.481  0.6095 -0.6949  0.0016
  689TMC3    C210239   0.655   2.088  17.599 -0.9276 -0.6258 -0.3683
  689TMC3    C310240   0.616   1.990  17.687 -0.7544 -0.4548 -0.3888
  689TMC3    C410241   0.731   1.914  17.445  0.0700 -0.1539 -0.4095
  689TMC3    C510242   0.689   1.823  17.539 -0.0479 -0.2696  0.2609
  689TMC3    C610243   0.637   1.859  17.660 -0.2152  1.2301 -0.8047
  689TMC3     C10244   0.761   2.151  17.397 -0.3137  0.4218 -0.3889
  689TMC3     O10245   0.700   2.255  17.405  0.1180 -0.2412  0.0045
  689TMC3     H10246   0.614   2.188  17.604  1.2296  0.3524 -2.1740
  689TMC3    H110247   0.772   1.892  17.348 -0.7237  1.5944 -1.1337
  689TMC3    H210248   0.600   1.774  17.716  2.0026 -1.2273 -2.9898
  689TMC3    C710249   0.741   1.692  17.526  0.8175 -0.2040  0.5826
  689TMC3    C810250   0.589   2.015   0.080 -0.1976  0.1381  0.0388
  689TMC3    O110251   0.777   1.632  17.626 -0.0279  0.2106  0.0760
  689TMC3    O210252   0.556   1.921   0.148  0.0655  0.2120  0.1913
  690MPD2     C10253   3.382   4.052  15.564 -0.1610  0.4734 -0.2448
  690MPD2    C110254   3.312   4.012  15.456  0.5855  0.7177 -0.1838
  690MPD2    C210255   3.370   4.032  15.333 -0.1011 -0.5514 -0.3464
  690MPD2    C310256   3.494   4.094  15.317  0.0751  0.0891  0.0632
  690MPD2    C410257   3.559   4.136  15.430 -0.0252 -0.0142  0.2045
  690MPD2    C510258   3.502   4.110  15.550  0.9879 -0.7760 -0.2476
  690MPD2     H10259   3.323   3.997  15.242 -1.5445 -4.0113  1.7208
  690MPD2    H110260   3.661   4.170  15.438 -0.1310  0.4135 -0.2497
  690MPD2    H210261   3.347   4.031  15.665  3.0270  0.7735  0.9169
  690MPD2    H310262   3.559   4.137  15.638  0.6970  0.6429 -0.4903
  690MPD2     N10263   3.554   4.091  15.190 -0.0871  0.3893 -0.3098
  690MPD2    H510264   3.503   4.053  15.111 -1.0193  0.0164  0.4694
  690MPD2    N110265   3.185   3.945  15.463  0.1396 -0.1599  0.1050
  690MPD2    H710266   3.133   3.942  15.376  2.9295  1.2972 -1.6192
  691TMC3    C110267   3.043   3.777  15.545 -0.2052 -0.1483  0.0791
  691TMC3    C210268   2.933   3.832  15.479 -0.4813  0.1648  0.3567
  691TMC3    C310269   2.836   3.748  15.449  0.0292  0.2017  0.1258
  691TMC3    C410270   3.059   3.643  15.567  0.2368 -0.0501 -0.0827
  691TMC3    C510271   2.959   3.558  15.528 -0.4717 -0.1692 -1.3717
  691TMC3    C610272   2.844   3.611  15.467 -0.2769  0.2571  0.9996
  691TMC3     C10273   3.146   3.875  15.576  0.9053 -0.4255 -0.2355
  691TMC3     O10274   3.211   3.839  15.672 -0.2206 -0.7953 -0.3538
  691TMC3     H10275   2.919   3.938  15.459 -2.5123 -0.5965 -2.2933
  691TMC3    H110276   3.145   3.604  15.621  0.1888 -0.3602 -0.2267
  691TMC3    H210277   2.749   3.559  15.460  0.0781 -0.3229  0.4477
  691TMC3    C710278   2.963   3.415  15.542 -0.0204 -0.2735 -0.6035
  691TMC3    C810279   2.723   3.795  15.371  1.1030  0.2849 -0.6960
  691TMC3    O110280   3.056   3.365  15.609  0.0985 -0.3668  0.4219
  691TMC3    O210281   2.675   3.708  15.301  0.3423 -0.2944 -0.1341
  692TMC3    C110282   4.128   0.453  15.521 -0.1216  0.3402 -0.4999
  692TMC3    C210283   4.240   0.494  15.456 -0.1152 -0.5601 -0.0237
  692TMC3    C310284   4.350   0.408  15.461  0.4301  0.3071  0.3797
  692TMC3    C410285   4.101   0.328  15.559  0.6816 -0.2473 -0.1027
  692TMC3    C510286   4.212   0.247  15.564  0.4314 -0.4273  0.1735
  692TMC3    C610287   4.338   0.294  15.534  0.4277 -0.4317 -0.4046
  692TMC3     C10288   4.096   0.551  15.627 -0.4816  0.0328 -0.4486
  692TMC3     O10289   3.997   0.538  15.699  0.1206  0.1695 -0.4727
  692TMC3     H10290   4.235   0.583  15.394 -1.7314  1.1522  2.6112
  692TMC3    H110291   4.006   0.297  15.601  0.1266  2.8384  0.8604
  692TMC3    H210292   4.409   0.216  15.510 -0.4061 -1.0129 -0.9903
  692TMC3    C710293   4.185   0.106  15.567  1.0376 -0.3627  0.1047
  692TMC3    C810294   4.470   0.481  15.496 -1.2159 -0.3857 -0.6250
  692TMC3    O110295   4.084   0.073  15.512  0.6568 -0.0148 -0.2382
  692TMC3    O210296   4.484   0.590  15.453 -0.4369  0.4855 -0.5762
  693MPD2     C10297   3.905   3.321  10.848 -0.2469 -0.3499  0.2365
  693MPD2    C110298   3.875   3.233  10.943 -0.1453 -1.1205 -0.1809
  693MPD2    C210299   3.952   3.222  11.056 -0.2269 -0.1058  0.1215
  693MPD2    C310300   4.075   3.284  11.055 -0.0979  0.6790  0.2708
  693MPD2    C410301   4.114   3.350  10.940  0.1998 -0.8385 -0.3438
  693MPD2    C510302   4.027   3.377  10.838  0.6681  0.1413  0.1634
  693MPD2     H10303   3.917   3.161  11.138 -1.9883 -0.0555 -0.5766
  693MPD2    H110304   4.210   3.400  10.936 -0.5570  0.6273  0.0181
  693MPD2    H210305   3.845   3.334  10.759  0.9832 -0.8523 -0.6624
  693MPD2    H310306   4.061   3.448  10.764 -1.1330  0.9326  0.0827
  693MPD2     N10307   4.178   3.278  11.155 -0.0214 -0.6730 -0.1339
  693MPD2    H510308   4.268   3.323  11.144 -0.5528  0.3940 -0.0362
  693MPD2    N110309   3.744   3.184  10.938  0.4643 -0.7940 -0.0520
  693MPD2    H710310   3.676   3.225  10.875  1.7117  0.2864 -0.6781
  694TMC3    C110311   3.561   3.042  11.015 -0.3855  0.5492 -0.5677
  694TMC3    C210312   3.509   3.005  10.893 -0.4613  0.0778 -0.2867
  694TMC3    C310313   3.409   2.916  10.889  1.1007 -0.1938 -0.2773
  694TMC3    C410314   3.509   2.987  11.133 -0.6623  0.6084 -0.4212
  694TMC3    C510315   3.397   2.908  11.119  0.8130  0.2239  0.8238
  694TMC3    C610316   3.344   2.868  10.999  1.3280 -1.2646 -0.1393
  694TMC3     C10317   3.690   3.096  11.034  0.3198 -0.7404  0.0085
  694TMC3     O10318   3.752   3.024  11.116  0.3984 -0.4619  0.5588
  694TMC3     H10319   3.567   3.037  10.808 -0.1131  0.1477 -0.0249
  694TMC3    H110320   3.557   3.003  11.229 -1.4447 -1.4201  0.3039
  694TMC3    H210321   3.261   2.799  10.991  2.1417 -2.4124  1.2805
  694TMC3    C710322   3.328   2.861  11.244 -1.0267 -0.2326 -0.1516
  694TMC3    C810323   3.331   2.895  10.770 -0.1918 -0.3320 -0.5681
  694TMC3    O110324   3.368   2.915  11.347 -0.0733 -0.5600  0.0362
  694TMC3    O210325   3.287   2.781  10.763 -0.1434 -0.0881  0.0532
  695MPD2     C10326   0.297   4.722  13.352  0.0774  0.6047  0.2119
  695MPD2    C110327   0.244   4.722  13.477 -0.1251  0.0238 -0.7476
  695MPD2    C210328   0.109   4.719  13.494 -0.1455  0.0533  0.6018
  695MPD2    C310329   0.019   4.719  13.389 -0.5658  0.0326  0.7043
  695MPD2    C410330   0.070   4.714  13.258 -0.0116  0.0401  0.0775
  695MPD2    C510331   0.208   4.708  13.247  0.7546 -0.1381  0.0050
  695MPD2     H10332   0.073   4.709  13.596 -0.3992 -1.2769  0.3835
  695MPD2    H110333   0.004   4.701  13.174  0.9002 -0.7912 -0.5104
  695MPD2    H210334   0.400   0.006  13.323  0.0004  0.6453 -0.0353
  695MPD2    H310335   0.243   4.710  13.145 -2.2976 -0.1305 -1.0667
  695MPD2     N10336   4.617   4.736  13.420 -0.4962 -0.3807  0.7850
  695MPD2    H510337   4.602   0.012  13.520  1.2429  0.0840  0.9906
  695MPD2    N110338   0.326   4.725  13.597 -0.5175 -0.1295  0.1152
  695MPD2    H710339   0.277   0.018  13.681 -2.6541 -0.2276 -1.1149
  696TMC3    C110340   4.388   4.670  13.393 -0.4729 -0.5653  0.2524
  696TMC3    C210341   4.405   4.593  13.510 -0.3471 -0.3455 -0.1087
  696TMC3    C310342   4.298   4.564  13.578  0.2017  1.1158 -0.4264
  696TMC3    C410343   4.267   4.708  13.350 -0.7592 -0.1763 -0.2177
  696TMC3    C510344   4.157   4.670  13.424 -0.1197 -0.1408 -0.0209
  696TMC3    C610345   4.173   4.599  13.539  0.3743  0.0787 -0.4917
  696TMC3     C10346   4.510   4.723  13.331  0.3968 -0.1031  0.6035
  696TMC3     O10347   4.510   4.704  13.208 -0.4951 -0.2794 -0.4676
  696TMC3     H10348   4.498   4.542  13.533 -1.6205 -2.6769 -0.0886
  696TMC3    H110349   4.256   0.042  13.268  0.9676  1.7959  1.2614
  696TMC3    H210350   4.087   4.582  13.603 -0.1938  2.2334 -0.6646
  696TMC3    C710351   4.044   0.027  13.439  0.3331  0.2158 -0.7984
  696TMC3    C810352   4.326   4.595  13.717  0.4922 -0.0859 -0.0288
  696TMC3    O110353   3.932   4.714  13.430 -0.2626  0.1552  0.0127
  696TMC3    O210354   4.438   4.626  13.751  0.4185  0.2668  0.2234
  697MPD2     C10355   4.210   1.791  15.644 -0.1381 -0.9238  0.1168
  697MPD2    C110356   4.135   1.797  15.529  0.0434 -0.0553 -0.1154
  697MPD2    C210357   4.138   1.911  15.456  0.0022  0.2203  0.4999
  697MPD2    C310358   4.214   2.019  15.491 -0.1068 -0.2474 -0.5465
  697MPD2    C410359   4.293   2.016  15.606  0.1792 -0.4249  0.9707
  697MPD2    C510360   4.289   1.896  15.679  0.4453 -0.3481 -0.8624
  697MPD2     H10361   4.075   1.916  15.368 -1.2937 -0.4972  1.3838
  697MPD2    H110362   4.362   2.093  15.639 -0.2174 -0.6760  2.3853
  697MPD2    H210363   4.218   1.697  15.696  1.2090 -0.9094 -0.0843
  697MPD2    H310364   4.354   1.881  15.764  0.1616 -2.6841 -1.0324
  697MPD2     N10365   4.205   2.136  15.411 -0.3006 -0.7145  0.0281
  697MPD2    H510366   4.162   2.130  15.319  3.0730 -1.0752 -1.5292
  697MPD2    N110367   4.075   1.678  15.483 -0.3081 -0.1447  0.4558
  697MPD2    H710368   4.075   1.596  15.543 -0.9340 -0.0712  0.5600
  698TMC3    C110369   4.278   2.329  15.318  0.4706 -0.3377 -0.4423
  698TMC3    C210370   4.351   2.446  15.326  0.1753 -0.5226 -0.2993
  698TMC3    C310371   4.414   2.496  15.217 -0.2388  0.1794 -0.7304
  698TMC3    C410372   4.250   2.278  15.198  0.1266  0.4385 -0.0350
  698TMC3    C510373   4.321   2.326  15.086  1.1516  0.4927 -0.0673
  698TMC3    C610374   4.401   2.433  15.092  0.4067 -0.4997  0.4391
  698TMC3     C10375   4.262   2.252  15.440  0.2951  0.2393  0.4436
  698TMC3     O10376   4.299   2.294  15.550  0.4697  0.2154  1.0367
  698TMC3     H10377   4.371   2.476  15.429  2.6243 -1.6700 -0.4474
  698TMC3    H110378   4.196   2.187  15.180  0.9727 -0.6731  2.9796
  698TMC3    H210379   4.447   2.465  14.999  1.7589 -1.5057  0.7591
  698TMC3    C710380   4.310   2.247  14.958  0.7093  0.1308 -0.2397
  698TMC3    C810381   4.544   2.537  15.250  0.3915  0.0652  0.4694
  698TMC3    O110382   4.206   2.189  14.939 -0.0816 -0.3524 -0.1595
  698TMC3    O210383   4.568   2.512  15.370 -0.0897 -0.5241  0.3456
  699TMC3    C110384   4.332   4.596  12.851 -0.1589 -0.0514  0.3613
  699TMC3    C210385   4.402   4.531  12.951 -0.0200  0.0132  0.0099
  699TMC3    C310386   4.322   4.458  13.036  0.0588 -0.3006  1.0013
  699TMC3    C410387   4.200   4.589  12.826  0.1636 -0.8440  0.0920
  699TMC3    C510388   4.132   4.504  12.907  0.5729  0.4565  0.4518
  699TMC3    C610389   4.188   4.449  13.015 -0.4460  0.1449  0.5796
  699TMC3     C10390   4.383   4.729  12.823 -0.1002  0.4235  0.8048
  699TMC3     O10391   4.333   0.039  12.722  0.4790  0.6972 -0.2058
  699TMC3     H10392   4.510   4.535  12.958 -0.1163  0.3594  1.2157
  699TMC3    H110393   4.147   4.664  12.768  2.1051  0.9766  0.6516
  699TMC3    H210394   4.124   4.383  13.073  1.4067 -2.6091 -0.5063
  699TMC3    C710395   3.989   4.537  12.933  0.0947 -0.2812 -0.1947
  699TMC3    C810396   4.373   4.386  13.158  0.6526  0.2201 -0.0637
  699TMC3    O110397   3.968   4.585  13.043 -0.1899 -0.1109 -0.0857
  699TMC3    O210398   4.276   4.340  13.222  0.7546  0.5885  0.8189
  700TMC3    C110399   3.808   2.361  17.678 -0.1349 -0.5612  0.0205
  700TMC3    C210400   3.830   2.233  17.642  0.2199  0.6344 -0.7969
  700TMC3    C310401   3.955   2.186  17.667  0.4738  0.1684  0.3693
  700TMC3    C410402   3.894   2.434   0.004 -0.1729  0.6702  0.0534
  700TMC3    C510403   4.012   2.381   0.041  0.4582 -0.4181  0.3377
  700TMC3    C610404   4.048   2.256  17.744 -0.0792 -0.1992 -0.4333
  700TMC3     C10405   3.706   2.436  17.603  0.0644  0.2594  0.0185
  700TMC3     O10406   3.611   2.372  17.562  0.1799 -0.5875 -0.3568
  700TMC3     H10407   3.760   2.183  17.577  1.2728  0.5492 -1.8588
  700TMC3    H110408   3.869   2.531   0.045 -1.3384  0.2491  0.3138
  700TMC3    H210409   4.132   2.203   0.041  2.2620  2.7290 -1.3093
  700TMC3    C710410   4.083   2.437   0.154 -0.4801  0.6660 -0.8510
  700TMC3    C810411   3.999   2.076  17.591 -0.3388 -0.4940  0.2507
  700TMC3    O110412   4.172   2.357   0.190 -0.6692  0.4772  0.3375
  700TMC3    O210413   3.924   1.989  17.551 -0.0496 -0.3623 -0.0660
  701TMC3    C110414   3.231   1.486  15.369 -0.0124 -0.8408 -0.3783
  701TMC3    C210415   3.263   1.438  15.247 -0.3959 -1.1468  0.3036
  701TMC3    C310416   3.389   1.455  15.190 -0.0463 -0.7543 -0.6882
  701TMC3    C410417   3.330   1.540  15.452 -0.3390  0.0418  0.2090
  701TMC3    C510418   3.460   1.545  15.399 -0.0934  0.4082  0.3072
  701TMC3    C610419   3.495   1.500  15.272 -0.4900  0.0264  0.6604
  701TMC3     C10420   3.096   1.446  15.425  0.1394 -0.5280  0.1102
  701TMC3     O10421   3.035   1.359  15.360 -0.5771  0.1921  0.2698
  701TMC3     H10422   3.186   1.384  15.193 -1.3915 -0.7656  1.3187
  701TMC3    H110423   3.308   1.586  15.547  0.9147  0.6011  0.2260
  701TMC3    H210424   3.592   1.522  15.229  0.0043 -2.4568  0.5092
  701TMC3    C710425   3.564   1.598  15.480 -0.8198 -0.0111  0.3608
  701TMC3    C810426   3.425   1.380  15.064 -0.0390  0.4852 -0.1812
  701TMC3    O110427   3.659   1.659  15.430  0.2665 -0.0145 -0.1304
  701TMC3    O210428   3.536   1.411  15.027  0.6822  0.2903  0.1612
  702MPD2     C10429   2.723   3.320  10.408 -0.0048  0.0284 -0.1007
  702MPD2    C110430   2.798   3.385  10.500 -0.6823  0.1848  0.1747
  702MPD2    C210431   2.862   3.500  10.456 -0.5453 -0.1215  0.6995
  702MPD2    C310432   2.834   3.551  10.330 -0.1019  0.9605  0.4541
  702MPD2    C410433   2.754   3.485  10.242  0.0370  0.3936  0.4728
  702MPD2    C510434   2.698   3.363  10.280 -0.0210  0.7975  0.4057
  702MPD2     H10435   2.907   3.559  10.535 -1.1934 -0.7335  1.5273
  702MPD2    H110436   2.729   3.521  10.143 -2.0587 -0.3751  0.7143
  702MPD2    H210437   2.661   3.237  10.441  0.7388  0.1255  1.5499
  702MPD2    H310438   2.632   3.299  10.222 -0.4804  2.1386 -0.5534
  702MPD2     N10439   2.874   3.682  10.288  0.4062 -0.1273  0.1410
  702MPD2    H510440   2.818   3.735  10.223  0.5712 -0.1620 -0.0307
  702MPD2    N110441   2.807   3.342  10.633  0.8483 -0.3964 -0.1723
  702MPD2    H710442   2.842   3.407  10.703  2.2348 -0.6616 -0.6195
  703TMC3    C110443   2.968   3.897  10.312 -0.0800  0.3599  0.0448
  703TMC3    C210444   2.852   3.965  10.322  0.8708 -0.0220 -0.5837
  703TMC3    C310445   2.859   4.097  10.328 -0.2804 -0.4420  0.1936
  703TMC3    C410446   3.095   3.946  10.323 -0.2390 -1.0767  0.8219
  703TMC3    C510447   3.097   4.078  10.318  0.0838  1.1004  0.9503
  703TMC3    C610448   2.981   4.159  10.317  0.3975  0.3872  0.4935
  703TMC3     C10449   2.978   3.755  10.340 -0.3208  0.0687  0.2757
  703TMC3     O10450   3.055   3.723  10.429 -0.4256 -0.2426  0.5324
  703TMC3     H10451   2.760   3.913  10.298  0.8169 -1.0342  1.7864
  703TMC3    H110452   3.182   3.882  10.328  0.4644 -0.2264 -0.5669
  703TMC3    H210453   2.979   4.266  10.338 -3.0350  0.1244  1.3678
  703TMC3    C710454   3.225   4.146  10.320  0.2234  0.2871 -0.6026
  703TMC3    C810455   2.747   4.172  10.379 -0.1794 -0.3167 -0.0223
  703TMC3    O110456   3.233   4.253  10.261 -0.4020 -0.5138  0.3035
  703TMC3    O210457   2.740   4.294  10.353  0.0423 -0.1658 -0.5956
  704TMC3    C110458   0.357   1.298  12.883 -0.4312 -0.0976 -0.4779
  704TMC3    C210459   0.454   1.364  12.805 -0.2467  0.1331  0.2003
  704TMC3    C310460   0.576   1.302  12.803 -0.4236  0.2686  0.3032
  704TMC3    C410461   0.383   1.189  12.951 -0.0637 -0.1429 -0.0238
  704TMC3    C510462   0.506   1.135  12.947 -0.3057 -0.7021 -0.0085
  704TMC3    C610463   0.613   1.194  12.874  0.0536  0.2450 -0.1023
  704TMC3     C10464   0.225   1.304  12.822  0.4597 -0.3552 -0.2688
  704TMC3     O10465   0.135   1.263  12.893 -0.3973 -0.4894  0.1045
  704TMC3     H10466   0.443   1.453  12.744 -1.8064 -0.7795 -0.8522
  704TMC3    H110467   0.296   1.134  12.986 -1.5023  1.6491 -0.7416
  704TMC3    H210468   0.704   1.141  12.849  0.7900  0.6794  1.6507
  704TMC3    C710469   0.505   0.992  12.936  0.9366  0.0180  0.4873
  704TMC3    C810470   0.660   1.333  12.693  0.4713  0.1491  0.0859
  704TMC3    O110471   0.575   0.943  12.847 -0.2190  0.9682  0.5910
  704TMC3    O210472   0.614   1.355  12.582 -0.0288 -0.0297 -0.4779
  705MPD2     C10473   0.461   4.275  16.463  0.4191  0.2967  0.4136
  705MPD2    C110474   0.479   4.411  16.476  0.3282  0.2099 -0.1596
  705MPD2    C210475   0.381   4.480  16.538  0.2250  0.0878 -0.0807
  705MPD2    C310476   0.267   4.418  16.588 -0.4838 -0.0036 -0.6456
  705MPD2    C410477   0.254   4.285  16.581 -0.1337  0.3910 -0.1769
  705MPD2    C510478   0.346   4.215  16.505  0.0627 -0.0944 -0.0550
  705MPD2     H10479   0.385   4.588  16.524  1.1165 -0.1258 -1.4580
  705MPD2    H110480   0.171   4.233  16.630 -0.9498  0.1177 -1.8471
  705MPD2    H210481   0.530   4.212  16.407  1.1978  0.8425  0.7474
  705MPD2    H310482   0.345   4.107  16.499  2.2140 -0.2060  1.4891
  705MPD2     N10483   0.160   4.492  16.639  0.3658  0.2384  0.2450
  705MPD2    H510484   0.076   4.444  16.671  0.0926  0.1826 -0.5565
  705MPD2    N110485   0.576   4.484  16.407 -0.5578  0.5535  0.2433
  705MPD2    H710486   0.574   4.585  16.409 -0.0015  0.5643  0.2179
  706TMC3    C110487   0.785   4.517  15.991 -0.3239 -0.7163 -0.3851
  706TMC3    C210488   0.712   4.632  15.970  0.3240 -0.0181  0.5510
  706TMC3    C310489   0.659   4.695  16.078  0.7999 -0.5161  1.2964
  706TMC3    C410490   0.795   4.461  16.118  0.7113  0.7873  0.6741
  706TMC3    C510491   0.729   4.522  16.220  0.2755  0.8307  1.1159
  706TMC3    C610492   0.657   4.634  16.196 -0.2635 -0.0101 -0.6697
  706TMC3     C10493   0.905   4.495  15.903  0.4490  0.9976  0.0637
  706TMC3     O10494   1.014   4.473  15.959  0.7159  0.5774 -0.6002
  706TMC3     H10495   0.711   4.675  15.871  3.7450  0.0868  0.5413
  706TMC3    H110496   0.871   4.384  16.135 -0.4498 -0.4768  0.1662
  706TMC3    H210497   0.596   4.688  16.267  0.8704 -0.3955  0.5891
  706TMC3    C710498   0.678   4.432  16.324  0.4102  0.3454 -0.4676
  706TMC3    C810499   0.607   0.092  16.061 -0.4799  0.0628 -0.0125
  706TMC3    O110500   0.723   4.319  16.317 -0.3582 -0.3135  0.0207
  706TMC3    O210501   0.611   0.128  15.945 -0.3112  0.2065 -0.1979
  707TMC3    C110502   2.191   3.570   0.461 -0.8027  0.5154 -0.6729
  707TMC3    C210503   2.204   3.470   0.551  0.6745  0.5160 -0.6841
  707TMC3    C310504   2.091   3.404   0.591 -0.2476  0.3453  0.7213
  707TMC3    C410505   2.071   3.588   0.394 -0.1078  0.2282 -0.3823
  707TMC3    C510506   1.959   3.524   0.448  0.2776 -0.1754 -0.0961
  707TMC3    C610507   1.966   3.433   0.547  0.5177  0.2892 -0.4752
  707TMC3     C10508   2.322   3.596   0.400  0.0040 -0.4282 -0.2228
  707TMC3     O10509   2.417   3.529   0.437 -0.1058 -0.1889  0.7282
  707TMC3     H10510   2.297   3.450   0.603  0.0353 -1.1425 -0.1750
  707TMC3    H110511   2.067   3.641   0.299 -1.3772 -0.5729 -0.7932
  707TMC3    H210512   1.886   3.374   0.589  0.1539  0.3262 -1.1129
  707TMC3    C710513   1.852   3.508   0.348 -0.1958 -0.0692  0.1229
  707TMC3    C810514   2.101   3.311   0.707  0.3582 -0.0480 -0.3035
  707TMC3    O110515   1.858   3.578   0.244 -0.3798  0.1288  0.0710
  707TMC3    O210516   1.998   3.310   0.775  0.0097  0.1547  0.3667
  708MPD2     C10517   2.977   2.335  13.954  0.4936 -0.4361 -0.8018
  708MPD2    C110518   2.884   2.313  13.852  0.2343 -0.7420  0.6509
  708MPD2    C210519   2.755   2.371  13.872  0.4349  0.1016 -0.6983
  708MPD2    C310520   2.724   2.434  13.992  0.4645 -0.1864 -0.1195
  708MPD2    C410521   2.815   2.442  14.093 -0.2071  0.2114 -0.3618
  708MPD2    C510522   2.943   2.403  14.067 -0.2600 -0.6467  0.1876
  708MPD2     H10523   2.676   2.363  13.798 -1.1032  0.8793  0.8648
  708MPD2    H110524   2.801   2.488  14.190 -0.6108 -0.7421  0.0291
  708MPD2    H210525   3.083   2.318  13.945  0.4855 -1.5121  1.1407
  708MPD2    H310526   3.024   2.417  14.138  0.3809 -2.0809 -0.2440
  708MPD2     N10527   2.597   2.482  14.002  0.3181 -0.6837  0.0332
  708MPD2    H510528   2.539   2.466  13.920  1.3906  0.7227 -0.9810
  708MPD2    N110529   2.925   2.256  13.727  0.7437 -0.7643  0.5918
  708MPD2    H710530   3.015   2.209  13.717  2.0756  2.3343 -2.1477
  709TMC3    C110531   2.909   2.199  13.488  0.2707  0.1655  0.0839
  709TMC3    C210532   3.029   2.262  13.467  0.6899 -0.8761  0.1849
  709TMC3    C310533   3.056   2.316  13.345  0.6541  0.0157  0.1675
  709TMC3    C410534   2.820   2.203  13.388  0.1378  0.5434  0.0717
  709TMC3    C510535   2.839   2.273  13.276 -0.0989 -0.3308  0.1876
  709TMC3    C610536   2.959   2.330  13.251  0.2773 -0.1304 -0.2823
  709TMC3     C10537   2.842   2.237  13.615  0.3268  0.1131 -0.3075
  709TMC3     O10538   2.726   2.270  13.607 -0.3643 -0.2387  0.2711
  709TMC3     H10539   3.111   2.267  13.538 -0.1571  3.5256  0.8821
  709TMC3    H110540   2.723   2.155  13.398  0.8909 -1.0931 -0.4824
  709TMC3    H210541   2.975   2.383  13.158  2.1165 -1.1237 -0.5359
  709TMC3    C710542   2.723   2.342  13.225 -0.3374 -0.6545 -0.0786
  709TMC3    C810543   3.166   2.405  13.340 -0.1960  0.2797  0.4275
  709TMC3    O110544   2.736   2.393  13.113 -0.2887 -0.1617 -0.2845
  709TMC3    O210545   3.259   2.398  13.422  0.4778 -0.6878 -0.0214
  710TMC3    C110546   4.416   4.446   0.169 -0.8786  0.3127  0.6517
  710TMC3    C210547   4.457   4.376   0.066 -0.4326  0.0889 -0.5026
  710TMC3    C310548   4.588   4.341   0.057 -0.0788  0.2500  0.4638
  710TMC3    C410549   4.502   4.479   0.277 -0.6613 -1.2898  0.4404
  710TMC3    C510550   4.635   4.448   0.257  0.3966 -0.2928  0.1314
  710TMC3    C610551   4.680   4.386   0.144  0.1701 -0.4807 -0.3942
  710TMC3     C10552   4.298   4.523   0.153 -0.4094 -0.2898 -0.2175
  710TMC3     O10553   4.217   4.481   0.068 -0.5768 -0.3874  0.2154
  710TMC3     H10554   4.393   4.358  17.727 -1.2075  0.3787  0.0119
  710TMC3    H110555   4.466   4.518   0.371 -1.2713 -1.9933  0.4966
  710TMC3    H210556   0.047   4.357   0.141  0.0584 -1.0535  1.5279
  710TMC3    C710557   4.703   4.452   0.385  0.3436  0.5825 -0.1483
  710TMC3    C810558   4.641   4.303  17.671  0.9335 -0.4656 -0.2368
  710TMC3    O110559   4.644   4.473   0.491 -0.3402  0.2006 -0.3921
  710TMC3    O210560   4.587   4.356  17.570 -0.1222 -0.2981  0.7181
  711TMC3    C110561   4.206   0.663  15.000 -0.1182  0.4145 -0.3451
  711TMC3    C210562   4.251   0.770  15.072 -0.0403 -0.2494 -0.1417
  711TMC3    C310563   4.370   0.748  15.136  0.4164  0.0026 -0.1469
  711TMC3    C410564   4.245   0.534  15.006 -1.3709 -0.3347  0.1053
  711TMC3    C510565   4.363   0.518  15.067  0.3440 -0.3641 -0.0832
  711TMC3    C610566   4.413   0.617  15.153 -0.3401 -0.7947  0.0318
  711TMC3     C10567   4.082   0.679  14.919  0.3699  0.1898 -0.7760
  711TMC3     O10568   4.082   0.624  14.812 -0.5224  0.3380 -0.0691
  711TMC3     H10569   4.198   0.865  15.068 -1.6067 -1.1478 -0.5280
  711TMC3    H110570   4.199   0.458  14.944 -1.7149  0.1525 -0.2358
  711TMC3    H210571   4.504   0.598  15.209 -1.3072  0.2638  1.9677
  711TMC3    C710572   4.394   0.394  15.130  0.1374  0.2628 -0.3304
  711TMC3    C810573   4.408   0.851  15.231  0.1542 -0.4692 -0.9545
  711TMC3    O110574   4.500   0.384  15.186 -0.3871  0.3247 -0.0076
  711TMC3    O210575   4.324   0.937  15.262  0.1397  0.8324  0.1916
  712MPD2     C10576   0.491   1.406  13.203  0.2448 -0.0163 -0.0855
  712MPD2    C110577   0.413   1.510  13.249  0.6230 -0.3459  0.2417
  712MPD2    C210578   0.472   1.628  13.281  0.3734 -0.7351 -0.2391
  712MPD2    C310579   0.606   1.651  13.293  0.1686  0.4305  0.0917
  712MPD2    C410580   0.689   1.538  13.259 -0.1072 -0.3171  0.5314
  712MPD2    C510581   0.627   1.427  13.208 -0.1475 -0.3594 -0.0870
  712MPD2     H10582   0.410   1.715  13.297  1.3825 -0.3221  1.3924
  712MPD2    H110583   0.797   1.545  13.259 -0.0459 -1.2954  0.3042
  712MPD2    H210584   0.452   1.312  13.165  0.9571 -0.1806 -0.4224
  712MPD2    H310585   0.684   1.346  13.165 -0.9447 -0.5129 -0.8467
  712MPD2     N10586   0.665   1.767  13.345 -0.4910 -0.2170  0.2488
  712MPD2    H510587   0.766   1.765  13.345 -0.4766  0.9760  0.3822
  712MPD2    N110588   0.271   1.504  13.258  0.1180  0.2250 -0.7283
  712MPD2    H710589   0.222   1.590  13.282  1.1828  0.4273  0.6830
  713TMC3    C110590   0.691   2.000  13.365 -0.1906  0.1821 -0.3308
  713TMC3    C210591   0.822   1.978  13.341 -0.5519 -0.0526 -0.2214
  713TMC3    C310592   0.898   2.087  13.297 -0.0913  0.2930  0.4233
  713TMC3    C410593   0.639   2.124  13.368  0.0755  0.2861 -0.1943
  713TMC3    C510594   0.722   2.229  13.348 -0.7498  0.1403  0.1438
  713TMC3    C610595   0.852   2.216  13.308  1.1461 -0.2772 -0.2755
  713TMC3     C10596   0.603   1.886  13.377 -0.0998 -0.5682 -0.4424
  713TMC3     O10597   0.484   1.909  13.375 -0.1152 -0.5757  0.0818
  713TMC3     H10598   0.868   1.881  13.351  1.3794  0.7940 -0.9561
  713TMC3    H110599   0.535   2.134  13.397  1.0370 -1.6754  3.9479
  713TMC3    H210600   0.919   2.297  13.282  1.0770  0.0210  0.4754
  713TMC3    C710601   0.671   2.361  13.365  1.2303 -0.2270 -0.1570
  713TMC3    C810602   1.038   2.054  13.258  0.1360 -0.6222 -0.2459
  713TMC3    O110603   0.755   2.444  13.362 -0.1654 -0.3162  0.4290
  713TMC3    O210604   1.071   1.939  13.259  0.2381  0.8404 -0.6503
  714MPD2     C10605   2.952   0.734   1.117 -0.4155 -0.5180 -0.1078
  714MPD2    C110606   3.041   0.670   1.038 -0.8894 -0.0201  0.8409
  714MPD2    C210607   3.031   0.690   0.899  0.3027 -0.2472 -0.0866
  714MPD2    C310608   2.927   0.766   0.842  0.2096  0.3733  1.2715
  714MPD2    C410609   2.842   0.830   0.921  0.0641 -0.3125 -0.0542
  714MPD2    C510610   2.865   0.819   1.061  0.1346  0.1834  0.2268
  714MPD2     H10611   3.095   0.636   0.830 -1.0941 -2.7668  0.6258
  714MPD2    H110612   2.762   0.886   0.874  0.7279  0.9669  0.3441
  714MPD2    H210613   2.955   0.722   1.225  0.6676 -0.1114 -0.0858
  714MPD2    H310614   2.789   0.874   1.115 -0.3038 -0.3850  0.1867
  714MPD2     N10615   2.920   0.761   0.701 -0.2988 -0.0629 -0.0776
  714MPD2    H510616   2.981   0.696   0.654  0.6313  0.5299  0.3060
  714MPD2    N110617   3.147   0.597   1.097 -0.4987 -0.0611  0.3236
  714MPD2    H710618   3.164   0.630   1.191  2.8648  0.2930 -0.3950
  715TMC3    C110619   3.353   0.483   1.097 -0.6674  0.1637 -0.1459
  715TMC3    C210620   3.436   0.386   1.054 -0.4586 -0.3123  0.1821
  715TMC3    C310621   3.559   0.370   1.106  0.0345  0.1695  0.6633
  715TMC3    C410622   3.387   0.554   1.210  0.7330  1.1478  0.3840
  715TMC3    C510623   3.506   0.518   1.272  0.2879 -0.2215  0.7321
  715TMC3    C610624   3.597   0.430   1.222 -0.2148 -0.3285  0.6852
  715TMC3     C10625   3.224   0.506   1.031 -0.3206 -0.9355 -1.0641
  715TMC3     O10626   3.204   0.459   0.916  0.1865  0.2742 -1.1420
  715TMC3     H10627   3.413   0.335   0.961 -0.6763  2.4061 -1.2530
  715TMC3    H110628   3.331   0.643   1.237  0.6463  1.3509 -0.4501
  715TMC3    H210629   3.683   0.394   1.278 -1.6352  0.5208  3.4171
  715TMC3    C710630   3.567   0.616   1.359 -0.2124  0.1115  0.1489
  715TMC3    C810631   3.649   0.274   1.044 -0.5044  0.0136  0.4675
  715TMC3    O110632   3.687   0.618   1.354 -0.6852  0.3152  0.2869
  715TMC3    O210633   3.599   0.179   0.985  0.4093  0.3682  0.0823
  716MPD2     C10634   3.388   4.194   9.612  0.5701  0.7552  0.3714
  716MPD2    C110635   3.258   4.148   9.597 -0.8003  0.3265 -0.5609
  716MPD2    C210636   3.232   4.010   9.595  0.6572 -0.7623 -0.0357
  716MPD2    C310637   3.332   3.917   9.620  0.0363  0.3213  0.5181
  716MPD2    C410638   3.464   3.967   9.630  0.2859  0.2026 -0.5325
  716MPD2    C510639   3.490   4.101   9.623  0.9149  0.7338 -0.5416
  716MPD2     H10640   3.128   3.978   9.597  0.5242 -0.2579  1.3633
  716MPD2    H110641   3.550   3.901   9.635 -0.0023 -0.3942 -3.2082
  716MPD2    H210642   3.412   4.300   9.605 -1.2166  1.2170  1.3514
  716MPD2    H310643   3.589   4.144   9.623  1.3118 -0.1761  2.2471
  716MPD2     N10644   3.294   3.777   9.607 -0.3483 -0.3284 -0.0431
  716MPD2    H510645   3.201   3.754   9.575 -1.3469  0.1777  2.4566
  716MPD2    N110646   3.154   4.242   9.596 -0.1935 -0.3124  0.2431
  716MPD2    H710647   3.180   4.340   9.601 -0.1190 -0.2988 -0.4169
  717TMC3    C110648   3.314   3.546   9.648  0.6959 -0.2937  0.3145
  717TMC3    C210649   3.187   3.529   9.602 -0.4254 -0.0725 -0.2348
  717TMC3    C310650   3.141   3.402   9.633  0.1253 -0.0923  0.2735
  717TMC3    C410651   3.383   3.455   9.727 -0.2634  0.2993  0.5351
  717TMC3    C510652   3.323   3.339   9.769 -0.5340  0.5730 -0.7427
  717TMC3    C610653   3.205   3.307   9.711 -0.4473 -0.3030  1.0780
  717TMC3     C10654   3.380   3.676   9.652  0.3625  0.2444  0.7003
  717TMC3     O10655   3.492   3.696   9.696 -0.7640 -0.1279 -0.2741
  717TMC3     H10656   3.143   3.577   9.516 -0.4333  0.0550 -0.1596
  717TMC3    H110657   3.490   3.473   9.737 -0.4856  1.2498  1.2369
  717TMC3    H210658   3.146   3.223   9.746 -3.5057  1.2482 -0.3219
  717TMC3    C710659   3.412   3.235   9.812 -0.4295  0.0651  0.5383
  717TMC3    C810660   2.997   3.379   9.622  0.3195  0.6092  0.2664
  717TMC3    O110661   3.379   3.121   9.791 -0.4024 -0.2829 -0.8925
  717TMC3    O210662   2.962   3.260   9.632 -0.5689  0.3033 -0.4205
  718MPD2     C10663   2.257   1.746  12.828 -0.7335  0.4013  0.0799
  718MPD2    C110664   2.234   1.758  12.692  0.2696 -0.7902 -0.0877
  718MPD2    C210665   2.118   1.814  12.656  0.4575 -0.0227 -0.2489
  718MPD2    C310666   2.020   1.856  12.750 -0.0467  0.3033  0.2951
  718MPD2    C410667   2.038   1.830  12.884 -0.1102 -0.6268  0.1399
  718MPD2    C510668   2.162   1.786  12.918 -0.0083  0.0809 -0.0360
  718MPD2     H10669   2.105   1.835  12.550  1.1394 -2.0319 -0.7354
  718MPD2    H110670   1.967   1.854  12.962 -0.2886  1.1988 -0.5862
  718MPD2    H210671   2.354   1.717  12.866 -0.0317 -1.1047 -2.8627
  718MPD2    H310672   2.185   1.787  13.024 -0.2522 -0.0381  0.0193
  718MPD2     N10673   1.906   1.922  12.695  0.3231  0.5321  0.2316
  718MPD2    H510674   1.888   1.907  12.597 -1.7667 -0.9197  0.8456
  718MPD2    N110675   2.326   1.727  12.585 -0.1046  0.1712  0.1909
  718MPD2    H710676   2.301   1.767  12.495 -0.9224  1.9958  1.2348
  719TMC3    C110677   2.519   1.665  12.463  0.0145  0.6357 -0.2360
  719TMC3    C210678   2.429   1.648  12.359 -1.1549 -1.0653 -0.5258
  719TMC3    C310679   2.434   1.737  12.247 -0.0710  0.8261 -0.5922
  719TMC3    C410680   2.624   1.754  12.461  0.3701  0.1878 -0.1301
  719TMC3    C510681   2.631   1.837  12.354 -0.4661  0.2113 -0.2119
  719TMC3    C610682   2.543   1.828  12.247  0.3414  0.0444  0.2859
  719TMC3     C10683   2.452   1.672  12.597 -0.2055  0.1083 -0.6084
  719TMC3     O10684   2.510   1.634  12.698  0.1303 -0.3537 -0.0811
  719TMC3     H10685   2.338   1.595  12.381 -0.3255 -2.0346  0.5817
  719TMC3    H110686   2.681   1.764  12.552 -0.5563  1.8563  0.2662
  719TMC3    H210687   2.547   1.907  12.174  2.2723  0.7841  1.2006
  719TMC3    C710688   2.710   1.966  12.368  0.2518 -0.3899  0.2165
  719TMC3    C810689   2.300   1.796  12.231  0.3373  0.2251 -0.0407
  719TMC3    O110690   2.657   2.062  12.315 -0.0139 -0.5761 -0.7166
  719TMC3    O210691   2.218   1.759  12.310  0.1287  0.8546 -0.4529
  720MPD2     C10692   0.617   3.631  13.963 -0.0710 -0.8451  0.2921
  720MPD2    C110693   0.735   3.642  13.900 -0.1454  0.2601 -0.4442
  720MPD2    C210694   0.852   3.646  13.976 -0.5892  0.4010  0.0022
  720MPD2    C310695   0.843   3.618  14.108  0.3078 -0.0457 -0.1825
  720MPD2    C410696   0.722   3.598  14.172 -0.0454  0.0059  0.0946
  720MPD2    C510697   0.615   3.607  14.094 -0.1930  0.1397 -0.0239
  720MPD2     H10698   0.947   3.675  13.933 -1.3393  1.1066 -1.1766
  720MPD2    H110699   0.715   3.567  14.275  0.6609  1.8481  0.6925
  720MPD2    H210700   0.527   3.649  13.905 -0.5620  1.5720  1.8192
  720MPD2    H310701   0.516   3.609  14.138 -0.3437  1.4845 -0.4215
  720MPD2     N10702   0.974   3.612  14.166 -0.3513 -0.2596  0.1021
  720MPD2    H510703   1.059   3.618  14.111 -2.1665  3.2564 -2.2940
  720MPD2    N110704   0.730   3.666  13.757 -1.1174  0.5232 -0.2129
  720MPD2    H710705   0.637   3.669  13.717 -0.4753 -0.6897 -1.8193
  721TMC3    C110706   1.147   3.593  14.321  0.5761 -0.9806  0.0989
  721TMC3    C210707   1.191   3.592  14.452 -0.1650  0.4503  0.3631
  721TMC3    C310708   1.323   3.569  14.481 -0.3722  0.4737  0.7279
  721TMC3    C410709   1.234   3.580  14.216  0.1343  0.0586  0.2165
  721TMC3    C510710   1.362   3.550  14.248  0.4192 -0.4641  0.4696
  721TMC3    C610711   1.406   3.544  14.378 -0.0074  0.0159  0.3773
  721TMC3     C10712   1.004   3.589  14.297 -0.1811 -0.2018 -0.2937
  721TMC3     O10713   0.924   3.573  14.391  1.0468 -0.3881 -0.3607
  721TMC3     H10714   1.118   3.603  14.532  1.6449 -0.1601  2.0987
  721TMC3    H110715   1.208   3.578  14.111  0.0875  1.4788  0.2084
  721TMC3    H210716   1.511   3.521  14.394 -0.2183 -0.2432  1.3946
  721TMC3    C710717   1.458   3.548  14.140 -0.1749 -0.2699 -0.1911
  721TMC3    C810718   1.385   3.620  14.605 -0.1672 -0.0530 -0.5019
  721TMC3    O110719   1.437   3.611  14.037  0.5317  0.6081 -1.1674
  721TMC3    O210720   1.501   3.588  14.608 -0.8710  0.1253  0.0491
  722MPD2     C10721   4.139   2.255  13.437 -0.0568 -0.0163 -0.1319
  722MPD2    C110722   4.152   2.365  13.354  0.3926 -0.3894 -1.2948
  722MPD2    C210723   4.042   2.401  13.270 -0.2050 -0.4744 -0.4427
  722MPD2    C310724   3.926   2.330  13.276 -0.1366 -0.3172  0.6904
  722MPD2    C410725   3.927   2.218  13.354  0.3763 -0.1443 -0.3565
  722MPD2    C510726   4.030   2.176  13.429 -0.2347  0.0467  0.3683
  722MPD2     H10727   4.050   2.493  13.213 -2.5156 -0.7399 -1.1869
  722MPD2    H110728   3.842   2.151  13.354 -0.2082  0.5874  1.6129
  722MPD2    H210729   4.218   2.239  13.509  0.4231 -1.8024 -1.0498
  722MPD2    H310730   4.027   2.092  13.497  2.8510  0.7087  1.3481
  722MPD2     N10731   3.819   2.372  13.191  0.2424 -0.2153  0.0840
  722MPD2    H510732   3.818   2.468  13.157 -0.0638  0.2134  1.2924
  722MPD2    N110733   4.266   2.445  13.345 -0.4979 -0.3404 -1.0986
  722MPD2    H710734   4.265   2.513  13.269  2.0725  2.5183  1.4276
  723TMC3    C110735   3.596   2.358  13.098 -0.7026 -0.1076 -0.4020
  723TMC3    C210736   3.497   2.270  13.079  0.8467  0.1606  0.5736
  723TMC3    C310737   3.405   2.310  12.989 -0.6196  0.3787 -0.5310
  723TMC3    C410738   3.607   2.484  13.045  0.2654 -0.0527 -0.1356
  723TMC3    C510739   3.505   2.510  12.953 -0.5474  0.7162  0.3643
  723TMC3    C610740   3.406   2.425  12.922  0.9503  0.3712  0.6101
  723TMC3     C10741   3.712   2.291  13.161  0.2557 -0.5018  0.4092
  723TMC3     O10742   3.704   2.170  13.174 -0.4885 -0.3842  0.3594
  723TMC3     H10743   3.491   2.180  13.140 -0.4304 -0.3715 -0.3203
  723TMC3    H110744   3.693   2.548  13.060  0.4791 -0.4768  0.4382
  723TMC3    H210745   3.323   2.448  12.857  1.6154  0.6318 -0.1473
  723TMC3    C710746   3.511   2.626  12.868  0.4468 -0.6469  0.2159
  723TMC3    C810747   3.281   2.227  12.980 -0.1382  0.7975  0.0631
  723TMC3    O110748   3.439   2.625  12.768  0.0867 -0.4304 -0.2682
  723TMC3    O210749   3.174   2.286  12.990 -0.6513 -0.0100 -0.4782
  724TMC3    C110750   4.465   0.359  10.676  0.1802 -0.2776 -0.0556
  724TMC3    C210751   4.421   0.359  10.544  0.3412  0.0354  0.0195
  724TMC3    C310752   4.397   0.478  10.483  0.4682  0.2611  0.0212
  724TMC3    C410753   4.443   0.468  10.761  0.5631  0.1706 -0.5430
  724TMC3    C510754   4.390   0.579  10.698 -0.0809 -0.2416  0.4427
  724TMC3    C610755   4.376   0.590  10.557  0.6789  0.3398 -0.5668
  724TMC3     C10756   4.518   0.241  10.740 -0.1145  0.5216  0.7278
  724TMC3     O10757   4.538   0.250  10.859 -0.3444 -0.1883 -0.0153
  724TMC3     H10758   4.464   0.292  10.470 -0.3096 -1.6092  1.1066
  724TMC3    H110759   4.473   0.472  10.865  1.2813 -0.0837 -0.7411
  724TMC3    H210760   4.333   0.677  10.510  0.0318 -1.0348 -2.5467
  724TMC3    C710761   4.393   0.705  10.777  0.2180 -0.2535 -0.5588
  724TMC3    C810762   4.398   0.487  10.344 -0.0799 -0.2134  0.2626
  724TMC3    O110763   4.421   0.811  10.716 -0.9337 -0.3650  0.1325
  724TMC3    O210764   4.386   0.381  10.282  0.3012  0.1605  0.5420
  725TMC3    C110765   1.679   3.843  13.088 -0.4493  0.4274  0.0580
  725TMC3    C210766   1.570   3.923  13.077 -0.4806 -0.1845 -0.3401
  725TMC3    C310767   1.524   3.955  12.959  0.0899  0.5386 -0.1332
  725TMC3    C410768   1.752   3.804  12.975 -0.1149 -0.2265 -0.4125
  725TMC3    C510769   1.698   3.835  12.852  0.7837 -0.0444  0.4970
  725TMC3    C610770   1.580   3.908  12.842 -0.8015 -1.3103  0.7617
  725TMC3     C10771   1.758   3.859  13.206  0.0906  0.1736 -0.2601
  725TMC3     O10772   1.876   3.853  13.192  0.1183  0.6870 -0.0046
  725TMC3     H10773   1.531   3.968  13.167  3.5110 -1.2584  1.9616
  725TMC3    H110774   1.820   3.720  12.986  0.5508  0.2119 -1.1947
  725TMC3    H210775   1.535   3.920  12.744  0.1505 -1.7859  0.2690
  725TMC3    C710776   1.723   3.740  12.746  0.0662 -0.4687 -0.9093
  725TMC3    C810777   1.435   4.072  12.955  0.5241  0.5526  0.1147
  725TMC3    O110778   1.627   3.709  12.669  0.9395  0.4044  0.0487
  725TMC3    O210779   1.404   4.119  13.064  0.2674  0.0933 -0.0496
  726MPD2     C10780   3.657   0.872  10.569  0.6861 -0.4732 -0.2721
  726MPD2    C110781   3.544   0.911  10.503  0.1950  0.4170 -0.9129
  726MPD2    C210782   3.418   0.876  10.551  0.0429 -0.5264  0.0904
  726MPD2    C310783   3.400   0.806  10.666  0.5543  0.0505 -0.1739
  726MPD2    C410784   3.513   0.768  10.736 -0.7263  0.0827 -0.1705
  726MPD2    C510785   3.638   0.801  10.685  0.3622 -0.1638  0.0239
  726MPD2     H10786   3.327   0.909  10.501  1.0264  2.1926  0.0867
  726MPD2    H110787   3.520   0.721  10.833 -2.4697  0.7789  0.2867
  726MPD2    H210788   3.757   0.898  10.538  1.5714 -1.4785  1.7190
  726MPD2    H310789   3.719   0.761  10.745 -0.7117  0.8001  2.1241
  726MPD2     N10790   3.278   0.752  10.707  0.0548  0.7342 -0.5882
  726MPD2    H510791   3.268   0.699  10.793 -1.1284  0.3276 -0.9703
  726MPD2    N110792   3.549   0.971  10.380  0.3182  0.1589 -0.5625
  726MPD2    H710793   3.466   0.982  10.323 -0.2198  0.4778  0.2847
  727TMC3    C110794   3.619   1.134  10.234  0.5042 -0.2795  0.0566
  727TMC3    C210795   3.683   1.248  10.226 -0.3111  0.1004  0.7857
  727TMC3    C310796   3.654   1.336  10.124  0.2808  0.7561  0.4875
  727TMC3    C410797   3.522   1.103  10.142  0.1835 -0.1183 -0.0651
  727TMC3    C510798   3.504   1.185  10.036 -0.2216  0.1224  0.4705
  727TMC3    C610799   3.562   1.308  10.026  0.1304  0.1779 -0.2447
  727TMC3     C10800   3.650   1.058  10.351  0.6689 -0.3543 -0.2691
  727TMC3     O10801   3.758   1.080  10.406 -0.0110 -0.4621  0.2776
  727TMC3     H10802   3.776   1.272  10.278  0.7211  0.6139 -1.2907
  727TMC3    H110803   3.465   1.011  10.153 -0.1179  0.3488  2.2039
  727TMC3    H210804   3.525   1.378   9.952 -1.8680  1.1301  1.6277
  727TMC3    C710805   3.377   1.161   9.967 -0.3947  0.6799 -0.2169
  727TMC3    C810806   3.700   1.473  10.147 -0.2246 -0.5491 -0.1945
  727TMC3    O110807   3.294   1.249   9.936 -0.3031  0.0215  0.0357
  727TMC3    O210808   3.757   1.486  10.256 -0.0392  0.1486 -0.3999
  728TMC3    C110809   3.741   4.136  15.032  0.1463  0.4801  0.7443
  728TMC3    C210810   3.876   4.165  15.018 -0.8360  0.2299  0.3214
  728TMC3    C310811   3.920   4.225  14.907 -0.1106  0.3496  0.0862
  728TMC3    C410812   3.656   4.159  14.925  0.4124 -0.7014 -0.2574
  728TMC3    C510813   3.706   4.233  14.818 -0.5476 -0.2228 -0.3239
  728TMC3    C610814   3.837   4.274  14.806  0.1702 -1.1247  0.1268
  728TMC3     C10815   3.682   4.137  15.166 -0.0091  0.9990  0.0402
  728TMC3     O10816   3.766   4.185  15.243  0.2745 -0.7051  0.1794
  728TMC3     H10817   3.946   4.136  15.095  0.5658 -2.5198 -1.9757
  728TMC3    H110818   3.548   4.151  14.931  0.0834  0.8989 -4.0492
  728TMC3    H210819   3.869   4.296  14.705 -1.9563 -1.2002 -0.5623
  728TMC3    C710820   3.613   4.272  14.719  0.0159  0.1398  0.1430
  728TMC3    C810821   4.056   4.271  14.923 -0.4315 -0.2463 -0.2922
  728TMC3    O110822   3.509   4.209  14.711  0.1993  0.3432 -0.2920
  728TMC3    O210823   4.133   4.200  14.987 -0.1563 -0.3736  0.2647
  729MPD2     C10824   0.903   0.725  16.849  1.1922  0.3663  0.6144
  729MPD2    C110825   1.019   0.666  16.818  0.2852 -0.4969  0.9252
  729MPD2    C210826   1.105   0.637  16.924  0.4293  0.0828  0.6768
  729MPD2    C310827   1.068   0.666  17.051 -0.2665  0.3430  0.7873
  729MPD2    C410828   0.948   0.726  17.077  0.1601  0.1554 -0.2152
  729MPD2    C510829   0.863   0.761  16.975 -0.2859  0.4311 -0.5889
  729MPD2     H10830   1.189   0.570  16.915  1.4785  1.3930  0.7624
  729MPD2    H110831   0.918   0.756  17.177 -0.6324 -2.0685  0.2095
  729MPD2    H210832   0.832   0.758  16.773  1.8038  0.0351 -0.0972
  729MPD2    H310833   0.767   0.813  16.978  0.2650  1.5185 -1.6541
  729MPD2     N10834   1.160   0.635  17.143 -0.4805  0.4467  0.4592
  729MPD2    H510835   1.241   0.582  17.111  0.5520  2.4482 -0.2203
  729MPD2    N110836   1.053   0.644  16.684 -0.4221  0.1000 -0.2516
  729MPD2    H710837   0.997   0.706  16.626 -0.6761 -0.8859 -1.0636
  730TMC3    C110838   1.286   0.648  17.342  0.1312  0.0748 -0.6614
  730TMC3    C210839   1.375   0.594  17.254  0.4084  0.1854  0.7163
  730TMC3    C310840   1.474   0.673  17.206  0.0880  0.1358 -0.1414
  730TMC3    C410841   1.309   0.763  17.409  0.2579  0.2937  0.4251
  730TMC3    C510842   1.420   0.832  17.373  0.0661  0.7715  0.0654
  730TMC3    C610843   1.505   0.793  17.274  0.2629 -0.2354 -0.0347
  730TMC3     C10844   1.148   0.654  17.281 -0.0693  0.3235 -0.8672
  730TMC3     O10845   1.070   0.726  17.338  0.1039  0.0620 -0.1648
  730TMC3     H10846   1.345   0.495  17.221 -0.8018  0.9581 -0.5488
  730TMC3    H110847   1.232   0.804  17.474 -0.2377 -1.8920  1.2274
  730TMC3    H210848   1.590   0.856  17.251  1.1208 -1.8030 -1.1472
  730TMC3    C710849   1.420   0.971  17.402 -0.0748 -0.0211 -0.2523
  730TMC3    C810850   1.491   0.665  17.061  0.2770  0.0422  0.1243
  730TMC3    O110851   1.409   1.008  17.520  0.0764  0.2839 -0.2351
  730TMC3    O210852   1.421   0.582  17.002 -0.2180 -0.4473 -0.8788
  731MPD2     C10853   0.659   3.613  12.571 -0.5301 -0.4303  0.2576
  731MPD2    C110854   0.545   3.545  12.534  0.5933  0.1350 -0.7435
  731MPD2    C210855   0.445   3.521  12.628  0.4607 -0.3136  0.1846
  731MPD2    C310856   0.466   3.540  12.760  0.3277  0.3337  0.5790
  731MPD2    C410857   0.590   3.575  12.798  0.3470 -0.1210  0.9382
  731MPD2    C510858   0.684   3.616  12.705 -0.0046 -0.5284 -0.8393
  731MPD2     H10859   0.344   3.485  12.612  0.8857 -1.1696 -0.5926
  731MPD2    H110860   0.623   3.579  12.901 -0.6834 -1.2979  1.3169
  731MPD2    H210861   0.741   3.642  12.505 -0.0389  1.4781  1.6998
  731MPD2    H310862   0.774   3.662  12.744 -0.6353 -0.0127  0.0136
  731MPD2     N10863   0.371   3.497  12.849 -0.0882 -0.0855  0.2169
  731MPD2    H510864   0.280   3.470  12.813  0.2865 -2.0254  0.7348
  731MPD2    N110865   0.529   3.517  12.400 -0.9142 -0.0124  0.2622
  731MPD2    H710866   0.610   3.540  12.342 -0.4646  0.6631  1.1597
  732TMC3    C110867   0.423   3.477  12.188 -0.3598 -0.1892 -0.2682
  732TMC3    C210868   0.307   3.441  12.129  0.5243 -0.5025 -0.0069
  732TMC3    C310869   0.299   3.431  11.994 -1.1525 -0.7168 -0.3024
  732TMC3    C410870   0.534   3.511  12.112 -0.0065  0.1677 -0.9862
  732TMC3    C510871   0.521   3.516  11.975 -0.2819  0.3284 -0.2115
  732TMC3    C610872   0.400   3.485  11.909 -0.7143 -0.0895  0.5151
  732TMC3     C10873   0.422   3.464  12.331 -0.7320  0.7566  0.0169
  732TMC3     O10874   0.320   3.417  12.379  0.2839  0.9127  0.5664
  732TMC3     H10875   0.222   3.409  12.188  0.8550 -1.0621  0.1636
  732TMC3    H110876   0.627   3.544  12.155 -0.3939 -0.0886  0.0450
  732TMC3    H210877   0.388   3.474  11.802  1.5227 -1.4632  0.3946
  732TMC3    C710878   0.638   3.504  11.885  0.4070 -0.0376  0.0683
  732TMC3    C810879   0.259   3.299  11.951 -0.0490 -0.6370  0.3151
  732TMC3    O110880   0.620   3.507  11.759  0.1347  0.1773 -0.3049
  732TMC3    O210881   0.321   3.236  11.865  0.1032 -0.2662  0.8817
  733TMC3    C110882   1.508   2.098  12.557 -0.5400  0.0879  0.2438
  733TMC3    C210883   1.587   2.067  12.666  0.6399 -0.6580 -0.1211
  733TMC3    C310884   1.722   2.062  12.652 -0.3264 -0.4182 -0.6470
  733TMC3    C410885   1.561   2.132  12.437 -0.0553  0.5207  0.7496
  733TMC3    C510886   1.702   2.132  12.436 -0.1295  0.4040 -0.2172
  733TMC3    C610887   1.784   2.098  12.537  0.5211 -0.1623  0.0385
  733TMC3     C10888   1.365   2.093  12.569 -0.9407  0.4095 -0.5928
  733TMC3     O10889   1.290   2.137  12.483 -0.3812 -0.0194 -0.6988
  733TMC3     H10890   1.563   2.028  12.764 -2.1764 -0.5305 -0.7486
  733TMC3    H110891   1.503   2.149  12.347 -0.6207  3.0597  1.5977
  733TMC3    H210892   1.892   2.106  12.540  0.5416 -0.1976 -0.8601
  733TMC3    C710893   1.757   2.151  12.302 -0.1693 -0.4401 -0.6615
  733TMC3    C810894   1.808   2.002  12.753  0.0027  0.2987  0.4460
  733TMC3    O110895   1.692   2.213  12.217 -0.5100  0.2004 -0.2415
  733TMC3    O210896   1.779   2.009  12.872  0.0793 -0.2055  0.1181
  734MPD2     C10897   3.394   4.431  12.401  0.9517  0.7637 -0.6605
  734MPD2    C110898   3.397   4.306  12.343 -0.2705  0.7829 -0.5430
  734MPD2    C210899   3.428   4.291  12.212  0.5616  0.2669 -0.1132
  734MPD2    C310900   3.456   4.398  12.131  0.8082  0.2783  0.3772
  734MPD2    C410901   3.455   4.528  12.183  0.1236  0.7335  0.5464
  734MPD2    C510902   3.416   4.539  12.312 -0.7622 -0.1577  0.0100
  734MPD2     H10903   3.442   4.195  12.164  1.0374 -0.0724  0.6999
  734MPD2    H110904   3.472   4.615  12.121  0.2827  0.7685  0.6365
  734MPD2    H210905   3.365   4.448  12.504  1.1003  0.8917 -0.6399
  734MPD2    H310906   3.399   4.640  12.347 -0.9554 -0.3176  0.3793
  734MPD2     N10907   3.496   4.374  11.998 -0.5682 -0.0699  0.4786
  734MPD2    H510908   3.504   4.280  11.962  1.9335  0.0158  0.8237
  734MPD2    N110909   3.368   4.200  12.438 -0.1454  0.1070  0.1267
  734MPD2    H710910   3.359   4.218  12.538  0.1921 -0.0613  0.1859
  735TMC3    C110911   3.286   3.984  12.484 -0.3241  0.1692 -0.1167
  735TMC3    C210912   3.179   3.928  12.425 -0.4808  0.5163  0.0154
  735TMC3    C310913   3.178   3.799  12.391  0.6630  0.1707 -1.0267
  735TMC3    C410914   3.378   3.895  12.543 -0.0541  0.0144  0.0839
  735TMC3    C510915   3.385   3.767  12.495 -0.1138 -0.0885 -0.1400
  735TMC3    C610916   3.284   3.715  12.424  0.0348  1.0627  0.7562
  735TMC3     C10917   3.344   4.074  12.394 -0.6869  0.2586  0.3843
  735TMC3     O10918   3.347   4.028  12.282  0.3008 -0.5698  0.3272
  735TMC3     H10919   3.110   3.996  12.375 -1.4310  1.1327  2.1487
  735TMC3    H110920   3.467   3.952  12.568  0.0934 -0.3599  0.3939
  735TMC3    H210921   3.287   3.617  12.377 -0.8961 -0.1814  3.2847
  735TMC3    C710922   3.513   3.708  12.472 -0.9345 -0.2432  0.6087
  735TMC3    C810923   3.121   3.766  12.267 -0.2379 -0.1797  0.5297
  735TMC3    O110924   3.603   3.788  12.483  0.4347  0.1360 -0.1208
  735TMC3    O210925   3.075   3.657  12.237 -0.5085  0.3455 -0.6243
  736MPD2     C10926   3.614   3.352  12.465  0.5033 -0.3165  1.1220
  736MPD2    C110927   3.624   3.487  12.448 -0.2500  0.4232  0.5820
  736MPD2    C210928   3.741   3.538  12.405  0.7410 -0.2751  0.2831
  736MPD2    C310929   3.850   3.455  12.367  0.3440 -0.1767  0.4443
  736MPD2    C410930   3.833   3.314  12.381 -0.6923  0.0904  0.2762
  736MPD2    C510931   3.721   3.266  12.437 -0.1717 -0.4080 -0.2086
  736MPD2     H10932   3.754   3.644  12.390 -2.2626 -0.1972 -1.9182
  736MPD2    H110933   3.911   3.247  12.348 -0.2477  0.7869 -0.0995
  736MPD2    H210934   3.527   3.306  12.509  0.9603 -0.7125  1.6161
  736MPD2    H310935   3.699   3.163  12.464  3.6107 -1.5310 -1.4705
  736MPD2     N10936   3.964   3.493  12.296 -0.5125  0.2495 -0.7366
  736MPD2    H510937   4.017   3.419  12.251  3.2391  1.2484  2.0225
  736MPD2    N110938   3.512   3.568  12.477 -1.0020  0.3593 -0.4764
  736MPD2    H710939   3.428   3.518  12.505 -1.6268  3.0383  2.4604
  737TMC3    C110940   4.109   3.639  12.179  0.0732  0.6645 -0.1517
  737TMC3    C210941   4.122   3.772  12.141 -0.3156 -0.0883  0.5335
  737TMC3    C310942   4.183   3.796  12.023  0.0317  0.2475  0.3650
  737TMC3    C410943   4.143   3.532  12.097  0.1462 -0.1380  0.3650
  737TMC3    C510944   4.209   3.560  11.982  0.0032 -0.7369  0.2807
  737TMC3    C610945   4.221   3.696  11.934 -0.4647  0.1754  0.7433
  737TMC3     C10946   4.006   3.622  12.279 -0.8853  0.2963  0.0656
  737TMC3     O10947   3.967   3.725  12.340  0.1548 -0.0127 -0.1044
  737TMC3     H10948   4.102   3.854  12.209 -0.5267  0.2993  0.0138
  737TMC3    H110949   4.139   3.428  12.127 -0.7072 -0.4852 -0.9739
  737TMC3    H210950   4.278   3.723  11.845 -2.0943 -2.9018 -1.2382
  737TMC3    C710951   4.280   3.452  11.919 -0.1806 -0.6390 -0.7347
  737TMC3    C810952   4.214   3.930  11.995 -0.0291 -0.1054  0.6414
  737TMC3    O110953   4.287   3.343  11.971  0.8158 -0.1510 -0.0951
  737TMC3    O210954   4.217   4.007  12.093  0.1863  0.0282  0.3213
  738MPD2     C10955   0.107   2.527  15.249  0.0400 -0.2002  0.2489
  738MPD2    C110956   0.028   2.591  15.154  0.0243 -0.0324  0.2653
  738MPD2    C210957   0.092   2.649  15.048  0.1535  0.4892 -0.0680
  738MPD2    C310958   0.225   2.675  15.044  0.3163  0.3916 -0.9026
  738MPD2    C410959   0.301   2.620  15.143 -0.3023  0.2637  0.3662
  738MPD2    C510960   0.244   2.540  15.242 -0.8949 -0.9000 -0.0705
  738MPD2     H10961   0.023   2.697  14.978  0.2188  0.9205  0.1684
  738MPD2    H110962   0.409   2.631  15.143 -0.2273 -0.4606 -0.3556
  738MPD2    H210963   0.064   2.480  15.336  0.4893 -0.6948  0.2035
  738MPD2    H310964   0.299   2.493  15.323 -0.3577 -0.3626 -0.1184
  738MPD2     N10965   0.285   2.756  14.942  0.0897 -0.0861 -0.1128
  738MPD2    H510966   0.387   2.760  14.946  0.0652 -0.5450  0.8009
  738MPD2    N110967   4.628   2.573  15.147  0.5438  0.1852 -0.6680
  738MPD2    H710968   4.584   2.609  15.063 -0.9917 -1.2758 -0.4898
  739TMC3    C110969   0.314   2.899  14.757 -0.1651 -0.2369  0.3012
  739TMC3    C210970   0.274   2.901  14.621 -0.2163 -0.1865  0.3892
  739TMC3    C310971   0.354   2.960  14.530 -0.2326 -0.1072  0.1207
  739TMC3    C410972   0.434   2.946  14.809 -0.1575 -0.5716 -0.6346
  739TMC3    C510973   0.510   3.012  14.713 -0.2568 -0.1680 -0.2472
  739TMC3    C610974   0.468   3.012  14.575  0.2167  0.4308  0.0234
  739TMC3     C10975   0.220   2.826  14.842  1.1598 -0.1978  0.1982
  739TMC3     O10976   0.109   2.809  14.797  0.5907  0.4012 -0.2547
  739TMC3     H10977   0.177   2.858  14.596  0.1128 -0.4188 -0.4559
  739TMC3    H110978   0.459   2.955  14.914 -3.1671  1.8527 -0.1466
  739TMC3    H210979   0.531   3.062  14.502  2.0724  1.1332  2.1129
  739TMC3    C710980   0.651   3.039  14.746  0.0751  0.6100 -0.5298
  739TMC3    C810981   0.290   2.987  14.405 -0.0296 -0.4994 -0.3611
  739TMC3    O110982   0.695   2.967  14.833  0.2425  0.0740 -0.2305
  739TMC3    O210983   0.180   2.945  14.381 -0.3719 -0.1936 -0.2126
  740TMC3    C110984   0.663   3.974  14.503 -0.0059 -0.5681 -0.2280
  740TMC3    C210985   0.706   3.913  14.618  0.0511 -0.5958 -0.1869
  740TMC3    C310986   0.841   3.885  14.617 -0.2264 -0.1073 -0.9438
  740TMC3    C410987   0.742   3.995  14.392 -0.6789  0.0908  0.5439
  740TMC3    C510988   0.876   3.963  14.403 -0.1463 -0.1404 -0.0642
  740TMC3    C610989   0.925   3.914  14.518  0.9518  0.5242 -0.1325
  740TMC3     C10990   0.532   4.045  14.495 -0.1359  0.4197  0.5504
  740TMC3     O10991   0.498   4.098  14.393  0.2077 -0.0984  0.2994
  740TMC3     H10992   0.645   3.890  14.704 -1.5134 -0.5477 -1.2768
  740TMC3    H110993   0.696   4.006  14.294 -1.6504 -0.4177  0.9438
  740TMC3    H210994   1.032   3.902  14.530  0.9982  2.9215  1.8714
  740TMC3    C710995   0.958   3.952  14.285  0.3686  0.7030  0.0526
  740TMC3    C810996   0.901   3.802  14.718 -0.3419 -0.0592  0.8738
  740TMC3    O110997   1.064   3.897  14.302  0.4256  0.4426  0.0427
  740TMC3    O210998   1.011   3.751  14.692 -0.6736 -0.1582  0.2506
  741TMC3    C110999   0.175   3.435  14.217  0.2906 -0.2877  0.2297
  741TMC3    C211000   0.058   3.373  14.182 -0.6832 -0.0099 -0.0172
  741TMC3    C311001   0.010   3.277  14.254 -0.3269 -0.6994  0.3113
  741TMC3    C411002   0.222   3.424  14.350  0.0340 -0.1398 -1.1973
  741TMC3    C511003   0.149   3.339  14.430 -0.1861 -0.6473  0.0311
  741TMC3    C611004   0.050   3.251  14.380 -0.3588  0.0377  0.3552
  741TMC3     C11005   0.218   3.561  14.160  0.0498 -0.2284 -0.3777
  741TMC3     O11006   0.288   3.627  14.234 -0.7002 -0.2724  0.0562
  741TMC3     H11007   0.011   3.408  14.091 -1.5959  0.5843  0.6835
  741TMC3    H111008   0.305   3.484  14.388 -0.1894 -1.3126  1.1185
  741TMC3    H211009   0.010   3.174  14.446  0.5483 -2.2491 -1.7349
  741TMC3    C711010   0.189   3.307  14.560 -0.3198  1.4018  0.5302
  741TMC3    C811011   4.643   3.195  14.202 -0.0894  0.6574  0.2422
  741TMC3    O111012   0.307   3.292  14.586  0.2151 -0.7015  0.8919
  741TMC3    O211013   4.550   3.241  14.140  0.4296 -0.3116 -0.8894
  742TMC3    C111014   4.712   1.972  15.056 -0.2988  0.6526  0.1363
  742TMC3    C211015   4.616   1.917  14.978 -0.1765 -0.4157 -0.0095
  742TMC3    C311016   4.649   1.815  14.886 -0.0668 -0.0103 -0.0626
  742TMC3    C411017   0.103   1.932  15.048  0.7635  0.1682  0.2372
  742TMC3    C511018   0.138   1.835  14.957  0.1839  0.1781 -0.2678
  742TMC3    C611019   0.044   1.774  14.876  0.1531 -0.5416 -0.1555
  742TMC3     C11020   4.667   2.046  15.177 -0.3300 -0.2531  0.3456
  742TMC3     O11021   4.550   2.032  15.217 -0.0609 -0.4462 -0.1380
  742TMC3     H11022   4.523   1.972  14.970  0.7300  1.1654  0.1490
  742TMC3    H111023   0.174   1.956  15.126  2.6719  0.3839 -1.5659
  742TMC3    H211024   0.068   1.699  14.801 -0.0637 -0.7999  0.0323
  742TMC3    C711025   0.267   1.781  14.963  0.7509  0.3931  0.0740
  742TMC3    C811026   4.548   1.735  14.814  0.4260  0.6691  0.0196
  742TMC3    O111027   0.262   1.661  14.961  0.4288 -0.2503 -0.6464
  742TMC3    O211028   4.580   1.680  14.710 -0.4967 -0.1106  0.1594
  743MPD2     C11029   2.850   2.747   1.361 -0.0352  0.0049  1.1196
  743MPD2    C111030   2.938   2.712   1.262 -0.4102  0.6483  0.2319
  743MPD2    C211031   3.067   2.654   1.298  0.1739  0.1433  0.2094
  743MPD2    C311032   3.088   2.624   1.431  0.7388 -0.0335 -0.1638
  743MPD2    C411033   2.995   2.657   1.530  0.1637 -0.7971 -0.6395
  743MPD2    C511034   2.879   2.727   1.495  0.2126 -0.2933 -0.6245
  743MPD2     H11035   3.147   2.636   1.227 -0.3684  2.8556 -1.0790
  743MPD2    H111036   3.030   2.652   1.632  0.1632  2.9460 -0.4597
  743MPD2    H211037   2.759   2.802   1.339  0.4502 -0.2340 -1.4794
  743MPD2    H311038   2.815   2.767   1.572  0.1542 -1.7155  0.0727
  743MPD2     N11039   3.222   2.590   1.466 -0.2890  0.2304 -0.2697
  743MPD2    H511040   3.285   2.595   1.386 -1.5781  0.3941 -1.2686
  743MPD2    N111041   2.900   2.746   1.123 -0.3288 -0.6829  0.7714
  743MPD2    H711042   2.813   2.796   1.114 -0.2442 -0.8012 -0.7072
  744TMC3    C111043   2.898   2.740   0.888 -0.6580  0.6897 -0.0805
  744TMC3    C211044   2.779   2.810   0.893 -0.2671  0.4275  0.2298
  744TMC3    C311045   2.701   2.817   0.778 -0.1753  0.2149 -0.4617
  744TMC3    C411046   2.946   2.673   0.776 -0.0044  0.3173 -0.3232
  744TMC3    C511047   2.867   2.692   0.660 -0.5489 -0.1714 -0.0082
  744TMC3    C611048   2.753   2.771   0.659 -0.0617  0.3010 -0.3711
  744TMC3     C11049   2.973   2.718   1.008 -0.0017 -0.1294  0.5670
  744TMC3     O11050   3.084   2.667   1.000 -0.2028  0.4146  0.0830
  744TMC3     H11051   2.753   2.859   0.986 -2.3528 -0.2706  0.0082
  744TMC3    H111052   3.040   2.620   0.773  0.1928  0.5964  1.1577
  744TMC3    H211053   2.694   2.770   0.568 -3.1542  2.2010  1.6202
  744TMC3    C711054   2.933   2.672   0.534 -0.4504 -0.3466  0.1978
  744TMC3    C811055   2.615   2.930   0.765  0.3688  0.2311  0.3689
  744TMC3    O111056   2.893   2.746   0.448 -0.0083 -0.5424 -0.1203
  744TMC3    O211057   2.598   2.984   0.655 -0.4202 -0.2345 -0.6599
  745TMC3    C111058   0.054   1.433  13.247 -0.1446 -0.2949  0.3984
  745TMC3    C211059   4.717   1.413  13.361  0.5435 -0.3506  0.4760
  745TMC3    C311060   4.619   1.502  13.400  0.8913  0.4455 -0.9990
  745TMC3    C411061   0.040   1.553  13.181 -0.2397  0.4845  0.2769
  745TMC3    C511062   4.685   1.642  13.228  0.7013 -0.6596  0.7760
  745TMC3    C611063   4.606   1.622  13.336  0.6786 -0.0105 -0.5077
  745TMC3     C11064   0.194   1.393  13.249 -0.5768 -0.1162 -0.6906
  745TMC3     O11065   0.224   1.283  13.292  0.4276  0.5675  0.2189
  745TMC3     H11066   4.733   1.327  13.426  0.5071 -1.1510 -0.5858
  745TMC3    H111067   0.099   1.579  13.094  2.3676 -4.1546  0.6432
  745TMC3    H211068   4.539   1.695  13.381 -2.2164 -2.8576 -0.1224
  745TMC3    C711069   4.662   1.767  13.153 -0.1964 -0.1106  0.1640
  745TMC3    C811070   4.622   1.508  13.540  0.8137  0.1504 -0.4940
  745TMC3    O111071   4.551   1.812  13.167 -0.1046 -0.6501  0.5683
  745TMC3    O211072   4.518   1.538  13.599  0.1730  0.4879  0.5197
  746TMC3    C111073   2.776   3.299  11.034  0.1255 -0.6042  0.2569
  746TMC3    C211074   2.810   3.296  10.903  0.2141 -0.6147  0.3718
  746TMC3    C311075   2.742   3.210  10.826 -0.1397  0.4025 -0.5623
  746TMC3    C411076   2.685   3.212  11.091  0.0310 -1.2545  0.1639
  746TMC3    C511077   2.620   3.122  11.008 -0.5794  0.7048 -0.0008
  746TMC3    C611078   2.649   3.123  10.875 -0.4168  0.8852  0.0303
  746TMC3     C11079   2.777   3.431  11.095  0.3136  0.7808 -0.7910
  746TMC3     O11080   2.669   3.465  11.146 -0.0244 -0.7908  0.0695
  746TMC3     H11081   2.894   3.353  10.866  0.0037  0.2112  1.1733
  746TMC3    H111082   2.653   3.211  11.194  4.1293 -2.3798  1.4416
  746TMC3    H211083   2.587   3.067  10.805 -0.6243  1.5201 -0.2926
  746TMC3    C711084   2.474   3.109  11.026  0.7855 -0.6123 -0.5975
  746TMC3    C811085   2.754   3.223  10.682 -0.3525  0.5823 -0.8513
  746TMC3    O111086   2.405   3.111  10.923  0.1529  0.0392 -0.3458
  746TMC3    O211087   2.718   3.120  10.627  0.4622 -0.2780  0.2698
  747TMC3    C111088   4.709   3.777  11.049 -0.5662  0.0454  0.0774
  747TMC3    C211089   4.627   3.722  11.143  0.3268 -0.2120  0.5626
  747TMC3    C311090   4.675   3.674  11.265  0.5519 -0.1319 -0.4848
  747TMC3    C411091   0.109   3.778  11.062 -0.0001  0.0438 -1.1137
  747TMC3    C511092   0.157   3.741  11.184 -0.4265 -0.1486 -0.1165
  747TMC3    C611093   0.074   3.696  11.284  0.0124  0.6783  0.2302
  747TMC3     C11094   4.672   3.713  10.925 -0.6025 -0.1818  0.7877
  747TMC3     O11095   4.636   3.597  10.942 -0.3775  0.3081  0.2539
  747TMC3     H11096   4.525   3.694  11.122 -0.3446  1.5759  1.4721
  747TMC3    H111097   0.176   3.796  10.979 -0.2054  2.7703 -0.7187
  747TMC3    H211098   0.126   3.656  11.371 -0.6999 -0.9784 -0.1105
  747TMC3    C711099   0.307   3.750  11.214  0.1828 -0.2000 -0.5599
  747TMC3    C811100   4.586   3.599  11.359 -0.2367 -0.4366 -0.0477
  747TMC3    O111101   0.347   3.689  11.313 -0.2918 -0.3623  0.3293
  747TMC3    O211102   4.474   3.641  11.365 -0.0986 -0.3246 -0.4186
  748MPD2     C11103   2.084   4.321   1.001 -0.4136 -0.0126  0.1194
  748MPD2    C111104   2.157   4.212   0.971 -0.3032 -0.1625 -0.0319
  748MPD2    C211105   2.289   4.228   0.943  1.2297  0.1309  1.1126
  748MPD2    C311106   2.339   4.355   0.927  0.2277  0.0659  0.8238
  748MPD2    C411107   2.262   4.469   0.947 -0.2255 -0.2227 -0.9857
  748MPD2    C511108   2.129   4.450   0.979  0.0163  0.1428 -0.0253
  748MPD2     H11109   2.360   4.148   0.925  0.5935 -0.0951 -0.4393
  748MPD2    H111110   2.286   4.575   0.945 -0.0802 -0.2486 -0.7104
  748MPD2    H211111   1.976   4.309   1.010 -0.4160 -0.5115 -0.4801
  748MPD2    H311112   2.053   4.527   0.985 -1.4121 -1.2678 -0.0182
  748MPD2     N11113   2.471   4.366   0.887 -0.2196  0.7005  0.4231
  748MPD2    H511114   2.534   4.287   0.875 -1.9659 -0.5239 -0.5084
  748MPD2    N111115   2.090   4.090   0.975 -0.4250  0.3620  0.2382
  748MPD2    H711116   1.994   4.092   1.008  0.1304 -0.3989  1.9375
  749TMC3    C111117   2.654   4.441   0.775  0.0864 -0.0840  0.6769
  749TMC3    C211118   2.722   4.346   0.838 -0.2231  0.3300 -0.0077
  749TMC3    C311119   2.848   4.318   0.782 -0.1681  0.9637 -0.4485
  749TMC3    C411120   2.681   4.483   0.643 -0.1889  0.6102 -0.1759
  749TMC3    C511121   2.803   4.441   0.593  0.0904 -0.3353 -0.1649
  749TMC3    C611122   2.893   4.372   0.664  0.0065  0.1084  0.5813
  749TMC3     C11123   2.523   4.480   0.829  0.7130 -0.4338  0.0011
  749TMC3     O11124   2.457   4.566   0.770  0.1732 -0.5255 -0.0937
  749TMC3     H11125   2.706   4.311   0.939  0.4260  1.3619  0.4563
  749TMC3    H111126   2.626   4.565   0.598 -0.2220  0.1261 -1.0156
  749TMC3    H211127   2.989   4.351   0.618 -0.1546 -1.6550  1.0398
  749TMC3    C711128   2.856   4.546   0.510  0.4686 -0.8956 -1.1091
  749TMC3    C811129   2.951   4.273   0.876 -0.3770  0.1002 -1.3490
  749TMC3    O111130   2.926   4.632   0.559 -0.7798  0.2695 -0.3126
  749TMC3    O211131   2.930   4.307   0.992  0.8092  0.5943 -0.1758
  750MPD2     C11132   2.582   0.816  11.515 -0.5188  0.1909  0.3650
  750MPD2    C111133   2.483   0.729  11.545  0.4572 -0.1196  0.0121
  750MPD2    C211134   2.493   0.603  11.500 -0.2334 -0.2487  0.2318
  750MPD2    C311135   2.606   0.559  11.434 -0.6300 -0.3159 -0.2696
  750MPD2    C411136   2.708   0.646  11.407  0.4725  0.2611  0.3798
  750MPD2    C511137   2.695   0.781  11.443 -0.2962  0.2167 -0.0241
  750MPD2     H11138   2.410   0.535  11.515 -1.4615  0.9792 -0.9929
  750MPD2    H111139   2.801   0.612  11.363  0.4968  0.7282  0.0714
  750MPD2    H211140   2.574   0.911  11.567 -1.9846 -0.4371  1.2667
  750MPD2    H311141   2.776   0.852  11.434  0.6971 -1.2053 -2.1664
  750MPD2     N11142   2.637   0.421  11.404  0.0155  0.2073 -0.0036
  750MPD2    H511143   2.734   0.412  11.378  0.0731  0.5954  0.0771
  750MPD2    N111144   2.368   0.779  11.613  0.1647  0.0299 -0.5704
  750MPD2    H711145   2.359   0.877  11.636  0.4828 -0.0015 -0.3020
  751TMC3    C111146   2.626   0.181  11.427  0.1413  0.1094 -0.6483
  751TMC3    C211147   2.571   0.074  11.496 -0.0451 -0.1131  0.4801
  751TMC3    C311148   2.635   4.696  11.477  0.7602 -0.2922 -0.0930
  751TMC3    C411149   2.695   0.150  11.308 -0.2482  0.8428  0.9269
  751TMC3    C511150   2.746   0.028  11.284  0.2155 -0.3567 -0.6215
  751TMC3    C611151   2.732   4.672  11.378 -0.5163 -0.2413  0.4551
  751TMC3     C11152   2.567   0.313  11.454  0.0907  0.1509 -0.6004
  751TMC3     O11153   2.474   0.304  11.531  0.0688 -0.3667  0.1259
  751TMC3     H11154   2.505   0.098  11.579  1.4279  2.9161  0.8152
  751TMC3    H111155   2.702   0.226  11.231  0.5297  0.1190  0.2918
  751TMC3    H211156   2.789   4.581  11.367 -1.0821 -0.5766  0.2854
  751TMC3    C711157   2.784   4.723  11.149 -0.4976 -0.7165 -0.3645
  751TMC3    C811158   2.563   4.577  11.510  0.2307  0.0495 -0.9889
  751TMC3    O111159   2.817   0.071  11.068 -0.0287 -0.0561  0.4528
  751TMC3    O211160   2.621   4.471  11.492 -0.2354  0.0233  0.0300
  752TMC3    C111161   1.961   0.478  17.075  0.2178 -0.3825 -0.5403
  752TMC3    C211162   1.967   0.383  17.173  0.8816 -0.2018 -0.1834
  752TMC3    C311163   1.915   0.395  17.301 -0.5139 -0.8495 -0.4838
  752TMC3    C411164   1.892   0.594  17.103 -0.0078 -1.1551 -0.1086
  752TMC3    C511165   1.858   0.613  17.241 -0.6758 -0.2198  0.5620
  752TMC3    C611166   1.860   0.518  17.337  0.1278 -0.9932  0.2382
  752TMC3     C11167   1.963   0.438  16.937 -0.7717 -0.1682  0.0605
  752TMC3     O11168   2.023   0.338  16.903  0.0351 -0.1377 -0.3420
  752TMC3     H11169   2.018   0.293  17.142  2.1352  0.4619 -0.0356
  752TMC3    H111170   1.897   0.681  17.039 -0.7223 -1.9917 -1.3125
  752TMC3    H211171   1.808   0.538  17.429  2.1702 -2.6364  1.7407
  752TMC3    C711172   1.844   0.756  17.275 -0.0693  0.1388 -0.4294
  752TMC3    C811173   1.917   0.280  17.386 -0.0663 -0.5101 -0.2143
  752TMC3    O111174   1.811   0.835  17.185  1.0835 -0.2830 -0.2195
  752TMC3    O211175   1.971   0.180  17.332  0.1137  0.6837  0.0294
  753TMC3    C111176   3.558   1.531  13.582 -0.3021  0.0220 -0.0574
  753TMC3    C211177   3.531   1.499  13.714 -0.2408 -0.0679  0.3472
  753TMC3    C311178   3.477   1.382  13.742  0.1794 -0.2920  0.4355
  753TMC3    C411179   3.531   1.440  13.485 -0.5261 -0.2928  0.2171
  753TMC3    C511180   3.477   1.319  13.517  0.9270 -0.3266 -0.0672
  753TMC3    C611181   3.449   1.286  13.644 -0.8770  0.4957 -0.6436
  753TMC3     C11182   3.572   1.672  13.558 -0.5444 -0.5619  0.4979
  753TMC3     O11183   3.659   1.731  13.620  0.1579  0.0828  0.3542
  753TMC3     H11184   3.527   1.575  13.790  3.3363 -1.0923  1.5838
  753TMC3    H111185   3.573   1.449  13.386  0.0644  0.8172  0.5727
  753TMC3    H211186   3.408   1.188  13.666  2.5639 -0.5507  1.1446
  753TMC3    C711187   3.446   1.220  13.410 -0.3728 -0.1378  0.3046
  753TMC3    C811188   3.495   1.328  13.878 -0.1982  0.4882  0.3880
  753TMC3    O111189   3.508   1.248  13.311  0.1841  0.4138  0.4007
  753TMC3    O211190   3.471   1.208  13.887  0.1606 -0.3272 -0.2112
  754MPD2     C11191   2.609   0.236  13.200 -0.2365 -0.0021  0.1999
  754MPD2    C111192   2.616   0.101  13.204 -0.0023  0.4220 -0.3875
  754MPD2    C211193   2.500   0.023  13.236  0.8159  0.7446 -0.0605
  754MPD2    C311194   2.383   0.083  13.267 -0.0889  0.1489 -0.2908
  754MPD2    C411195   2.374   0.214  13.243 -0.3729 -0.4490 -0.2011
  754MPD2    C511196   2.485   0.290  13.209  0.5888  0.8966 -0.1256
  754MPD2     H11197   2.509   4.653  13.251  1.5388  0.5738 -1.6684
  754MPD2    H111198   2.282   0.260  13.277 -1.4627 -2.9298  0.2725
  754MPD2    H211199   2.699   0.295  13.185  0.1082 -0.6988 -0.5289
  754MPD2    H311200   2.475   0.397  13.207 -0.1652  0.8460  1.3810
  754MPD2     N11201   2.271   0.006  13.307  0.0040  0.3796 -0.6539
  754MPD2    H511202   2.179   0.050  13.317 -0.5545 -1.1172  0.7119
  754MPD2    N111203   2.743   0.046  13.179 -0.3147  0.1577 -0.1821
  754MPD2    H711204   2.802   0.110  13.127  0.8074 -0.4359  0.3550
  755MPD2     C11205   1.552   0.429  13.400 -0.9284 -0.5901  0.9512
  755MPD2    C111206   1.524   0.337  13.498  0.0434  0.2515  0.3247
  755MPD2    C211207   1.613   0.225  13.510 -0.2822  0.3622  0.1569
  755MPD2    C311208   1.729   0.215  13.431  0.1701  0.6802  0.1845
  755MPD2    C411209   1.750   0.314  13.339  0.1173 -0.3381  0.5527
  755MPD2    C511210   1.661   0.424  13.319 -0.5507 -0.8443 -0.2422
  755MPD2     H11211   1.599   0.157  13.593  1.6128 -1.3476 -0.9566
  755MPD2    H111212   1.831   0.304  13.267  0.9881  2.6921  1.1391
  755MPD2    H211213   1.495   0.521  13.395  0.4124  0.2361  0.9419
  755MPD2    H311214   1.671   0.497  13.240 -0.8666  1.5680  1.9338
  755MPD2     N11215   1.823   0.105  13.427  0.2137  0.1895 -0.0490
  755MPD2    H511216   1.897   0.101  13.358 -1.3402  0.4400 -1.7399
  755MPD2    N111217   1.404   0.339  13.577  0.6562 -0.5691  0.0388
  755MPD2    H711218   1.393   0.275  13.655 -0.7748  0.1836  0.4564
  756MPD2     C11219   2.640   1.577   9.719  0.2484  0.6832  0.6584
  756MPD2    C111220   2.531   1.498   9.752  0.1584 -0.8309  0.1947
  756MPD2    C211221   2.422   1.486   9.662  0.1388  0.1887 -0.0525
  756MPD2    C311222   2.425   1.549   9.540 -0.2210  1.1189 -1.0629
  756MPD2    C411223   2.543   1.616   9.512 -0.6885 -0.0285  0.4035
  756MPD2    C511224   2.652   1.635   9.594  0.2494 -0.3312 -0.6952
  756MPD2     H11225   2.336   1.429   9.695  0.8932 -1.0623 -0.2298
  756MPD2    H111226   2.564   1.665   9.417  2.2323 -0.1550  0.9660
  756MPD2    H211227   2.719   1.602   9.788 -0.4222  0.3053  1.5617
  756MPD2    H311228   2.736   1.695   9.564 -1.1288  1.9001 -0.1043
  756MPD2     N11229   2.323   1.522   9.447 -0.6769 -0.0609 -0.3961
  756MPD2    H511230   2.249   1.457   9.471 -0.6253  0.5198  1.3112
  756MPD2    N111231   2.518   1.442   9.883  0.2193 -0.1109 -0.0829
  756MPD2    H711232   2.431   1.396   9.907  1.3902 -2.9447 -1.2565
  757MPD2     C11233   1.962   0.785   9.430 -0.5294 -0.1788  0.1491
  757MPD2    C111234   2.034   0.861   9.507  0.5944  0.1845 -0.1769
  757MPD2    C211235   2.039   0.996   9.468 -0.1465 -0.0208 -0.4484
  757MPD2    C311236   1.994   1.038   9.345  0.4351 -0.3101 -0.3004
  757MPD2    C411237   1.927   0.949   9.262 -1.1954  0.0872 -0.1591
  757MPD2    C511238   1.906   0.823   9.306  0.1736  0.3508 -0.0638
  757MPD2     H11239   2.094   1.062   9.534 -0.0852 -0.5499  0.0307
  757MPD2    H111240   1.884   0.973   9.165  0.7892  0.8444 -0.8628
  757MPD2    H211241   1.944   0.680   9.447 -0.2089 -0.4488 -1.1690
  757MPD2    H311242   1.850   0.759   9.239  1.3273 -1.2187  0.4684
  757MPD2     N11243   2.020   1.178   9.325  0.3544  0.5381 -0.8269
  757MPD2    H511244   2.067   1.227   9.400 -2.1414  0.7320  0.6298
  757MPD2    N111245   2.087   0.806   9.626 -0.6986  0.6262  0.4751
  757MPD2    H711246   2.087   0.704   9.626  4.6227  0.6366  2.8322
  758MPD2     C11247   2.548   0.106  15.484  0.0932 -0.2344  0.1155
  758MPD2    C111248   2.540   4.714  15.525  0.7276 -0.4362 -0.3348
  758MPD2    C211249   2.494   4.683  15.652  0.2954 -0.1965 -0.2268
  758MPD2    C311250   2.448   0.053  15.734 -0.2160  0.3839  0.0114
  758MPD2    C411251   2.455   0.179  15.687 -0.4886  0.0907  0.8129
  758MPD2    C511252   2.500   0.202  15.559  0.3381 -0.0847 -0.1748
  758MPD2     H11253   2.507   4.583  15.692  0.2847 -0.0273  0.1941
  758MPD2    H111254   2.410   0.262  15.741 -1.3587  0.3496 -0.2873
  758MPD2    H211255   2.605   0.142  15.399 -2.1817 -1.1121 -1.7957
  758MPD2    H311256   2.492   0.304  15.524 -2.2416 -0.2049  0.0361
  758MPD2     N11257   2.402   0.033  15.872 -0.2091 -0.6309 -0.7965
  758MPD2    H511258   2.365   0.117  15.916  0.9194 -1.3819  1.5713
  758MPD2    N111259   2.604   4.620  15.447  0.0945  0.3117  0.7195
  758MPD2    H711260   2.646   4.656  15.362  0.3747  0.3704  0.8846
  759MPD2     C11261   1.340   3.230   9.941  0.1129 -0.4525 -0.3704
  759MPD2    C111262   1.242   3.288  10.018 -0.1967 -0.0351 -0.0938
  759MPD2    C211263   1.253   3.425  10.030  0.2561 -0.0400  0.4433
  759MPD2    C311264   1.343   3.503   9.959  0.2485  0.4088 -0.1605
  759MPD2    C411265   1.433   3.441   9.874 -0.5500 -0.7851 -0.4238
  759MPD2    C511266   1.424   3.305   9.865 -0.1391  0.2477 -0.2236
  759MPD2     H11267   1.181   3.477  10.092 -0.6969 -0.7580 -0.0688
  759MPD2    H111268   1.492   3.492   9.799 -2.6719  0.4272 -1.2722
  759MPD2    H211269   1.350   3.122   9.934  0.5662 -0.4837  0.7277
  759MPD2    H311270   1.491   3.262   9.792  0.9713 -2.0857  2.1472
  759MPD2     N11271   1.321   3.644   9.959  0.0291 -0.1317 -0.1407
  759MPD2    H511272   1.242   3.679  10.012 -0.8573  1.1987 -2.3716
  759MPD2    N111273   1.148   3.213  10.096 -0.0305  0.1538 -0.2535
  759MPD2    H711274   1.078   3.266  10.145  1.1444  1.1710  0.3114
  760MPD2     C11275   0.706   0.106  11.744  0.5658  0.5458  0.5933
  760MPD2    C111276   0.832   0.170  11.762  0.4886  1.1841 -0.5546
  760MPD2    C211277   0.932   0.103  11.827 -0.6173  0.6295 -0.1398
  760MPD2    C311278   0.901   4.725  11.891 -0.6950  0.4411  0.1021
  760MPD2    C411279   0.781   4.662  11.872 -0.2527  0.1682 -0.1850
  760MPD2    C511280   0.679   4.724  11.804 -0.9928  0.4061  0.8505
  760MPD2     H11281   1.026   0.154  11.847 -1.3986  3.5433 -3.9259
  760MPD2    H111282   0.757   4.568  11.921  0.7488  0.0809  0.1408
  760MPD2    H211283   0.621   0.156  11.699  0.2459 -0.9342 -0.4728
  760MPD2    H311284   0.588   4.668  11.788 -0.2697 -0.5466  0.0969
  760MPD2     N11285   0.992   4.658  11.976 -0.2192  0.0414 -0.4587
  760MPD2    H511286   0.951   4.584  12.033  0.4465  0.9806  1.2559
  760MPD2    N111287   0.860   0.300  11.722  0.0778 -0.6237 -0.2398
  760MPD2    H711288   0.952   0.337  11.746 -0.5499 -0.1643  1.4557
  761MPD2     C11289   2.116   4.329  11.552 -0.0331 -0.0138  0.4084
  761MPD2    C111290   2.229   4.296  11.477 -0.3175 -0.1561 -0.5729
  761MPD2    C211291   2.334   4.389  11.469 -0.4248  0.2179  0.5361
  761MPD2    C311292   2.335   4.509  11.539  0.4264  0.3642  0.7656
  761MPD2    C411293   2.213   4.545  11.593 -0.1356  0.5753 -0.2339
  761MPD2    C511294   2.112   4.451  11.605  0.4404  0.3417 -0.8892
  761MPD2     H11295   2.430   4.353  11.434  0.4015  0.4121  2.5689
  761MPD2    H111296   2.202   4.643  11.637  1.2741 -0.0774  1.5770
  761MPD2    H211297   2.029   4.266  11.564  0.8984 -1.8022 -2.2717
  761MPD2    H311298   2.011   4.482  11.629  0.2115 -0.1654 -1.1965
  761MPD2     N11299   2.432   4.607  11.541 -0.1195 -1.0225  0.3508
  761MPD2    H511300   2.410   4.704  11.563  0.5130 -0.9681  0.7471
  761MPD2    N111301   2.238   4.167  11.407  0.2115 -0.6792 -0.9059
  761MPD2    H711302   2.168   4.098  11.433 -0.7194  0.2804 -0.8828
  762MPD2     C11303   2.345   4.259  10.674  0.4313  0.3318  0.5421
  762MPD2    C111304   2.397   4.139  10.710  0.3487  0.3984 -0.0209
  762MPD2    C211305   2.495   4.073  10.630 -0.5761  0.5908 -0.1524
  762MPD2    C311306   2.545   4.147  10.520 -0.5741 -0.4341 -0.9096
  762MPD2    C411307   2.481   4.265  10.485 -0.5816  0.0397 -0.1616
  762MPD2    C511308   2.386   4.319  10.559  0.1675  0.6856 -0.5248
  762MPD2     H11309   2.547   3.984  10.664  0.0327  0.5392 -1.2227
  762MPD2    H111310   2.493   4.306  10.385  0.9980 -0.2280 -0.0829
  762MPD2    H211311   2.263   4.302  10.730  2.0234  1.5115  2.0039
  762MPD2    H311312   2.342   4.411  10.524  0.5970  0.8865 -0.5386
  762MPD2     N11313   2.653   4.100  10.450 -0.2078 -0.3534  0.1853
  762MPD2    H511314   2.679   4.005  10.473 -2.5173 -0.6518  1.5552
  762MPD2    N111315   2.343   4.082  10.828 -0.5392 -0.8976 -0.3576
  762MPD2    H711316   2.289   4.146  10.885  0.9223 -2.3804  2.6797
  763MPD2     C11317   4.636   4.211  16.202 -0.0808  0.0080  0.4677
  763MPD2    C111318   4.574   4.326  16.159  0.1600  0.1625 -0.0540
  763MPD2    C211319   4.636   4.447  16.190 -0.7170  0.0851 -0.1556
  763MPD2    C311320   0.026   4.451  16.243  0.6057 -0.7584 -0.2230
  763MPD2    C411321   0.092   4.328  16.270  0.2555  0.2989 -0.0644
  763MPD2    C511322   0.029   4.208  16.256 -0.4088  0.5328 -0.0402
  763MPD2     H11323   4.584   4.538  16.160  1.4326  2.3087  2.9252
  763MPD2    H111324   0.194   4.321  16.305  0.4524  2.1535 -0.2796
  763MPD2    H211325   4.580   4.118  16.198  1.5203 -0.8861 -0.9323
  763MPD2    H311326   0.084   4.122  16.290  0.2522  1.9589  2.5446
  763MPD2     N11327   0.094   4.570  16.254  0.5155  0.2787 -0.1097
  763MPD2    H511328   0.194   4.560  16.269  0.2425 -0.8493  0.9684
  763MPD2    N111329   4.448   4.328  16.094  0.2583 -0.4032 -0.3434
  763MPD2    H711330   4.412   4.422  16.081  2.8216  0.7689  0.8959
  764MPD2     C11331   3.176   1.762  17.046 -0.2127 -0.4149 -0.1259
  764MPD2    C111332   3.063   1.714  16.991 -0.0667  0.3722  1.0926
  764MPD2    C211333   2.946   1.694  17.074  0.0857  0.4429  0.9745
  764MPD2    C311334   2.958   1.710  17.212  0.0387 -0.3909 -0.7186
  764MPD2    C411335   3.077   1.756  17.267  0.0034  0.1611 -0.1866
  764MPD2    C511336   3.183   1.788  17.182 -0.4334  0.0857 -0.0432
  764MPD2     H11337   2.859   1.649  17.027  0.3989  0.6921  0.1583
  764MPD2    H111338   3.087   1.769  17.374 -0.2367  2.0190 -0.3912
  764MPD2    H211339   3.273   1.770  16.999 -0.1197 -1.1922 -0.0708
  764MPD2    H311340   3.271   1.828  17.231  0.4400  0.3253 -1.7863
  764MPD2     N11341   2.851   1.677  17.293  0.1019 -0.3939 -0.5374
  764MPD2    H511342   2.763   1.659  17.245 -1.0276  0.8115  1.0597
  764MPD2    N111343   3.056   1.687  16.854  0.0426  0.2213  0.0294
  764MPD2    H711344   2.969   1.646  16.823  0.0455  0.7720 -0.6856
  765MPD2     C11345   2.287   4.053  15.336  0.1749  0.2297 -0.0042
  765MPD2    C111346   2.364   4.104  15.440 -0.0651 -0.6569 -0.1079
  765MPD2    C211347   2.499   4.069  15.462  0.0832 -0.0898  0.0879
  765MPD2    C311348   2.551   3.965  15.381 -0.1954 -0.4563 -0.9206
  765MPD2    C411349   2.473   3.912  15.278 -0.5332 -0.8737  0.1047
  765MPD2    C511350   2.341   3.953  15.260  0.2616  0.4232  0.3110
  765MPD2     H11351   2.554   4.106  15.548 -0.7273  0.2667  0.4484
  765MPD2    H111352   2.504   3.835  15.209 -1.7538 -2.0879  0.9111
  765MPD2    H211353   2.190   4.091  15.308  1.2034  2.4024 -0.5760
  765MPD2    H311354   2.292   3.907  15.175  2.0194  0.1436 -0.5524
  765MPD2     N11355   2.674   3.915  15.420  0.9478  0.2011 -0.1095
  765MPD2    H511356   2.731   3.965  15.487  2.1321 -0.6831 -0.4650
  765MPD2    N111357   2.312   4.211  15.523 -0.1122  0.2103 -0.7206
  765MPD2    H711358   2.377   4.265  15.579 -1.7163  1.1762  0.2024
  766MPD2     C11359   1.573   4.324  15.451 -0.2755  0.3693  0.2431
  766MPD2    C111360   1.708   4.284  15.442 -0.0427  0.1353 -0.3236
  766MPD2    C211361   1.757   4.214  15.337  0.3889 -0.7135 -0.4428
  766MPD2    C311362   1.674   4.165  15.235  0.1221  0.3363  0.7187
  766MPD2    C411363   1.546   4.211  15.240 -0.2310  0.3856  0.1834
  766MPD2    C511364   1.501   4.290  15.342  0.2980  0.0418  0.4855
  766MPD2     H11365   1.864   4.198  15.335  0.6486  0.7148  2.2887
  766MPD2    H111366   1.484   4.183  15.155  2.1745  0.3080 -1.5304
  766MPD2    H211367   1.528   4.374  15.536 -1.3033  1.6216 -1.0410
  766MPD2    H311368   1.396   4.319  15.346  0.6578  1.5881 -1.3848
  766MPD2     N11369   1.725   4.105  15.114 -0.5110  0.3500  0.2672
  766MPD2    H511370   1.660   4.109  15.036 -0.3583 -0.0209  0.1196
  766MPD2    N111371   1.805   4.330  15.533 -0.7851  0.1928 -0.0827
  766MPD2    H711372   1.896   4.286  15.533 -1.7293 -1.7357 -0.3643
  767MPD2     C11373   1.290   4.368  14.993 -0.0342 -0.7587  0.7452
  767MPD2    C111374   1.419   4.348  14.942 -0.1092 -0.0691 -0.2937
  767MPD2    C211375   1.438   4.265  14.837 -0.7270  0.3400  0.1297
  767MPD2    C311376   1.329   4.217  14.766 -0.1678  0.8656 -0.1393
  767MPD2    C411377   1.200   4.229  14.823 -1.0838  0.3447  0.4814
  767MPD2    C511378   1.186   4.306  14.935  0.1023  0.5833 -0.4695
  767MPD2     H11379   1.534   4.256  14.787 -1.2271 -0.9176 -0.5869
  767MPD2    H111380   1.110   4.181  14.786 -0.5364  0.2992 -0.7749
  767MPD2    H211381   1.276   4.421  15.087  0.0848  0.1719  0.2379
  767MPD2    H311382   1.091   4.331  14.982  0.5158  2.6675 -0.7800
  767MPD2     N11383   1.348   4.145  14.652 -0.3628 -0.2269  0.5212
  767MPD2    H511384   1.444   4.127  14.626 -0.0986 -0.3635  1.5699
  767MPD2    N111385   1.529   4.418  15.002 -0.2554  0.1257  0.2158
  767MPD2    H711386   1.504   4.484  15.075  0.4054 -1.0750  1.5205
  768MPD2     C11387   2.219   2.849  10.698  0.0636  0.2951  0.0892
  768MPD2    C111388   2.147   2.785  10.797  0.4005 -0.0143 -0.0619
  768MPD2    C211389   2.215   2.739  10.912  0.5317  0.0910 -0.2142
  768MPD2    C311390   2.354   2.750  10.915 -0.1032  0.7003 -0.2560
  768MPD2    C411391   2.422   2.812  10.814 -0.1999  0.3277  0.6712
  768MPD2    C511392   2.355   2.854  10.704  0.5793 -0.7814  0.3756
  768MPD2     H11393   2.161   2.703  10.999 -1.9087  1.5837 -1.1064
  768MPD2    H111394   2.530   2.822  10.816 -0.1887  0.3363  0.0802
  768MPD2    H211395   2.168   2.882  10.609 -2.7067 -2.0937  0.7720
  768MPD2    H311396   2.401   2.887  10.611  1.8131 -2.0572  0.5450
  768MPD2     N11397   2.427   2.719  11.030 -0.6794 -0.4390 -0.3234
  768MPD2    H511398   2.524   2.748  11.026 -0.5425 -0.8693 -0.1402
  768MPD2    N111399   2.006   2.781  10.803 -0.7076 -0.1215  0.3842
  768MPD2    H711400   1.969   2.739  10.887 -0.6391 -1.2604 -0.1611
  769MPD2     C11401   3.385   1.041  14.693  0.5157  0.4121 -0.0360
  769MPD2    C111402   3.288   1.007  14.792  0.4209 -0.1612  0.1073
  769MPD2    C211403   3.277   1.096  14.894  0.4121  0.3649  0.3231
  769MPD2    C311404   3.353   1.207  14.907  0.4054 -1.0937 -0.1831
  769MPD2    C411405   3.443   1.242  14.812 -0.0804 -0.1722  0.2526
  769MPD2    C511406   3.453   1.163  14.701 -0.1228 -1.2454 -0.4219
  769MPD2     H11407   3.211   1.083  14.979 -0.9498  1.2321 -0.6149
  769MPD2    H111408   3.500   1.334  14.816  0.7230 -0.6687  0.0280
  769MPD2    H211409   3.395   0.991  14.598  0.3328  0.2595  0.0250
  769MPD2    H311410   3.523   1.198  14.626 -0.0139  1.2464  0.8470
  769MPD2     N11411   3.338   1.284  15.027 -0.9727 -0.1871 -0.1780
  769MPD2    H511412   3.268   1.251  15.092 -1.6255 -0.4031 -0.9775
  769MPD2    N111413   3.218   0.892  14.769 -0.2598  0.4057  0.1252
  769MPD2    H711414   3.255   0.817  14.713  0.4391  0.9076 -0.0761
  770MPD2     C11415   3.125   4.656  14.571  0.0924 -0.2711  0.8245
  770MPD2    C111416   2.993   4.686  14.536 -0.7802  0.2847  1.1549
  770MPD2    C211417   2.953   0.081  14.540  0.0688  0.0079 -0.6993
  770MPD2    C311418   3.041   0.174  14.602  0.0994 -0.2724 -0.4323
  770MPD2    C411419   3.169   0.140  14.643 -0.1401 -0.3755 -0.2999
  770MPD2    C511420   3.208   0.012  14.621  0.0651  0.0164  0.4716
  770MPD2     H11421   2.851   0.107  14.513  0.1978  1.4625  0.1895
  770MPD2    H111422   3.251   0.205  14.671  0.0096 -0.9726  0.6487
  770MPD2    H211423   3.167   4.558  14.552  0.6691 -0.0424  0.9149
  770MPD2    H311424   3.314   4.733  14.637  0.4827  0.8950 -1.5247
  770MPD2     N11425   2.995   0.306  14.613 -0.0868  0.1722  0.4217
  770MPD2    H511426   2.897   0.320  14.590 -0.2615  0.5678  1.4335
  770MPD2    N111427   2.912   4.579  14.489  0.2308  0.5321 -0.3638
  770MPD2    H711428   2.966   4.495  14.470 -0.7910 -0.4842  1.1723
  771MPD2     C11429   4.128   3.541  13.820 -0.9549  0.2508 -0.1170
  771MPD2    C111430   4.063   3.647  13.772  0.0183  0.1258  0.1633
  771MPD2    C211431   3.956   3.623  13.687  0.0230 -0.0521  0.2062
  771MPD2    C311432   3.918   3.495  13.659  0.1238  0.1371  0.3918
  771MPD2    C411433   3.979   3.389  13.720 -0.4109 -0.3223  0.2287
  771MPD2    C511434   4.084   3.410  13.804 -1.0020  0.4955  0.0187
  771MPD2     H11435   3.903   3.702  13.635  0.5881 -0.8553 -1.5824
  771MPD2    H111436   3.954   3.285  13.705 -0.2998 -0.3470  0.2170
  771MPD2    H211437   4.217   3.556  13.880 -1.1547 -1.1970  0.5394
  771MPD2    H311438   4.134   3.326  13.851  0.2668  1.7656  0.9554
  771MPD2     N11439   3.819   3.484  13.561  0.6591 -0.0210 -0.1992
  771MPD2    H511440   3.769   3.568  13.534  0.8974  0.5266  1.0890
  771MPD2    N111441   4.097   3.780  13.795 -0.4645  0.0036  0.5976
  771MPD2    H711442   4.050   3.856  13.747  0.4936 -1.0187 -1.9692
  772MPD2     C11443   3.763   4.347  13.744 -0.2621 -0.4579  0.0570
  772MPD2    C111444   3.790   4.285  13.865 -0.1982 -0.1008 -0.3412
  772MPD2    C211445   3.677   4.248  13.939  0.0298  0.8046  0.2006
  772MPD2    C311446   3.549   4.303  13.911 -0.0929 -0.1188 -0.4522
  772MPD2    C411447   3.540   4.384  13.798  0.4062 -0.0289  0.4170
  772MPD2    C511448   3.643   4.394  13.716 -0.3591  0.1522  0.6579
  772MPD2     H11449   3.686   4.181  14.024 -1.9694  2.4616  1.7364
  772MPD2    H111450   3.449   4.436  13.770  0.8594  1.2696  1.3148
  772MPD2    H211451   3.829   4.357  13.658 -1.7688 -3.0033 -1.3740
  772MPD2    H311452   3.634   4.449  13.623 -1.9279 -1.3098 -0.0569
  772MPD2     N11453   3.429   4.280  13.982 -0.2687 -0.3330  0.1683
  772MPD2    H511454   3.338   4.311  13.948 -0.2266  0.2177  0.5647
  772MPD2    N111455   3.916   4.225  13.873  0.0859  0.8709  0.4926
  772MPD2    H711456   3.923   4.148  13.939 -0.2253 -0.8142 -1.4635
  773MPD2     C11457   3.530   0.321   0.242  0.2789  0.3723 -0.2598
  773MPD2    C111458   3.497   0.229   0.143 -0.2827  0.9805 -0.5351
  773MPD2    C211459   3.579   0.121   0.130 -0.0369  0.8087 -1.0183
  773MPD2    C311460   3.674   0.088   0.222 -0.6598 -0.3360 -0.4366
  773MPD2    C411461   3.707   0.183   0.314  0.4019 -0.2018 -0.4165
  773MPD2    C511462   3.633   0.295   0.321 -0.2728 -0.2526 -0.3216
  773MPD2     H11463   3.565   0.053   0.047  2.3554 -0.0964 -0.6892
  773MPD2    H111464   3.786   0.181   0.388  0.0730 -1.4139 -0.1152
  773MPD2    H211465   3.471   0.408   0.266 -0.1104 -1.0169  3.6935
  773MPD2    H311466   3.650   0.363   0.405 -0.4310 -1.2327  0.5076
  773MPD2     N11467   3.749   4.712   0.208  0.1694  0.3824  0.3652
  773MPD2    H511468   3.733   4.659   0.123  0.2706  0.9251  0.0117
  773MPD2    N111469   3.389   0.254   0.053 -0.3137 -0.3155  0.5049
  773MPD2    H711470   3.370   0.178  17.735 -0.2788 -0.1608  0.3116
  774MPD2     C11471   2.271   3.869  13.450  0.4531 -0.1177 -0.5981
  774MPD2    C111472   2.252   3.969  13.546 -0.2979 -0.0679  0.5537
  774MPD2    C211473   2.328   4.082  13.543 -0.3766 -0.9455 -0.0884
  774MPD2    C311474   2.437   4.096  13.456 -0.4264 -0.3578 -0.3253
  774MPD2    C411475   2.462   3.990  13.373  0.3148  0.2381  0.0538
  774MPD2    C511476   2.378   3.882  13.367  0.0292  1.7306  0.0438
  774MPD2     H11477   2.302   4.164  13.609 -0.6222 -0.4198 -0.8404
  774MPD2    H111478   2.544   3.997  13.302  0.6112 -1.7074  0.1933
  774MPD2    H211479   2.204   3.784  13.452  0.0559  0.1766 -1.5582
  774MPD2    H311480   2.396   3.802  13.295  0.6311  1.5240  0.4261
  774MPD2     N11481   2.511   4.215  13.451  0.6505  0.0968 -0.4473
  774MPD2    H511482   2.485   4.294  13.510 -1.7554  1.2280 -3.0211
  774MPD2    N111483   2.145   3.947  13.638 -0.8545  0.5374 -0.1236
  774MPD2    H711484   2.116   3.850  13.631  2.0244 -0.4891  2.5406
  775MPD2     C11485   3.329   1.067  15.369 -0.0386  0.1602  0.5134
  775MPD2    C111486   3.366   1.164  15.463  0.0267  0.7940  0.2118
  775MPD2    C211487   3.495   1.215  15.454 -0.3502 -0.4573  0.7801
  775MPD2    C311488   3.573   1.173  15.345  0.2573 -0.7882  0.6213
  775MPD2    C411489   3.526   1.083  15.245  0.4267 -0.5924  0.0486
  775MPD2    C511490   3.402   1.034  15.264  0.0518  0.3024  0.2962
  775MPD2     H11491   3.527   1.299  15.513  0.3814 -0.6509  0.6549
  775MPD2    H111492   3.584   1.058  15.156  0.9120 -0.4394  0.3208
  775MPD2    H211493   3.234   1.017  15.383 -0.4154  0.8096  0.3123
  775MPD2    H311494   3.358   0.971  15.188 -2.7654  3.2624 -0.5108
  775MPD2     N11495   3.707   1.216  15.328  0.6950  0.6449 -0.2565
  775MPD2    H511496   3.754   1.202  15.239  1.5892  2.1069 -0.0198
  775MPD2    N111497   3.272   1.190  15.567  0.3139 -0.0909  0.4731
  775MPD2    H711498   3.185   1.138  15.572 -0.3587  1.0728  0.8829
  776MPD2     C11499   1.786   1.367  11.708 -0.1624 -0.6414 -0.5418
  776MPD2    C111500   1.917   1.328  11.684  0.7192 -0.0660  0.1617
  776MPD2    C211501   1.994   1.415  11.605 -0.6758 -0.1905 -0.9302
  776MPD2    C311502   1.937   1.532  11.553 -0.0634  0.4201  0.1799
  776MPD2    C411503   1.817   1.582  11.596 -0.5454  0.4405  0.1625
  776MPD2    C511504   1.741   1.497  11.677 -0.0137  0.4255  0.0935
  776MPD2     H11505   2.090   1.373  11.575 -1.1127 -0.5569 -1.7992
  776MPD2    H111506   1.780   1.678  11.561  0.0660  0.5794 -0.1047
  776MPD2    H211507   1.718   1.310  11.770  0.5395  1.2555  1.9721
  776MPD2    H311508   1.644   1.539  11.699 -0.6831 -1.2723  0.4473
  776MPD2     N11509   2.015   1.614  11.466  0.7540 -0.2928  0.2629
  776MPD2    H511510   1.960   1.691  11.428 -0.9111 -1.3812  0.5010
  776MPD2    N111511   1.953   1.201  11.720 -0.3951 -0.0542 -0.0958
  776MPD2    H711512   1.874   1.152  11.761  1.4359 -2.2356  0.8428
  777MPD2     C11513   3.278   3.611   0.130  0.0218  0.1987 -0.3653
  777MPD2    C111514   3.353   3.515   0.202 -0.0708  0.3552 -0.0843
  777MPD2    C211515   3.371   3.389   0.139 -0.5021  0.7659 -0.1779
  777MPD2    C311516   3.319   3.370   0.016  0.7344 -0.3752 -0.7264
  777MPD2    C411517   3.248   3.466  17.696 -0.0738  0.2064  0.4837
  777MPD2    C511518   3.237   3.592   0.001  0.1398 -0.4842 -0.4463
  777MPD2     H11519   3.422   3.306   0.188 -2.5165 -0.4115 -0.0734
  777MPD2    H111520   3.200   3.447  17.601  0.9951 -1.3515  0.2393
  777MPD2    H211521   3.245   3.708   0.167  3.2427  1.2894 -0.4002
  777MPD2    H311522   3.183   3.668  17.693  0.1280  0.6961  1.2045
  777MPD2     N11523   3.347   3.240  17.697 -0.3248  0.5554  0.7866
  777MPD2    H511524   3.408   3.176   0.000 -0.1508 -0.2459 -0.4521
  777MPD2    N111525   3.392   3.544   0.335  0.1334  0.7127 -0.4988
  777MPD2    H711526   3.356   3.627   0.381  2.8594  0.9802  1.1063
  778MPD2     C11527   3.979   3.852  14.628  0.8631  0.6909  0.2628
  778MPD2    C111528   4.053   3.740  14.630  0.3216  0.6845  0.1864
  778MPD2    C211529   4.191   3.747  14.611  0.2258  0.2344  0.0641
  778MPD2    C311530   4.249   3.869  14.585  0.3665  0.2540 -0.1305
  778MPD2    C411531   4.174   3.984  14.591 -0.2823  0.0408 -0.8763
  778MPD2    C511532   4.037   3.972  14.601  0.5688 -0.8857  0.4331
  778MPD2     H11533   4.248   3.655  14.601  1.6628  1.2631 -1.2506
  778MPD2    H111534   4.206   4.082  14.560  0.5661 -0.3379 -1.1967
  778MPD2    H211535   3.870   3.851  14.622  0.8483  0.6359  0.4998
  778MPD2    H311536   3.979   4.064  14.604  2.3004  0.1805  1.3376
  778MPD2     N11537   4.387   3.872  14.560  0.0137  0.0986  0.6790
  778MPD2    H511538   4.435   3.784  14.578 -1.4044 -0.9664 -0.7810
  778MPD2    N111539   3.995   3.613  14.644 -0.3184  0.5651  0.5161
  778MPD2    H711540   4.046   3.527  14.629 -0.0612  0.7569  0.2791
  779MPD2     C11541   3.659   2.170  14.127 -0.4137 -0.7401  0.1814
  779MPD2    C111542   3.758   2.214  14.211  0.6089 -0.3232 -0.0775
  779MPD2    C211543   3.812   2.341  14.193  1.4681  0.1746  0.1224
  779MPD2    C311544   3.769   2.426  14.088  0.9759  0.1990  0.6154
  779MPD2    C411545   3.664   2.376  14.002 -0.3940  0.4830  0.5316
  779MPD2    C511546   3.619   2.254  14.026 -0.1171  0.1847  0.5188
  779MPD2     H11547   3.899   2.359  14.255  1.5732 -1.7331  0.5237
  779MPD2    H111548   3.622   2.421  13.913 -1.2184 -1.1689  0.0650
  779MPD2    H211549   3.613   2.073  14.143 -1.5186 -0.4041 -0.8857
  779MPD2    H311550   3.541   2.218  13.960  1.9321 -1.9612 -0.7325
  779MPD2     N11551   3.833   2.552  14.062  0.0751 -0.2793 -0.0467
  779MPD2    H511552   3.913   2.584  14.116  0.2840 -0.6500 -0.1382
  779MPD2    N111553   3.821   2.141  14.317  0.8011 -0.8141  0.2538
  779MPD2    H711554   3.899   2.181  14.369 -0.5715  0.0173  1.6819
  780MPD2     C11555   3.903   2.347   1.335  1.1214 -0.4733 -0.2000
  780MPD2    C111556   3.862   2.307   1.209  0.5427  0.6323  0.4750
  780MPD2    C211557   3.926   2.347   1.090  0.0591  0.0842 -0.2289
  780MPD2    C311558   4.034   2.430   1.100  0.3071 -0.1392  0.4032
  780MPD2    C411559   4.073   2.477   1.230 -0.1519 -0.6265  0.3089
  780MPD2    C511560   4.013   2.436   1.348 -0.2770 -0.2432  0.0842
  780MPD2     H11561   3.905   2.291   1.000  0.0648 -1.6669  0.8618
  780MPD2    H111562   4.154   2.548   1.240  0.2860 -0.4130 -4.6845
  780MPD2    H211563   3.838   2.333   1.420  2.0396  0.0400  0.5937
  780MPD2    H311564   4.046   2.473   1.444  0.1759  0.7960 -0.4790
  780MPD2     N11565   4.118   2.433   0.995 -0.2160  0.1818 -0.5695
  780MPD2    H511566   4.089   2.398   0.904 -1.8553  0.9538 -0.3389
  780MPD2    N111567   3.750   2.220   1.198 -0.0822  0.4268  0.1532
  780MPD2    H711568   3.713   2.174   1.281  1.0664 -1.0757 -0.1509
  781MPD2     C11569   0.290   3.928  11.983  0.1537 -0.3261  0.7889
  781MPD2    C111570   0.399   3.920  12.071  0.4737 -0.0662 -0.0744
  781MPD2    C211571   0.529   3.910  12.006 -0.2923 -0.0400 -0.3042
  781MPD2    C311572   0.544   3.919  11.869  0.1180  0.1114 -0.2040
  781MPD2    C411573   0.432   3.933  11.792 -0.0137  0.2558  0.0602
  781MPD2    C511574   0.309   3.934  11.848  0.1489 -0.2287  0.1859
  781MPD2     H11575   0.614   3.892  12.071 -1.2029 -2.3929  0.2043
  781MPD2    H111576   0.443   3.942  11.684 -1.4183  2.1442  0.0859
  781MPD2    H211577   0.185   3.914  12.006 -0.0992  0.0184 -0.1546
  781MPD2    H311578   0.219   3.924  11.787  1.0772  0.1775 -1.2648
  781MPD2     N11579   0.672   3.915  11.804 -0.0636  0.3762 -0.2124
  781MPD2    H511580   0.676   3.940  11.706 -0.4534  0.7465 -0.1386
  781MPD2    N111581   0.381   3.900  12.215 -0.7321 -0.3270  0.3626
  781MPD2    H711582   0.466   3.886  12.268  0.7141  2.6525 -1.2047
  782MPD2     C11583   2.582   0.135  10.506 -0.0677 -0.8732  0.1818
  782MPD2    C111584   2.715   0.159  10.470 -0.8365  0.0178  0.0508
  782MPD2    C211585   2.773   0.275  10.515 -0.5158 -0.2998  0.4219
  782MPD2    C311586   2.707   0.365  10.599  0.0498  0.0097 -0.1874
  782MPD2    C411587   2.578   0.342  10.630  0.0410  0.3933 -0.7390
  782MPD2    C511588   2.517   0.236  10.577  0.0381  0.4069 -0.2789
  782MPD2     H11589   2.871   0.311  10.485  0.3567 -0.9029  2.6176
  782MPD2    H111590   2.516   0.402  10.696 -2.1309 -1.7393 -0.8727
  782MPD2    H211591   2.530   0.046  10.474 -1.4713 -0.4092  1.1748
  782MPD2    H311592   2.413   0.216  10.603 -0.2657  0.1773 -1.6875
  782MPD2     N11593   2.780   0.474  10.657 -0.1635  0.1370  0.7765
  782MPD2    H511594   2.879   0.476  10.637 -0.6614 -2.7384 -2.0227
  782MPD2    N111595   2.786   0.059  10.403 -0.6484 -0.3012 -0.0862
  782MPD2    H711596   2.754   4.701  10.388  1.3742 -1.1969  1.2904
  783MPD2     C11597   2.743   4.381  11.019 -0.3465  0.4073 -0.6353
  783MPD2    C111598   2.791   4.511  11.016 -1.0884 -0.7924 -0.2029
  783MPD2    C211599   2.878   4.540  10.909 -0.5386 -0.3038 -1.0694
  783MPD2    C311600   2.910   4.451  10.806 -0.0116 -0.2927 -0.3388
  783MPD2    C411601   2.865   4.319  10.819 -0.4656  0.1522 -0.0286
  783MPD2    C511602   2.775   4.290  10.920  0.3072 -0.2750 -0.1475
  783MPD2     H11603   2.924   4.639  10.908 -0.7975 -0.1861 -1.4086
  783MPD2    H111604   2.891   4.234  10.756 -2.2800 -1.5597  1.5329
  783MPD2    H211605   2.670   4.346  11.091  1.1047  0.3109  0.7806
  783MPD2    H311606   2.729   4.192  10.917 -0.4954  0.0819  0.5787
  783MPD2     N11607   2.980   4.498  10.699 -0.0247  0.3608 -0.5954
  783MPD2    H511608   2.985   4.599  10.686  0.3150  1.1041  5.1657
  783MPD2    N111609   2.754   4.589  11.126  0.7109 -0.7101 -0.1543
  783MPD2    H711610   2.685   4.554  11.192  0.1206  0.9631  0.1258
  784MPD2     C11611   1.693   0.641   0.600  0.1839 -0.6446 -0.5910
  784MPD2    C111612   1.707   0.770   0.562  0.1081  0.8841 -0.3695
  784MPD2    C211613   1.605   0.831   0.486 -0.0620 -0.0205 -0.1032
  784MPD2    C311614   1.486   0.763   0.457  0.6329 -0.5960  0.2279
  784MPD2    C411615   1.481   0.634   0.499 -0.2590 -0.6796  0.0701
  784MPD2    C511616   1.581   0.573   0.563  0.3685  0.6719  0.3845
  784MPD2     H11617   1.608   0.937   0.466 -1.3587  0.1014  0.3574
  784MPD2    H111618   1.392   0.575   0.478  0.3279 -1.1547 -1.0353
  784MPD2    H211619   1.767   0.584   0.655  0.8798 -0.6755 -1.5638
  784MPD2    H311620   1.570   0.468   0.587  0.5794  0.6822  0.5169
  784MPD2     N11621   1.382   0.840   0.402  0.3765 -0.5723  0.0935
  784MPD2    H511622   1.410   0.924   0.352 -0.6722  0.9135  2.0137
  784MPD2    N111623   1.830   0.841   0.581  0.1728  0.9554  0.8136
  784MPD2    H711624   1.825   0.941   0.564 -1.8273  0.5305 -1.0921
  785MPD2     C11625   0.708   4.397  10.142  0.3118 -0.3273  0.1529
  785MPD2    C111626   0.664   4.445  10.011 -0.5614 -0.2792 -0.3544
  785MPD2    C211627   0.631   4.344   9.916 -0.4909 -0.1008 -0.6269
  785MPD2    C311628   0.641   4.213   9.948  0.0149 -0.1500 -0.0862
  785MPD2    C411629   0.667   4.176  10.072 -0.0327  0.5772  0.0439
  785MPD2    C511630   0.711   4.261  10.166  0.2340  0.1262 -0.5340
  785MPD2     H11631   0.586   4.373   9.821  1.0406 -3.9719 -2.5367
  785MPD2    H111632   0.651   4.073  10.103  2.0720  0.3362  0.3099
  785MPD2    H211633   0.731   4.454  10.232 -0.6528  2.0274 -1.0818
  785MPD2    H311634   0.729   4.224  10.266 -0.3933  0.8739 -0.1444
  785MPD2     N11635   0.613   4.124   9.845  0.2508 -1.1056  0.0719
  785MPD2    H511636   0.593   4.161   9.753  1.4076 -0.1129  0.2182
  785MPD2    N111637   0.666   4.583   9.990  0.1877 -0.4293  0.6168
  785MPD2    H711638   0.713   4.645  10.056 -1.3607  1.5148 -0.1067
  786MPD2     C11639   4.063   1.556  14.759 -0.2510  0.0391  0.5474
  786MPD2    C111640   4.178   1.523  14.698 -0.0583 -0.2541  0.3315
  786MPD2    C211641   4.296   1.590  14.723  0.1097  0.5429  0.1494
  786MPD2    C311642   4.301   1.684  14.824 -0.0061  0.8438  0.3784
  786MPD2    C411643   4.186   1.709  14.892 -0.2376  0.0641  0.3390
  786MPD2    C511644   4.067   1.655  14.858  0.2289  0.1509  0.2102
  786MPD2     H11645   4.389   1.562  14.674 -0.4290 -3.1515  1.2341
  786MPD2    H111646   4.192   1.788  14.966  1.7884 -0.7073  0.9747
  786MPD2    H211647   3.971   1.503  14.736 -1.0433  1.6419  0.0268
  786MPD2    H311648   3.977   1.677  14.913  0.0808 -2.4372  1.0345
  786MPD2     N11649   4.422   1.747  14.868  0.5090  0.0087  0.0002
  786MPD2    H511650   4.410   1.802  14.952 -0.8634  1.9921 -1.4891
  786MPD2    N111651   4.183   1.417  14.603  1.1405 -0.1978  0.1652
  786MPD2    H711652   4.266   1.406  14.546  1.6767  1.9206  0.5246
  787MPD2     C11653   4.646   1.056  14.656  0.3292 -0.5791  0.4453
  787MPD2    C111654   4.601   1.028  14.528 -0.1810 -0.9009  0.0668
  787MPD2    C211655   4.673   0.935  14.456 -0.3098  0.3687 -0.1281
  787MPD2    C311656   0.055   0.880  14.502  0.7539  0.1474  0.3537
  787MPD2    C411657   0.088   0.901  14.633  0.5861 -0.0029  0.4138
  787MPD2    C511658   0.021   0.998  14.707  0.0859  0.1566 -0.3868
  787MPD2     H11659   4.638   0.911  14.356  0.1314 -0.2030 -0.1454
  787MPD2    H111660   0.184   0.869  14.672  0.9262  0.7971  0.2402
  787MPD2    H211661   4.610   1.143  14.710 -0.2110 -0.8385  0.4978
  787MPD2    H311662   0.056   1.024  14.806 -0.1635 -0.1223 -0.2256
  787MPD2     N11663   0.130   0.810  14.409  0.2445  0.9124  0.6959
  787MPD2    H511664   0.093   0.803  14.315  0.9267  0.0427  0.4962
  787MPD2    N111665   4.483   1.091  14.479  0.2102 -0.8507 -0.7259
  787MPD2    H711666   4.443   1.163  14.539 -0.2467 -2.7564  1.2942
  788MPD2     C11667   2.310   0.145   0.749 -1.1005  0.1880  1.0602
  788MPD2    C111668   2.223   0.082   0.662  0.5028 -0.2767 -0.7059
  788MPD2    C211669   2.125   0.152   0.594 -0.3888 -0.3416  0.4523
  788MPD2    C311670   2.113   0.291   0.618  0.2109  0.1330 -0.0294
  788MPD2    C411671   2.198   0.353   0.709 -0.1045  0.4209 -0.5895
  788MPD2    C511672   2.299   0.282   0.770  1.0076  0.3309  0.0898
  788MPD2     H11673   2.055   0.100   0.529  1.4968 -1.0385 -1.0033
  788MPD2    H111674   2.188   0.458   0.737 -0.1938  0.1731  0.3092
  788MPD2    H211675   2.393   0.094   0.796  1.0352  0.8038 -2.0730
  788MPD2    H311676   2.367   0.325   0.842 -1.6791  2.1993  1.4709
  788MPD2     N11677   2.027   0.376   0.548  0.2244  0.0389 -0.5331
  788MPD2    H511678   2.038   0.472   0.579 -2.4081  0.0004  0.5558
  788MPD2    N111679   2.238   4.678   0.655 -0.2746 -0.8615  0.2917
  788MPD2    H711680   2.322   4.650   0.705 -0.1616 -0.9483  0.0538
  789MPD2     C11681   2.386   4.489  16.537  0.3321 -0.0283  0.0179
  789MPD2    C111682   2.291   4.470  16.442 -0.2756  0.5806 -0.5024
  789MPD2    C211683   2.177   4.544  16.448  0.1796  0.8651 -0.1360
  789MPD2    C311684   2.161   4.638  16.547  0.6032 -0.2420  0.7677
  789MPD2    C411685   2.259   4.656  16.636 -0.2272 -0.1941  0.1418
  789MPD2    C511686   2.373   4.583  16.631 -0.0058 -0.6365 -0.2664
  789MPD2     H11687   2.115   4.533  16.360  2.7239 -2.0668 -1.5748
  789MPD2    H111688   2.248   4.717  16.724  0.6321 -1.5486  1.1840
  789MPD2    H211689   2.481   4.437  16.537  0.1224 -0.4043  0.1095
  789MPD2    H311690   2.439   4.595  16.716 -1.8622  2.0676  0.7905
  789MPD2     N11691   2.045   4.717  16.557 -0.8299  0.3189  0.1660
  789MPD2    H511692   2.042   0.045  16.635  0.4746 -0.9884  1.2922
  789MPD2    N111693   2.299   4.366  16.349  0.0884  0.7933  0.4365
  789MPD2    H711694   2.212   4.349  16.299  1.0442 -1.1439 -0.5677
  790MPD2     C11695   3.045   1.085  13.252  0.2373  0.6119  0.5274
  790MPD2    C111696   2.927   1.031  13.306 -0.7466 -0.0469 -0.2316
  790MPD2    C211697   2.832   0.996  13.221 -0.2050 -0.8773 -0.0037
  790MPD2    C311698   2.843   1.009  13.084 -0.8841 -1.0318 -0.4262
  790MPD2    C411699   2.958   1.059  13.031 -0.5627 -0.3127  0.0839
  790MPD2    C511700   3.055   1.100  13.116  0.2548  0.4288  0.2312
  790MPD2     H11701   2.742   0.955  13.265 -0.1238 -1.0293  0.0186
  790MPD2    H111702   2.954   1.085  12.926 -0.7070 -0.6173  0.0120
  790MPD2    H211703   3.120   1.124  13.321 -0.7103 -0.6637  2.2658
  790MPD2    H311704   3.145   1.145  13.074  1.1023  2.6656  4.4148
  790MPD2     N11705   2.735   0.953  13.019 -0.1159  0.5419 -0.2430
  790MPD2    H511706   2.651   0.946  13.076  0.4260 -1.1520  0.3721
  790MPD2    N111707   2.918   1.036  13.446 -0.0308 -0.4383  0.0415
  790MPD2    H711708   2.998   1.078  13.493  0.3810 -0.0536 -0.9906
  791MPD2     C11709   1.998   1.072  12.637  0.6083 -0.0697  0.4180
  791MPD2    C111710   2.062   0.976  12.713  0.5631 -0.4387  0.7754
  791MPD2    C211711   1.988   0.866  12.765 -0.0099  0.7072 -0.4093
  791MPD2    C311712   1.856   0.854  12.727 -0.1131 -0.3138 -0.4836
  791MPD2    C411713   1.795   0.962  12.667 -0.5813  0.3175  0.4716
  791MPD2    C511714   1.863   1.069  12.626  0.4632 -0.0272 -0.5040
  791MPD2     H11715   2.041   0.792  12.825  0.9335  0.5806 -1.3931
  791MPD2    H111716   1.689   0.961  12.641 -0.6444  0.7598  0.7141
  791MPD2    H211717   2.055   1.147  12.583  2.3953 -0.7610  1.3449
  791MPD2    H311718   1.815   1.153  12.578 -0.5133  0.2653  0.9896
  791MPD2     N11719   1.805   0.727  12.743  0.0274 -0.5043  0.0401
  791MPD2    H511720   1.868   0.647  12.744 -0.0155 -0.5471 -0.9202
  791MPD2    N111721   2.200   0.990  12.729  0.1680 -0.4134 -0.4592
  791MPD2    H711722   2.243   1.069  12.683  1.6467  0.7004  2.8388
  792MPD2     C11723   2.825   1.149  11.163 -0.4926 -0.6240  0.4946
  792MPD2    C111724   2.780   1.263  11.099 -0.1974 -0.0679  0.4035
  792MPD2    C211725   2.641   1.293  11.099 -0.0147  0.5129 -0.1683
  792MPD2    C311726   2.557   1.213  11.175 -0.2912  0.1510 -0.1713
  792MPD2    C411727   2.606   1.100  11.234 -0.5719 -1.3520  0.5942
  792MPD2    C511728   2.739   1.064  11.224  0.3070 -0.7394  0.2093
  792MPD2     H11729   2.601   1.389  11.067  1.3676  1.4976  1.0517
  792MPD2    H111730   2.549   1.041  11.305 -2.1236  0.3552  0.7504
  792MPD2    H211731   2.931   1.126  11.162 -0.6338 -1.2885  0.8510
  792MPD2    H311732   2.778   0.987  11.289 -0.9125 -1.7803 -0.2715
  792MPD2     N11733   2.418   1.242  11.193  0.7806 -0.9233  0.0980
  792MPD2    H511734   2.364   1.170  11.239 -0.6656 -0.4276 -0.8287
  792MPD2    N111735   2.874   1.336  11.025 -0.1166 -0.0546  0.1477
  792MPD2    H711736   2.970   1.305  11.033 -0.0469  0.3409  0.8815
  793MPD2     C11737   1.981   1.374  10.438  0.1322 -0.4060 -0.0983
  793MPD2    C111738   2.111   1.351  10.481 -0.2465 -0.1874  0.2810
  793MPD2    C211739   2.122   1.347  10.619  0.1349  0.2487  0.7397
  793MPD2    C311740   2.020   1.369  10.709 -0.7433 -0.1405  0.4041
  793MPD2    C411741   1.896   1.395  10.656  0.2012 -0.1146  0.4545
  793MPD2    C511742   1.879   1.385  10.522 -0.2377 -0.0146  0.2695
  793MPD2     H11743   2.220   1.329  10.662  0.3984  0.7750  0.3740
  793MPD2    H111744   1.810   1.400  10.721  0.6819 -1.2922  1.1688
  793MPD2    H211745   1.961   1.378  10.331 -0.6889  0.8359  0.0986
  793MPD2    H311746   1.785   1.393  10.468 -0.2999  0.1695  0.4071
  793MPD2     N11747   2.048   1.375  10.844  0.6257 -0.1100 -0.4264
  793MPD2    H511748   2.143   1.356  10.875  1.5573 -0.6010 -3.5052
  793MPD2    N111749   2.227   1.325  10.405 -0.0665  0.5052 -0.3819
  793MPD2    H711750   2.310   1.311  10.461  0.0177  0.0952 -0.6085
  794MPD2     C11751   3.000   0.788  17.258  0.5826  0.4938  0.0161
  794MPD2    C111752   2.978   0.657  17.218 -0.0611  0.0812  0.3576
  794MPD2    C211753   2.921   0.633  17.096 -0.1144  0.2182  0.2200
  794MPD2    C311754   2.885   0.739  17.016  0.8548 -0.0518 -0.2064
  794MPD2    C411755   2.923   0.871  17.049  0.2127  0.2953  0.2200
  794MPD2    C511756   2.967   0.894  17.173  0.3962 -0.6465  0.1176
  794MPD2     H11757   2.902   0.532  17.061 -0.6507  1.7689 -3.9684
  794MPD2    H111758   2.910   0.956  16.983 -1.4769  0.2760  0.5358
  794MPD2    H211759   3.036   0.813  17.358  1.4674  0.9246 -0.4073
  794MPD2    H311760   2.981   0.991  17.218  0.9083 -0.0528 -1.3387
  794MPD2     N11761   2.827   0.731  16.888  0.0704  0.5668 -0.7271
  794MPD2    H511762   2.811   0.817  16.837  0.2670  1.5475  0.8452
  794MPD2    N111763   3.026   0.547  17.296 -0.0522 -0.1660 -0.2253
  794MPD2    H711764   3.043   0.462  17.244  1.6043 -1.2523  2.1109
  795MPD2     C11765   0.325   2.654  13.597 -0.0856  0.1934 -0.0744
  795MPD2    C111766   0.263   2.556  13.523  0.4471 -1.0086  0.6655
  795MPD2    C211767   0.333   2.458  13.459  0.2497 -0.2513 -0.3806
  795MPD2    C311768   0.469   2.465  13.460  0.4647 -0.5814  0.3828
  795MPD2    C411769   0.534   2.561  13.539  0.1803 -0.1562  0.1901
  795MPD2    C511770   0.461   2.655  13.608 -0.5321 -0.0483 -0.0009
  795MPD2     H11771   0.284   2.377  13.407 -1.1384  1.3509 -1.5868
  795MPD2    H111772   0.642   2.574  13.538  0.0602  0.7542 -0.8326
  795MPD2    H211773   0.267   2.723  13.658 -2.3073  0.2022 -2.2184
  795MPD2    H311774   0.510   2.729  13.671 -0.5255  0.1012 -0.1795
  795MPD2     N11775   0.536   2.370  13.387  0.0817 -0.8181 -0.3371
  795MPD2    H511776   0.473   2.295  13.364 -2.0545  0.4908  1.2648
  795MPD2    N111777   0.120   2.562  13.497  0.5637  0.3375  1.2618
  795MPD2    H711778   0.094   2.504  13.417 -0.1863  1.1585  0.9187
  796MPD2     C11779   4.320   4.341  15.625 -0.5403  0.0293  0.3911
  796MPD2    C111780   4.428   4.424  15.655  0.1806  0.1733 -0.3531
  796MPD2    C211781   4.411   4.562  15.667 -0.0874  0.4741 -0.1521
  796MPD2    C311782   4.293   4.625  15.626  0.2081 -0.9983 -0.1671
  796MPD2    C411783   4.187   4.541  15.590  0.0589  0.4369  0.5275
  796MPD2    C511784   4.201   4.401  15.594 -0.7981  0.8715  1.5224
  796MPD2     H11785   4.497   4.626  15.688  0.7640 -0.3269 -1.1960
  796MPD2    H111786   4.089   4.568  15.553  0.0797 -1.2965 -0.7619
  796MPD2    H211787   4.339   4.234  15.619 -0.2233  0.0449  1.0980
  796MPD2    H311788   4.113   4.341  15.570 -0.1185  0.0336  1.1288
  796MPD2     N11789   4.292   0.032  15.614 -0.8317  0.2907  1.0617
  796MPD2    H511790   4.372   0.076  15.658  0.2618 -0.2088 -0.4160
  796MPD2    N111791   4.546   4.353  15.688 -0.7388  0.5046  0.3117
  796MPD2    H711792   4.554   4.258  15.654  1.3839  0.6780  0.3461
  797MPD2     C11793   1.200   3.768  16.863  0.4574  0.6697 -0.2030
  797MPD2    C111794   1.256   3.880  16.812 -0.0606  0.7958  0.5947
  797MPD2    C211795   1.188   3.954  16.728  0.1416  0.3296 -0.0253
  797MPD2    C311796   1.059   3.920  16.692  0.0479  0.4853  0.7748
  797MPD2    C411797   1.008   3.801  16.735  0.1921  0.8942 -0.5165
  797MPD2    C511798   1.071   3.728  16.826  0.7206 -0.6693  0.4807
  797MPD2     H11799   1.242   4.038  16.686  0.1574 -0.1115 -0.8882
  797MPD2    H111800   0.904   3.770  16.725  0.7695 -1.7780  1.6174
  797MPD2    H211801   1.255   3.715  16.941 -1.4577 -1.9335 -0.6130
  797MPD2    H311802   1.018   3.646  16.874 -2.4898  1.1143 -0.0153
  797MPD2     N11803   0.969   4.010  16.626  0.6910  0.1174 -0.0203
  797MPD2    H511804   0.883   3.974  16.587  0.5904 -1.2151  1.4243
  797MPD2    N111805   1.379   3.937  16.841  0.0392 -0.7660  0.0939
  797MPD2    H711806   1.406   4.015  16.782  1.1497 -0.6664  0.7271
  798MPD2     C11807   1.294   4.677  16.653 -0.4237  0.6446 -0.4943
  798MPD2    C111808   1.298   4.550  16.593 -0.1013  0.0191  0.6156
  798MPD2    C211809   1.373   4.452  16.650 -0.0823 -0.2893  0.4158
  798MPD2    C311810   1.452   4.478  16.758 -0.3337 -0.7347  0.0507
  798MPD2    C411811   1.449   4.601  16.821  0.4396  0.1745  0.3383
  798MPD2    C511812   1.364   4.695  16.770 -0.2888 -0.2007  0.1096
  798MPD2     H11813   1.366   4.352  16.610 -0.1526 -0.7010  1.4630
  798MPD2    H111814   1.509   4.630  16.907 -1.1170 -1.1291  1.8499
  798MPD2    H211815   1.228   0.018  16.616 -2.0492 -1.2491 -1.5863
  798MPD2    H311816   1.346   0.060  16.803 -0.9990  0.0199 -0.9470
  798MPD2     N11817   1.536   4.368  16.787 -0.3767 -0.1580 -0.0370
  798MPD2    H511818   1.516   4.283  16.736 -1.8621 -0.3126  0.8041
  798MPD2    N111819   1.212   4.520  16.483 -0.1569 -0.2606 -0.4591
  798MPD2    H711820   1.134   4.582  16.460  1.4110  1.4725 -1.1521
  799MPD2     C11821   4.574   0.523  14.620  0.0107 -0.3390  0.0875
  799MPD2    C111822   4.557   0.451  14.504  0.1506 -0.5939 -0.1481
  799MPD2    C211823   4.485   0.512  14.402 -0.5642 -0.2491 -0.0822
  799MPD2    C311824   4.431   0.639  14.405 -0.5119 -0.5831  1.0337
  799MPD2    C411825   4.441   0.709  14.520 -0.3381  0.0644 -0.0385
  799MPD2    C511826   4.512   0.649  14.625  0.0344 -0.1856 -1.1891
  799MPD2     H11827   4.474   0.451  14.313 -0.1914  0.4471 -0.5990
  799MPD2    H111828   4.406   0.812  14.530  1.1875  0.1935  3.7812
  799MPD2    H211829   4.611   0.485  14.715 -0.8805 -2.5589 -0.4419
  799MPD2    H311830   4.513   0.685  14.727  0.6893  1.2480 -1.7115
  799MPD2     N11831   4.366   0.696  14.294  0.6423  0.2351 -0.5292
  799MPD2    H511832   4.356   0.797  14.302 -2.2805 -0.1617  0.6449
  799MPD2    N111833   4.586   0.313  14.493 -0.2822  0.5621  0.3754
  799MPD2    H711834   4.547   0.264  14.413  0.1216  2.3742 -0.9390
  800MPD2     C11835   0.143   1.499  13.986 -0.3457  0.0896 -0.0225
  800MPD2    C111836   0.232   1.533  13.887 -0.6271  0.4822 -0.9355
  800MPD2    C211837   0.179   1.530  13.756  0.0933  0.2888 -0.3519
  800MPD2    C311838   0.051   1.495  13.722 -0.4425 -0.4984 -0.3037
  800MPD2    C411839   4.702   1.464  13.826 -0.2484  0.6535 -0.0946
  800MPD2    C511840   0.014   1.464  13.961  0.2791 -0.8230  0.4628
  800MPD2     H11841   0.238   1.553  13.668 -0.5883  0.4039 -0.7789
  800MPD2    H111842   4.601   1.429  13.805  1.2324 -2.9471 -1.1924
  800MPD2    H211843   0.178   1.522  14.086  0.2692  0.0589 -0.2316
  800MPD2    H311844   4.676   1.451  14.038 -0.3355  0.1739  0.0321
  800MPD2     N11845   0.013   1.495  13.587 -0.4443  0.1819 -0.4023
  800MPD2    H511846   0.081   1.518  13.515  0.1737  0.2499  0.2036
  800MPD2    N111847   0.363   1.566  13.922 -0.2166 -0.2454  0.5375
  800MPD2    H711848   0.397   1.575  14.018  1.1593  0.8704 -0.0586
  801MPD2     C11849   0.771   2.226  13.714  0.5123 -0.5854 -0.5036
  801MPD2    C111850   0.676   2.157  13.789 -0.0197 -0.5497  0.2854
  801MPD2    C211851   0.604   2.232  13.889  0.1036 -0.2707 -0.6320
  801MPD2    C311852   0.629   2.371  13.904 -0.9431 -0.6231  0.0871
  801MPD2    C411853   0.698   2.436  13.811  0.0126  0.5156  0.6520
  801MPD2    C511854   0.767   2.367  13.717 -0.4764 -0.3008 -0.0569
  801MPD2     H11855   0.528   2.184  13.951  0.2098 -0.9040 -0.9945
  801MPD2    H111856   0.704   2.545  13.814 -1.7897  0.6235  0.5199
  801MPD2    H211857   0.822   2.185  13.628 -1.1962 -2.0737 -0.7923
  801MPD2    H311858   0.830   2.422  13.648 -0.4624 -0.9183 -0.5369
  801MPD2     N11859   0.568   2.452  14.006  0.8928 -0.3779 -0.0499
  801MPD2    H511860   0.589   2.551  13.995 -0.8572 -0.2424 -2.2015
  801MPD2    N111861   0.663   2.016  13.787  0.7394 -0.2180 -0.6252
  801MPD2    H711862   0.592   1.979  13.849  0.7275 -0.6474 -0.8966
  802MPD2     C11863   4.036   2.477  17.401 -0.3630 -0.5787  0.3131
  802MPD2    C111864   4.172   2.484  17.407 -0.1418 -0.3666 -0.0279
  802MPD2    C211865   4.247   2.386  17.345 -0.6174 -0.2760 -0.8427
  802MPD2    C311866   4.199   2.295  17.256 -0.3502 -0.1488  0.6981
  802MPD2    C411867   4.058   2.295  17.244  0.4423 -0.0262  0.3931
  802MPD2    C511868   3.981   2.379  17.321  1.0981  0.0710  0.2322
  802MPD2     H11869   4.354   2.405  17.350 -0.9757  0.8192  2.5522
  802MPD2    H111870   3.998   2.238  17.174  3.2265  2.1878 -3.8493
  802MPD2    H211871   3.968   2.555  17.433 -0.1033  0.4185 -1.5339
  802MPD2    H311872   3.872   2.377  17.315  1.1360 -1.1668 -0.2353
  802MPD2     N11873   4.288   2.218  17.176 -0.5097 -0.2890 -0.4375
  802MPD2    H511874   4.386   2.226  17.197 -0.3803  0.0492 -1.1528
  802MPD2    N111875   4.241   2.579  17.488 -0.5678 -0.2123  0.1117
  802MPD2    H711876   4.342   2.586  17.484 -0.6198 -1.0781 -3.2426
  803MPD2     C11877   0.592   0.982  11.913  0.2783  0.3411 -0.7859
  803MPD2    C111878   0.695   0.954  11.995 -0.4417  0.5314  0.0170
  803MPD2    C211879   0.671   0.852  12.088 -0.0493 -0.3613  0.1194
  803MPD2    C311880   0.558   0.776  12.083  0.6069 -0.9315 -0.3394
  803MPD2    C411881   0.476   0.788  11.976  0.4520  0.3789 -0.5273
  803MPD2    C511882   0.486   0.894  11.895  0.3221  0.0005  0.5432
  803MPD2     H11883   0.748   0.837  12.162 -1.0758 -1.3100  1.0068
  803MPD2    H111884   0.387   0.728  11.965  1.6231 -0.9513 -2.6265
  803MPD2    H211885   0.583   1.072  11.853  0.5940  1.6116  1.0921
  803MPD2    H311886   0.399   0.913  11.833 -0.8643 -0.7761  1.9753
  803MPD2     N11887   0.517   0.683  12.184  0.0818 -0.4716 -0.2346
  803MPD2    H511888   0.422   0.648  12.184  0.1336 -0.6153 -2.1178
  803MPD2    N111889   0.811   1.037  11.999 -0.8592 -0.8431  0.5822
  803MPD2    H711890   0.873   1.024  12.079 -0.4259  0.4748  0.4625
  804MPD2     C11891   0.596   2.542  16.806  0.5266  0.8456 -0.1094
  804MPD2    C111892   0.628   2.528  16.940  0.0876 -0.3061  1.0029
  804MPD2    C211893   0.688   2.636  17.005 -0.3223  0.3175 -0.5878
  804MPD2    C311894   0.731   2.744  16.936 -0.1533 -0.1861  0.0989
  804MPD2    C411895   0.686   2.761  16.804 -0.4305 -0.1054  1.0786
  804MPD2    C511896   0.619   2.661  16.746 -0.1124 -0.6257 -0.3102
  804MPD2     H11897   0.722   2.630  17.107 -2.2277  2.0843  0.1559
  804MPD2    H111898   0.702   2.849  16.743  1.3236 -1.2959 -0.2061
  804MPD2    H211899   0.531   2.467  16.763  1.9648 -0.8521  0.6635
  804MPD2    H311900   0.582   2.680  16.646  1.0746 -0.4826 -0.7143
  804MPD2     N11901   0.830   2.833  16.991 -0.4432  0.5274  0.0326
  804MPD2    H511902   0.846   2.813  17.089 -1.8317 -2.7271 -0.3733
  804MPD2    N111903   0.606   2.410  17.017  0.2673  0.0573  0.0039
  804MPD2    H711904   0.616   2.410  17.118 -1.3526  2.2946  0.1792
  805MPD2     C11905   4.529   1.026  15.432  0.0939 -0.7107 -0.1448
  805MPD2    C111906   4.597   0.917  15.374  0.4792 -0.4825  0.1561
  805MPD2    C211907   4.724   0.878  15.423 -0.4924  0.0433 -0.2108
  805MPD2    C311908   0.048   0.955  15.521 -0.1844  0.5243  0.2840
  805MPD2    C411909   4.714   1.061  15.574  0.3264  0.4385  0.2045
  805MPD2    C511910   4.592   1.091  15.539 -0.8935  0.2874 -0.2959
  805MPD2     H11911   0.029   0.787  15.382 -1.0529 -0.4083  0.2131
  805MPD2    H111912   0.027   1.118  15.652 -0.1605 -0.5251  1.2212
  805MPD2    H211913   4.429   1.057  15.407 -0.2371 -1.8308 -0.1612
  805MPD2    H311914   4.539   1.171  15.589  0.0579 -0.0072  1.1705
  805MPD2     N11915   0.182   0.922  15.568 -0.8796  0.5758  0.5884
  805MPD2    H511916   0.211   0.973  15.650  0.7053 -0.3432  0.5970
  805MPD2    N111917   4.532   0.840  15.275  0.0685 -0.4718 -0.3911
  805MPD2    H711918   4.576   0.760  15.230  2.0397  0.3453  0.0908
  806MPD2     C11919   4.642   0.043   0.153 -0.1497 -0.0177 -0.0491
  806MPD2    C111920   0.036   0.032   0.188 -0.0751  0.1615 -0.8020
  806MPD2    C211921   0.127   0.003   0.084 -0.3958 -0.2359 -0.6012
  806MPD2    C311922   0.086   4.716  17.704  0.0053 -0.4283 -0.1224
  806MPD2    C411923   4.696   0.003  17.671 -0.1974 -0.7319  0.2676
  806MPD2    C511924   4.607   0.033   0.022 -0.3276 -0.3340  0.2742
  806MPD2     H11925   0.233   4.730   0.107 -0.8389  0.6878  1.9067
  806MPD2    H111926   4.656   4.711  17.575  1.0882  0.9747 -0.7712
  806MPD2    H211927   4.570   0.085   0.221  2.2209 -0.4984  2.7604
  806MPD2    H311928   4.504   0.054  17.741 -0.7155 -2.2967  0.2493
  806MPD2     N11929   0.184   4.674  17.615 -0.4316  0.3274  0.3584
  806MPD2    H511930   0.273   4.651  17.658  0.0357  0.5487 -0.4899
  806MPD2    N111931   0.073   0.033   0.325 -0.0611 -0.1136 -0.0056
  806MPD2    H711932   4.736   0.063   0.388  0.8499 -0.9152  1.4516
  807MPD2     C11933   4.570   0.196   1.024 -0.4225  0.3585  0.4370
  807MPD2    C111934   4.606   0.064   0.995 -0.7943  0.2071  0.1727
  807MPD2    C211935   4.543   4.702   1.072  0.4632  0.3460 -0.0319
  807MPD2    C311936   4.449   4.728   1.163 -0.4466 -0.4558  0.3718
  807MPD2    C411937   4.413   0.122   1.184 -0.6293  0.3104 -0.4796
  807MPD2    C511938   4.473   0.221   1.116 -0.5285  0.3405  0.1672
  807MPD2     H11939   4.580   4.600   1.066 -1.5912 -0.4711  0.9773
  807MPD2    H111940   4.343   0.148   1.263  0.9708 -0.6310  1.2687
  807MPD2    H211941   4.603   0.278   0.961 -3.3058  1.2149  0.0476
  807MPD2    H311942   4.438   0.323   1.126 -0.5871  0.5249 -1.9019
  807MPD2     N11943   4.388   4.623   1.236  0.0019  0.4115 -0.0287
  807MPD2    H511944   4.398   4.526   1.209  0.7623 -0.0464  1.8720
  807MPD2    N111945   4.712   0.033   0.908  0.1330 -0.8853 -0.2000
  807MPD2    H711946   0.011   4.675   0.902  1.0932 -0.5822  0.7241
  808MPD2     C11947   4.601   1.804  10.368  1.2525  0.3387  0.2306
  808MPD2    C111948   4.595   1.796  10.229  0.4104 -0.5212 -0.3068
  808MPD2    C211949   4.634   1.909  10.152 -0.8463  0.0834 -0.2310
  808MPD2    C311950   4.684   2.018  10.226 -0.1062 -0.5022 -0.3010
  808MPD2    C411951   4.680   2.027  10.362  0.0378  0.0651  0.4479
  808MPD2    C511952   4.648   1.913  10.434 -0.0301  0.1795 -0.8949
  808MPD2     H11953   4.647   1.899  10.045  1.0013  0.1443 -0.0161
  808MPD2    H111954   4.712   2.113  10.420  0.5472  0.0910  0.1331
  808MPD2    H211955   4.576   1.716  10.426  2.0546  1.6922  2.6460
  808MPD2    H311956   4.668   1.908  10.540 -0.0103  0.9845 -0.8610
  808MPD2     N11957   0.003   2.130  10.171  0.2224 -0.2400  0.5306
  808MPD2    H511958   0.014   2.209  10.234  2.7443  0.4797 -0.7867
  808MPD2    N111959   4.541   1.688  10.161  0.9669 -0.7559 -0.0511
  808MPD2    H711960   4.542   1.697  10.060 -0.7365 -2.2674 -0.2096
  809MPD2     C11961   0.641   2.596   9.382  0.5066  0.8363  0.1916
  809MPD2    C111962   0.669   2.483   9.460  0.5856 -0.4869 -0.3941
  809MPD2    C211963   0.584   2.448   9.563 -0.1126 -0.5503 -0.2995
  809MPD2    C311964   0.471   2.532   9.592  0.1481 -0.1013 -0.6245
  809MPD2    C411965   0.439   2.645   9.510  0.4531 -0.3305  0.2088
  809MPD2    C511966   0.525   2.668   9.406  0.2470 -0.6277  0.7787
  809MPD2     H11967   0.612   2.359   9.616 -0.3504  0.2476  1.1612
  809MPD2    H111968   0.349   2.701   9.529  0.7085  0.1649 -0.0344
  809MPD2    H211969   0.702   2.635   9.301 -0.7857  1.8581 -0.2986
  809MPD2    H311970   0.509   2.754   9.341 -0.5057 -1.6454 -0.3901
  809MPD2     N11971   0.381   2.495   9.705 -0.1939  0.2739  0.8050
  809MPD2    H511972   0.302   2.557   9.722 -1.0175 -0.5871  0.1063
  809MPD2    N111973   0.792   2.412   9.450  0.1014  0.0871 -0.5031
  809MPD2    H711974   0.804   2.335   9.515  0.7153 -0.9930 -1.8841
  810MPD2     C11975   4.396   1.507  10.839 -0.1514 -0.0389 -0.1260
  810MPD2    C111976   4.407   1.503  10.702 -0.3725 -0.1416  1.1347
  810MPD2    C211977   4.412   1.621  10.633  0.1738 -0.3779  0.4686
  810MPD2    C311978   4.388   1.741  10.688  0.1009 -1.2236  0.3480
  810MPD2    C411979   4.378   1.743  10.825  0.3551 -0.2309  0.4062
  810MPD2    C511980   4.384   1.630  10.899 -0.1279 -0.1261  0.3481
  810MPD2     H11981   4.414   1.621  10.525  1.0448  0.3559  0.4889
  810MPD2    H111982   4.355   1.839  10.868 -0.4483 -0.5164  0.6168
  810MPD2    H211983   4.400   1.423  10.908  0.5065 -0.7576 -1.0384
  810MPD2    H311984   4.380   1.641  11.006  1.0026 -0.5375  0.4312
  810MPD2     N11985   4.346   1.857  10.625 -0.9229 -0.0392 -0.3674
  810MPD2    H511986   4.341   1.943  10.677  0.4326  0.5156 -1.1419
  810MPD2    N111987   4.424   1.387  10.615 -0.0814 -0.1221  1.0049
  810MPD2    H711988   4.422   1.412  10.517  0.2824 -1.3390  0.6960
  811MPD2     C11989   3.965   1.248   9.934  0.4086 -0.1782 -0.4240
  811MPD2    C111990   4.025   1.315  10.039 -0.9901  0.2877  0.2590
  811MPD2    C211991   4.042   1.454  10.027  0.5638  0.4706  0.4501
  811MPD2    C311992   4.008   1.524   9.914 -0.3949 -0.2331 -0.2532
  811MPD2    C411993   3.943   1.444   9.812  0.7167  0.4507 -0.0405
  811MPD2    C511994   3.913   1.315   9.823 -0.0052  0.0079 -0.0730
  811MPD2     H11995   4.084   1.514  10.107  3.2240 -1.1730  0.2641
  811MPD2    H111996   3.922   1.490   9.716 -0.3015 -1.5874 -0.8093
  811MPD2    H211997   3.957   1.140   9.935 -0.1424 -0.1253  1.0290
  811MPD2    H311998   3.864   1.259   9.744  1.1495  1.7815 -2.0717
  811MPD2     N11999   4.036   1.662   9.899 -0.4777  0.8216  0.7406
  811MPD2    H512000   4.102   1.701   9.965  0.1107 -0.2521  0.7849
  811MPD2    N112001   4.063   1.245  10.162  0.4559  0.6287  0.0588
  811MPD2    H712002   4.055   1.144  10.155  1.6989  0.5029  0.3879
  812MPD2     C12003   2.897   0.962  11.800  0.6125 -0.0246  0.1151
  812MPD2    C112004   3.012   1.027  11.828 -0.2875  0.6656 -0.2089
  812MPD2    C212005   3.092   0.987  11.931  0.0582  0.7525 -0.3275
  812MPD2    C312006   3.054   0.876  12.015 -0.1548 -0.0523 -0.6475
  812MPD2    C412007   2.932   0.816  11.979  0.1040 -0.8599  0.6130
  812MPD2    C512008   2.851   0.858  11.875  0.7602  0.0757  0.4659
  812MPD2     H12009   3.183   1.040  11.956 -0.6670  1.4044  0.9384
  812MPD2    H112010   2.886   0.736  12.035  0.4704 -0.8513  0.9307
  812MPD2    H212011   2.841   1.001  11.715 -0.6406  0.8915  1.3765
  812MPD2    H312012   2.755   0.810  11.861  2.2424 -2.5468 -0.5918
  812MPD2     N12013   3.120   0.835  12.133 -0.5915 -0.8018 -0.1662
  812MPD2    H512014   3.073   0.761  12.185  0.2149  1.3745  3.6603
  812MPD2    N112015   3.043   1.142  11.744  0.0007 -0.6003  0.0495
  812MPD2    H712016   2.973   1.176  11.680 -2.2332 -1.7512  1.8834
  813MPD2     C12017   2.719   2.945  12.560 -0.5718 -0.0628  0.9639
  813MPD2    C112018   2.769   2.967  12.685  0.1140 -0.6610  0.2613
  813MPD2    C212019   2.684   2.943  12.795 -0.4385 -0.4878  0.2067
  813MPD2    C312020   2.552   2.911  12.780  0.7165  0.2741  0.0724
  813MPD2    C412021   2.500   2.880  12.654 -0.5074  0.3479  0.5193
  813MPD2    C512022   2.588   2.909  12.547 -0.5319  0.4639 -0.3100
  813MPD2     H12023   2.720   2.968  12.894 -3.2130  1.6336  0.6819
  813MPD2    H112024   2.400   2.853  12.622 -0.0030 -1.6816  0.6123
  813MPD2    H212025   2.772   2.951  12.466  1.1372 -1.7741  1.8104
  813MPD2    H312026   2.552   2.879  12.449 -0.6786  1.2521 -0.4963
  813MPD2     N12027   2.475   2.897  12.900  0.5769  0.0123  0.3383
  813MPD2    H512028   2.529   2.925  12.981  1.4155 -0.9889  0.1261
  813MPD2    N112029   2.903   3.003  12.710 -0.0342 -0.2142 -0.4003
  813MPD2    H712030   2.935   2.983  12.804  0.8153  1.8446 -0.2536
  814MPD2     C12031   3.042   4.303  12.644  0.5890  0.6646 -0.2873
  814MPD2    C112032   3.041   4.391  12.537 -0.2764  0.2025  0.0546
  814MPD2    C212033   3.100   4.507  12.560 -0.3927 -0.0383  0.3292
  814MPD2    C312034   3.140   4.552  12.681  0.2961 -0.0681  0.1154
  814MPD2    C412035   3.138   4.463  12.790 -0.2027 -0.6859 -0.1276
  814MPD2    C512036   3.101   4.333  12.766  0.6046 -0.8067 -0.8002
  814MPD2     H12037   3.101   4.571  12.473 -0.0058 -0.6903 -0.1439
  814MPD2    H112038   3.182   4.492  12.885  2.1504 -1.8339 -0.8663
  814MPD2    H212039   3.000   4.203  12.642  2.2755 -0.1251  3.3704
  814MPD2    H312040   3.119   4.258  12.842  0.8401  0.5179  0.4453
  814MPD2     N12041   3.194   4.680  12.696  0.9081 -1.3408  0.4309
  814MPD2    H512042   3.219   4.702  12.792  0.7625  0.0525  0.1505
  814MPD2    N112043   2.998   4.352  12.408  1.2502 -0.1274  0.4578
  814MPD2    H712044   3.017   4.424  12.339  0.4524  0.6513  1.0460
  815MPD2     C12045   3.393   2.736  11.830 -0.1411 -0.3077 -0.1858
  815MPD2    C112046   3.308   2.630  11.840 -0.4438  0.1587  0.0270
  815MPD2    C212047   3.194   2.634  11.925 -0.0173 -0.1798  0.5467
  815MPD2    C312048   3.177   2.743  12.005 -0.3750  0.7491  0.2381
  815MPD2    C412049   3.271   2.845  12.005 -0.0316 -0.0126  0.1506
  815MPD2    C512050   3.372   2.847  11.909 -0.1436 -0.1856 -0.2785
  815MPD2     H12051   3.135   2.543  11.933 -0.3687 -0.3150 -3.3424
  815MPD2    H112052   3.276   2.918  12.084 -1.4417 -0.2504  0.4579
  815MPD2    H212053   3.463   2.751  11.749  1.5774  3.3614  1.9273
  815MPD2    H312054   3.432   2.937  11.900  2.0362 -1.4256  1.6514
  815MPD2     N12055   3.072   2.737  12.098  0.6656  0.0298  0.4468
  815MPD2    H512056   3.013   2.655  12.092  0.6279  0.0025  1.2661
  815MPD2    N112057   3.314   2.532  11.741  0.3886  0.2386 -0.6425
  815MPD2    H712058   3.396   2.535  11.682  0.6536  0.2284 -0.2770
  816MPD2     C12059   4.342   1.991  17.512  0.7156 -0.8864 -0.3740
  816MPD2    C112060   4.206   1.995  17.490  0.5445 -0.4757 -0.7897
  816MPD2    C212061   4.154   1.933  17.380 -0.1014  0.5937  0.2253
  816MPD2    C312062   4.235   1.861  17.300 -0.4336  0.1530  0.2443
  816MPD2    C412063   4.374   1.856  17.328  0.4079 -0.9228  0.1999
  816MPD2    C512064   4.422   1.921  17.432  0.2918 -0.6399 -0.0970
  816MPD2     H12065   4.049   1.939  17.356 -0.5275 -1.2522  1.5932
  816MPD2    H112066   4.447   1.797  17.274  0.3290 -1.1564  0.3514
  816MPD2    H212067   4.391   2.050  17.588 -0.8269 -1.0992  0.7858
  816MPD2    H312068   4.528   1.917  17.454  0.3797  1.4806 -0.1021
  816MPD2     N12069   4.186   1.792  17.187  0.2164  0.2087 -0.6966
  816MPD2    H512070   4.089   1.813  17.163  0.0910 -0.0651 -0.4399
  816MPD2    N112071   4.137   2.080  17.572 -0.1249  0.2054 -0.1963
  816MPD2    H712072   4.195   2.141  17.628 -0.2607  0.2887 -0.1452
  817MPD2     C12073   2.836   4.408  10.046  0.1880  0.4000  0.6204
  817MPD2    C112074   2.966   4.431  10.008  0.0405  0.2203  0.0836
  817MPD2    C212075   2.999   4.567  10.006 -0.3177 -0.5962  0.2038
  817MPD2    C312076   2.909   4.669  10.018 -0.1127 -0.1967  0.7903
  817MPD2    C412077   2.787   4.641  10.058 -0.4670 -0.5679  0.9165
  817MPD2    C512078   2.754   4.512  10.086  0.2370  0.2272 -0.0420
  817MPD2     H12079   3.096   4.591   9.964 -0.6132  1.7154  0.8803
  817MPD2    H112080   2.717   4.719  10.085  1.6014  1.3780  0.6406
  817MPD2    H212081   2.799   4.309  10.069  2.3069 -0.6043 -0.3624
  817MPD2    H312082   2.658   4.496  10.136  1.5638 -1.6569  1.9026
  817MPD2     N12083   2.950   0.061   9.988 -0.5285 -0.7414 -0.1837
  817MPD2    H512084   3.045   0.081   9.960  0.1875  0.9451  3.4833
  817MPD2    N112085   3.057   4.331   9.978  0.2925 -0.3303 -0.7455
  817MPD2    H712086   3.156   4.351   9.990  0.2531 -0.2475 -0.5667
  818MPD2     C12087   1.828   3.431   9.725 -0.4368  0.1901  0.7913
  818MPD2    C112088   1.785   3.376   9.845  0.1823  0.4271 -0.0373
  818MPD2    C212089   1.765   3.240   9.847  0.6269  0.1978  0.2438
  818MPD2    C312090   1.805   3.160   9.741 -0.3556 -0.9550  0.4550
  818MPD2    C412091   1.860   3.221   9.632 -0.2214  0.6733 -0.4890
  818MPD2    C512092   1.856   3.358   9.618  0.2956  0.1766  0.3303
  818MPD2     H12093   1.726   3.187   9.933  1.2175 -0.7196 -0.0595
  818MPD2    H112094   1.896   3.160   9.549  1.1212  0.0224  0.5624
  818MPD2    H212095   1.831   3.538   9.711 -3.4295  0.0254 -1.1012
  818MPD2    H312096   1.894   3.401   9.526 -2.3355  0.6267 -0.5297
  818MPD2     N12097   1.814   3.019   9.747  1.1134 -0.0141 -0.6521
  818MPD2    H512098   1.829   2.977   9.655 -0.5210  0.3820 -1.0932
  818MPD2    N112099   1.758   3.449   9.956  0.0231  0.4303  0.3657
  818MPD2    H712100   1.725   3.401  10.039 -1.4348  3.0813  1.3029
  819MPD2     C12101   0.308   0.329  15.548 -0.5715 -0.3749 -0.1551
  819MPD2    C112102   0.359   0.204  15.574 -0.3690 -0.3741 -1.2851
  819MPD2    C212103   0.483   0.197  15.629 -0.4454  0.4840 -0.5127
  819MPD2    C312104   0.559   0.307  15.658  0.2240 -0.4000 -0.3490
  819MPD2    C412105   0.499   0.429  15.645  0.3793 -0.2976 -0.5353
  819MPD2    C512106   0.378   0.439  15.595 -0.3043 -0.1129 -0.1437
  819MPD2     H12107   0.526   0.102  15.659  0.0459  0.6363 -0.7233
  819MPD2    H112108   0.548   0.521  15.674 -0.4467  0.5533 -1.8521
  819MPD2    H212109   0.210   0.338  15.503 -1.2446  0.6010  1.5084
  819MPD2    H312110   0.322   0.532  15.593 -0.0961 -0.0189 -1.7770
  819MPD2     N12111   0.680   0.278  15.723 -0.7211  0.6349  0.5528
  819MPD2    H512112   0.709   0.183  15.740  1.4751  0.7860 -2.2226
  819MPD2    N112113   0.270   0.097  15.560 -0.4362 -0.5375 -0.8798
  819MPD2    H712114   0.177   0.129  15.533 -0.9610  0.6049  2.2238
  820MPD2     C12115   4.169   0.092  15.152  0.0639  0.4365  0.2138
  820MPD2    C112116   4.280   0.173  15.181  0.2172 -0.2786 -0.4848
  820MPD2    C212117   4.391   0.122  15.254 -0.0007 -0.0215 -0.2451
  820MPD2    C312118   4.387   4.723  15.299 -1.0601 -0.8374  0.3503
  820MPD2    C412119   4.273   4.651  15.269 -0.3877  0.0291  1.0276
  820MPD2    C512120   4.175   4.697  15.191 -0.2511 -1.2735  0.1046
  820MPD2     H12121   4.474   0.188  15.280 -1.2669  1.0617  1.0328
  820MPD2    H112122   4.265   4.547  15.296  2.0043 -0.2922  0.5783
  820MPD2    H212123   4.084   0.133  15.097 -1.2997 -1.7190  0.7348
  820MPD2    H312124   4.101   4.621  15.170  0.2171 -1.8552  0.5278
  820MPD2     N12125   4.498   4.658  15.359 -0.2642 -0.5065 -0.0351
  820MPD2    H512126   4.491   4.557  15.365 -0.0747 -0.5263 -0.1169
  820MPD2    N112127   4.285   0.310  15.137  0.2952 -0.7717 -0.2459
  820MPD2    H712128   4.199   0.347  15.099  0.2349 -0.2360  0.4108
  821MPD2     C12129   4.629   1.992  12.956 -0.0060  0.6705  0.7256
  821MPD2    C112130   0.012   1.934  12.983  0.0190 -0.5454 -0.2017
  821MPD2    C212131   0.123   1.968  12.906 -0.4586 -0.4188 -1.2244
  821MPD2    C312132   0.111   2.058  12.804  0.0337 -0.1380  0.4643
  821MPD2    C412133   4.723   2.111  12.773 -0.8957 -0.0920 -0.0102
  821MPD2    C512134   4.616   2.080  12.854 -0.4333  0.2726  0.0822
  821MPD2     H12135   0.213   1.915  12.935  0.7196  0.6320 -2.9542
  821MPD2    H112136   4.705   2.178  12.690  0.3297  0.8922  0.5229
  821MPD2    H212137   4.537   1.953  12.997 -0.7537  2.8771  1.1517
  821MPD2    H312138   4.521   2.129  12.839  0.1267  1.0366 -0.9720
  821MPD2     N12139   0.220   2.108  12.728  0.8021 -0.5951 -0.6853
  821MPD2    H512140   0.202   2.178  12.658 -2.6598 -0.7667  0.0158
  821MPD2    N112141   0.023   1.816  13.072 -0.0491 -0.6128  0.5498
  821MPD2    H712142   0.117   1.779  13.082  1.3291  1.7435 -3.4755
  822MPD2     C12143   1.051   1.798  15.528 -0.8809 -0.6194 -0.4029
  822MPD2    C112144   1.088   1.786  15.660  0.0681 -0.0365 -0.6856
  822MPD2    C212145   1.020   1.861  15.753  0.2068 -0.1485  0.8595
  822MPD2    C312146   0.939   1.962  15.725  0.1102  0.1669 -0.4316
  822MPD2    C412147   0.917   1.982  15.594 -0.1204  0.1379 -0.7385
  822MPD2    C512148   0.958   1.892  15.494  0.1093  0.0732  0.1061
  822MPD2     H12149   1.034   1.834  15.856 -1.4585 -1.6461  0.7039
  822MPD2    H112150   0.854   2.057  15.547  1.1934  0.1102 -2.5350
  822MPD2    H212151   1.096   1.741  15.448 -3.3225 -0.1357 -2.1250
  822MPD2    H312152   0.938   1.916  15.391 -1.1211 -0.1590  0.3009
  822MPD2     N12153   0.905   2.041  15.840 -0.8198 -0.2522  0.1642
  822MPD2    H512154   0.936   2.012  15.932  1.2193  0.1001 -0.4294
  822MPD2    N112155   1.164   1.680  15.713 -0.3000 -0.0825  0.2631
  822MPD2    H712156   1.158   1.665  15.813 -0.6880  2.9325  0.6929
  823MPD2     C12157   0.855   2.254  16.668  0.0293  0.3492 -0.0068
  823MPD2    C112158   0.896   2.179  16.557 -0.7903 -0.2000  0.4735
  823MPD2    C212159   0.951   2.056  16.573  0.7003  0.3037  0.2751
  823MPD2    C312160   0.970   2.002  16.700 -0.1041 -0.0905  0.3667
  823MPD2    C412161   0.916   2.065  16.811 -0.4159  0.3578  0.2695
  823MPD2    C512162   0.867   2.196  16.792 -0.0155  0.4884  0.6935
  823MPD2     H12163   0.997   2.013  16.485  0.8249 -2.0312  1.4724
  823MPD2    H112164   0.928   2.038  16.915  1.6389 -2.8149 -0.8089
  823MPD2    H212165   0.821   2.357  16.671  0.2681  0.3748  1.8599
  823MPD2    H312166   0.830   2.247  16.881  0.4943 -0.1814  1.2940
  823MPD2     N12167   1.031   1.874  16.719  0.2192 -0.4988  0.4828
  823MPD2    H512168   1.048   1.845  16.815  2.8183  2.3676  0.8885
  823MPD2    N112169   0.873   2.235  16.428 -0.1582 -0.1504 -0.4266
  823MPD2    H712170   0.853   2.334  16.417 -0.4960  0.0636  2.0308
  824MPD2     C12171   1.779   1.012  15.879  0.3788  0.6835  0.2017
  824MPD2    C112172   1.718   1.063  15.770 -0.1008  0.3726  0.0961
  824MPD2    C212173   1.754   1.016  15.644  0.0722 -0.7866 -0.0656
  824MPD2    C312174   1.830   0.898  15.636  0.0488 -0.1944 -0.4422
  824MPD2    C412175   1.890   0.849  15.752  0.6419  0.0315 -0.6622
  824MPD2    C512176   1.861   0.902  15.875 -0.2790  0.2853 -1.1569
  824MPD2     H12177   1.710   1.053  15.552  1.0506  1.4913  0.3859
  824MPD2    H112178   1.970   0.777  15.750 -0.2661 -0.9602 -1.9877
  824MPD2    H212179   1.755   1.052  15.977 -0.4471  1.7201 -0.4236
  824MPD2    H312180   1.913   0.869  15.964  0.5996  2.7016 -0.7750
  824MPD2     N12181   1.850   0.850  15.502  0.2256 -0.2776 -0.2660
  824MPD2    H512182   1.802   0.899  15.427 -0.1198  3.4829  2.4278
  824MPD2    N112183   1.645   1.180  15.793  0.2155 -0.6359 -0.2538
  824MPD2    H712184   1.631   1.188  15.893  2.0686  1.5841 -0.1657
  825MPD2     C12185   2.524   1.070  15.214  0.2460  0.5850  0.8103
  825MPD2    C112186   2.392   1.086  15.177  0.1915  0.4362 -0.2186
  825MPD2    C212187   2.351   1.216  15.157 -0.2829  0.3067  0.2000
  825MPD2    C312188   2.437   1.327  15.176  0.5102 -0.5820  0.4301
  825MPD2    C412189   2.568   1.309  15.223  1.0246 -0.7856 -0.0580
  825MPD2    C512190   2.612   1.176  15.226 -0.0421 -0.2431  0.0376
  825MPD2     H12191   2.251   1.240  15.123 -1.1571 -3.5889  0.0901
  825MPD2    H112192   2.644   1.384  15.240  0.7179 -1.1110  2.7165
  825MPD2    H212193   2.553   0.965  15.215 -0.0741  0.4883 -0.0134
  825MPD2    H312194   2.718   1.156  15.235 -0.5285 -1.3465  3.2599
  825MPD2     N12195   2.394   1.464  15.161  0.5908 -0.3219  0.2783
  825MPD2    H512196   2.453   1.530  15.211 -1.6351  1.8740  0.0033
  825MPD2    N112197   2.306   0.979  15.165  0.3796  0.7360  0.5502
  825MPD2    H712198   2.353   0.889  15.162  1.1492  1.0945  1.8868
  826MPD2     C12199   1.464   0.617  13.784  0.3608 -0.3857  0.1157
  826MPD2    C112200   1.522   0.691  13.693 -0.4652  0.6386  0.1794
  826MPD2    C212201   1.448   0.796  13.637 -0.3609  0.0498 -0.2724
  826MPD2    C312202   1.327   0.827  13.687 -0.1194  0.0044 -0.4039
  826MPD2    C412203   1.273   0.756  13.796 -1.0146 -0.2136  0.2605
  826MPD2    C512204   1.341   0.649  13.834 -0.1122 -0.0717 -0.4007
  826MPD2     H12205   1.491   0.858  13.559 -1.2538  0.5723 -0.3423
  826MPD2    H112206   1.182   0.789  13.843 -1.6951  0.1348 -1.2918
  826MPD2    H212207   1.520   0.537  13.831  0.9001 -0.8385 -1.2975
  826MPD2    H312208   1.305   0.590  13.918 -3.6746  0.9352 -1.2060
  826MPD2     N12209   1.253   0.936  13.633  0.1933  0.6159 -0.6350
  826MPD2    H512210   1.158   0.949  13.665  0.0731 -1.5627 -0.1150
  826MPD2    N112211   1.658   0.676  13.666 -0.2494 -0.0146  0.3717
  826MPD2    H712212   1.708   0.600  13.710 -0.1782 -1.2294 -1.8054
  827MPD2     C12213   2.692   2.889   9.753  0.4748 -0.0287 -0.4023
  827MPD2    C112214   2.677   2.753   9.803 -0.0574 -0.0580  0.1653
  827MPD2    C212215   2.611   2.672   9.720  0.4931  0.5270 -0.7126
  827MPD2    C312216   2.549   2.716   9.607  0.0760  0.2138 -0.3608
  827MPD2    C412217   2.570   2.850   9.557 -0.1972 -0.2715 -0.5667
  827MPD2    C512218   2.640   2.930   9.631 -0.8314  0.3394 -0.2853
  827MPD2     H12219   2.603   2.567   9.748  1.6846  0.6485  0.0792
  827MPD2    H112220   2.528   2.896   9.468 -1.1750 -1.7043 -0.8519
  827MPD2    H212221   2.754   2.954   9.812  0.1337 -0.1586  0.0947
  827MPD2    H312222   2.663   3.033   9.604  1.0272  0.6873  2.6112
  827MPD2     N12223   2.470   2.627   9.526  0.1787 -0.1082  0.2751
  827MPD2    H512224   2.432   2.547   9.575  1.6660 -1.2830 -0.4823
  827MPD2    N112225   2.719   2.722   9.939  0.1440 -0.5307  0.4961
  827MPD2    H712226   2.775   2.789   9.990  1.2212 -0.5256 -0.6891
  828MPD2     C12227   0.676   1.637  12.903 -0.0208  0.0543  0.0551
  828MPD2    C112228   0.643   1.686  12.781  0.0228 -0.1080 -0.7380
  828MPD2    C212229   0.742   1.716  12.686 -0.6925  0.0879 -0.3591
  828MPD2    C312230   0.881   1.694  12.721 -0.5259  0.5294 -0.2186
  828MPD2    C412231   0.904   1.664  12.850  0.0187  0.1861  0.5022
  828MPD2    C512232   0.807   1.623  12.935 -0.1957 -0.3228 -0.5368
  828MPD2     H12233   0.712   1.752  12.588  1.8081  0.1639 -1.1025
  828MPD2    H112234   1.008   1.663  12.880  0.8477 -1.0240 -2.4633
  828MPD2    H212235   0.600   1.616  12.977  0.4460  0.1680  0.5631
  828MPD2    H312236   0.834   1.584  13.033 -0.2361  1.0044 -0.0088
  828MPD2     N12237   0.987   1.701  12.625  0.0740  0.3513  0.4687
  828MPD2    H512238   1.078   1.677  12.663 -0.1104  0.2778  0.8651
  828MPD2    N112239   0.514   1.707  12.737 -0.4079 -0.1857  0.4926
  828MPD2    H712240   0.514   1.735  12.639 -0.1400 -2.8077 -0.2423
  829MPD2     C12241   0.477   1.802  11.938 -0.9207  0.6573  0.3255
  829MPD2    C112242   0.368   1.876  11.970  0.0606 -1.0421  0.3260
  829MPD2    C212243   0.308   1.867  12.096  0.6818  0.3632  0.0218
  829MPD2    C312244   0.361   1.772  12.187 -0.1868  0.2158  0.4598
  829MPD2    C412245   0.473   1.701  12.155  1.0569 -0.3597 -0.1384
  829MPD2    C512246   0.532   1.724  12.033  0.1175 -0.3491  0.0729
  829MPD2     H12247   0.218   1.919  12.127 -2.6839 -5.5393  0.1573
  829MPD2    H112248   0.518   1.643  12.235 -3.1087  0.9861  3.1962
  829MPD2    H212249   0.528   1.803  11.842 -0.9323  4.1516  0.3659
  829MPD2    H312250   0.621   1.667  12.009 -0.4547 -1.8125  1.4856
  829MPD2     N12251   0.312   1.758  12.316 -0.1279  0.0796  0.6006
  829MPD2    H512252   0.364   1.691  12.372 -0.2777 -1.4840 -1.1401
  829MPD2    N112253   0.329   1.961  11.865 -0.8308 -0.4149 -0.3291
  829MPD2    H712254   0.389   1.969  11.784  0.0119 -0.6626  0.2731
  830MPD2     C12255   1.477   0.026  15.893  0.5648 -0.2136  0.1454
  830MPD2    C112256   1.375   0.069  15.814 -0.2504 -0.5864  0.3965
  830MPD2    C212257   1.407   0.142  15.700 -0.8143 -0.3889 -0.1575
  830MPD2    C312258   1.536   0.158  15.659  0.4808  0.2291  1.1738
  830MPD2    C412259   1.636   0.113  15.744 -0.5572 -0.6254  0.4749
  830MPD2    C512260   1.609   0.044  15.862  0.3270  0.1672 -0.5432
  830MPD2     H12261   1.327   0.182  15.638  0.5066  0.7393 -1.1185
  830MPD2    H112262   1.740   0.122  15.714 -1.5860  0.0178 -2.8204
  830MPD2    H212263   1.455   4.711  15.985 -0.1131  0.5480  0.4116
  830MPD2    H312264   1.687   0.012  15.929  0.5234 -0.2096 -0.9560
  830MPD2     N12265   1.569   0.223  15.537 -0.1126  1.0467  0.0357
  830MPD2    H512266   1.669   0.236  15.523 -0.2993  1.2643 -1.1231
  830MPD2    N112267   1.246   0.053  15.862  0.1574 -0.0772  0.2462
  830MPD2    H712268   1.233   0.027  15.959 -1.1045  1.7732  0.5635
  831MPD2     C12269   1.256   2.126  16.073 -0.5981 -0.4087 -0.0492
  831MPD2    C112270   1.265   2.013  15.992  0.2887  0.5225  0.6453
  831MPD2    C212271   1.222   1.888  16.038  0.3294 -0.3121  0.2053
  831MPD2    C312272   1.167   1.869  16.163  0.6949  0.0072  0.4023
  831MPD2    C412273   1.170   1.976  16.243 -0.0820 -0.8922 -0.0324
  831MPD2    C512274   1.208   2.102  16.198  0.1550  0.8314 -0.3671
  831MPD2     H12275   1.222   1.802  15.973  3.3027  1.1440 -1.6987
  831MPD2    H112276   1.146   1.967  16.348  0.1221  0.0728  0.0997
  831MPD2    H212277   1.280   2.228  16.046 -0.9147 -0.3953 -0.2784
  831MPD2    H312278   1.206   2.184  16.269  0.2348  1.9717 -1.6899
  831MPD2     N12279   1.091   1.753  16.197 -0.0988  0.2475 -0.4615
  831MPD2    H512280   1.036   1.763  16.282 -1.6445 -1.1244 -1.3034
  831MPD2    N112281   1.296   2.035  15.855 -0.3914  0.8945  0.0491
  831MPD2    H712282   1.322   1.958  15.794 -3.6921  1.2402 -1.7757
  832MPD2     C12283   0.017   3.140  17.461  0.2585  0.5947  0.4477
  832MPD2    C112284   4.708   3.270  17.440  0.5247  0.0928 -0.2914
  832MPD2    C212285   4.580   3.287  17.389 -0.0081 -0.0889 -0.4236
  832MPD2    C312286   4.502   3.175  17.371  0.1071  0.0634 -0.6947
  832MPD2    C412287   4.548   3.050  17.399 -0.6789  0.0697  0.2209
  832MPD2    C512288   4.673   3.034  17.442  0.2004 -0.1814  0.5795
  832MPD2     H12289   4.547   3.388  17.369  2.6675  1.1378  1.3099
  832MPD2    H112290   4.494   2.957  17.385 -1.6814  1.0872 -2.6682
  832MPD2    H212291   0.116   3.122  17.501  0.6690 -0.1979 -0.9441
  832MPD2    H312292   4.701   2.931  17.460 -2.4125 -0.6938  1.6963
  832MPD2     N12293   4.364   3.182  17.329  0.0827 -0.6875 -0.1802
  832MPD2    H512294   4.318   3.093  17.340 -1.1283 -0.2158 -1.5397
  832MPD2    N112295   0.056   3.381  17.463 -0.4606 -0.0509  0.7429
  832MPD2    H712296   0.019   3.475  17.458 -1.6406 -0.5887 -0.6902
  833MPD2     C12297   1.425   4.656  12.584 -0.4393  0.3910 -0.3056
  833MPD2    C112298   1.433   4.731  12.466 -0.3294  0.5719 -0.1085
  833MPD2    C212299   1.549   4.716  12.397  0.3174 -0.1339 -0.8517
  833MPD2    C312300   1.646   4.625  12.427  0.1469  0.5077 -0.2897
  833MPD2    C412301   1.627   4.548  12.535  0.3731 -0.3471  0.0695
  833MPD2    C512302   1.519   4.568  12.618  0.2972  0.6980 -0.0440
  833MPD2     H12303   1.578   0.056  12.326  1.4775 -1.0528 -1.3683
  833MPD2    H112304   1.698   4.472  12.565  1.6302  0.8281  0.0766
  833MPD2    H212305   1.339   4.658  12.649  0.8995 -0.8868  1.5290
  833MPD2    H312306   1.501   4.502  12.702 -1.8277 -0.0304 -1.0839
  833MPD2     N12307   1.761   4.596  12.342 -0.4978  0.0826  0.5416
  833MPD2    H512308   1.823   4.524  12.377 -1.1733 -1.2758 -1.0479
  833MPD2    N112309   1.332   0.087  12.436  0.4811  0.5347 -0.5669
  833MPD2    H712310   1.253   0.092  12.500  0.4064  0.6180 -0.6659
  834MPD2     C12311   1.936   3.802  11.788 -0.0736 -0.0509 -0.4350
  834MPD2    C112312   1.924   3.896  11.691 -0.6810 -0.0649  0.1798
  834MPD2    C212313   1.926   4.028  11.725 -0.1104 -0.6418  0.2685
  834MPD2    C312314   1.921   4.060  11.861 -0.3464 -0.2586  0.1333
  834MPD2    C412315   1.926   3.969  11.963 -0.0548  0.8537  0.4672
  834MPD2    C512316   1.946   3.835  11.923  0.2644 -0.1509 -0.1742
  834MPD2     H12317   1.909   4.108  11.654  2.6000 -0.4311 -0.1452
  834MPD2    H112318   1.919   3.985  12.070 -0.7311  1.2503  0.3577
  834MPD2    H212319   1.951   3.699  11.756 -2.7343  0.1322 -2.2760
  834MPD2    H312320   1.973   3.758  11.995 -1.7175 -0.5740  0.1205
  834MPD2     N12321   1.903   4.193  11.888 -0.2668  0.8497  0.1329
  834MPD2    H512322   1.901   4.259  11.811  0.9585 -1.0271 -1.5186
  834MPD2    N112323   1.906   3.852  11.557  0.3408 -0.9398  0.2669
  834MPD2    H712324   1.881   3.756  11.537 -0.3819 -1.2264  2.5395
  835MPD2     C12325   1.800   2.556  10.586  0.5343  0.4902 -0.7379
  835MPD2    C112326   1.686   2.555  10.674 -1.0371  0.0519  0.0313
  835MPD2    C212327   1.692   2.487  10.795 -0.4643 -0.5046 -0.6769
  835MPD2    C312328   1.802   2.419  10.833  0.6766 -0.9175 -0.1274
  835MPD2    C412329   1.912   2.420  10.746  0.0444  0.7962  0.0357
  835MPD2    C512330   1.911   2.498  10.634 -0.4810  0.6781  0.7919
  835MPD2     H12331   1.601   2.489  10.854  0.1006  1.4925  0.1154
  835MPD2    H112332   2.004   2.364  10.761  1.7174  3.2094 -1.1020
  835MPD2    H212333   1.809   2.605  10.490  3.0703 -0.3654 -0.9196
  835MPD2    H312334   1.994   2.484  10.567 -0.4290  0.7934  0.8327
  835MPD2     N12335   1.815   2.322  10.944 -0.1367  0.1697  0.7262
  835MPD2    H512336   1.905   2.277  10.951 -0.4664 -0.5570  0.3001
  835MPD2    N112337   1.554   2.612  10.642  0.3313 -0.4612 -0.1996
  835MPD2    H712338   1.477   2.612  10.708 -0.7217  1.8852 -1.4154
  836MPD2     C12339   1.230   1.850  11.338 -0.1261  0.1546 -0.4607
  836MPD2    C112340   1.266   1.981  11.336 -0.8264 -0.1200 -0.1798
  836MPD2    C212341   1.172   2.073  11.372 -0.7203 -0.2026 -0.0804
  836MPD2    C312342   1.049   2.040  11.411 -0.2545  0.3507 -0.0120
  836MPD2    C412343   1.014   1.907  11.416 -0.7539 -0.7432 -0.3122
  836MPD2    C512344   1.107   1.819  11.376  0.2950 -0.0322 -0.1320
  836MPD2     H12345   1.208   2.176  11.373 -0.5497 -0.2530 -1.3303
  836MPD2    H112346   0.914   1.875  11.442 -0.6104 -1.5731 -0.7689
  836MPD2    H212347   1.286   1.771  11.289 -0.5728 -2.5593  3.3796
  836MPD2    H312348   1.064   1.724  11.346  0.3028  0.2063 -0.9063
  836MPD2     N12349   0.963   2.141  11.459 -0.2186  0.2188  0.8036
  836MPD2    H512350   1.004   2.233  11.470 -2.1985  1.0541  1.1544
  836MPD2    N112351   1.394   2.023  11.296  0.2195 -0.0200 -0.3191
  836MPD2    H712352   1.408   2.122  11.276  5.0498 -0.6272 -0.0279
  837MPD2     C12353   4.374   2.205  10.244 -0.3680 -0.2235  0.5287
  837MPD2    C112354   4.269   2.253  10.173 -0.5579  0.9125 -0.3066
  837MPD2    C212355   4.220   2.379  10.201 -0.7072  0.7471 -0.6870
  837MPD2    C312356   4.272   2.455  10.298 -0.1170  0.1408  0.0345
  837MPD2    C412357   4.388   2.413  10.365 -0.0221 -0.1928  0.3494
  837MPD2    C512358   4.427   2.280  10.350  0.1509  0.2817 -0.1465
  837MPD2     H12359   4.133   2.420  10.150 -0.5530  1.0259 -0.7279
  837MPD2    H112360   4.425   2.455  10.458 -2.1462 -1.3251  1.6999
  837MPD2    H212361   4.420   2.109  10.226  1.6143  1.2033 -1.9163
  837MPD2    H312362   4.517   2.248  10.401 -0.3419  0.1777  0.6558
  837MPD2     N12363   4.203   2.575  10.320  0.3729  0.6785 -0.4806
  837MPD2    H512364   4.130   2.598  10.253 -1.4574 -0.2088  1.2122
  837MPD2    N112365   4.202   2.191  10.063  0.0730 -0.0590 -0.2311
  837MPD2    H712366   4.121   2.238  10.024  0.3133  1.4216  1.0585
  838MPD2     C12367   2.851   0.530  12.335 -1.0653  0.2374 -0.8616
  838MPD2    C112368   2.820   0.428  12.246 -0.1716 -0.4033  0.9356
  838MPD2    C212369   2.716   0.344  12.277 -0.1191  0.2850 -0.6239
  838MPD2    C312370   2.655   0.346  12.401 -0.2071 -0.1006 -0.2087
  838MPD2    C412371   2.691   0.443  12.488 -0.4219  0.8837  0.0965
  838MPD2    C512372   2.785   0.536  12.453 -0.3380 -0.1781  0.0399
  838MPD2     H12373   2.691   0.261  12.212 -0.8608  1.2989 -1.6333
  838MPD2    H112374   2.648   0.452  12.587 -0.0826  1.6311  0.1799
  838MPD2    H212375   2.933   0.597  12.312 -1.1360 -0.2181 -2.3983
  838MPD2    H312376   2.826   0.607  12.524 -1.2455  1.7808 -1.3953
  838MPD2     N12377   2.553   0.244  12.417  0.3783 -0.1969 -0.1124
  838MPD2    H512378   2.544   0.174  12.344 -0.6431 -0.1016 -0.0768
  838MPD2    N112379   2.876   0.416  12.119 -0.3047  0.0726  0.3216
  838MPD2    H712380   2.813   0.359  12.064  1.3052 -0.2199 -1.2405
  839MPD2     C12381   2.649   4.444  11.988  0.0272  0.5274 -0.1848
  839MPD2    C112382   2.681   4.458  11.852  0.6254 -0.2866  0.0424
  839MPD2    C212383   2.753   4.563  11.806  0.3850  0.1370  0.4452
  839MPD2    C312384   2.793   4.661  11.904 -0.0312  0.1510 -0.5954
  839MPD2    C412385   2.773   4.647  12.042 -0.2682 -0.2802 -0.2317
  839MPD2    C512386   2.700   4.539  12.076 -0.2355  0.4364  0.1673
  839MPD2     H12387   2.786   4.569  11.703 -1.0854 -3.9466 -0.2430
  839MPD2    H112388   2.815   4.713  12.117  0.1411 -0.4925 -0.2692
  839MPD2    H212389   2.587   4.363  12.025  0.4005  0.4736  0.3275
  839MPD2    H312390   2.654   4.537  12.174 -0.1056  0.4212  0.2282
  839MPD2     N12391   2.854   0.043  11.875  0.1554  0.0272 -0.6054
  839MPD2    H512392   2.878   0.101  11.955  2.1863 -1.8501  0.1542
  839MPD2    N112393   2.644   4.359  11.759 -0.8759 -0.0941 -0.9125
  839MPD2    H712394   2.671   4.376  11.663 -2.1273 -1.0878 -1.4489
  840MPD2     C12395   3.025   3.072  10.399  0.4760  0.0998  0.5721
  840MPD2    C112396   3.047   2.946  10.436  0.0291 -0.3583 -0.0909
  840MPD2    C212397   3.143   2.924  10.533  0.1982 -0.2238 -0.0305
  840MPD2    C312398   3.199   3.024  10.603 -0.1938 -0.2238  0.0180
  840MPD2    C412399   3.172   3.157  10.569 -0.5453 -0.3309 -0.5265
  840MPD2    C512400   3.086   3.177  10.465 -1.1854 -0.2803 -0.0878
  840MPD2     H12401   3.167   2.823  10.566  2.7351  0.4017  0.0462
  840MPD2    H112402   3.227   3.242  10.608 -1.7667  0.8957 -1.4588
  840MPD2    H212403   2.963   3.097  10.314  2.1915 -0.7474 -0.9416
  840MPD2    H312404   3.068   3.278  10.428  0.5314  0.3107  0.6527
  840MPD2     N12405   3.287   3.011  10.714  0.6727 -0.2280 -0.5118
  840MPD2    H512406   3.331   3.099  10.739 -0.2840  0.3982 -1.0279
  840MPD2    N112407   2.970   2.846  10.375 -0.2385  0.2686  0.1294
  840MPD2    H712408   2.893   2.880  10.319 -0.8723  0.7877  1.3041
  841MPD2     C12409   2.991   1.897  14.261  0.5696 -0.0975  0.7708
  841MPD2    C112410   3.030   1.857  14.388  0.2798  0.9380  0.2271
  841MPD2    C212411   3.139   1.926  14.442  0.1106 -0.5131  0.7663
  841MPD2    C312412   3.209   2.023  14.375  0.0350 -0.4446  0.0243
  841MPD2    C412413   3.171   2.047  14.245  0.0339 -0.2235 -0.3806
  841MPD2    C512414   3.067   1.983  14.190 -0.7545 -0.3416  0.4326
  841MPD2     H12415   3.182   1.894  14.537  1.8554 -1.4323 -0.3325
  841MPD2    H112416   3.213   2.125  14.184 -2.2528  1.3050  0.0032
  841MPD2    H212417   2.909   1.849  14.210  0.6987  1.7362 -1.1602
  841MPD2    H312418   3.030   2.002  14.090 -1.7189  1.7042  1.1859
  841MPD2     N12419   3.320   2.085  14.447 -0.0109  0.0252 -0.0771
  841MPD2    H512420   3.326   2.070  14.547  1.1406  1.0897  0.0067
  841MPD2    N112421   2.965   1.757  14.462 -0.0840 -0.4155 -0.5308
  841MPD2    H712422   2.995   1.746  14.559  0.3462  1.3140 -0.4606
  842MPD2     C12423   2.965   3.069  15.963 -0.1407  0.5917  0.8817
  842MPD2    C112424   3.010   3.151  16.062 -0.1138  0.4774  0.3679
  842MPD2    C212425   2.961   3.128  16.190 -0.3445 -0.1843  0.4464
  842MPD2    C312426   2.849   3.055  16.211  0.4837  0.3376 -0.3720
  842MPD2    C412427   2.795   2.989  16.100  0.1892  0.3726 -0.6138
  842MPD2    C512428   2.859   2.994  15.977 -0.2671  0.0403 -0.5779
  842MPD2     H12429   2.979   3.193  16.275 -1.3434 -0.0153  0.5214
  842MPD2    H112430   2.703   2.932  16.105 -0.1378  1.1618  2.9741
  842MPD2    H212431   3.006   3.069  15.863  0.2832 -1.3676  1.0429
  842MPD2    H312432   2.825   2.938  15.890  0.8814 -0.8904 -0.4217
  842MPD2     N12433   2.790   3.054  16.338 -0.1292  0.1207 -0.1547
  842MPD2    H512434   2.841   3.101  16.412  1.3506 -0.1488 -1.0139
  842MPD2    N112435   3.101   3.256  16.033  0.2957  0.5134 -0.1760
  842MPD2    H712436   3.136   3.257  15.937 -1.9711  1.3556 -0.9893
  843MPD2     C12437   1.175   4.109  17.029  0.0478 -0.0911  0.1866
  843MPD2    C112438   1.151   4.083  17.159  0.1481 -0.7643 -0.1387
  843MPD2    C212439   1.199   4.161  17.257 -0.1317 -0.1034  0.2374
  843MPD2    C312440   1.279   4.264  17.221  0.9524 -0.9271 -0.1914
  843MPD2    C412441   1.319   4.285  17.085 -0.6351 -0.3282 -0.2331
  843MPD2    C512442   1.259   4.207  16.995 -0.6071  0.0062  0.3066
  843MPD2     H12443   1.173   4.144  17.360  0.6548 -1.7404  0.1738
  843MPD2    H112444   1.380   4.371  17.059  0.8099 -0.4421  2.7453
  843MPD2    H212445   1.124   4.043  16.960  2.2146 -0.3432 -1.1887
  843MPD2    H312446   1.278   4.221  16.889  0.2557 -0.8783  0.3475
  843MPD2     N12447   1.338   4.353  17.311 -0.0613 -0.8618 -0.1499
  843MPD2    H512448   1.376   4.436  17.268 -0.7217 -0.7090 -0.4505
  843MPD2    N112449   1.075   3.970  17.186 -0.3228  0.5801  0.0795
  843MPD2    H712450   1.076   3.913  17.103 -0.1740 -2.8508  2.4533
  844MPD2     C12451   4.007   3.025  16.659 -0.0242 -0.2955 -0.0677
  844MPD2    C112452   4.085   2.911  16.656 -0.6324 -0.0556  0.0765
  844MPD2    C212453   4.186   2.890  16.746  0.3321  0.0580 -0.2450
  844MPD2    C312454   4.221   2.987  16.838 -0.4962 -0.8476 -0.1588
  844MPD2    C412455   4.142   3.100  16.843  0.2795 -0.0949 -0.2338
  844MPD2    C512456   4.041   3.121  16.752  0.5303  0.3984 -0.0896
  844MPD2     H12457   4.252   2.804  16.740 -2.7628 -2.1207 -3.0044
  844MPD2    H112458   4.156   3.175  16.920  2.0747  0.4112 -1.0282
  844MPD2    H212459   3.944   3.052  16.575  1.9496  1.4275 -0.9738
  844MPD2    H312460   3.987   3.215  16.741  0.3992  0.5293  1.7173
  844MPD2     N12461   4.344   2.972  16.906 -0.3774 -0.4210  0.9742
  844MPD2    H512462   4.399   2.887  16.900 -0.2587 -0.2137 -1.0067
  844MPD2    N112463   4.043   2.817  16.562 -0.0681 -0.1515 -0.5836
  844MPD2    H712464   3.958   2.840  16.512 -1.4573 -1.1069  1.3643
  845MPD2     C12465   0.276   3.656  17.121 -0.0351  0.4314 -0.5640
  845MPD2    C112466   0.145   3.644  17.167 -0.0210  0.2759  0.0463
  845MPD2    C212467   0.083   3.519  17.165 -0.4169  0.4299 -0.5001
  845MPD2    C312468   0.147   3.409  17.098 -0.8304  0.2705 -0.8766
  845MPD2    C412469   0.277   3.422  17.053  0.5377 -0.9333 -0.2475
  845MPD2    C512470   0.336   3.545  17.068  0.1104  0.2608 -0.4500
  845MPD2     H12471   4.719   3.509  17.204  0.2554 -2.3115  0.5364
  845MPD2    H112472   0.335   3.346  17.004 -0.1533 -0.0565 -2.4116
  845MPD2    H212473   0.329   3.749  17.135 -0.2504  0.5615 -0.5961
  845MPD2    H312474   0.438   3.559  17.033  1.0885 -0.7964  1.9904
  845MPD2     N12475   0.073   3.292  17.090  0.2857 -0.3498 -0.2318
  845MPD2    H512476   4.712   3.296  17.116 -0.1033  1.2948 -1.9332
  845MPD2    N112477   0.090   3.763  17.224 -0.1541 -0.2333  0.0903
  845MPD2    H712478   0.141   3.849  17.208 -0.2138 -0.0160  1.0999
  846MPD2     C12479   1.097   3.972  13.803 -0.4567 -0.5560 -0.5497
  846MPD2    C112480   0.987   4.052  13.813 -0.4343  0.0785 -0.1027
  846MPD2    C212481   0.918   4.048  13.934 -0.2411 -0.0169 -0.4306
  846MPD2    C312482   0.974   3.988  14.048  0.1257  0.4865  0.2554
  846MPD2    C412483   1.092   3.914  14.035  0.3230  0.2363 -0.0406
  846MPD2    C512484   1.149   3.912  13.916 -0.2132  0.5869 -0.0773
  846MPD2     H12485   0.823   4.101  13.936  0.1079  0.4885  2.4725
  846MPD2    H112486   1.153   3.869  14.113  1.3339 -0.5797 -1.2948
  846MPD2    H212487   1.158   3.964  13.714  2.0371 -2.8278  1.3758
  846MPD2    H312488   1.242   3.855  13.913 -0.8322 -0.4137 -0.1954
  846MPD2     N12489   0.906   3.994  14.171  0.8238 -0.1661 -0.2090
  846MPD2    H512490   0.824   4.055  14.173  1.4957  0.7778 -1.1679
  846MPD2    N112491   0.920   4.116  13.711 -0.1335  0.1858 -0.3344
  846MPD2    H712492   0.838   4.168  13.742  0.7004  0.4780  1.3887
  847MPD2     C12493   0.733   0.179  14.533  0.2066 -0.0732  0.0332
  847MPD2    C112494   0.848   0.257  14.504 -0.5459  0.0029 -0.4771
  847MPD2    C212495   0.966   0.196  14.472 -0.2684  0.4925 -0.0204
  847MPD2    C312496   0.972   0.065  14.478 -0.3161  0.4205  0.0546
  847MPD2    C412497   0.865   4.725  14.512 -0.1519  0.2099 -0.1288
  847MPD2    C512498   0.741   0.037  14.530 -0.2757 -0.2348  0.6073
  847MPD2     H12499   1.055   0.253  14.449 -1.4732  1.8287 -1.3941
  847MPD2    H112500   0.873   4.617  14.499  0.3138 -0.0112  2.1057
  847MPD2    H212501   0.632   0.215  14.549 -0.2960 -1.3502 -0.3029
  847MPD2    H312502   0.656   4.707  14.535 -0.5549  0.2444  2.3310
  847MPD2     N12503   1.104   0.014  14.458 -0.1946 -0.7751 -0.8002
  847MPD2    H512504   1.181   0.078  14.441 -0.3094 -0.1150  1.1159
  847MPD2    N112505   0.847   0.395  14.511 -0.2093  0.4354  0.6527
  847MPD2    H712506   0.929   0.443  14.475 -1.0290  1.1539 -0.2464
  848MPD2     C12507   3.789   3.365  16.775  0.0398 -0.5639 -0.2546
  848MPD2    C112508   3.872   3.443  16.849 -0.2426  0.2347  0.1100
  848MPD2    C212509   3.887   3.579  16.810 -0.2133 -0.9864  0.2888
  848MPD2    C312510   3.824   3.632  16.696  1.3042  0.2146  0.6184
  848MPD2    C412511   3.737   3.553  16.632  1.1098  0.0921 -0.0346
  848MPD2    C512512   3.720   3.425  16.672  0.1928  0.0787 -0.1748
  848MPD2     H12513   3.950   3.644  16.870 -1.6617 -0.7345  1.5502
  848MPD2    H112514   3.661   3.592  16.566  1.1028  0.7048  0.3399
  848MPD2    H212515   3.784   3.257  16.785 -0.7050 -0.4206  0.8314
  848MPD2    H312516   3.642   3.372  16.619  1.4743 -0.8840 -1.1083
  848MPD2     N12517   3.839   3.765  16.659 -0.2297 -0.3345  0.8285
  848MPD2    H512518   3.784   3.801  16.582  0.4561  1.7667  1.3233
  848MPD2    N112519   3.941   3.394  16.960 -0.3343  0.1947 -0.7536
  848MPD2    H712520   3.996   3.465  17.006 -1.9485  1.6940 -1.1409
  849MPD2     C12521   2.518   2.560  13.230 -0.4095 -0.1386  0.3783
  849MPD2    C112522   2.549   2.483  13.344  0.8463 -0.5510 -0.3042
  849MPD2    C212523   2.494   2.508  13.468  0.7774 -0.3390  0.8790
  849MPD2    C312524   2.407   2.612  13.482 -0.0430 -0.4439 -0.6040
  849MPD2    C412525   2.383   2.687  13.372 -0.1540 -1.2741 -0.1913
  849MPD2    C512526   2.432   2.659  13.248  0.4239 -0.3416 -0.2586
  849MPD2     H12527   2.514   2.436  13.547 -0.9982 -2.6686 -0.7958
  849MPD2    H112528   2.326   2.779  13.363  0.9541 -0.4994  0.6900
  849MPD2    H212529   2.552   2.548  13.128  1.8555 -0.4237  1.1431
  849MPD2    H312530   2.403   2.717  13.161  1.1331  0.5954  0.1342
  849MPD2     N12531   2.344   2.647  13.602 -0.2569  0.2817 -0.3447
  849MPD2    H512532   2.290   2.732  13.614  0.6627  1.1891 -2.6783
  849MPD2    N112533   2.643   2.373  13.332 -0.3682 -0.1519  0.2492
  849MPD2    H712534   2.667   2.320  13.415  0.9142  0.8120  0.4880
  850MPD2     C12535   1.204   1.293  14.588 -0.6497  0.1715 -0.3687
  850MPD2    C112536   1.219   1.225  14.709  0.3638 -0.0045 -0.9686
  850MPD2    C212537   1.347   1.195  14.754  0.4562 -0.3133 -0.5166
  850MPD2    C312538   1.459   1.247  14.689 -0.1203 -0.3695 -0.0117
  850MPD2    C412539   1.440   1.318  14.573 -0.5342  0.4126 -0.8390
  850MPD2    C512540   1.317   1.322  14.513 -0.2766  0.3237  0.4016
  850MPD2     H12541   1.353   1.135  14.844  1.6751  0.0985 -0.3309
  850MPD2    H112542   1.523   1.362  14.520  0.2741 -0.4880 -0.3279
  850MPD2    H212543   1.107   1.309  14.542 -1.0207  0.7150  0.6224
  850MPD2    H312544   1.322   1.368  14.415  0.2631 -0.7536 -0.0833
  850MPD2     N12545   1.588   1.249  14.750 -0.3459  0.2101 -0.0751
  850MPD2    H512546   1.663   1.270  14.685 -0.3667 -1.4623 -0.6372
  850MPD2    N112547   1.112   1.180  14.789 -0.0573 -0.2265  0.3693
  850MPD2    H712548   1.129   1.126  14.873 -0.9466 -0.0309  0.6831
  851MPD2     C12549   1.234   1.097  15.516 -0.0528  0.1318  0.1680
  851MPD2    C112550   1.195   1.035  15.403  0.3694 -0.7377  0.0092
  851MPD2    C212551   1.266   0.920  15.350 -0.1020  0.2665 -0.8150
  851MPD2    C312552   1.374   0.880  15.434 -0.1967  0.1478 -0.0910
  851MPD2    C412553   1.408   0.934  15.555  0.8010  0.3483  0.0759
  851MPD2    C512554   1.336   1.042  15.592 -0.0657  0.1457 -0.8356
  851MPD2     H12555   1.243   0.859  15.264 -0.3857 -1.2429  0.3165
  851MPD2    H112556   1.480   0.899  15.629 -0.0859 -0.4055  0.5882
  851MPD2    H212557   1.176   1.179  15.558  0.2823  0.7040 -0.4844
  851MPD2    H312558   1.372   1.093  15.680  1.8926 -2.0014 -0.3863
  851MPD2     N12559   1.448   0.767  15.387  0.0092 -0.2649  0.4515
  851MPD2    H512560   1.424   0.734  15.294  2.9774 -1.5762  0.1300
  851MPD2    N112561   1.096   1.094  15.321 -0.4055  0.0510  0.1820
  851MPD2    H712562   1.071   1.191  15.339 -1.0088 -0.3770  1.6451
  852MPD2     C12563   1.245   3.866   9.547 -0.2500 -0.1357 -0.7032
  852MPD2    C112564   1.177   3.989   9.524  0.1405 -1.1931 -0.0589
  852MPD2    C212565   1.248   4.108   9.536 -0.2754  1.1421  0.3886
  852MPD2    C312566   1.382   4.116   9.551  0.1456  0.5051  0.4085
  852MPD2    C412567   1.453   3.999   9.568  0.2586  0.0352 -0.1753
  852MPD2    C512568   1.384   3.875   9.561  0.2460  0.2572 -0.3727
  852MPD2     H12569   1.189   4.199   9.540 -1.5792  0.3144  0.3044
  852MPD2    H112570   1.558   3.996   9.597 -0.5921 -2.2138  2.6866
  852MPD2    H212571   1.194   3.771   9.556 -1.1649  0.4891  0.6605
  852MPD2    H312572   1.439   3.783   9.573 -0.3758 -0.0705 -0.0075
  852MPD2     N12573   1.439   4.244   9.580 -0.6723 -0.4132 -0.4613
  852MPD2    H512574   1.374   4.320   9.596 -2.7895 -2.4583  0.7686
  852MPD2    N112575   1.040   3.997   9.516 -0.5532 -0.2998  0.6797
  852MPD2    H712576   1.007   4.093   9.515  0.1290 -0.0531  1.9080
  853MPD2     C12577   2.647   3.449  12.628  0.0443 -0.1064 -0.0935
  853MPD2    C112578   2.543   3.524  12.583  0.5000  0.7342 -0.0208
  853MPD2    C212579   2.496   3.498  12.456  0.1285  0.3099  0.6396
  853MPD2    C312580   2.554   3.396  12.383  0.0559 -0.5184 -0.3453
  853MPD2    C412581   2.655   3.323  12.433  0.2241 -0.6299  0.1262
  853MPD2    C512582   2.713   3.349  12.554 -0.1334 -0.6140 -0.1919
  853MPD2     H12583   2.420   3.560  12.410  1.5065  0.6445 -1.1447
  853MPD2    H112584   2.678   3.244  12.363 -0.2562  0.9947 -1.8826
  853MPD2    H212585   2.666   3.460  12.734 -0.9170  1.2422 -0.0522
  853MPD2    H312586   2.785   3.278  12.594  3.4719  2.1000 -1.8604
  853MPD2     N12587   2.508   3.353  12.259  0.4740  0.7304  0.4655
  853MPD2    H512588   2.570   3.298  12.200 -0.6611 -0.9098  0.8024
  853MPD2    N112589   2.485   3.616  12.671  0.4316  0.1716  0.6494
  853MPD2    H712590   2.523   3.614  12.765  1.3575  0.2575  0.2745
  854MPD2     C12591   3.795   3.570  12.801  0.1363 -0.0228 -0.0061
  854MPD2    C112592   3.869   3.689  12.793  0.5342 -0.3776 -0.9140
  854MPD2    C212593   3.977   3.712  12.872  0.3471 -0.4665  0.3452
  854MPD2    C312594   4.020   3.606  12.954  0.1488 -0.1408 -0.2240
  854MPD2    C412595   3.942   3.491  12.962 -0.8902 -0.3750  0.2311
  854MPD2    C512596   3.825   3.469  12.887  0.2608  0.1036  0.1912
  854MPD2     H12597   4.041   3.798  12.858  1.0109 -1.3779 -2.1172
  854MPD2    H112598   3.986   3.410  13.020 -0.5635  0.8509  1.7258
  854MPD2    H212599   3.718   3.558  12.726 -1.3732 -0.0956  1.5566
  854MPD2    H312600   3.767   3.378  12.884  1.3481 -0.5702 -0.2903
  854MPD2     N12601   4.149   3.605  13.020 -0.3316  0.5019  0.0031
  854MPD2    H512602   4.161   3.525  13.081 -1.2621  1.3269  1.2732
  854MPD2    N112603   3.824   3.788  12.707 -0.1154 -0.6525 -0.1726
  854MPD2    H712604   3.733   3.784  12.664  0.4199  0.4843 -1.4142
  855MPD2     C12605   4.537   3.521  13.885 -0.3740  0.4534 -0.3896
  855MPD2    C112606   4.488   3.426  13.795 -0.6078  0.1940 -0.3782
  855MPD2    C212607   4.461   3.467  13.664  0.2925 -0.6388 -0.3806
  855MPD2    C312608   4.478   3.599  13.636  0.2789 -0.8154  0.0636
  855MPD2    C412609   4.531   3.694  13.724 -0.1478 -0.0082 -0.4175
  855MPD2    C512610   4.561   3.649  13.852  0.2216  0.0741  0.5098
  855MPD2     H12611   4.418   3.398  13.592  0.3852  0.9030 -1.9306
  855MPD2    H112612   4.554   3.797  13.699  0.6081 -0.4360 -1.4296
  855MPD2    H212613   4.559   3.484  13.984 -0.9395 -1.2668 -0.9089
  855MPD2    H312614   4.596   3.718  13.928  2.0735 -0.4737  0.1626
  855MPD2     N12615   4.459   3.637  13.504 -0.4704 -0.2870  0.0754
  855MPD2    H512616   4.446   3.562  13.436  1.5589  0.3063 -0.9724
  855MPD2    N112617   4.485   3.291  13.827 -0.4502  0.0711 -0.0989
  855MPD2    H712618   4.540   3.268  13.910  0.8496  2.0597 -0.4091
  856MPD2     C12619   1.941   4.168  14.192  0.4362  0.8257 -0.6870
  856MPD2    C112620   1.985   4.277  14.113 -0.5858 -0.6394  0.2001
  856MPD2    C212621   1.888   4.340  14.036  0.0241  0.8320 -0.2602
  856MPD2    C312622   1.766   4.279  14.030  0.7177  0.0443 -0.9101
  856MPD2    C412623   1.727   4.173  14.111 -0.0725  0.3915 -0.0679
  856MPD2    C512624   1.815   4.119  14.196 -0.8356  0.2289 -0.4220
  856MPD2     H12625   1.911   4.434  13.986  0.1205  0.6818 -0.4966
  856MPD2    H112626   1.625   4.138  14.106 -0.2212  0.6753  1.0292
  856MPD2    H212627   2.009   4.121  14.262  0.1359  1.3351 -0.0451
  856MPD2    H312628   1.800   4.032  14.258 -0.9735  1.2232  0.9467
  856MPD2     N12629   1.659   4.335  13.956 -0.0217  0.3094 -0.3370
  856MPD2    H512630   1.570   4.292  13.980  0.2875  1.3894  2.7559
  856MPD2    N112631   2.109   4.340  14.107 -0.6554 -0.0576 -0.3230
  856MPD2    H712632   2.118   4.417  14.041  0.3143 -0.5285 -0.7362
  857MPD2     C12633   3.040   1.810  12.835 -0.0993  0.3948 -0.1563
  857MPD2    C112634   3.175   1.788  12.829  0.3504  0.1210  0.1168
  857MPD2    C212635   3.261   1.888  12.876  0.1889 -0.4234  0.0802
  857MPD2    C312636   3.219   2.003  12.937  0.5069  0.0482  0.2702
  857MPD2    C412637   3.079   2.014  12.960  0.0968 -0.6095 -0.3104
  857MPD2    C512638   2.996   1.916  12.906 -0.0095 -0.5798  0.0231
  857MPD2     H12639   3.368   1.873  12.870  0.5363  1.8987  0.5793
  857MPD2    H112640   3.033   2.095  13.016  2.3169 -0.3554  1.1335
  857MPD2    H212641   2.973   1.745  12.780  2.3754 -2.2394 -0.0596
  857MPD2    H312642   2.889   1.933  12.904  0.0630 -0.3651 -2.0399
  857MPD2     N12643   3.314   2.101  12.962 -0.1381 -0.2831  0.2311
  857MPD2    H512644   3.412   2.082  12.945 -0.4153 -0.0561 -1.5938
  857MPD2    N112645   3.218   1.674  12.754  0.1659 -0.6293 -0.4119
  857MPD2    H712646   3.147   1.604  12.737 -0.1158  0.0217 -1.8463
  858MPD2     C12647   4.454   0.443  16.584 -0.2835 -0.7385 -0.2325
  858MPD2    C112648   4.588   0.470  16.551  0.5642 -0.2347  0.5492
  858MPD2    C212649   4.646   0.588  16.602 -0.4877 -0.2534  0.3050
  858MPD2    C312650   4.595   0.662  16.701  0.0333 -0.6396  0.5559
  858MPD2    C412651   4.471   0.617  16.749 -0.1246 -0.6835  0.4215
  858MPD2    C512652   4.402   0.512  16.695 -0.1423  0.8823 -0.4325
  858MPD2     H12653   0.008   0.616  16.569 -1.2208  2.1951  0.1857
  858MPD2    H112654   4.409   0.653  16.831 -0.0225  0.7453 -0.1436
  858MPD2    H212655   4.408   0.352  16.548 -0.3083 -1.7031  2.1965
  858MPD2    H312656   4.301   0.496  16.730 -0.0734  2.8332  0.6051
  858MPD2     N12657   4.658   0.777  16.761  0.2510 -0.4333  0.6113
  858MPD2    H512658   0.016   0.789  16.727  0.3382  0.3080  1.1176
  858MPD2    N112659   4.649   0.378  16.459 -0.9960 -0.0314 -0.3088
  858MPD2    H712660   4.593   0.301  16.426 -0.0254 -0.1896 -1.5898
  859MPD2     C12661   3.206   2.909  15.664 -0.8043 -0.9995 -0.7354
  859MPD2    C112662   3.206   2.844  15.545  0.0654  0.3121  0.9514
  859MPD2    C212663   3.246   2.715  15.541  1.0296  0.5493 -0.2206
  859MPD2    C312664   3.285   2.654  15.656  0.3086  0.1406 -0.0213
  859MPD2    C412665   3.265   2.713  15.778  0.2816 -0.3221  0.0230
  859MPD2    C512666   3.225   2.841  15.781  0.1923  0.1973  0.2235
  859MPD2     H12667   3.265   2.671  15.444  1.8523  0.1278  0.1325
  859MPD2    H112668   3.303   2.657  15.862 -0.1878 -1.0889 -0.2796
  859MPD2    H212669   3.171   3.011  15.669  0.2612 -0.7865  2.1071
  859MPD2    H312670   3.230   2.880  15.882 -2.6802  0.3002  0.3038
  859MPD2     N12671   3.355   2.529  15.661  0.1778  0.5101 -0.1919
  859MPD2    H512672   3.376   2.494  15.754  0.7416  0.5227 -0.3114
  859MPD2    N112673   3.172   2.919  15.424  0.7391  0.5559 -0.4897
  859MPD2    H712674   3.173   3.019  15.439  1.5404  0.5865 -0.7779
  860MPD2     C12675   0.112   3.030  11.943 -0.2900  0.4492 -0.7431
  860MPD2    C112676   0.060   3.150  11.992 -0.0584 -0.0521  0.4444
  860MPD2    C212677   4.668   3.154  12.041 -0.4691  0.2131 -0.4673
  860MPD2    C312678   4.595   3.037  12.070 -0.5747  0.5214 -0.2626
  860MPD2    C412679   4.655   2.919  12.032  0.1868  0.8642 -0.1453
  860MPD2    C512680   0.034   2.921  11.970 -0.0960 -0.0008 -0.5692
  860MPD2     H12681   4.637   3.254  12.067 -0.7079  0.1116 -0.3593
  860MPD2    H112682   4.597   2.827  12.037  0.9572  0.4247  0.7591
  860MPD2    H212683   0.209   3.019  11.897  0.0899  0.2846  0.0983
  860MPD2    H312684   0.071   2.823  11.942  0.9963  0.4704 -0.7705
  860MPD2     N12685   4.466   3.052  12.136  0.3844  0.0030  0.3059
  860MPD2    H512686   4.444   3.142  12.177  0.1098 -0.1699  0.5366
  860MPD2    N112687   0.137   3.270  11.998 -0.7189  0.0895  0.2829
  860MPD2    H712688   0.097   3.342  12.057 -1.2527 -1.0675  1.3288
  861MPD2     C12689   4.048   1.659  10.854 -0.1061  0.5640 -0.2922
  861MPD2    C112690   4.050   1.790  10.896  0.2326 -0.0668  0.0465
  861MPD2    C212691   3.986   1.879  10.815 -0.2058 -0.4074  0.5584
  861MPD2    C312692   3.918   1.835  10.695  0.4194 -0.6192  0.0430
  861MPD2    C412693   3.912   1.705  10.662  0.3151 -0.3076  0.4067
  861MPD2    C512694   3.978   1.615  10.743  0.2516 -0.4849  0.3524
  861MPD2     H12695   3.986   1.979  10.856  1.0406 -0.9493  1.8923
  861MPD2    H112696   3.870   1.670  10.568 -1.3886 -0.4306  1.2114
  861MPD2    H212697   4.103   1.580  10.904 -0.0557  0.3996 -0.6080
  861MPD2    H312698   3.959   1.510  10.720 -0.0644 -0.1488 -0.9099
  861MPD2     N12699   3.842   1.915  10.604 -0.0355  0.6383  0.1358
  861MPD2    H512700   3.789   1.873  10.528  0.6367  0.1276 -0.0494
  861MPD2    N112701   4.121   1.845  11.009 -0.4810 -0.5558  0.0253
  861MPD2    H712702   4.125   1.946  11.017 -0.5952 -0.5769  0.3450
  862MPD2     C12703   3.330   1.711  10.196  0.0333  0.4441 -0.3736
  862MPD2    C112704   3.424   1.717  10.298  0.4426  0.1489  0.0121
  862MPD2    C212705   3.463   1.596  10.351 -0.4217 -0.1862  0.3488
  862MPD2    C312706   3.394   1.478  10.333 -0.4469  0.4991 -0.2168
  862MPD2    C412707   3.299   1.475  10.234  0.1099 -0.3727 -0.0364
  862MPD2    C512708   3.272   1.592  10.160  0.7493 -0.4233  0.4393
  862MPD2     H12709   3.547   1.599  10.419 -0.2386  3.1044 -0.0209
  862MPD2    H112710   3.247   1.382  10.214  1.9849 -1.7292  1.4956
  862MPD2    H212711   3.286   1.796  10.144 -0.1291  0.4806 -0.1772
  862MPD2    H312712   3.195   1.585  10.084 -0.5791  1.4732  1.6114
  862MPD2     N12713   3.420   1.362  10.409 -0.4578 -0.7043  0.7330
  862MPD2    H512714   3.367   1.279  10.382 -1.2955  0.1581 -0.2563
  862MPD2    N112715   3.476   1.835  10.357  0.0013  0.1250  0.1244
  862MPD2    H712716   3.521   1.820  10.447  1.2427 -0.5921 -0.6372
  863MPD2     C12717   2.838   4.301  16.354  0.6997  0.4259 -0.3534
  863MPD2    C112718   2.827   4.432  16.371  0.5356  0.0428 -0.0374
  863MPD2    C212719   2.921   4.493  16.455  0.2576  0.7557 -0.7808
  863MPD2    C312720   3.023   4.417  16.518 -0.2212  0.2006  0.3080
  863MPD2    C412721   3.026   4.279  16.497  0.4060  0.5608  0.1510
  863MPD2    C512722   2.929   4.230  16.414  0.6272 -0.3592 -0.1467
  863MPD2     H12723   2.911   4.598  16.481 -2.7489  0.6233 -1.4452
  863MPD2    H112724   3.089   4.209  16.550  0.2121  0.3935  0.1602
  863MPD2    H212725   2.763   4.250  16.293 -1.8710  3.5168  0.1970
  863MPD2    H312726   2.924   4.123  16.394  1.2546 -0.5158  0.5348
  863MPD2     N12727   3.118   4.458  16.609 -0.0217  0.0181 -0.9079
  863MPD2    H512728   3.171   4.381  16.650 -0.1379  0.2258 -0.3684
  863MPD2    N112729   2.709   4.498  16.320  0.0349 -0.0205  0.1072
  863MPD2    H712730   2.647   4.443  16.261  1.2598  2.2908 -3.3363
  864MPD2     C12731   3.412   0.876  17.196  0.1843 -0.0187 -0.0379
  864MPD2    C112732   3.360   0.893  17.066  0.2502  0.4532  0.5907
  864MPD2    C212733   3.350   1.023  17.013  0.7183  0.0682 -0.3948
  864MPD2    C312734   3.383   1.128  17.091  0.0950 -0.5733 -0.2193
  864MPD2    C412735   3.437   1.106  17.219  0.2805  0.5973 -0.8462
  864MPD2    C512736   3.458   0.977  17.276 -0.4322 -0.2711 -1.3510
  864MPD2     H12737   3.313   1.035  16.912 -0.8300 -1.4545 -0.0241
  864MPD2    H112738   3.479   1.190  17.273 -1.1453  1.2995 -0.8096
  864MPD2    H212739   3.405   0.776  17.236  1.6679 -0.5113 -1.0188
  864MPD2    H312740   3.498   0.955  17.374 -0.6971  0.3170 -1.1098
  864MPD2     N12741   3.387   1.266  17.044 -0.1677  0.3567 -0.6691
  864MPD2    H512742   3.411   1.339  17.110 -0.2306 -0.5705  0.3946
  864MPD2    N112743   3.327   0.774  16.994  0.4677  0.2083 -0.2251
  864MPD2    H712744   3.351   0.689  17.043  1.6384  1.0617  0.6740
  865MPD2     C12745   3.332   1.737  16.142  0.1403 -0.0075 -0.4535
  865MPD2    C112746   3.306   1.601  16.175  0.3960 -0.5957  0.0565
  865MPD2    C212747   3.338   1.550  16.304  0.2691  0.3546 -0.0036
  865MPD2    C312748   3.411   1.639  16.396 -0.4797 -0.4218 -0.0358
  865MPD2    C412749   3.443   1.766  16.353 -0.0853  0.0216  0.5613
  865MPD2    C512750   3.396   1.820  16.231  0.3627 -0.2484  0.4888
  865MPD2     H12751   3.329   1.444  16.327 -0.7164  0.3611 -0.3599
  865MPD2    H112752   3.494   1.839  16.414  0.7088 -0.3388  0.3163
  865MPD2    H212753   3.318   1.778  16.043 -2.4164 -0.6572 -0.3721
  865MPD2    H312754   3.419   1.924  16.207 -0.3188 -0.3026 -0.3801
  865MPD2     N12755   3.445   1.592  16.529  0.4373 -0.1486  0.4924
  865MPD2    H512756   3.426   1.498  16.562 -0.2388  0.3102  1.4191
  865MPD2    N112757   3.252   1.519  16.077  0.5528 -0.0565 -0.1193
  865MPD2    H712758   3.243   1.560  15.984 -3.3178  1.0379  0.7184
  866MPD2     C12759   4.647   2.604  11.053 -1.2994  0.2528  0.2461
  866MPD2    C112760   4.626   2.467  11.062 -0.5319  0.2784 -0.1334
  866MPD2    C212761   4.497   2.418  11.073  1.1032  0.0369 -0.5293
  866MPD2    C312762   4.388   2.505  11.062 -0.0447 -0.1885 -0.4326
  866MPD2    C412763   4.413   2.641  11.040 -0.9549  0.2315  0.1305
  866MPD2    C512764   4.540   2.688  11.030  0.0082 -0.4131  0.1726
  866MPD2     H12765   4.489   2.314  11.100  0.7875  0.3907  0.7572
  866MPD2    H112766   4.343   2.721  11.017 -3.0744 -1.6892 -0.0488
  866MPD2    H212767   0.005   2.649  11.026 -1.1529  2.2294  4.0354
  866MPD2    H312768   4.557   2.794  11.011 -1.4005  0.4909  3.8918
  866MPD2     N12769   4.249   2.475  11.061  0.3238  0.7142 -0.2884
  866MPD2    H512770   4.184   2.550  11.038  0.2050  0.5571 -0.4635
  866MPD2    N112771   4.735   2.377  11.073 -0.1066  0.3994 -0.1988
  866MPD2    H712772   0.087   2.426  11.074 -0.8356  1.7339 -1.4026
  867MPD2     C12773   2.739   1.081  16.127 -0.3149 -0.0674 -0.0237
  867MPD2    C112774   2.791   1.063  16.253 -0.3954 -0.1403  0.1031
  867MPD2    C212775   2.847   1.173  16.316  0.6028  0.4075  0.5850
  867MPD2    C312776   2.827   1.303  16.265 -0.4723  0.4196  0.4797
  867MPD2    C412777   2.762   1.318  16.140  1.3893 -0.6835 -0.6367
  867MPD2    C512778   2.737   1.203  16.073  0.0397  0.8239  0.4639
  867MPD2     H12779   2.901   1.160  16.409 -0.2838 -0.4405  0.9742
  867MPD2    H112780   2.737   1.418  16.107 -0.2854 -0.4247  1.3658
  867MPD2    H212781   2.698   0.996  16.073  1.6121 -1.2615  0.3698
  867MPD2    H312782   2.682   1.213  15.980  1.7028  2.0084 -0.3914
  867MPD2     N12783   2.872   1.416  16.329  0.9856 -0.0636 -0.6055
  867MPD2    H512784   2.845   1.508  16.295  0.1312 -0.1400 -0.1364
  867MPD2    N112785   2.776   0.933  16.313  0.1314 -0.5664  0.4434
  867MPD2    H712786   2.738   0.859  16.255  1.1297  0.5255 -1.5941
  868MPD2     C12787   3.703   4.517  12.705 -0.1018  0.2930  1.3600
  868MPD2    C112788   3.779   4.563  12.811 -0.0073  1.0546 -0.6382
  868MPD2    C212789   3.714   4.640  12.907  0.4697 -0.1395 -0.1851
  868MPD2    C312790   3.575   4.640  12.905 -0.2617  0.0177  0.0837
  868MPD2    C412791   3.505   4.590  12.803 -1.2577 -0.7220  0.5394
  868MPD2    C512792   3.567   4.544  12.696 -0.5586  0.1793  0.0658
  868MPD2     H12793   3.766   4.690  12.988 -2.5520 -1.2444  2.4267
  868MPD2    H112794   3.397   4.595  12.809 -1.0697 -0.8833  3.8611
  868MPD2    H212795   3.755   4.491  12.614 -1.5274  0.6726  0.4419
  868MPD2    H312796   3.505   4.525  12.608  0.8567  1.0503 -1.1247
  868MPD2     N12797   3.512   4.700  13.014 -0.7823  0.3302 -0.2598
  868MPD2    H512798   3.582   4.727  13.082 -0.6665  0.1572 -0.3103
  868MPD2    N112799   3.914   4.524  12.814  0.9509  0.1215  0.1240
  868MPD2    H712800   3.957   4.480  12.733  1.2508  0.0937  0.2986
  869MPD2     C12801   0.331   2.569   0.527 -0.6292  0.2849  0.2758
  869MPD2    C112802   0.329   2.653   0.630  0.5677  0.2672  0.4918
  869MPD2    C212803   0.357   2.787   0.608 -0.1400 -0.1524  0.3248
  869MPD2    C312804   0.371   2.836   0.478 -0.2873 -0.8854 -0.1851
  869MPD2    C412805   0.382   2.746   0.373 -0.4219 -0.2657  0.0148
  869MPD2    C512806   0.369   2.612   0.401  0.1183  0.0979 -0.4427
  869MPD2     H12807   0.348   2.860   0.688 -0.4877  0.1432  0.0173
  869MPD2    H112808   0.411   2.777   0.274 -0.2763  0.0762  0.1672
  869MPD2    H212809   0.318   2.461   0.536 -0.6944  0.3489  0.9584
  869MPD2    H312810   0.375   2.539   0.322  0.7418 -0.0719 -0.2302
  869MPD2     N12811   0.377   2.971   0.442 -0.6897  0.7774 -0.1050
  869MPD2    H512812   0.384   2.991   0.343  0.1365 -2.1842 -0.6589
  869MPD2    N112813   0.301   2.592   0.757  0.2563 -0.2670 -0.1444
  869MPD2    H712814   0.290   2.491   0.755  0.3134 -0.2618 -0.6415
  870MPD2     C12815   4.250   2.092   1.159 -0.2605 -0.3051 -0.1653
  870MPD2    C112816   4.335   2.088   1.049 -0.4232  0.3107 -0.2549
  870MPD2    C212817   4.278   2.052   0.928  0.0871  0.5023  0.1448
  870MPD2    C312818   4.140   2.028   0.910  0.6083  0.7441  0.4215
  870MPD2    C412819   4.058   2.039   1.021  0.5789 -0.8345  0.0343
  870MPD2    C512820   4.119   2.063   1.141 -0.1703 -0.2956 -0.6053
  870MPD2     H12821   4.336   2.031   0.839 -0.5752 -2.3169  0.4052
  870MPD2    H112822   3.953   2.015   1.025  0.0335  1.4073 -0.5202
  870MPD2    H212823   4.282   2.106   1.261 -1.5541 -1.8830  0.4391
  870MPD2    H312824   4.054   2.058   1.228  0.0052 -2.8920 -0.6196
  870MPD2     N12825   4.102   1.983   0.782 -0.2033  0.7275 -0.1567
  870MPD2    H512826   4.176   1.961   0.716  0.9503 -0.8378  1.6493
  870MPD2    N112827   4.475   2.115   1.071 -0.2882 -0.1155 -0.1121
  870MPD2    H712828   4.509   2.130   1.165  0.7088  1.3857 -0.7112
  871MPD2     C12829   1.288   1.353  16.165 -0.4866  0.2782  0.1042
  871MPD2    C112830   1.277   1.308  16.299 -0.1470 -0.1794  0.0732
  871MPD2    C212831   1.255   1.174  16.321 -0.3627 -0.6520  0.6469
  871MPD2    C312832   1.240   1.087  16.219  0.8288 -0.6521 -0.1114
  871MPD2    C412833   1.248   1.134  16.089 -0.6188 -0.7037 -0.4492
  871MPD2    C512834   1.278   1.265  16.058 -0.0297  0.1943  0.2762
  871MPD2     H12835   1.251   1.130  16.420  2.1421 -1.2853  0.4887
  871MPD2    H112836   1.242   1.064  16.007  2.9187  1.1706 -2.3428
  871MPD2    H212837   1.300   1.457  16.140 -0.2538  0.3466  0.4966
  871MPD2    H312838   1.284   1.305  15.958 -0.3271  1.2000  0.6627
  871MPD2     N12839   1.224   0.947  16.243 -0.3345 -0.1839 -0.7463
  871MPD2    H512840   1.239   0.888  16.162 -0.3594  0.6613 -1.3685
  871MPD2    N112841   1.294   1.405  16.404  0.7460  0.0473  0.4621
  871MPD2    H712842   1.311   1.501  16.375  0.7282 -0.4412 -1.1317
  872MPD2     C12843   1.887   3.363  13.962  1.0194 -0.5382  0.3641
  872MPD2    C112844   1.840   3.492  13.949 -0.3968 -0.0479 -0.2154
  872MPD2    C212845   1.710   3.513  14.000  0.4425  0.4288  0.0974
  872MPD2    C312846   1.648   3.411  14.071 -0.2945 -0.8221  0.3179
  872MPD2    C412847   1.698   3.283  14.074  0.7527 -0.7611  0.3106
  872MPD2    C512848   1.817   3.261  14.014  0.1658  0.3430 -0.5834
  872MPD2     H12849   1.671   3.614  14.010  0.7646  0.5651 -0.0245
  872MPD2    H112850   1.650   3.204  14.132 -2.2951  0.5987 -0.3295
  872MPD2    H212851   1.988   3.343  13.928  2.0091  1.6935  2.0048
  872MPD2    H312852   1.863   3.163  14.009 -2.1373 -0.6503 -2.6353
  872MPD2     N12853   1.528   3.432  14.146  0.2153 -0.1412  0.0091
  872MPD2    H512854   1.489   3.356  14.202 -0.2321 -0.3110 -0.5364
  872MPD2    N112855   1.916   3.605  13.905  0.2667 -0.4989  0.0930
  872MPD2    H712856   1.876   3.697  13.921  4.0176  0.7892  2.0728
  873MPD2     C12857   4.254   3.667   0.645  0.1597  0.1709  0.2012
  873MPD2    C112858   4.119   3.636   0.642 -0.2064  0.6571 -0.0882
  873MPD2    C212859   4.081   3.506   0.644 -0.4264  0.5427 -0.5264
  873MPD2    C312860   4.174   3.407   0.651  0.7852  0.0214  0.2875
  873MPD2    C412861   4.311   3.437   0.660 -0.8867 -0.0601 -0.1384
  873MPD2    C512862   4.348   3.564   0.643 -0.5800  0.1039 -0.4240
  873MPD2     H12863   3.976   3.477   0.639 -0.1499 -0.4250 -0.6971
  873MPD2    H112864   4.381   3.356   0.643 -1.8479 -1.2006  1.3291
  873MPD2    H212865   4.290   3.769   0.649 -2.6072  1.2073 -1.4839
  873MPD2    H312866   4.454   3.585   0.635 -0.5705  0.0379 -0.4707
  873MPD2     N12867   4.140   3.262   0.657 -0.3771  0.6164 -0.1024
  873MPD2    H512868   4.217   3.204   0.690  0.4468  0.0215 -3.0112
  873MPD2    N112869   4.032   3.749   0.646 -0.2250 -0.2605  0.1082
  873MPD2    H712870   4.069   3.838   0.679 -0.7136  0.0389 -0.1564
  874MPD2     C12871   3.547   4.000  15.931 -0.5686  0.0585  0.1865
  874MPD2    C112872   3.514   3.940  16.048 -0.4682 -0.2388 -0.2851
  874MPD2    C212873   3.574   3.965  16.168 -0.7061  0.4419 -0.1255
  874MPD2    C312874   3.683   4.039  16.169 -0.2773  0.5285  0.3925
  874MPD2    C412875   3.734   4.090  16.051  0.4552  0.7432 -0.3643
  874MPD2    C512876   3.666   4.077  15.929 -0.1856  0.3589 -0.3002
  874MPD2     H12877   3.536   3.921  16.260  0.3640  0.3287  0.2711
  874MPD2    H112878   3.825   4.149  16.048 -0.4020  2.0305 -1.0447
  874MPD2    H212879   3.494   3.972  15.840  1.5009  0.5331 -1.1819
  874MPD2    H312880   3.689   4.124  15.834 -1.3384  1.5757  0.0221
  874MPD2     N12881   3.745   4.049  16.295 -0.1198 -0.2342 -1.0412
  874MPD2    H512882   3.703   3.994  16.369  1.5547 -0.6296 -0.3806
  874MPD2    N112883   3.399   3.857  16.041 -0.5233 -0.1953  0.2763
  874MPD2    H712884   3.340   3.866  15.959  1.6370  1.7667 -1.0369
  875MPD2     C12885   4.485   1.996  14.538  0.0806  1.1899 -0.0260
  875MPD2    C112886   4.354   2.020  14.588 -0.6087 -0.0360 -0.3791
  875MPD2    C212887   4.341   2.113  14.692  0.0607 -0.5578  0.1642
  875MPD2    C312888   4.449   2.152  14.768  0.2294  0.7617  0.6942
  875MPD2    C412889   4.580   2.125  14.720 -0.0565  0.1512  0.1821
  875MPD2    C512890   4.594   2.056  14.599  0.2602 -0.5730  0.5017
  875MPD2     H12891   4.242   2.146  14.722 -0.0469 -0.1266 -0.6717
  875MPD2    H112892   4.670   2.159  14.769 -0.8189 -0.3982  1.9369
  875MPD2    H212893   4.505   1.946  14.444  2.5234  3.2876 -0.6289
  875MPD2    H312894   4.693   2.057  14.553  0.6413  1.7246  1.3730
  875MPD2     N12895   4.426   2.239  14.887 -0.9038 -0.4524 -0.6155
  875MPD2    H512896   4.510   2.282  14.923  0.1828 -1.3616 -2.0702
  875MPD2    N112897   4.234   1.967  14.537  0.7030  0.3434  0.2727
  875MPD2    H712898   4.146   2.005  14.572 -0.1901 -0.9732 -0.5350
  876MPD2     C12899   3.553   3.686  15.752 -0.3019 -0.6959 -0.3029
  876MPD2    C112900   3.491   3.589  15.675  0.2259  0.2650 -0.6884
  876MPD2    C212901   3.461   3.463  15.733 -0.8014 -0.3932  0.8069
  876MPD2    C312902   3.498   3.435  15.869  0.0055 -0.4043  0.5522
  876MPD2    C412903   3.572   3.532  15.942 -0.9099 -0.0797  0.1333
  876MPD2    C512904   3.588   3.652  15.878 -0.0515 -0.0500  0.1164
  876MPD2     H12905   3.408   3.386  15.678 -0.7489  1.1118 -1.3837
  876MPD2    H112906   3.603   3.525  16.046  0.3463 -0.6823 -0.2798
  876MPD2    H212907   3.583   3.785  15.719  1.3052 -0.8508  0.6928
  876MPD2    H312908   3.640   3.735  15.924  0.4427  0.1947 -0.8753
  876MPD2     N12909   3.459   3.311  15.918 -0.1622  0.0380  0.0317
  876MPD2    H512910   3.419   3.243  15.854 -1.3924  0.5176  0.2914
  876MPD2    N112911   3.453   3.623  15.543 -0.6782  0.1988  0.6380
  876MPD2    H712912   3.456   3.719  15.511 -1.2623  0.0744  0.2198
  877MPD2     C12913   2.879   3.591  14.893 -0.0455  0.4901 -0.5050
  877MPD2    C112914   3.011   3.600  14.866 -1.0774  0.2404 -0.0769
  877MPD2    C212915   3.049   3.569  14.735  0.0107  0.0546  0.2139
  877MPD2    C312916   2.950   3.538  14.642 -1.5435  0.6238 -0.0939
  877MPD2    C412917   2.823   3.513  14.679 -0.4459 -0.5664  0.3693
  877MPD2    C512918   2.786   3.546  14.804 -0.3159 -0.4835  0.4777
  877MPD2     H12919   3.152   3.588  14.709  0.1231 -1.2939 -0.3069
  877MPD2    H112920   2.755   3.481  14.601  0.3124  0.4777 -0.7169
  877MPD2    H212921   2.839   3.615  14.991 -0.5656 -0.5493 -0.4607
  877MPD2    H312922   2.684   3.531  14.839 -0.1831  0.7373  1.3860
  877MPD2     N12923   2.979   3.524  14.503  0.1074  0.7938  0.4567
  877MPD2    H512924   2.903   3.487  14.447 -0.9454  0.6432  1.9862
  877MPD2    N112925   3.112   3.628  14.960 -0.0987 -0.1482 -0.3823
  877MPD2    H712926   3.207   3.645  14.928  0.2000 -1.4599 -0.2172
  878MPD2     C12927   3.361   2.865  13.215  0.5559 -0.6563 -0.2277
  878MPD2    C112928   3.268   2.825  13.118  0.3596  0.2545 -0.0097
  878MPD2    C212929   3.209   2.703  13.123 -0.4207 -0.0412 -0.5341
  878MPD2    C312930   3.238   2.616  13.225 -0.5913  0.5534 -0.0483
  878MPD2    C412931   3.333   2.651  13.314  0.4721  0.0479  0.7754
  878MPD2    C512932   3.387   2.772  13.314 -0.2416  0.3340  0.7314
  878MPD2     H12933   3.141   2.678  13.042  0.8603 -1.6378 -1.1175
  878MPD2    H112934   3.350   2.591  13.403  1.6565  1.7013  1.6721
  878MPD2    H212935   3.406   2.963  13.219 -0.7314 -0.0917  0.5128
  878MPD2    H312936   3.452   2.808  13.393  1.2609 -0.0868 -0.3174
  878MPD2     N12937   3.146   2.508  13.239 -0.1671  0.2926  0.1127
  878MPD2    H512938   3.077   2.494  13.166  0.2276 -1.9342  0.1631
  878MPD2    N112939   3.230   2.909  13.014 -0.2165 -0.0316 -0.1789
  878MPD2    H712940   3.185   2.876  12.929 -1.7975  2.5522 -0.3625
  879MPD2     C12941   3.501   3.703  16.882 -0.4502 -0.3046  0.2091
  879MPD2    C112942   3.511   3.827  16.823  0.1769  0.6138  0.1731
  879MPD2    C212943   3.427   3.862  16.717 -0.2174 -0.2042  0.5305
  879MPD2    C312944   3.345   3.773  16.660  1.0135 -0.2161 -0.6210
  879MPD2    C412945   3.348   3.648  16.713 -0.2909 -0.5130 -0.4392
  879MPD2    C512946   3.425   3.605  16.824 -0.1375 -0.3401  0.5116
  879MPD2     H12947   3.414   3.965  16.684 -0.7832 -0.7617 -1.0064
  879MPD2    H112948   3.284   3.572  16.669  1.6261 -1.4600 -1.6317
  879MPD2    H212949   3.559   3.682  16.971 -0.2358  2.1027  0.6214
  879MPD2    H312950   3.420   3.500  16.849 -1.6424  0.0391  1.8416
  879MPD2     N12951   3.254   3.805  16.555 -0.4445  0.1436  0.6462
  879MPD2    H512952   3.182   3.736  16.535 -1.5905  1.8082 -0.9664
  879MPD2    N112953   3.602   3.922  16.876  0.5975 -0.7204 -0.2817
  879MPD2    H712954   3.658   3.888  16.954  0.7807 -0.3884 -0.2694
  880MPD2     C12955   0.317   1.119   0.401  0.1894  0.1061 -0.9487
  880MPD2    C112956   0.392   1.223   0.355 -0.4226 -0.6424 -0.4625
  880MPD2    C212957   0.526   1.203   0.333 -0.5230  0.0569 -0.2798
  880MPD2    C312958   0.591   1.087   0.362  0.2514  0.8277  0.4762
  880MPD2    C412959   0.517   0.993   0.426 -0.4177 -0.4543 -0.2432
  880MPD2    C512960   0.379   1.007   0.436  0.8726 -0.2491 -0.2638
  880MPD2     H12961   0.587   1.282   0.292  0.4113 -1.2566 -1.4400
  880MPD2    H112962   0.563   0.902   0.461  0.5865  0.3762  0.5999
  880MPD2    H212963   0.212   1.139   0.415  0.3721  0.5078 -0.1775
  880MPD2    H312964   0.330   0.922   0.482 -0.8410  1.1014  0.3886
  880MPD2     N12965   0.731   1.064   0.324  0.3352  0.4256  0.1903
  880MPD2    H512966   0.769   1.135   0.262 -0.4983 -0.5305 -1.4215
  880MPD2    N112967   0.323   1.344   0.315  0.4791  0.4372  0.2202
  880MPD2    H712968   0.223   1.343   0.331  0.2245 -1.3478 -1.4277
  881MPD2     C12969   0.365   2.324  17.610 -0.0555  0.5563  0.7844
  881MPD2    C112970   0.341   2.206  17.551 -0.4106 -0.5990  0.8713
  881MPD2    C212971   0.316   2.101  17.635 -0.4538 -0.5165  0.5069
  881MPD2    C312972   0.285   2.117   0.021 -0.4478  0.9158  0.4805
  881MPD2    C412973   0.287   2.243   0.077 -0.7750  0.9733  0.1267
  881MPD2    C512974   0.332   2.344  17.740  0.1596 -1.0053  0.3580
  881MPD2     H12975   0.331   2.000  17.599 -1.9691 -0.9023  0.9809
  881MPD2    H112976   0.258   2.256   0.180 -1.4181 -0.4101  0.1345
  881MPD2    H212977   0.405   2.408  17.555 -0.4264  0.1352 -0.1159
  881MPD2    H312978   0.358   2.436   0.044 -0.9028 -0.6019  0.1739
  881MPD2     N12979   0.262   2.004   0.108 -0.2614  0.2291  0.3574
  881MPD2    H512980   0.236   2.023   0.204  0.4377 -3.1717  1.2282
  881MPD2    N112981   0.385   2.199  17.420  0.4660 -0.5013 -0.3808
  881MPD2    H712982   0.429   2.283  17.383  1.6192 -0.7951  0.3320
  882MPD2     C12983   3.111   3.599  13.650  0.0340  0.8364 -0.1676
  882MPD2    C112984   3.094   3.620  13.784  1.1603 -0.1628  0.2966
  882MPD2    C212985   2.963   3.604  13.836  0.2577 -0.5209 -0.3384
  882MPD2    C312986   2.863   3.552  13.757 -0.2802 -0.2640 -0.9137
  882MPD2    C412987   2.895   3.509  13.628  0.1123  0.1011  0.0987
  882MPD2    C512988   3.014   3.549  13.570 -0.3338  0.1991  0.9001
  882MPD2     H12989   2.945   3.631  13.940  0.3838 -1.0304 -0.1882
  882MPD2    H112990   2.812   3.475  13.568 -1.2154  1.3556  1.2216
  882MPD2    H212991   3.199   3.635  13.599 -0.6004  0.3107 -1.6407
  882MPD2    H312992   3.030   3.553  13.462 -0.2037 -2.5593  0.8120
  882MPD2     N12993   2.728   3.529  13.810 -1.2839  0.4693  0.0976
  882MPD2    H512994   2.656   3.498  13.745 -1.1436 -2.5154  1.3994
  882MPD2    N112995   3.210   3.654  13.860 -0.8225  0.1188 -0.0827
  882MPD2    H712996   3.291   3.686  13.809  0.7802  0.0569  2.4569
  883MPD2     C12997   0.720   3.605  16.222 -0.0860  0.1526 -0.4936
  883MPD2    C112998   0.778   3.658  16.110  0.4310 -0.3005  0.8299
  883MPD2    C212999   0.899   3.727  16.124 -0.7360 -0.5689  0.0892
  883MPD2    C313000   0.966   3.717  16.238 -0.6836 -0.3919 -0.6338
  883MPD2    C413001   0.914   3.655  16.349  0.2134  0.1308  0.4187
  883MPD2    C513002   0.780   3.611  16.340 -0.0193  0.3857 -0.0805
  883MPD2     H13003   0.942   3.777  16.038  1.5503  0.6972  1.9869
  883MPD2    H113004   0.956   3.660  16.448  0.5321  0.3627  0.2718
  883MPD2    H213005   0.621   3.559  16.224  0.0187 -0.2376 -3.7767
  883MPD2    H313006   0.725   3.590  16.430 -0.0724  0.4442 -0.0995
  883MPD2     N13007   1.081   3.800  16.238 -0.5314 -0.5021  0.6550
  883MPD2    H513008   1.099   3.848  16.150 -0.5242  0.3770  1.1288
  883MPD2    N113009   0.714   3.656  15.985  0.0249  0.4383  0.3571
  883MPD2    H713010   0.771   3.672  15.902 -0.9609 -1.6242 -0.7210
  884MPD2     C13011   2.526   4.243  14.958 -0.2729 -0.2178 -0.0046
  884MPD2    C113012   2.444   4.305  14.858 -0.1672  0.9394 -0.2657
  884MPD2    C213013   2.321   4.361  14.893 -0.0514 -0.3508 -0.2611
  884MPD2    C313014   2.277   4.348  15.022  0.7790  0.3668  0.3245
  884MPD2    C413015   2.359   4.286  15.115  0.1272  0.3465  0.5155
  884MPD2    C513016   2.481   4.230  15.083 -0.0785 -0.2517 -0.1705
  884MPD2     H13017   2.259   4.408  14.817  0.1451  1.4846  0.7148
  884MPD2    H113018   2.328   4.271  15.218 -1.3542 -1.4888 -0.1857
  884MPD2    H213019   2.626   4.205  14.939 -1.3244 -2.0654 -1.8892
  884MPD2    H313020   2.535   4.182  15.164 -0.5755 -0.6348 -0.0674
  884MPD2     N13021   2.144   4.408  15.043 -0.1424 -0.4186 -0.2633
  884MPD2    H513022   2.088   4.416  14.959 -0.4788  0.7692  0.0690
  884MPD2    N113023   2.489   4.303  14.722 -1.2898 -0.0993  0.5800
  884MPD2    H713024   2.440   4.361  14.655 -1.2100  0.6922  1.2142
  885MPD2     C13025   0.981   4.319  17.589  0.1698  0.1229 -0.1252
  885MPD2    C113026   1.014   4.437  17.661 -0.0482 -0.4133  0.4471
  885MPD2    C213027   0.993   4.563  17.599 -0.1140  0.1997  0.0648
  885MPD2    C313028   0.938   4.571  17.474  0.3757  0.4931  0.5343
  885MPD2    C413029   0.939   4.460  17.401 -0.1739  1.2111 -0.0143
  885MPD2    C513030   0.958   4.337  17.454  0.0327  0.0618 -0.3692
  885MPD2     H13031   1.013   4.655  17.653 -2.8201  0.6419  0.3290
  885MPD2    H113032   0.921   4.463  17.294 -2.5697  1.9930  0.4226
  885MPD2    H213033   0.996   4.216  17.619  1.0615  0.4308  0.4849
  885MPD2    H313034   0.948   4.249  17.392 -0.3830 -1.0797  1.2957
  885MPD2     N13035   0.902   4.696  17.416 -0.4792 -0.0362 -0.6280
  885MPD2    H513036   0.927   0.043  17.467 -2.1522 -1.1931  2.0971
  885MPD2    N113037   1.081   4.418   0.036 -0.5195 -0.2278  0.1810
  885MPD2    H713038   1.094   4.324   0.072 -0.6548  0.0597  0.9900
  886MPD2     C13039   2.022   3.057  14.903  0.2810 -0.5882  0.3328
  886MPD2    C113040   2.132   3.094  14.982  0.0376 -0.4688 -0.2635
  886MPD2    C213041   2.134   3.212  15.058  0.7361  0.2150 -0.7220
  886MPD2    C313042   2.021   3.298  15.054 -0.7507 -0.3943  0.1587
  886MPD2    C413043   1.905   3.252  14.986  0.3969  0.0089  0.2813
  886MPD2    C513044   1.917   3.141  14.904 -0.3421  0.5779  0.0848
  886MPD2     H13045   2.222   3.238  15.116  2.4909 -2.1217 -2.3209
  886MPD2    H113046   1.814   3.309  14.996  1.1030  1.1466  0.2913
  886MPD2    H213047   2.020   2.978  14.828  0.6296  0.8846 -1.2233
  886MPD2    H313048   1.832   3.128  14.839  3.0140  2.0906 -4.6438
  886MPD2     N13049   2.011   3.420  15.128  0.5158  0.1881 -0.2152
  886MPD2    H513050   1.921   3.466  15.131 -0.3604 -1.4682 -1.1947
  886MPD2    N113051   2.254   3.015  14.985 -0.1666 -0.3258 -0.5310
  886MPD2    H713052   2.320   3.036  15.059 -1.9275  1.1585  0.6262
  887MPD2     C13053   2.804   2.935  15.427 -0.6988  0.7931  0.7138
  887MPD2    C113054   2.744   3.020  15.338  0.5989  0.1985  0.2735
  887MPD2    C213055   2.765   3.157  15.359 -0.1362 -1.1484  0.2428
  887MPD2    C313056   2.854   3.205  15.455  0.2632  0.4481 -0.0289
  887MPD2    C413057   2.909   3.114  15.546 -0.6673 -0.4699 -0.4642
  887MPD2    C513058   2.882   2.983  15.530 -0.2663  0.0587 -0.0027
  887MPD2     H13059   2.721   3.222  15.284  1.7409 -0.3780 -0.1970
  887MPD2    H113060   2.954   3.144  15.640  0.5417  2.5125 -1.9934
  887MPD2    H213061   2.801   2.827  15.419  0.8642  0.7420  0.7397
  887MPD2    H313062   2.924   2.906  15.593 -0.2729  1.3997  1.6303
  887MPD2     N13063   2.877   3.347  15.463 -0.1908  0.4714  0.0279
  887MPD2    H513064   2.823   3.403  15.398  1.7417 -0.2591 -2.2512
  887MPD2    N113065   2.669   2.975  15.226 -0.2625 -0.0195  0.4373
  887MPD2    H713066   2.628   3.042  15.162 -1.9096 -0.1249  1.3867
  888MPD2     C13067   4.113   3.214  14.669 -0.2046  0.4458 -0.2011
  888MPD2    C113068   4.121   3.197  14.801 -0.6314  0.4162 -0.5479
  888MPD2    C213069   4.192   3.288  14.879  0.6502 -0.3073  0.1344
  888MPD2    C313070   4.256   3.399  14.812 -0.2195  0.3753 -0.6507
  888MPD2    C413071   4.259   3.400  14.677 -0.0830  0.1380 -1.3116
  888MPD2    C513072   4.180   3.314  14.607 -0.7351 -0.2880 -0.2036
  888MPD2     H13073   4.207   3.271  14.985 -1.4891  0.4451  0.5699
  888MPD2    H113074   4.315   3.477  14.625  0.7463 -0.9041 -1.9471
  888MPD2    H213075   4.065   3.140  14.606 -2.1819  0.8392  0.8305
  888MPD2    H313076   4.171   3.328  14.500 -3.4591  2.6073  0.3913
  888MPD2     N13077   4.329   3.505  14.883  0.3006  0.1027  0.6970
  888MPD2    H513078   4.330   3.487  14.983  1.2342 -1.4192  0.4287
  888MPD2    N113079   4.061   3.087  14.872  0.1634 -0.1385 -0.0620
  888MPD2    H713080   4.085   3.079  14.970 -1.6653  0.4881  0.4445
  889MPD2     C13081   3.545   2.908  12.747 -0.9698  0.3393 -0.0386
  889MPD2    C113082   3.564   2.873  12.878 -0.4381 -0.1539  1.1108
  889MPD2    C213083   3.600   2.968  12.976 -0.3320  0.3650 -0.5515
  889MPD2    C313084   3.586   3.103  12.944  0.5630 -0.4790  0.0648
  889MPD2    C413085   3.549   3.144  12.816 -0.3765  0.4793  0.4729
  889MPD2    C513086   3.536   3.043  12.723 -0.2445 -0.2265 -0.4426
  889MPD2     H13087   3.598   2.943  13.081 -0.2255  2.1094 -0.1467
  889MPD2    H113088   3.530   3.248  12.793 -1.1587  0.7801  2.4862
  889MPD2    H213089   3.520   2.835  12.671  1.5990 -1.0322  0.4076
  889MPD2    H313090   3.510   3.081  12.625 -0.1269 -1.0260 -0.7830
  889MPD2     N13091   3.598   3.193  13.055 -0.5348  0.5025  1.3774
  889MPD2    H513092   3.630   3.152  13.142 -1.0765  0.6741  1.6565
  889MPD2    N113093   3.574   2.741  12.921  0.1688  0.3024  0.0175
  889MPD2    H713094   3.598   2.728  13.019  3.4916  0.0243 -0.8357
  890MPD2     C13095   3.401   4.568  14.354 -0.3457  1.0767 -0.4737
  890MPD2    C113096   3.490   4.648  14.426  0.0206 -0.7873  0.9859
  890MPD2    C213097   3.575   4.584  14.519 -0.1127  0.3702 -0.9643
  890MPD2    C313098   3.562   4.451  14.556 -0.1500 -0.1743 -0.3252
  890MPD2    C413099   3.471   4.376  14.483 -0.2491 -0.3068  0.5774
  890MPD2    C513100   3.389   4.434  14.381 -0.0746  0.3272 -0.4526
  890MPD2     H13101   3.650   4.640  14.573 -0.9806 -0.0365  0.6502
  890MPD2    H113102   3.455   4.272  14.511  0.2533  0.0888  2.3335
  890MPD2    H213103   3.344   4.611  14.272 -0.4525 -2.1592 -2.1034
  890MPD2    H313104   3.309   4.379  14.333  0.2809 -0.5807 -0.0112
  890MPD2     N13105   3.638   4.392  14.661  0.7458  0.3195 -0.7967
  890MPD2    H513106   3.711   4.450  14.700 -1.5307  1.0268  2.4063
  890MPD2    N113107   3.496   0.057  14.419  0.2415 -0.6430 -0.3998
  890MPD2    H713108   3.440   0.099  14.347 -0.1042 -2.3407 -1.1306
  891MPD2     C13109   1.365   2.666  16.292 -0.0667 -0.1814 -0.4402
  891MPD2    C113110   1.304   2.783  16.330  0.1427 -0.0645 -0.0792
  891MPD2    C213111   1.373   2.898  16.344 -0.0899 -0.4579 -0.4109
  891MPD2    C313112   1.510   2.898  16.328 -0.0568 -0.0834 -0.9826
  891MPD2    C413113   1.574   2.778  16.302  0.0723  0.9745  0.3559
  891MPD2    C513114   1.501   2.663  16.275  0.2250 -0.7450 -0.1742
  891MPD2     H13115   1.324   2.994  16.353  0.4949 -0.0342 -1.7431
  891MPD2    H113116   1.681   2.783  16.283 -0.5305 -0.1035 -3.2872
  891MPD2    H213117   1.305   2.575  16.289  0.0706 -0.2824 -0.0163
  891MPD2    H313118   1.552   2.570  16.257  0.0711 -1.1173  1.2980
  891MPD2     N13119   1.576   3.029  16.340 -0.0695 -0.6075  0.3158
  891MPD2    H513120   1.509   3.104  16.354 -1.8834 -2.0700 -0.5211
  891MPD2    N113121   1.165   2.780  16.340  0.0798  0.2279 -0.3234
  891MPD2    H713122   1.121   2.697  16.301 -1.3026  1.1185 -0.6573
  892MPD2     C13123   2.461   3.846  14.716 -0.2561  0.0740 -0.3332
  892MPD2    C113124   2.344   3.838  14.644  0.4000 -0.2277  0.1125
  892MPD2    C213125   2.350   3.769  14.527  0.6166 -0.0540 -0.0457
  892MPD2    C313126   2.471   3.726  14.476  0.0765 -0.2716  0.0446
  892MPD2    C413127   2.591   3.743  14.550 -0.6898 -0.0941 -0.2953
  892MPD2    C513128   2.580   3.803  14.672  1.0374  0.5558 -0.1042
  892MPD2     H13129   2.257   3.764  14.471 -0.9798 -0.4028  2.6174
  892MPD2    H113130   2.687   3.705  14.517  0.2050  1.1283  0.8755
  892MPD2    H213131   2.473   3.887  14.816 -0.2571 -0.3885 -0.1430
  892MPD2    H313132   2.670   3.814  14.732  2.1985 -1.2323 -1.5130
  892MPD2     N13133   2.488   3.663  14.345  0.0253  0.4994 -0.8072
  892MPD2    H513134   2.577   3.617  14.330 -0.6777 -0.1286 -3.0448
  892MPD2    N113135   2.231   3.917  14.678 -0.1772  0.0533  0.2289
  892MPD2    H713136   2.165   3.941  14.605 -0.4113  1.2675  0.8553
  893MPD2     C13137   0.662   3.930   1.216  0.4539  0.3383  0.4740
  893MPD2    C113138   0.530   3.892   1.219 -0.4449 -0.2269  0.0658
  893MPD2    C213139   0.452   3.955   1.318 -0.0325 -0.2283 -0.8687
  893MPD2    C313140   0.499   4.049   1.407  0.2717 -0.4097 -0.3422
  893MPD2    C413141   0.635   4.080   1.398 -0.1002  0.0442  0.1919
  893MPD2    C513142   0.712   4.023   1.295 -0.0280 -0.8489 -0.1741
  893MPD2     H13143   0.346   3.937   1.332 -0.2104  1.9160  0.5951
  893MPD2    H113144   0.687   4.151   1.461 -1.0231  0.3019  0.6633
  893MPD2    H213145   0.722   3.883   1.139 -1.3336  0.2682 -0.8850
  893MPD2    H313146   0.817   4.047   1.291 -0.1864  0.1928  2.1415
  893MPD2     N13147   0.428   4.103   1.511 -0.2534  0.1758  0.1024
  893MPD2    H513148   0.487   4.153   1.577 -1.3282  1.4183  0.1263
  893MPD2    N113149   0.491   3.797   1.126 -0.3629  0.4580  0.1599
  893MPD2    H713150   0.543   3.771   1.043 -3.6203 -0.3705 -1.6312
  894MPD2     C13151   2.666   0.133   0.895  0.3298  0.5103 -0.2165
  894MPD2    C113152   2.654   0.271   0.925  0.2367  0.3844  0.1842
  894MPD2    C213153   2.649   0.372   0.826  0.5190  0.1587 -0.1147
  894MPD2    C313154   2.648   0.338   0.693 -0.2272  0.2001  0.8988
  894MPD2    C413155   2.648   0.205   0.664 -0.1618  0.4199 -0.3427
  894MPD2    C513156   2.659   0.107   0.763 -0.6069  0.1241 -0.5977
  894MPD2     H13157   2.645   0.477   0.853  0.2128  0.7100 -2.3121
  894MPD2    H113158   2.671   0.180   0.562 -0.5613 -2.4621  0.2896
  894MPD2    H213159   2.692   0.053   0.962  3.3436  0.7503 -1.0898
  894MPD2    H313160   2.662   0.002   0.737 -0.2937  0.0237 -0.1677
  894MPD2     N13161   2.662   0.443   0.597 -0.1786 -0.1609 -0.2305
  894MPD2    H513162   2.668   0.540   0.627 -0.1303 -0.4785  0.7921
  894MPD2    N113163   2.658   0.306   1.059  0.8436 -0.1060  0.3440
  894MPD2    H713164   2.689   0.229   1.117  1.6398 -1.0289 -1.3005
  895MPD2     C13165   1.429   3.101  13.178  0.2262  0.3112  0.0141
  895MPD2    C113166   1.325   3.011  13.145  0.3449  0.3679 -0.1850
  895MPD2    C213167   1.333   2.931  13.034 -0.5087  0.2473 -0.0012
  895MPD2    C313168   1.448   2.937  12.962 -0.9003 -0.1091 -0.2725
  895MPD2    C413169   1.550   3.018  12.994  0.2692 -0.1192 -0.0508
  895MPD2    C513170   1.539   3.103  13.095  0.0361 -0.1916  0.5804
  895MPD2     H13171   1.245   2.880  12.996 -0.8974  0.5297  0.5223
  895MPD2    H113172   1.637   3.024  12.930  0.9420 -0.1075  0.8676
  895MPD2    H213173   1.429   3.181  13.251  0.8881  0.2967  0.0292
  895MPD2    H313174   1.619   3.173  13.116  1.1094 -1.1002 -0.4964
  895MPD2     N13175   1.442   2.858  12.850 -0.3139  0.6225 -0.5699
  895MPD2    H513176   1.351   2.814  12.836 -0.3002  0.1076  1.0078
  895MPD2    N113177   1.198   3.005  13.211 -0.5775 -0.3017 -0.0217
  895MPD2    H713178   1.123   2.950  13.172 -1.1147 -0.0171  0.6112
  896MPD2     C13179   4.034   1.412   1.223  0.1513 -0.3005  0.5654
  896MPD2    C113180   4.067   1.286   1.185 -0.7062 -0.1606 -0.0150
  896MPD2    C213181   3.957   1.199   1.166  0.2865  0.0465 -0.3966
  896MPD2    C313182   3.822   1.237   1.203 -0.3807  0.4383  0.5355
  896MPD2    C413183   3.808   1.364   1.251 -0.8753  0.5535 -0.2471
  896MPD2    C513184   3.906   1.454   1.248  0.0093  0.8128  0.5760
  896MPD2     H13185   3.961   1.100   1.123 -0.5474  0.4988 -1.5220
  896MPD2    H113186   3.708   1.405   1.254 -0.9527  0.3519 -0.1012
  896MPD2    H213187   4.108   1.491   1.228 -0.0373 -0.0075 -1.1542
  896MPD2    H313188   3.890   1.558   1.272  0.0475  0.6612  1.2504
  896MPD2     N13189   3.712   1.142   1.189  0.7561  0.0560 -0.6242
  896MPD2    H513190   3.735   1.051   1.151 -1.5201 -1.2777  1.1768
  896MPD2    N113191   4.203   1.257   1.152 -0.5050  0.4537 -0.2125
  896MPD2    H713192   4.269   1.319   1.198  1.0201 -1.5925  0.3437
  897MPD2     C13193   0.185   3.072  10.771 -0.7015 -0.0924 -0.7851
  897MPD2    C113194   0.058   3.039  10.739  0.1826 -0.3008 -0.0466
  897MPD2    C213195   4.700   3.020  10.843  0.6860  0.6392 -0.6277
  897MPD2    C313196   0.000   3.045  10.975 -0.0967 -0.5700 -0.0147
  897MPD2    C413197   0.130   3.085  11.005  0.3524  0.1360  0.5849
  897MPD2    C513198   0.221   3.091  10.905 -0.7099 -0.1541 -0.1397
  897MPD2     H13199   4.593   3.014  10.826  0.3650  0.0247  1.5997
  897MPD2    H113200   0.165   3.115  11.103  1.3684  1.4376 -0.1846
  897MPD2    H213201   0.252   3.083  10.687  1.7443 -0.1949  1.1599
  897MPD2    H313202   0.321   3.128  10.928 -0.4978 -1.7104  1.3787
  897MPD2     N13203   4.634   3.054  11.073 -0.5700 -0.1206  0.4618
  897MPD2    H513204   4.537   3.039  11.049 -0.4691  0.6773 -0.4517
  897MPD2    N113205   0.028   3.052  10.605 -0.0154  0.2383  0.6250
  897MPD2    H713206   0.089   3.104  10.542 -0.1054 -0.0446  0.3023
  898MPD2     C13207   2.188   3.433  17.650  0.8903  0.4141  0.0634
  898MPD2    C113208   2.190   3.449  17.513  0.4594  0.3723 -0.6145
  898MPD2    C213209   2.176   3.574  17.471  0.3143  0.3749 -0.3450
  898MPD2    C313210   2.166   3.685  17.548  0.5717 -0.6394  0.0062
  898MPD2    C413211   2.166   3.668  17.682  0.8957  0.6272 -0.1093
  898MPD2    C513212   2.182   3.544  17.732  0.3396 -0.3976  0.6700
  898MPD2     H13213   2.180   3.596  17.365 -0.0062 -1.7295 -0.7979
  898MPD2    H113214   2.153   3.745   0.011 -1.1215  1.0887 -0.9313
  898MPD2    H213215   2.203   3.341  17.706 -0.6930 -0.1113 -0.3614
  898MPD2    H313216   2.181   3.547   0.094  0.8018 -0.1123  0.6667
  898MPD2     N13217   2.159   3.810  17.484  0.0648  0.3559 -0.6021
  898MPD2    H513218   2.167   3.811  17.382 -0.9771 -1.1116 -0.7035
  898MPD2    N113219   2.195   3.337  17.424  0.3950 -0.0925  0.0181
  898MPD2    H713220   2.183   3.356  17.325 -0.6967  3.7445  0.8877
  899MPD2     C13221   3.290   4.061  16.948 -0.1694 -1.1313 -0.4417
  899MPD2    C113222   3.338   4.165  17.030  0.2061  0.0289 -0.2912
  899MPD2    C213223   3.376   4.143  17.158  0.1509 -0.2051  0.3923
  899MPD2    C313224   3.373   4.014  17.205 -0.0715 -0.1739 -0.1999
  899MPD2    C413225   3.330   3.909  17.129  0.2086  0.2067 -0.4425
  899MPD2    C513226   3.287   3.935  17.003 -0.0348 -0.2883 -0.4318
  899MPD2     H13227   3.423   4.214  17.224 -1.5151  2.2794 -1.1022
  899MPD2    H113228   3.328   3.811  17.175  2.2747  1.1146  1.5813
  899MPD2    H213229   3.253   4.066  16.846 -0.6265  0.7373 -0.1764
  899MPD2    H313230   3.248   3.856  16.940  0.8456  0.4669 -1.9307
  899MPD2     N13231   3.406   3.985  17.338 -0.0836  0.4225  0.3129
  899MPD2    H513232   3.390   3.890  17.369 -0.4850  0.5520  0.5035
  899MPD2    N113233   3.335   4.290  16.968  0.2422 -0.2699  0.4517
  899MPD2    H713234   3.304   4.295  16.872  0.5495 -2.0052  0.2628
  900MPD2     C13235   2.324   0.620  12.409 -0.1680  0.1714  0.6246
  900MPD2    C113236   2.225   0.625  12.515 -0.3612  0.2011 -1.1877
  900MPD2    C213237   2.110   0.703  12.501 -0.0541  0.0347  0.4498
  900MPD2    C313238   2.101   0.783  12.385  0.0723 -0.2498  0.2479
  900MPD2    C413239   2.203   0.779  12.287  0.5352  0.1987  0.5780
  900MPD2    C513240   2.307   0.689  12.295 -0.0547 -0.3557 -0.2748
  900MPD2     H13241   2.030   0.694  12.573  1.0418  2.1505  1.9093
  900MPD2    H113242   2.197   0.839  12.197  0.0969  1.0604  1.1852
  900MPD2    H213243   2.404   0.547  12.422  1.5374  2.1120  1.0340
  900MPD2    H313244   2.376   0.678  12.213 -0.9091  1.1174 -1.1855
  900MPD2     N13245   1.982   0.863  12.375  0.2421  0.1135  0.0797
  900MPD2    H513246   1.918   0.851  12.453  1.7647  0.4660  1.3587
  900MPD2    N113247   2.261   0.562  12.633  0.5200  0.3092  0.2753
  900MPD2    H713248   2.343   0.504  12.645  1.4932  0.8925 -3.5576
  901MPD2     C13249   2.228   4.371  13.036 -0.2115 -0.1602  0.4535
  901MPD2    C113250   2.356   4.420  13.006  0.0760 -0.4711 -0.0084
  901MPD2    C213251   2.380   4.554  12.973 -0.6824  0.0119  0.3863
  901MPD2    C313252   2.264   4.636  12.961 -0.5192  0.7415 -0.7077
  901MPD2    C413253   2.138   4.586  12.986  0.0301  0.7022  0.0216
  901MPD2    C513254   2.124   4.459  13.034  0.9518  0.1531 -0.0365
  901MPD2     H13255   2.477   4.600  12.956  0.4339 -1.9826  1.3813
  901MPD2    H113256   2.046   4.644  12.981 -0.3400  0.1674  0.5063
  901MPD2    H213257   2.216   4.266  13.060  4.0405 -0.5164  1.0903
  901MPD2    H313258   2.023   4.421  13.038  0.5308  1.1754 -1.2235
  901MPD2     N13259   2.290   0.034  12.928  0.5344 -0.4744  0.7190
  901MPD2    H513260   2.388   0.053  12.910  0.0895  0.7488 -0.4052
  901MPD2    N113261   2.461   4.321  13.001  0.0432 -0.1879  0.7261
  901MPD2    H713262   2.433   4.223  13.006 -1.3228  0.1402 -0.2525
  902MPD2     C13263   2.036   3.592  12.607  0.3943 -0.0241  0.0545
  902MPD2    C113264   1.898   3.598  12.631  0.0344 -0.2333  0.1575
  902MPD2    C213265   1.809   3.522  12.548  0.2878 -0.1656  0.0261
  902MPD2    C313266   1.864   3.436  12.451  0.1321  0.5583 -0.0072
  902MPD2    C413267   2.001   3.423  12.445 -0.9614  0.0745  0.0420
  902MPD2    C513268   2.087   3.506  12.513  0.3752 -0.4531 -0.6260
  902MPD2     H13269   1.702   3.524  12.566  0.3690  1.1864  0.3573
  902MPD2    H113270   2.047   3.355  12.373 -0.0072  0.5339  0.2204
  902MPD2    H213271   2.106   3.652  12.664  0.5314 -1.6446  1.5693
  902MPD2    H313272   2.193   3.492  12.494  0.5437  0.4655 -0.3765
  902MPD2     N13273   1.783   3.359  12.367 -0.2548  0.3893 -0.3051
  902MPD2    H513274   1.837   3.320  12.291 -0.7142 -1.8674  0.5518
  902MPD2    N113275   1.853   3.700  12.721 -0.8265  0.0702  0.0344
  902MPD2    H713276   1.932   3.739  12.773 -0.7417 -0.2735  0.1651
  903MPD2     C13277   1.130   3.416  11.795  0.4095  0.1420  0.4307
  903MPD2    C113278   1.111   3.385  11.927  0.3573 -0.0018  0.8548
  903MPD2    C213279   0.987   3.411  11.979 -1.1157 -0.9214 -0.2484
  903MPD2    C313280   0.885   3.460  11.900 -0.3895 -1.0662  0.5989
  903MPD2    C413281   0.907   3.487  11.764 -0.3517  0.6659 -0.9095
  903MPD2    C513282   1.031   3.460  11.714  0.2161  0.7308  0.2994
  903MPD2     H13283   0.972   3.389  12.084 -0.7619 -0.2467 -0.0591
  903MPD2    H113284   0.837   3.534  11.696  0.1307  2.0072 -0.4916
  903MPD2    H213285   1.223   3.407  11.740 -0.4095 -0.4257 -0.8650
  903MPD2    H313286   1.056   3.478  11.610  0.0344  3.6818  0.7608
  903MPD2     N13287   0.755   3.464  11.956 -0.4669 -0.0159 -0.4462
  903MPD2    H513288   0.751   3.441  12.055 -0.0499 -1.2896 -0.7135
  903MPD2    N113289   1.219   3.328  11.989  0.1270  0.0755 -0.6929
  903MPD2    H713290   1.291   3.294  11.925  1.2393  0.0248  0.5762
  904MPD2     C13291   1.217   2.032  13.571  0.6400 -0.2723 -0.0202
  904MPD2    C113292   1.307   2.133  13.577  0.3042  0.2622 -0.4245
  904MPD2    C213293   1.441   2.101  13.578  0.1605 -0.1421  0.1323
  904MPD2    C313294   1.483   1.969  13.559 -0.2581  0.0573  0.5485
  904MPD2    C413295   1.392   1.868  13.539 -0.3123  0.0810  0.2223
  904MPD2    C513296   1.258   1.901  13.556  0.3440  0.7430 -0.1072
  904MPD2     H13297   1.521   2.173  13.594 -0.5418  0.8236 -0.7116
  904MPD2    H113298   1.432   1.770  13.519  0.7652  0.2604  1.4294
  904MPD2    H213299   1.113   2.044  13.596  1.0049  1.3998  0.7289
  904MPD2    H313300   1.182   1.824  13.552  0.9457  0.2892 -2.4884
  904MPD2     N13301   1.630   1.956  13.560  0.3544 -0.4684 -1.0227
  904MPD2    H513302   1.684   2.042  13.566  3.3574 -2.1987 -2.9462
  904MPD2    N113303   1.263   2.272  13.588  0.2445 -0.4811  0.0629
  904MPD2    H713304   1.335   2.344  13.581  0.4668 -0.6498  0.6074
  905MPD2     C13305   0.800   2.492  13.043  0.2577 -0.6363  0.0969
  905MPD2    C113306   0.920   2.552  13.068  0.4511  0.4890 -0.4068
  905MPD2    C213307   1.011   2.571  12.967 -0.3237 -0.5440  0.5406
  905MPD2    C313308   0.984   2.534  12.833 -0.0564  0.2366  0.1998
  905MPD2    C413309   0.869   2.465  12.808 -0.2483 -0.4293  0.3077
  905MPD2    C513310   0.783   2.439  12.911  0.9078  0.0170  0.5169
  905MPD2     H13311   1.099   2.631  12.991 -0.7777  0.1670  0.4348
  905MPD2    H113312   0.840   2.430  12.710 -0.9634  0.1217  0.3234
  905MPD2    H213313   0.722   2.476  13.116  0.2519  0.1499  0.2560
  905MPD2    H313314   0.693   2.380  12.898  0.9469  0.0347  0.1473
  905MPD2     N13315   1.073   2.551  12.729 -0.3240  0.7937  0.1015
  905MPD2    H513316   1.057   2.493  12.647 -0.6798  1.8571 -0.5754
  905MPD2    N113317   0.951   2.588  13.200  0.2106  0.0254  0.6367
  905MPD2    H713318   0.881   2.565  13.270  1.2511 -1.1010  1.3099
  906MPD2     C13319   3.166   2.739  11.481  0.1812  0.7815  0.8213
  906MPD2    C113320   3.155   2.718  11.342 -0.6055 -0.3364 -0.3235
  906MPD2    C213321   3.062   2.622  11.299 -0.2899  0.8840  0.0166
  906MPD2    C313322   2.990   2.551  11.395  0.7501 -0.3868 -0.0491
  906MPD2    C413323   3.001   2.574  11.532  0.2266  0.5302  0.1217
  906MPD2    C513324   3.084   2.679  11.567 -0.7843  0.2606  0.3843
  906MPD2     H13325   3.049   2.614  11.192 -0.1330  0.8056  0.0033
  906MPD2    H113326   2.936   2.527  11.605 -1.3421  0.0324 -1.5840
  906MPD2    H213327   3.244   2.804  11.518  1.7467 -0.3648 -0.4569
  906MPD2    H313328   3.100   2.707  11.670  0.2350 -0.7942  0.5127
  906MPD2     N13329   2.887   2.457  11.364  0.6299 -0.5200  0.2077
  906MPD2    H513330   2.858   2.399  11.442 -1.0360 -0.9525 -0.7373
  906MPD2    N113331   3.227   2.776  11.234 -0.4471 -0.3472 -0.2222
  906MPD2    H713332   3.201   2.757  11.138 -0.4717  0.5614 -0.3917
  907MPD2     C13333   2.462   2.056  15.584 -0.2924  0.8416 -1.1544
  907MPD2    C113334   2.516   2.060  15.458 -0.5176  0.0835 -0.0361
  907MPD2    C213335   2.626   2.137  15.432  0.2362  0.0072  0.2393
  907MPD2    C313336   2.676   2.221  15.534 -0.0450  0.0113 -0.9091
  907MPD2    C413337   2.626   2.211  15.660  0.1183  0.0220 -0.3643
  907MPD2    C513338   2.522   2.123  15.682 -0.3329  0.5479  0.9861
  907MPD2     H13339   2.664   2.144  15.330 -1.8936  2.2234 -0.4039
  907MPD2    H113340   2.675   2.246  15.751 -0.7162 -0.2676  0.2015
  907MPD2    H213341   2.377   1.994  15.610  0.1015  0.3067 -1.1481
  907MPD2    H313342   2.478   2.118  15.781 -0.4631  0.0803  0.9033
  907MPD2     N13343   2.771   2.322  15.501  0.0808  0.0677 -0.1207
  907MPD2    H513344   2.783   2.333  15.401  2.2453  1.1047  0.2715
  907MPD2    N113345   2.470   1.988  15.342  0.4926  0.0535  0.3106
  907MPD2    H713346   2.512   2.020  15.255 -0.0872 -1.0305 -0.3642
  908MPD2     C13347   4.173   2.604   9.918  0.0243  0.1001 -0.3044
  908MPD2    C113348   4.309   2.588   9.950  0.6377  0.1043  0.3044
  908MPD2    C213349   4.371   2.680  10.037 -0.8491  0.2036  0.1689
  908MPD2    C313350   4.309   2.802  10.063 -0.3751  0.0058  0.7514
  908MPD2    C413351   4.171   2.820  10.026 -0.2588  0.0478  0.2734
  908MPD2    C513352   4.104   2.722   9.957 -0.1356 -0.3342 -0.0702
  908MPD2     H13353   4.474   2.664  10.064 -0.6479 -0.9393 -1.2347
  908MPD2    H113354   4.115   2.909  10.051 -0.9726 -0.0159 -1.0969
  908MPD2    H213355   4.115   2.529   9.866 -3.0397  0.9479  1.8742
  908MPD2    H313356   4.002   2.742   9.927  0.3160 -0.0738 -1.4005
  908MPD2     N13357   4.391   2.888  10.140  0.5799 -0.3974  0.0782
  908MPD2    H513358   4.477   2.853  10.182  1.2850 -0.2506 -1.2615
  908MPD2    N113359   4.371   2.478   9.882 -0.7047 -0.2367  0.0356
  908MPD2    H713360   4.318   2.425   9.814 -1.4635  1.8200 -0.9807
  909MPD2     C13361   0.251   0.655  11.669 -0.0576  0.4780  0.3198
  909MPD2    C113362   0.250   0.795  11.664 -0.2467 -0.9479  0.7081
  909MPD2    C213363   0.166   0.865  11.744 -0.8695 -0.8378  0.0874
  909MPD2    C313364   0.082   0.806  11.831 -0.1672  0.2623  0.2141
  909MPD2    C413365   0.080   0.668  11.839 -0.3334  0.1528  0.3766
  909MPD2    C513366   0.167   0.592  11.761 -0.5116 -0.3860 -0.0037
  909MPD2     H13367   0.169   0.972  11.732 -0.8238 -0.8984 -0.4508
  909MPD2    H113368   0.019   0.610  11.907 -1.0228  2.5255  1.7830
  909MPD2    H213369   0.311   0.582  11.616  0.3011  1.9574 -1.3267
  909MPD2    H313370   0.170   0.483  11.760  0.1589 -0.3673 -0.0649
  909MPD2     N13371   0.001   0.889  11.911  0.1866  0.1559  0.3807
  909MPD2    H513372   0.003   0.988  11.887 -0.0357  0.2831  0.8857
  909MPD2    N113373   0.334   0.868  11.581 -0.2110 -0.6942 -0.0933
  909MPD2    H713374   0.312   0.967  11.573 -1.3624 -0.7996  1.6625
  910MPD2     C13375   2.052   2.443  15.997 -0.1009  0.5557  0.5362
  910MPD2    C113376   1.989   2.326  15.964  0.6639  0.4177  0.2947
  910MPD2    C213377   1.898   2.333  15.868  0.0377 -0.0762 -0.1891
  910MPD2    C313378   1.872   2.452  15.800  0.4016  0.3118 -0.4369
  910MPD2    C413379   1.942   2.567  15.830  0.5499  0.1594 -0.6999
  910MPD2    C513380   2.028   2.563  15.937  0.4622  0.1555  0.1571
  910MPD2     H13381   1.842   2.245  15.839 -2.5077  1.2189  0.7735
  910MPD2    H113382   1.927   2.660  15.777  1.6358  0.8768  0.2642
  910MPD2    H213383   2.125   2.444  16.077  1.4570 -1.5118 -0.8624
  910MPD2    H313384   2.077   2.657  15.960  2.1659 -0.1117 -2.3607
  910MPD2     N13385   1.772   2.458  15.700 -0.1566 -0.6466 -0.6479
  910MPD2    H513386   1.775   2.544  15.647 -0.0879  1.9010  3.5323
  910MPD2    N113387   1.999   2.207  16.038 -0.5346 -0.4263 -0.0175
  910MPD2    H713388   1.941   2.135  15.997 -2.5652 -0.0817  2.1925
  911MPD2     C13389   4.293   3.436  16.725 -0.2791 -0.4100 -0.7206
  911MPD2    C113390   4.283   3.345  16.619  0.5036  0.4844 -0.5754
  911MPD2    C213391   4.218   3.383  16.502  0.2374 -1.0290 -0.5592
  911MPD2    C313392   4.168   3.512  16.489  0.5234 -0.6986  0.2798
  911MPD2    C413393   4.174   3.596  16.601  0.6190 -0.8867 -0.6535
  911MPD2    C513394   4.228   3.553  16.716  0.4954  0.1935 -0.5504
  911MPD2     H13395   4.215   3.322  16.412 -0.3178 -0.4380 -0.9443
  911MPD2    H113396   4.134   3.697  16.601 -2.3933 -2.0867 -0.1553
  911MPD2    H213397   4.334   3.403  16.820 -1.6520  1.4209  0.5249
  911MPD2    H313398   4.227   3.624  16.798 -1.0868 -1.9324  1.2482
  911MPD2     N13399   4.103   3.557  16.373  0.7460 -0.2859 -0.3958
  911MPD2    H513400   4.074   3.477  16.318  2.2735 -1.7139  0.8698
  911MPD2    N113401   4.353   3.222  16.624  0.1912  0.2249  0.0713
  911MPD2    H713402   4.394   3.207  16.716 -0.5434  1.6896  0.6470
  912MPD2     C13403   3.845   3.140  15.803  0.0776 -0.1362  0.4780
  912MPD2    C113404   3.850   3.180  15.936 -0.5650  1.0039 -0.0533
  912MPD2    C213405   3.868   3.082  16.032 -0.8558 -0.5619 -0.2547
  912MPD2    C313406   3.901   2.952  15.995  0.3302  0.0722 -0.4721
  912MPD2    C413407   3.904   2.921  15.864 -0.2958  0.1024 -0.1883
  912MPD2    C513408   3.870   3.011  15.771 -0.1182 -0.1698  0.3690
  912MPD2     H13409   3.878   3.118  16.133 -2.8237 -0.8154  0.0303
  912MPD2    H113410   3.937   2.824  15.827  0.4802 -0.7656  2.7638
  912MPD2    H213411   3.835   3.214  15.724 -0.7426 -0.0419  0.6669
  912MPD2    H313412   3.883   2.983  15.667  1.5599  0.0084  0.5163
  912MPD2     N13413   3.933   2.855  16.099  0.5321 -0.1187  0.8696
  912MPD2    H513414   3.932   2.886  16.195  2.6740 -0.4553  1.0048
  912MPD2    N113415   3.826   3.314  15.966  0.6583  0.2337  0.3439
  912MPD2    H713416   3.812   3.375  15.886  2.4127 -1.0900 -0.9807
  913MPD2     C13417   0.796   4.654  10.819  1.1795  0.1973  0.1199
  913MPD2    C113418   0.728   4.538  10.776  0.2805  0.5878 -0.4176
  913MPD2    C213419   0.656   4.542  10.665 -0.3238  0.0531  0.6769
  913MPD2    C313420   0.641   4.659  10.591 -0.0511 -0.2956 -0.1506
  913MPD2    C413421   0.722   0.029  10.624 -0.4698 -0.6193 -0.1524
  913MPD2    C513422   0.785   0.027  10.742  0.0288  0.0267 -0.6907
  913MPD2     H13423   0.614   4.451  10.624  0.6519 -0.3718  0.6283
  913MPD2    H113424   0.726   0.119  10.564 -0.7513 -0.9407 -0.6494
  913MPD2    H213425   0.865   4.664  10.901  0.4790 -2.4919  1.0256
  913MPD2    H313426   0.850   0.108  10.773  0.2347  0.4504 -2.2332
  913MPD2     N13427   0.571   4.677  10.467 -0.1364  0.6209  0.5047
  913MPD2    H513428   0.562   0.033  10.427  0.7585  0.5397  0.1123
  913MPD2    N113429   0.734   4.431  10.868 -0.9446  0.4476 -0.4552
  913MPD2    H713430   0.792   4.450  10.950  1.3980 -1.0396 -1.7698
  914MPD2     C13431   2.444   4.305  12.247 -0.6999  0.9246  1.0946
  914MPD2    C113432   2.462   4.385  12.350  0.0053  0.1461  0.1092
  914MPD2    C213433   2.539   4.346  12.459  0.5696 -0.5187 -0.0045
  914MPD2    C313434   2.572   4.216  12.474  0.3877  0.4122 -0.3459
  914MPD2    C413435   2.540   4.131  12.371  0.7521 -0.1920  0.3556
  914MPD2    C513436   2.485   4.172  12.255  0.2462 -0.0740 -0.0024
  914MPD2     H13437   2.561   4.415  12.539  1.1783 -1.0189  0.2586
  914MPD2    H113438   2.577   4.029  12.373  1.5448  0.0613 -1.3396
  914MPD2    H213439   2.394   4.337  12.157 -2.0742 -1.1344  1.1299
  914MPD2    H313440   2.476   4.094  12.180 -0.2936 -0.6990  0.7126
  914MPD2     N13441   2.619   4.172  12.603  0.0358 -0.0030 -0.1566
  914MPD2    H513442   2.610   4.238  12.680 -1.9469 -0.6147  0.1433
  914MPD2    N113443   2.407   4.513  12.361  0.5990  0.2819 -0.3398
  914MPD2    H713444   2.431   4.564  12.445  2.2893 -1.4221  0.1987
  915MPD2     C13445   1.141   4.409  15.453  0.2022 -0.6025  0.2369
  915MPD2    C113446   1.004   4.415  15.438 -0.2353 -0.2916  0.3792
  915MPD2    C213447   0.914   4.453  15.540  0.0892  0.5183 -0.3400
  915MPD2    C313448   0.968   4.473  15.663  0.0035 -1.0239 -0.2813
  915MPD2    C413449   1.102   4.464  15.680  0.7605 -1.1744 -0.1531
  915MPD2    C513450   1.190   4.435  15.579 -0.0340 -0.5726 -1.1650
  915MPD2     H13451   0.806   4.450  15.532  0.0466  0.6846  0.1531
  915MPD2    H113452   1.142   4.484  15.779 -0.7390 -1.8606  0.5992
  915MPD2    H213453   1.211   4.399  15.371  0.1755  3.6152 -0.3064
  915MPD2    H313454   1.297   4.442  15.596 -0.2334  0.8100 -0.4135
  915MPD2     N13455   0.875   4.495  15.768 -0.0282 -0.7610 -0.3546
  915MPD2    H513456   0.778   4.514  15.747  0.4614 -1.2848 -3.0842
  915MPD2    N113457   0.969   4.366  15.308  0.3631 -1.1802 -0.5571
  915MPD2    H713458   1.039   4.309  15.262  0.1712 -0.7817 -1.3514
  916MPD2     C13459   3.656   2.785  15.571  0.1585  0.8782  0.5268
  916MPD2    C113460   3.662   2.761  15.706 -0.1531 -0.1288 -0.8437
  916MPD2    C213461   3.730   2.650  15.745  0.4454  0.8088 -0.4455
  916MPD2    C313462   3.798   2.568  15.661 -0.2217  0.1483  0.0704
  916MPD2    C413463   3.801   2.603  15.528  0.2398  0.0787 -0.2860
  916MPD2    C513464   3.732   2.713  15.483  0.8507  0.2201 -0.1934
  916MPD2     H13465   3.733   2.621  15.849 -0.7952  0.7273 -0.4316
  916MPD2    H113466   3.840   2.536  15.453 -0.8404  0.3383 -1.0720
  916MPD2    H213467   3.599   2.870  15.535 -2.4018 -0.5759  1.1327
  916MPD2    H313468   3.734   2.733  15.376 -0.6221 -2.2590 -0.7004
  916MPD2     N13469   3.870   2.454  15.715 -0.2611 -0.5379  0.6321
  916MPD2    H513470   3.877   2.445  15.816  0.2912  2.5142  0.8764
  916MPD2    N113471   3.597   2.850  15.797 -0.5975  0.1886 -0.2088
  916MPD2    H713472   3.556   2.932  15.751 -1.0655 -0.6287 -1.2489
  917MPD2     C13473   3.440   0.673  11.589 -0.0432  0.1158  0.2183
  917MPD2    C113474   3.492   0.697  11.712  0.1452  0.6834  0.0418
  917MPD2    C213475   3.596   0.786  11.727  0.4876  0.1024 -0.5365
  917MPD2    C313476   3.629   0.860  11.616  0.9558 -0.0858  0.6352
  917MPD2    C413477   3.579   0.831  11.487 -0.2615  0.1724  0.2702
  917MPD2    C513478   3.477   0.745  11.479 -0.4284  0.2393  0.4875
  917MPD2     H13479   3.631   0.808  11.827 -1.2428  0.6590 -0.0488
  917MPD2    H113480   3.598   0.881  11.392 -1.3877  4.5617  2.3551
  917MPD2    H213481   3.360   0.603  11.566  0.3718 -0.5798  0.9041
  917MPD2    H313482   3.433   0.726  11.382  0.1750 -2.0375  0.6481
  917MPD2     N13483   3.719   0.966  11.619  0.0997  0.3722 -0.0186
  917MPD2    H513484   3.734   1.013  11.530 -1.7359 -2.1294 -1.6435
  917MPD2    N113485   3.434   0.621  11.822 -0.0067 -0.0027  0.0298
  917MPD2    H713486   3.383   0.537  11.796  0.2757  0.1449 -0.9990
  918MPD2     C13487   3.852   0.732  12.617 -0.6018  0.5198  1.0032
  918MPD2    C113488   3.885   0.683  12.491  0.0051 -0.6580 -0.2284
  918MPD2    C213489   3.785   0.623  12.414 -0.3643 -0.5146  0.1589
  918MPD2    C313490   3.666   0.605  12.476  0.3426  0.4269  0.2096
  918MPD2    C413491   3.635   0.648  12.604  0.1311 -0.2422  0.1206
  918MPD2    C513492   3.735   0.711  12.677  0.3554 -0.6202  0.5805
  918MPD2     H13493   3.803   0.591  12.312 -0.4658  1.1102 -0.3755
  918MPD2    H113494   3.542   0.626  12.655 -0.4289 -1.8733 -1.5943
  918MPD2    H213495   3.924   0.788  12.675  0.1132 -0.7749  1.3721
  918MPD2    H313496   3.720   0.751  12.776  1.2956  1.8672 -0.2804
  918MPD2     N13497   3.573   0.530  12.397  0.2471 -0.3226  0.0781
  918MPD2    H513498   3.606   0.495  12.307 -0.5477  0.2475 -0.4283
  918MPD2    N113499   4.018   0.687  12.438  0.4677 -0.2406  0.0359
  918MPD2    H713500   4.020   0.648  12.344  0.9430 -0.8295  0.2888
  919MPD2     C13501   4.360   4.177  11.877  0.4912  0.2143 -0.2648
  919MPD2    C113502   4.291   4.080  11.805  0.5570 -0.2929  0.1573
  919MPD2    C213503   4.291   4.088  11.666 -0.4636 -0.4044  0.5149
  919MPD2    C313504   4.354   4.188  11.600  0.3158 -0.6238  1.2110
  919MPD2    C413505   4.418   4.287  11.669 -0.4792  0.3501 -0.2196
  919MPD2    C513506   4.422   4.282  11.808  0.5994 -0.1540  0.7555
  919MPD2     H13507   4.243   4.009  11.610 -0.7601  0.4483 -0.4460
  919MPD2    H113508   4.470   4.374  11.631 -2.2456  0.1712 -3.0232
  919MPD2    H213509   4.364   4.171  11.985  0.1827  0.6887 -0.2232
  919MPD2    H313510   4.489   4.348  11.861  1.9088 -0.0113 -1.0487
  919MPD2     N13511   4.349   4.191  11.459  0.9652 -0.7202  0.0575
  919MPD2    H513512   4.365   4.280  11.413  2.9505 -1.2307 -0.2675
  919MPD2    N113513   4.234   3.964  11.862 -0.0629  0.1299 -0.4996
  919MPD2    H713514   4.187   3.901  11.796 -0.0085 -0.2499 -0.1772
  920MPD2     C13515   4.171   0.028  10.694 -0.3780  0.2925 -0.6350
  920MPD2    C113516   4.115   4.653  10.633  0.5261  0.4308  0.0369
  920MPD2    C213517   4.115   4.534  10.697  0.3343 -0.6251 -0.2288
  920MPD2    C313518   4.179   4.516  10.817  0.5063 -0.6063  0.5860
  920MPD2    C413519   4.255   4.620  10.865  1.2782  0.0650  0.2033
  920MPD2    C513520   4.245   0.006  10.807 -0.1779 -0.0228 -0.1142
  920MPD2     H13521   4.055   4.448  10.671  2.9185 -1.9068 -1.9852
  920MPD2    H113522   4.312   4.624  10.957  0.3018 -1.2605  0.8496
  920MPD2    H213523   4.181   0.130  10.656 -0.4439 -0.2622 -2.1400
  920MPD2    H313524   4.298   0.096  10.836  0.9133 -0.8367  0.4291
  920MPD2     N13525   4.163   4.393  10.888 -0.3932  0.6210  0.1911
  920MPD2    H513526   4.094   4.326  10.855  1.5078 -1.0009 -0.5298
  920MPD2    N113527   4.041   4.652  10.514  0.2542  0.3427  0.1890
  920MPD2    H713528   4.018   4.562  10.473 -0.0407  1.1220 -1.3481
  921MPD2     C13529   0.534   3.143  16.657  0.5574  0.5449 -0.5020
  921MPD2    C113530   0.505   3.020  16.597  0.8608  0.5727  0.3757
  921MPD2    C213531   0.383   2.967  16.611 -0.5279 -0.2320 -0.4262
  921MPD2    C313532   0.285   3.034  16.682 -0.0708  0.1235 -0.3928
  921MPD2    C413533   0.310   3.152  16.747 -0.4800 -0.2170  0.5866
  921MPD2    C513534   0.441   3.198  16.742 -0.5772 -0.3690 -0.3750
  921MPD2     H13535   0.359   2.878  16.555 -0.3616 -0.9233  0.6096
  921MPD2    H113536   0.236   3.212  16.798  0.6948 -0.3124  2.3971
  921MPD2    H213537   0.639   3.169  16.649  0.9334 -0.5575  0.8129
  921MPD2    H313538   0.468   3.287  16.797  0.4054 -0.5693 -0.5329
  921MPD2     N13539   0.155   2.983  16.670  0.4601 -0.1916 -0.0342
  921MPD2    H513540   0.149   2.883  16.652  0.9823 -0.2661  0.1873
  921MPD2    N113541   0.610   2.965  16.517  0.1521  0.0699 -0.0984
  921MPD2    H713542   0.693   3.024  16.510  0.7418 -0.7109  0.2151
  922MPD2     C13543   1.631   0.943  16.639  0.7986  0.1270  0.2540
  922MPD2    C113544   1.726   0.944  16.738 -0.7736 -0.1774 -0.2810
  922MPD2    C213545   1.704   0.890  16.859  0.1434  0.2168  0.3645
  922MPD2    C313546   1.591   0.821  16.891 -0.5601 -0.8747  0.0304
  922MPD2    C413547   1.502   0.801  16.787  0.1406 -0.6539 -0.4988
  922MPD2    C513548   1.519   0.866  16.667 -0.1919  0.4669 -0.3372
  922MPD2     H13549   1.785   0.886  16.932 -0.3843  1.1036  0.9951
  922MPD2    H113550   1.410   0.744  16.795 -0.2331 -0.2139 -1.5934
  922MPD2    H213551   1.631   0.986  16.539 -1.3221  0.7749  0.5304
  922MPD2    H313552   1.441   0.845  16.595 -0.5138  1.3692 -0.2524
  922MPD2     N13553   1.579   0.762  17.021  0.2747 -1.3050  0.1440
  922MPD2    H513554   1.640   0.797  17.094 -1.7333  0.1881  1.1293
  922MPD2    N113555   1.838   1.029  16.730 -0.7600  0.4288  0.1077
  922MPD2    H713556   1.893   1.035  16.815 -0.6086  0.9912 -0.0319
  923MPD2     C13557   2.509   3.542   9.651  0.0714  0.4395  0.3211
  923MPD2    C113558   2.584   3.652   9.640  0.4559 -0.0126 -0.9970
  923MPD2    C213559   2.727   3.637   9.631  0.5168  0.4815  0.0803
  923MPD2    C313560   2.787   3.512   9.620 -0.4112 -0.8563 -0.2157
  923MPD2    C413561   2.700   3.401   9.633 -0.7173  0.9136  0.3548
  923MPD2    C513562   2.564   3.420   9.644  0.5081  0.0779  0.0455
  923MPD2     H13563   2.794   3.723   9.631  0.3939  0.5783  0.0269
  923MPD2    H113564   2.735   3.298   9.631 -2.6326  0.3008 -1.5093
  923MPD2    H213565   2.401   3.554   9.660  0.0210  0.8306 -0.7293
  923MPD2    H313566   2.492   3.341   9.659  0.4780 -0.6406 -3.8765
  923MPD2     N13567   2.926   3.494   9.606  0.1650  0.5853 -0.3788
  923MPD2    H513568   2.974   3.583   9.594 -0.0792  0.8883  0.7957
  923MPD2    N113569   2.514   3.777   9.623  0.6330  0.0439 -0.0425
  923MPD2    H713570   2.413   3.771   9.611  0.5167 -0.4626  1.1364
  924MPD2     C13571   2.942   2.104  14.781 -0.3167 -0.3729  0.2004
  924MPD2    C113572   2.887   2.089  14.908  0.7023  0.2889 -0.9227
  924MPD2    C213573   2.875   2.198  14.989 -0.5794  0.0956  0.0887
  924MPD2    C313574   2.914   2.319  14.939 -0.1693  0.6510 -0.5839
  924MPD2    C413575   2.962   2.334  14.811  0.4880 -0.3254  0.3978
  924MPD2    C513576   2.973   2.228  14.727  0.0322  0.7983  0.1212
  924MPD2     H13577   2.854   2.180  15.094  1.2529  1.4942  0.7061
  924MPD2    H113578   2.999   2.429  14.774 -1.1790 -0.0510 -0.5753
  924MPD2    H213579   2.952   2.017  14.717  0.0144 -0.6824  0.6775
  924MPD2    H313580   3.019   2.232  14.629  0.3288  1.1867  0.2766
  924MPD2     N13581   2.945   2.421  15.033 -0.2777 -0.2313  0.4453
  924MPD2    H513582   3.014   2.493  15.016 -0.3153 -0.0592  1.0328
  924MPD2    N113583   2.844   1.961  14.943 -0.3568 -1.0855  0.6489
  924MPD2    H713584   2.883   1.891  14.881 -0.5048 -0.9307  0.3798
  925MPD2     C13585   1.492   3.775  14.829  0.4190  0.3584 -0.1206
  925MPD2    C113586   1.357   3.763  14.800 -0.3156 -0.1150  0.0749
  925MPD2    C213587   1.261   3.808  14.897 -0.0931  0.7113 -0.0750
  925MPD2    C313588   1.312   3.853  15.021 -0.0096 -0.5411 -0.2557
  925MPD2    C413589   1.448   3.867  15.047 -0.6454 -0.1344 -0.6711
  925MPD2    C513590   1.534   3.819  14.952 -0.0932 -0.6718  0.1868
  925MPD2     H13591   1.154   3.806  14.884 -0.0460  0.6238 -0.4428
  925MPD2    H113592   1.493   3.890  15.143  1.4319  0.8020 -1.8607
  925MPD2    H213593   1.564   3.726  14.765  1.6754  0.7470  0.9883
  925MPD2    H313594   1.639   3.822  14.976  0.2565  1.2773 -1.6223
  925MPD2     N13595   1.224   3.877  15.129  0.3226  0.6691  0.5279
  925MPD2    H513596   1.278   3.891  15.214 -1.2495  0.1207  1.6168
  925MPD2    N113597   1.301   3.692  14.685  0.0776 -0.2811  0.1572
  925MPD2    H713598   1.205   3.710  14.659 -1.0376 -2.0091  3.1206
  926MPD2     C13599   4.636   1.846  13.858 -0.2298  0.1836 -0.3257
  926MPD2    C113600   4.526   1.917  13.823 -0.2408  0.5268 -0.2240
  926MPD2    C213601   4.508   1.947  13.692 -0.4880  0.0003  0.0811
  926MPD2    C313602   4.605   1.919  13.598  0.1561 -0.4740 -0.0094
  926MPD2    C413603   4.714   1.859  13.635  0.1815 -0.2957 -0.7315
  926MPD2    C513604   4.732   1.823  13.763 -0.2536  0.2730 -0.0474
  926MPD2     H13605   4.419   2.007  13.676 -1.9001 -1.8905  0.8671
  926MPD2    H113606   0.056   1.853  13.562 -1.0736  0.0611 -2.1339
  926MPD2    H213607   4.658   1.808  13.958  0.6256  2.1290  0.2140
  926MPD2    H313608   0.090   1.775  13.786 -1.2346 -3.2177 -3.1018
  926MPD2     N13609   4.587   1.978  13.467 -0.0733 -0.5895  0.3386
  926MPD2    H513610   4.664   1.981  13.400  0.1614 -0.0571  0.6297
  926MPD2    N113611   4.416   1.945  13.902 -0.0097  0.0834  0.2047
  926MPD2    H713612   4.336   1.995  13.865 -0.0474 -0.4295 -0.4136
  927MPD2     C13613   0.153   4.040  17.627  0.1471  1.1320 -0.2663
  927MPD2    C113614   0.079   4.150  17.589 -0.4204 -0.1327  0.3983
  927MPD2    C213615   0.089   4.207  17.458  0.1098  0.4185  0.4546
  927MPD2    C313616   0.170   4.141  17.365 -0.1770  0.0115  0.8040
  927MPD2    C413617   0.241   4.026  17.407  0.0749 -0.3427 -0.2075
  927MPD2    C513618   0.238   3.978  17.536 -0.5543 -0.8360 -0.5010
  927MPD2     H13619   0.025   4.292  17.438 -0.6662 -1.8165 -6.6224
  927MPD2    H113620   0.308   3.970  17.342 -1.2613 -1.3893 -0.6704
  927MPD2    H213621   0.148   4.008  17.731  0.5917  2.3059  0.1263
  927MPD2    H313622   0.289   3.885  17.560  0.4224 -0.9370 -3.0317
  927MPD2     N13623   0.169   4.185  17.236 -0.0779 -0.1381  0.7506
  927MPD2    H513624   0.126   4.276  17.222 -0.1867 -0.4542 -0.9755
  927MPD2    N113625   0.004   4.209  17.687  0.0089  0.4063 -0.0278
  927MPD2    H713626   0.012   4.171   0.035 -1.3169  0.7455  0.2147
  928MPD2     C13627   3.188   2.406   0.444 -0.6313 -0.9289  0.2611
  928MPD2    C113628   3.125   2.527   0.440  0.0749 -0.2375 -0.3643
  928MPD2    C213629   3.154   2.608   0.335  0.0019  0.5703  0.3841
  928MPD2    C313630   3.248   2.573   0.240 -0.0166 -0.0620  0.5339
  928MPD2    C413631   3.316   2.453   0.250  0.2120  0.3455  0.2536
  928MPD2    C513632   3.286   2.370   0.354  0.2743 -0.8365  0.2723
  928MPD2     H13633   3.094   2.698   0.331 -2.1511 -0.8243  1.3210
  928MPD2    H113634   3.397   2.433   0.180  0.7011 -1.1966  1.2791
  928MPD2    H213635   3.167   2.339   0.527 -0.6324  0.0620  1.0570
  928MPD2    H313636   3.347   2.282   0.368  1.1410 -0.4444 -1.0747
  928MPD2     N13637   3.280   2.665   0.136  0.3453  0.1496 -0.1905
  928MPD2    H513638   3.313   2.619   0.051 -0.8807 -0.8645 -0.1239
  928MPD2    N113639   3.033   2.567   0.538 -0.3002  0.1051 -0.3244
  928MPD2    H713640   3.036   2.503   0.617  0.7844  0.7689  0.1659
  929MPD2     C13641   2.232   2.993   9.539  0.3141 -0.4283  0.1685
  929MPD2    C113642   2.224   2.887   9.627 -0.0903  0.5313  0.1147
  929MPD2    C213643   2.151   2.773   9.595  0.0944 -0.2186  0.0380
  929MPD2    C313644   2.091   2.763   9.471 -0.7248  0.0206 -0.3178
  929MPD2    C413645   2.100   2.868   9.384 -0.4970 -0.4152  0.3578
  929MPD2    C513646   2.158   2.989   9.424 -0.0375  0.4519 -0.0191
  929MPD2     H13647   2.168   2.683   9.654  0.9639 -0.0505  0.0400
  929MPD2    H113648   2.057   2.872   9.285  0.0967 -0.9688  0.0851
  929MPD2    H213649   2.299   3.078   9.553 -1.0116  0.6178  0.1691
  929MPD2    H313650   2.171   3.069   9.352 -0.5324  1.2441  0.7833
  929MPD2     N13651   2.007   2.658   9.439 -0.0903  0.7268 -0.0571
  929MPD2    H513652   1.974   2.655   9.343 -2.5870  0.3827  0.7968
  929MPD2    N113653   2.305   2.895   9.742  0.3285  0.1008 -0.0410
  929MPD2    H713654   2.331   2.988   9.772  2.1145 -0.4008 -0.0685
  930MPD2     C13655   4.142   0.210  14.036 -0.0843  0.5462 -0.1714
  930MPD2    C113656   4.254   0.202  13.968  0.1312  0.1276 -0.0649
  930MPD2    C213657   4.272   0.086  13.897  0.0283  0.1493  0.4258
  930MPD2    C313658   4.183   4.719  13.878 -0.4695  0.2045 -0.6937
  930MPD2    C413659   4.062   0.008  13.935 -0.3062  0.3928  0.3856
  930MPD2    C513660   4.044   0.118  14.016 -0.0808 -0.4064  0.6455
  930MPD2     H13661   4.371   0.078  13.853 -0.0971  0.1078  0.1521
  930MPD2    H113662   3.981   4.674  13.925  1.3987 -1.3322 -1.2021
  930MPD2    H213663   4.129   0.295  14.102  0.5806  1.7373 -1.5807
  930MPD2    H313664   3.958   0.129  14.081 -1.6907 -0.1226 -1.5212
  930MPD2     N13665   4.205   4.609  13.797 -0.1185 -0.2721  0.9455
  930MPD2    H513666   4.130   4.543  13.777 -2.2647  2.5603 -0.3684
  930MPD2    N113667   4.350   0.305  13.978  1.0173  0.1260 -0.1363
  930MPD2    H713668   4.335   0.376  14.049 -0.3074 -0.2767 -0.0300
  931MPD2     C13669   0.325   4.411   0.427 -0.3718  0.3038 -0.3518
  931MPD2    C113670   0.198   4.429   0.470  0.0673  0.4415  0.4126
  931MPD2    C213671   0.173   4.434   0.606 -0.2583  0.2020 -0.3323
  931MPD2    C313672   0.269   4.398   0.698  0.6314  0.0727 -0.7243
  931MPD2    C413673   0.394   4.362   0.649  0.4154 -0.4408 -0.2095
  931MPD2    C513674   0.423   4.380   0.514  0.3738 -0.1196 -0.4043
  931MPD2     H13675   0.069   4.439   0.633 -0.6384  3.0430 -2.2483
  931MPD2    H113676   0.474   4.329   0.714 -0.7557 -0.9266  0.9747
  931MPD2    H213677   0.342   4.411   0.320 -0.8634  1.1215 -0.4254
  931MPD2    H313678   0.524   4.350   0.489  0.6104 -1.1451  1.7795
  931MPD2     N13679   0.234   4.373   0.835  0.9452 -0.0664 -0.4170
  931MPD2    H513680   0.297   4.320   0.894 -0.1131 -0.7288  0.1019
  931MPD2    N113681   0.099   4.423   0.366 -0.1131 -0.3497  0.5528
  931MPD2    H713682   0.135   4.390   0.277  1.5252  1.1982  0.6303
  932MPD2     C13683   1.232   3.583  11.305  0.2797  0.8283  0.3183
  932MPD2    C113684   1.335   3.520  11.234  0.0377  0.1061 -0.0270
  932MPD2    C213685   1.324   3.392  11.191 -0.3431  0.3601  0.7666
  932MPD2    C313686   1.213   3.319  11.229  0.1887  0.6272 -0.7810
  932MPD2    C413687   1.105   3.382  11.291 -0.3860  0.6583 -0.4328
  932MPD2    C513688   1.114   3.514  11.323  0.2124 -0.2044  0.6466
  932MPD2     H13689   1.409   3.343  11.144 -0.2052  1.0264  0.3233
  932MPD2    H113690   1.006   3.338  11.302  0.4287 -1.5297 -1.9845
  932MPD2    H213691   1.245   3.680  11.350  2.8824  0.3213  0.6629
  932MPD2    H313692   1.020   3.555  11.359  1.3264  0.5118  2.7205
  932MPD2     N13693   1.197   3.179  11.199  0.4178  0.3243  0.3692
  932MPD2    H513694   1.114   3.144  11.246 -0.7625  0.0909 -1.8704
  932MPD2    N113695   1.459   3.590  11.223 -0.2490  0.1443 -1.0465
  932MPD2    H713696   1.519   3.555  11.148  0.0071 -0.3327 -0.6185
  933MPD2     C13697   2.365   3.005   1.025  0.4763  0.2485 -0.4378
  933MPD2    C113698   2.435   3.023   0.906  0.0984  0.7196  0.1784
  933MPD2    C213699   2.385   3.114   0.819  0.1163  0.1776 -0.3171
  933MPD2    C313700   2.266   3.174   0.838 -0.0357  0.1274  0.3439
  933MPD2    C413701   2.196   3.168   0.953 -0.4236 -0.6731  0.0596
  933MPD2    C513702   2.251   3.084   1.046  0.7354 -0.0105 -0.0567
  933MPD2     H13703   2.435   3.126   0.724  0.8949 -1.2217 -0.0808
  933MPD2    H113704   2.110   3.232   0.970  0.1125  0.1030 -0.1436
  933MPD2    H213705   2.415   2.947   1.102 -0.2421  0.9362  0.5534
  933MPD2    H313706   2.213   3.076   1.147 -1.2083  0.3071 -0.7661
  933MPD2     N13707   2.229   3.256   0.729  0.3798  0.1371  0.5059
  933MPD2    H513708   2.289   3.264   0.647 -0.4635  1.0953 -0.0212
  933MPD2    N113709   2.533   2.927   0.870 -0.4139 -0.1963 -0.0538
  933MPD2    H713710   2.546   2.862   0.947 -1.1788 -1.2722 -0.8341
  934MPD2     C13711   3.555   1.058   1.619 -0.7638  0.3577 -0.1331
  934MPD2    C113712   3.659   0.993   1.556  0.2579 -0.0827  0.6425
  934MPD2    C213713   3.635   0.871   1.496  0.6240 -0.0668  0.0938
  934MPD2    C313714   3.506   0.812   1.499  0.8341  0.1787  0.0402
  934MPD2    C413715   3.406   0.881   1.560  0.7492  0.5381 -0.2013
  934MPD2    C513716   3.431   1.007   1.607 -0.2629 -0.4974  0.1537
  934MPD2     H13717   3.711   0.833   1.429  2.8732  2.7393  1.0582
  934MPD2    H113718   3.305   0.842   1.553  2.4141 -3.7281 -0.7894
  934MPD2    H213719   3.563   1.159   1.657 -1.8171  1.2006 -2.1832
  934MPD2    H313720   3.345   1.064   1.639  1.1506  0.6360  1.9801
  934MPD2     N13721   3.478   0.695   1.425  0.2624  0.1405 -0.0044
  934MPD2    H513722   3.378   0.682   1.415  0.2967  0.1310 -0.3189
  934MPD2    N113723   3.786   1.046   1.535 -0.2073 -0.0398  0.0875
  934MPD2    H713724   3.847   1.005   1.465 -3.2827 -1.0893 -1.9903
  935MPD2     C13725   4.111   0.070   0.976 -0.4419 -0.1696 -0.2308
  935MPD2    C113726   3.988   0.016   0.950  0.3148 -0.4829  0.1241
  935MPD2    C213727   3.875   0.091   0.978 -0.0014 -0.3063 -0.0732
  935MPD2    C313728   3.888   0.213   1.035 -0.4737 -0.3736 -0.2945
  935MPD2    C413729   4.013   0.267   1.060  0.0196  0.1770 -0.0133
  935MPD2    C513730   4.125   0.196   1.028 -0.1260 -0.3266  0.0971
  935MPD2     H13731   3.782   0.044   0.948 -1.0994  0.6692  1.8344
  935MPD2    H113732   4.033   0.370   1.089  0.3042  0.1930 -0.2631
  935MPD2    H213733   4.204   0.017   0.959 -0.4904 -0.8158  1.4829
  935MPD2    H313734   4.227   0.228   1.043 -0.0636 -0.3124 -0.3476
  935MPD2     N13735   3.778   0.299   1.067  0.7418 -0.3341  0.0123
  935MPD2    H513736   3.800   0.389   1.110  0.1868  1.3742 -3.2575
  935MPD2    N113737   3.974   4.626   0.886  0.0157 -0.2969  0.7731
  935MPD2    H713738   3.881   4.587   0.870  0.4625 -2.0921  2.6383
  936MPD2     C13739   1.957   2.131  12.072 -0.0582 -0.0567 -0.2768
  936MPD2    C113740   1.964   2.060  12.191  0.0563  0.4593  0.0169
  936MPD2    C213741   2.075   1.976  12.210  0.0861 -0.2299  0.3035
  936MPD2    C313742   2.177   1.966  12.120  0.2565 -0.7224 -0.2783
  936MPD2    C413743   2.163   2.040  11.999  1.0268 -0.0213  0.1106
  936MPD2    C513744   2.059   2.127  11.988 -0.3314  0.4376  0.1892
  936MPD2     H13745   2.093   1.934  12.308  2.2518  2.0322  0.8743
  936MPD2    H113746   2.243   2.053  11.927 -0.4080  1.6619 -1.1712
  936MPD2    H213747   1.869   2.190  12.047 -0.0200 -0.2605 -0.8672
  936MPD2    H313748   2.046   2.181  11.894 -0.0141  1.3963  0.7011
  936MPD2     N13749   2.298   1.895  12.139  0.6105  0.6447 -0.3731
  936MPD2    H513750   2.366   1.900  12.064  0.9679  0.0273 -0.0886
  936MPD2    N113751   1.874   2.073  12.299 -0.3187 -0.2732  0.0881
  936MPD2    H713752   1.872   1.999  12.368  0.2602 -0.3019  0.0707
  937MPD2     C13753   4.500   3.313  11.775  0.4116  0.4805 -0.2818
  937MPD2    C113754   4.425   3.415  11.719  0.5478 -0.6730  0.0151
  937MPD2    C213755   4.483   3.474  11.603 -0.8680  0.0543 -0.6263
  937MPD2    C313756   4.593   3.423  11.536  1.0193  0.1750 -0.1771
  937MPD2    C413757   4.645   3.309  11.584  0.0099  0.2139  0.5194
  937MPD2    C513758   4.601   3.253  11.700 -0.0223 -0.0878  0.1967
  937MPD2     H13759   4.438   3.567  11.570 -1.2788  0.4110  0.9354
  937MPD2    H113760   4.716   3.253  11.524 -1.6270 -2.4823  1.1212
  937MPD2    H213761   4.480   3.280  11.876 -1.5132  0.7302 -0.5962
  937MPD2    H313762   4.647   3.167  11.748  1.6007  0.8695  0.3842
  937MPD2     N13763   4.648   3.493  11.423  0.1444  0.3634 -0.5356
  937MPD2    H513764   0.000   3.455  11.392 -0.8047 -1.2890 -1.2584
  937MPD2    N113765   4.335   3.490  11.797 -0.3453  0.8163  0.4320
  937MPD2    H713766   4.304   3.577  11.754  0.5783  0.8996 -0.0703
  938MPD2     C13767   2.892   0.040   0.059 -0.2782  0.7867 -0.4744
  938MPD2    C113768   2.904   0.100   0.185 -0.8248  0.6005  0.1499
  938MPD2    C213769   2.882   0.011   0.293  0.2703 -0.6714 -0.2550
  938MPD2    C313770   2.853   4.612   0.277 -0.1035 -0.7507 -0.7779
  938MPD2    C413771   2.848   4.563   0.146 -0.8093 -0.5332  0.3717
  938MPD2    C513772   2.858   4.647   0.037 -0.1705 -0.5661  0.2277
  938MPD2     H13773   2.878   0.050   0.394 -1.2489  0.0433 -0.5919
  938MPD2    H113774   2.841   4.458   0.121  0.2917 -1.1062  2.5192
  938MPD2    H213775   2.911   0.097  17.715  0.7698 -0.6011 -1.1218
  938MPD2    H313776   2.854   4.605  17.684 -0.9465 -1.9304  0.8339
  938MPD2     N13777   2.825   4.524   0.380 -0.2509  0.8096  0.1797
  938MPD2    H513778   2.787   4.432   0.360 -0.2446  0.8961 -0.2370
  938MPD2    N113779   2.934   0.234   0.204  0.8965 -0.5542  0.0965
  938MPD2    H713780   2.930   0.260   0.302 -2.4631 -2.2492  0.4358
  939MPD2     C13781   0.201   1.120   0.894  0.7470 -0.0403  0.2122
  939MPD2    C113782   0.069   1.146   0.840  0.2283  0.5825  0.4950
  939MPD2    C213783   0.028   1.074   0.737 -0.7776 -0.1334  0.6523
  939MPD2    C313784   0.088   0.961   0.691  0.5375 -0.4937 -0.5290
  939MPD2    C413785   0.211   0.926   0.749 -0.1034 -0.6382 -0.4354
  939MPD2    C513786   0.270   1.006   0.847 -0.6456 -0.2357 -0.9765
  939MPD2     H13787   4.667   1.086   0.692 -1.6481 -0.4961  2.4610
  939MPD2    H113788   0.270   0.838   0.722  0.9105 -0.3306  0.7720
  939MPD2    H213789   0.253   1.175   0.971  2.3906  1.7055 -2.1660
  939MPD2    H313790   0.347   0.955   0.902 -0.3942  0.3153 -0.8143
  939MPD2     N13791   0.037   0.900   0.576  0.2228  0.4566  0.5051
  939MPD2    H513792   4.702   0.954   0.529 -1.4275 -1.0692  1.2797
  939MPD2    N113793   0.002   1.266   0.873 -0.6819 -0.0717 -0.3927
  939MPD2    H713794   0.058   1.336   0.919 -0.3313 -0.8715  0.4035
  940MPD2     C13795   2.673   1.295  13.607 -0.4372 -0.9747  0.3485
  940MPD2    C113796   2.570   1.235  13.542  0.2248  0.6735  0.0045
  940MPD2    C213797   2.580   1.229  13.404  0.4779 -0.0445  0.0926
  940MPD2    C313798   2.690   1.278  13.336 -0.0702  0.2857  0.3657
  940MPD2    C413799   2.786   1.343  13.411 -0.1274 -0.0832 -0.2697
  940MPD2    C513800   2.774   1.362  13.549 -0.5145 -0.1457  0.4558
  940MPD2     H13801   2.495   1.186  13.351  0.0929  0.1150  0.5785
  940MPD2    H113802   2.865   1.390  13.353 -1.1908  0.4796 -1.2621
  940MPD2    H213803   2.678   1.282  13.714 -0.7066  0.6472  0.5563
  940MPD2    H313804   2.855   1.405  13.607  2.1700 -0.4181 -3.0876
  940MPD2     N13805   2.704   1.281  13.198 -0.2076  0.8359 -0.1412
  940MPD2    H513806   2.787   1.335  13.172  2.0447 -1.7022  1.7933
  940MPD2    N113807   2.444   1.211  13.597  0.2195 -0.1729  0.4689
  940MPD2    H713808   2.367   1.190  13.534 -1.9070  0.3627  2.8792
  941MPD2     C13809   1.817   1.563   9.394  0.0005  0.6029  0.4058
  941MPD2    C113810   1.885   1.518   9.506 -0.0582 -0.3387 -0.1074
  941MPD2    C213811   1.855   1.394   9.562 -0.3446 -0.2948 -0.2248
  941MPD2    C313812   1.752   1.313   9.514  0.0180  0.0468 -0.0191
  941MPD2    C413813   1.691   1.353   9.395 -0.1717 -0.2578 -1.0173
  941MPD2    C513814   1.724   1.475   9.340 -0.0168 -0.7012 -0.2521
  941MPD2     H13815   1.930   1.371   9.637 -0.1139 -0.2060 -0.4281
  941MPD2    H113816   1.630   1.280   9.342 -1.7685  0.3944 -0.0878
  941MPD2    H213817   1.837   1.657   9.344  0.4562  1.0575  1.4493
  941MPD2    H313818   1.662   1.496   9.253 -1.9037  2.1126  1.7593
  941MPD2     N13819   1.716   1.186   9.566 -0.1947  0.0629 -0.0088
  941MPD2    H513820   1.655   1.130   9.507  3.5469 -0.8835 -2.9551
  941MPD2    N113821   1.975   1.599   9.583 -0.5138 -0.7003  0.7343
  941MPD2    H713822   2.022   1.559   9.664  0.2256 -1.0006  0.1598
  942MPD2     C13823   1.602   2.259   9.076 -0.1602 -0.0382 -0.1086
  942MPD2    C113824   1.685   2.318   9.166 -0.0366 -0.9025  0.4037
  942MPD2    C213825   1.745   2.437   9.135  0.3600 -0.2812  0.4041
  942MPD2    C313826   1.711   2.496   9.013  0.4789  0.0653  0.3490
  942MPD2    C413827   1.624   2.440   8.920 -0.4831 -0.4284 -0.0228
  942MPD2    C513828   1.574   2.321   8.953  0.1090 -0.0378 -0.2972
  942MPD2     H13829   1.822   2.473   9.202 -2.2586 -0.6623  3.6541
  942MPD2    H113830   1.598   2.492   8.829 -0.1794  1.2545  0.8392
  942MPD2    H213831   1.547   2.167   9.096 -0.4813 -0.1010 -1.3001
  942MPD2    H313832   1.494   2.274   8.896 -0.1300  2.6351 -2.1332
  942MPD2     N13833   1.768   2.620   8.981  0.3178  0.2127 -0.3765
  942MPD2    H513834   1.724   2.668   8.903 -1.0522  1.6010  1.2332
  942MPD2    N113835   1.713   2.264   9.291  0.7335 -0.0132  0.0141
  942MPD2    H713836   1.754   2.324   9.362  1.0996  0.1831 -0.3620
  943MPD2     C13837   0.130   1.530  10.301  0.1646  0.6337 -0.1629
  943MPD2    C113838   0.087   1.407  10.341  0.4323  0.1543 -0.3266
  943MPD2    C213839   0.068   1.395  10.476  0.3156 -0.0102  0.7295
  943MPD2    C313840   0.084   1.497  10.571 -0.3658  0.5862  0.3067
  943MPD2    C413841   0.122   1.624  10.521  0.6109  0.2589  0.4295
  943MPD2    C513842   0.151   1.634  10.388 -0.8919  0.6414  0.4165
  943MPD2     H13843   0.045   1.300  10.523  1.9350 -1.0671 -0.6100
  943MPD2    H113844   0.121   1.709  10.589 -3.6845 -0.5339  1.3181
  943MPD2    H213845   0.163   1.546  10.199  0.4590 -0.2671 -0.2036
  943MPD2    H313846   0.183   1.728  10.344 -0.4561  0.2978  0.0024
  943MPD2     N13847   0.050   1.489  10.713 -0.0530  0.1657 -0.5467
  943MPD2    H513848   0.053   1.575  10.768  0.0134 -0.6032  0.6474
  943MPD2    N113849   0.096   1.297  10.251  0.0015  0.3189  0.4411
  943MPD2    H713850   0.136   1.327  10.163 -2.1993  0.2672 -0.5808
  944MPD2     C13851   0.160   0.355  10.945  0.7523  0.2555  0.5256
  944MPD2    C113852   0.091   0.314  11.058 -1.1122 -0.5104 -0.1341
  944MPD2    C213853   0.018   0.411  11.128 -0.1069 -0.1396  0.2905
  944MPD2    C313854   0.020   0.541  11.092  0.0730 -0.7056 -0.2447
  944MPD2    C413855   0.095   0.585  10.985 -0.0149 -0.5533 -0.0647
  944MPD2    C513856   0.160   0.487  10.914 -1.1356  0.0183  0.4252
  944MPD2     H13857   4.708   0.382  11.221  2.4250 -2.0915  0.9618
  944MPD2    H113858   0.102   0.691  10.962 -1.3903 -0.6417 -0.8727
  944MPD2    H213859   0.227   0.293  10.886 -0.3026 -1.6290  1.3561
  944MPD2    H313860   0.208   0.521  10.822  0.0257 -0.4379  0.8540
  944MPD2     N13861   4.701   0.629  11.184 -0.0688  0.3473  0.3286
  944MPD2    H513862   4.644   0.587  11.257  0.6561 -2.6047 -0.7898
  944MPD2    N113863   0.092   0.178  11.094 -0.2380  0.6486 -0.6472
  944MPD2    H713864   0.164   0.127  11.044  0.2519 -1.5369  2.2483
    1TMC1    C113865   3.090   1.286  14.653  0.1457 -0.0540 -0.1441
    1TMC1    C213866   3.022   1.298  14.768  0.7462 -0.2760 -0.2814
    1TMC1    C313867   2.920   1.209  14.781 -0.3160  1.0708 -0.3470
    1TMC1    C413868   3.053   1.203  14.545  0.8987  1.2043  0.6497
    1TMC1    C513869   2.950   1.131  14.562 -0.1658  0.2953  0.3865
    1TMC1    C613870   2.883   1.122  14.687  0.4288 -0.0611  0.3411
    1TMC1     C13871   3.182   1.398  14.624  0.2147 -0.2969  0.4548
    1TMC1     O13872   3.223   1.464  14.716 -0.3210 -1.0672 -0.4253
    1TMC1     H13873   3.045   1.374  14.841  0.1251 -0.3005 -0.0655
    1TMC1    H113874   3.119   1.175  14.464  0.4364 -0.4431  0.8435
    1TMC1    H213875   2.792   1.064  14.692  0.3800 -0.2572 -2.7749
    1TMC1    C713876   2.926   1.025  14.467  0.0780 -0.6623  0.7320
    1TMC1    C813877   2.826   1.235  14.883  0.3209 -0.5413 -0.1666
    1TMC1    O113878   2.891   0.914  14.509 -0.2652 -0.5204 -0.0955
    1TMC1    O213879   2.802   1.345  14.931  0.2389  0.1116  1.6236
    1TMC1    O313880   2.875   1.080  14.355 -0.9515  0.3243  0.0083
    1TMC1    H313881   2.914   1.168  14.334 -0.5773  0.7480  2.4708
    1TMC1    O513882   2.828   1.117  14.952 -0.1730 -0.0574  0.0424
    1TMC1    H513883   2.902   1.061  14.921 -2.2670 -3.2432  0.7506
    2MPD2     C13884   3.440   1.725  14.310 -0.8456  0.2319  0.2399
    2MPD2    C113885   3.357   1.646  14.233  0.4518 -0.2696 -0.0216
    2MPD2    C213886   3.278   1.549  14.302 -0.0944  0.5666 -0.4672
    2MPD2    C313887   3.283   1.529  14.437 -0.4606 -0.0763 -0.1026
    2MPD2    C413888   3.373   1.606  14.508  0.4851 -0.1279 -0.7020
    2MPD2    C513889   3.443   1.705  14.446 -0.1777  1.0638  0.2527
    2MPD2     H13890   3.213   1.488  14.241 -0.3735 -0.8793  1.2786
    2MPD2    H113891   3.389   1.585  14.613  2.1382 -3.4030 -1.6099
    2MPD2    H213892   3.512   1.791  14.262  0.3670 -0.1938  1.4652
    2MPD2    H313893   3.515   1.762  14.503  0.4339  1.6667 -1.1106
    2MPD2     N13894   3.191   1.432  14.489  0.4217  0.1676  0.4631
    2MPD2    H513895   3.136   1.382  14.420 -0.8419 -0.0777  1.6546
    2MPD2    N113896   3.354   1.687  14.090  0.0987  0.1470 -0.3897
    2MPD2    H713897   3.410   1.767  14.062 -0.5043 -1.2296 -5.4795
    3TMC2    C113898   3.277   1.709  13.879  0.2253  0.5120  0.6177
    3TMC2    C213899   3.299   1.847  13.887  0.2504 -0.4770  0.0951
    3TMC2    C313900   3.247   1.915  13.776  0.1523  0.7693  0.0302
    3TMC2    C413901   3.229   1.647  13.765  0.5356  0.1941 -0.2097
    3TMC2    C513902   3.187   1.723  13.664  1.1603 -0.1293  0.1660
    3TMC2    C613903   3.192   1.858  13.665  0.5099 -0.0523 -0.8117
    3TMC2     C13904   3.285   1.626  13.996  0.1217 -0.2594 -0.1201
    3TMC2     O13905   3.209   1.530  14.011  0.3257  0.7788  0.1953
    3TMC2     H13906   3.349   1.900  13.967 -2.0039  2.5656 -0.5179
    3TMC2    H113907   3.228   1.539  13.764 -1.4946  0.2507 -3.4004
    3TMC2    H213908   3.153   1.927  13.591 -1.7727  0.4565  0.8651
    3TMC2    C713909   3.144   1.650  13.549 -0.6186 -0.0633  0.2207
    3TMC2    C813910   3.232   2.061  13.777  0.8160 -0.7748  0.0341
    3TMC2    O113911   3.205   1.545  13.524 -0.3395 -0.4419 -0.5038
    3TMC2    O213912   3.152   2.126  13.710  0.6415 -0.2491  0.2282
    3TMC2    O513913   3.344   2.110  13.829 -0.5457 -0.2303 -0.5608
    3TMC2    H513914   3.410   2.038  13.840 -0.7519 -0.5279 -1.3126
    4TMC2    C113915   2.426   2.079  12.982 -0.9817 -0.5880  0.5594
    4TMC2    C213916   2.341   2.161  13.050  0.4273  0.4696  0.3933
    4TMC2    C313917   2.362   2.151  13.189 -0.9580 -0.2071  0.0107
    4TMC2    C413918   2.510   1.990  13.043 -0.3170 -0.1936  0.2113
    4TMC2    C513919   2.518   1.981  13.182 -0.4697 -0.0166  0.6611
    4TMC2    C613920   2.439   2.061  13.258 -0.2992 -0.0627  0.3492
    4TMC2     C13921   2.415   2.084  12.836  0.0229 -0.1342 -0.0558
    4TMC2     O13922   2.509   2.036  12.777  0.6910 -0.6607 -0.4336
    4TMC2     H13923   2.269   2.229  13.008 -1.0324 -0.7400  0.9195
    4TMC2    H113924   2.562   1.920  12.980 -1.2467  0.1719 -0.9538
    4TMC2    H213925   2.427   2.063  13.366  0.7974  0.3649  0.4640
    4TMC2    C713926   2.618   1.896  13.253  0.1226  0.4836 -0.0153
    4TMC2    C813927   2.273   2.228  13.268 -0.0318 -0.1279 -0.2069
    4TMC2    O113928   2.619   1.921  13.371 -0.3649 -0.2225  0.0554
    4TMC2    O213929   2.299   2.244  13.385  0.9170  0.5606  0.4870
    4TMC2    O513930   2.144   2.211  13.224  0.0748 -0.4288  0.2369
    4TMC2    H513931   2.131   2.169  13.136  1.8679 -1.0135  0.2453
    5MPD2     C13932   2.177   2.229  12.405 -0.8167 -0.0034 -0.2300
    5MPD2    C113933   2.118   2.286  12.516 -0.2715 -0.9188  0.2722
    5MPD2    C213934   2.152   2.252  12.645 -0.1727 -0.0624  0.0207
    5MPD2    C313935   2.255   2.163  12.660  0.1657  0.3306  0.0581
    5MPD2    C413936   2.330   2.118  12.554  0.1516 -0.3728 -0.1449
    5MPD2    C513937   2.282   2.142  12.427 -0.6875  0.3563 -0.0114
    5MPD2     H13938   2.102   2.283  12.735 -0.1559 -0.9957  0.3532
    5MPD2    H113939   2.416   2.053  12.566 -0.8423 -1.1970  2.6142
    5MPD2    H213940   2.148   2.268  12.308 -0.3736 -1.4216 -0.9340
    5MPD2    H313941   2.332   2.109  12.337  2.4414 -0.7475  2.0988
    5MPD2     N13942   2.293   2.134  12.790 -0.0386  0.4065 -0.2954
    5MPD2    H513943   2.232   2.155  12.868  0.9413 -1.6966  1.0524
    5MPD2    N113944   2.031   2.400  12.494 -0.3301 -0.5885  0.5053
    5MPD2    H713945   2.022   2.423  12.396 -2.7703 -0.9111  0.6398
    6MPD1     C13946   0.678   3.365  13.268  0.1244  0.2325 -0.1789
    6MPD1    C113947   0.801   3.361  13.339  0.5711  0.2806  0.1824
    6MPD1    C213948   0.913   3.361  13.256  0.1474  0.3043  0.2455
    6MPD1    C313949   0.903   3.354  13.119  0.5677  0.0936  0.5638
    6MPD1    C413950   0.780   3.349  13.067 -0.0349  0.9681 -0.3936
    6MPD1    C513951   0.668   3.346  13.142  0.1944 -0.1142 -0.1746
    6MPD1     H13952   1.010   3.356  13.303 -0.9612 -0.2425  2.4588
    6MPD1    H113953   0.763   3.339  12.960 -2.3098 -1.1703  0.1486
    6MPD1    H213954   0.586   3.388  13.320 -0.4315  0.8264 -1.4471
    6MPD1    H313955   0.573   3.342  13.090 -0.9553  0.7035  1.8651
    6MPD1     N13956   1.015   3.341  13.033 -0.2327 -0.1401 -0.8260
    6MPD1    H513957   0.996   3.331  12.934 -0.3500  0.7032 -0.8862
    6MPD1    N113958   0.806   3.398  13.475 -0.5575 -0.2701  0.2344
    6MPD1    H613959   0.875   3.347  13.530 -2.1267 -0.8064  1.7214
    6MPD1    H713960   0.724   3.384  13.534 -2.9703  1.6958 -2.5886
    7MPD2     C13961   1.279   2.991  12.412 -0.5589  0.9483  0.0599
    7MPD2    C113962   1.386   3.048  12.474 -0.1967  0.7120 -0.2034
    7MPD2    C213963   1.514   2.997  12.447  1.4790 -0.0019 -1.1216
    7MPD2    C313964   1.537   2.893  12.360  0.1618 -0.6928 -0.2367
    7MPD2    C413965   1.426   2.839  12.302  0.3206 -0.0434 -0.7398
    7MPD2    C513966   1.302   2.883  12.333 -0.7176 -0.5876  0.4435
    7MPD2     H13967   1.597   3.029  12.508  0.1694  0.7929  0.2364
    7MPD2    H113968   1.437   2.742  12.254 -0.9333 -0.0785 -0.9389
    7MPD2    H213969   1.178   3.021  12.434 -0.6673 -0.2607  1.1864
    7MPD2    H313970   1.218   2.831  12.289 -0.0776  0.3176 -1.8109
    7MPD2     N13971   1.668   2.849  12.339 -0.9515 -0.9617 -0.3497
    7MPD2    H513972   1.738   2.907  12.385  0.1583 -3.5691  1.2409
    7MPD2    N113973   1.380   3.159  12.566 -0.1388  0.2978  0.1115
    7MPD2    H713974   1.461   3.217  12.585  1.2605 -2.3235  2.2453
    8TMC3    C113975   1.856   2.716  12.323  0.6347 -0.0319  0.0993
    8TMC3    C213976   1.866   2.605  12.401 -0.0082 -0.0658 -0.0365
    8TMC3    C313977   1.922   2.613  12.527  1.3500 -0.5177 -0.7516
    8TMC3    C413978   1.917   2.826  12.362  0.0054  0.4257  0.4102
    8TMC3    C513979   1.962   2.843  12.489 -0.2738  0.1614 -0.0949
    8TMC3    C613980   1.967   2.735  12.575 -0.1079  0.2793  0.4740
    8TMC3     C13981   1.715   2.728  12.280 -0.7786  0.0827 -0.5769
    8TMC3     O13982   1.648   2.628  12.258 -0.1469  0.4398 -0.4530
    8TMC3     H13983   1.826   2.516  12.356  1.2956  0.2472 -1.7705
    8TMC3    H113984   1.922   2.914  12.298 -0.6338  0.2226  0.0845
    8TMC3    H213985   2.021   2.740  12.669 -1.1662  2.0947  0.9988
    8TMC3    C713986   1.937   2.974  12.544 -0.2874 -0.2597 -0.0413
    8TMC3    C813987   1.986   2.495  12.590  0.0019  0.8284  0.0657
    8TMC3    O113988   1.843   3.031  12.491 -0.5329  0.0226 -0.1375
    8TMC3    O213989   2.016   2.510  12.706  0.6438  0.5206 -0.2004
    9TMC3    C113990   1.247   3.339  12.964  0.8375  0.0354  0.2492
    9TMC3    C213991   1.357   3.412  12.971  0.0450 -0.4494  0.7972
    9TMC3    C313992   1.453   3.410  12.868 -0.3695 -0.1350 -0.0103
    9TMC3    C413993   1.206   3.275  12.850  0.0425  0.8259  0.0745
    9TMC3    C513994   1.292   3.284  12.740 -0.6545  0.2699 -0.4639
    9TMC3    C613995   1.413   3.344  12.759  0.9863 -0.2461  0.2864
    9TMC3     C13996   1.149   3.348  13.077 -0.4787  0.2294  0.1436
    9TMC3     O13997   1.195   3.365  13.187 -0.5235  0.1475  0.3876
    9TMC3     H13998   1.387   3.455  13.066  2.5888  1.6424 -0.9323
    9TMC3    H113999   1.127   3.201  12.850  0.4587  0.3882 -0.9962
    9TMC3    H214000   1.484   3.349  12.676 -1.9788  1.1473 -2.1683
    9TMC3    C714001   1.267   3.178  12.640 -0.3960 -0.2830 -0.1097
    9TMC3    C814002   1.598   3.398  12.903 -0.0868  0.0719 -0.4257
    9TMC3    O114003   1.167   3.109  12.655 -0.1208  0.3047  0.3646
    9TMC3    O214004   1.632   3.455  13.008 -0.3775  0.3886 -0.0017
   10MPD2     C14005   2.051   3.129  12.853 -0.0375  0.2868  0.0069
   10MPD2    C114006   1.959   3.102  12.755  0.0304  0.6061 -0.3549
   10MPD2    C214007   1.841   3.175  12.740 -0.2849  0.0355 -0.2263
   10MPD2    C314008   1.796   3.262  12.835  0.4779 -0.1931  0.2073
   10MPD2    C414009   1.888   3.282  12.939  0.4449 -0.1083 -0.5949
   10MPD2    C514010   2.012   3.227  12.938 -0.4614 -0.0188 -0.3103
   10MPD2     H14011   1.782   3.167  12.649 -1.2588  1.3823  0.2764
   10MPD2    H114012   1.860   3.348  13.021 -0.2564 -0.5218 -0.4987
   10MPD2    H214013   2.151   3.087  12.853  0.2668  1.0130  1.6495
   10MPD2    H314014   2.072   3.256  13.024 -0.6556  3.3312 -1.2843
   10MPD2     N14015   1.666   3.319  12.820 -0.1438  0.4093 -0.2925
   10MPD2    H514016   1.615   3.293  12.736 -1.6714  1.9480  0.1514
   10MPD2    N114017   1.999   3.000  12.669  0.4083 -0.1136 -0.2875
   10MPD2    H714018   2.086   2.954  12.695  0.7883  1.3639  1.0476
   11MPD2     C14019   3.038   1.594  13.267 -0.3351 -0.5785  0.1075
   11MPD2    C114020   2.992   1.686  13.353 -0.6985  0.3060 -0.3053
   11MPD2    C214021   2.885   1.760  13.320  0.3748 -0.4736 -0.8574
   11MPD2    C314022   2.812   1.735  13.203 -0.0774  0.2073 -0.0361
   11MPD2    C414023   2.856   1.646  13.111 -0.6062 -0.3885 -0.1067
   11MPD2    C514024   2.970   1.576  13.150  0.3551  0.3321  0.3793
   11MPD2     H14025   2.843   1.840  13.380  1.0423 -2.0539  1.7251
   11MPD2    H114026   2.816   1.628  13.012 -0.2740 -0.7063 -0.1842
   11MPD2    H214027   3.130   1.542  13.294 -1.2323 -1.5069  1.3941
   11MPD2    H314028   3.017   1.509  13.078 -2.5170 -2.5984  1.2129
   11MPD2     N14029   2.689   1.808  13.175  0.2965 -0.0817  0.0943
   11MPD2    H514030   2.655   1.796  13.080 -0.9030 -0.1835  0.5491
   11MPD2    N114031   3.038   1.716  13.481  0.0780  0.0629 -0.3838
   11MPD2    H714032   2.978   1.782  13.529  0.2163  0.8340 -1.2733
    1MPD1     C14033   0.572   3.201  17.200  0.6959 -0.3494 -0.1692
    1MPD1    C114034   0.671   3.292  17.211  0.2912 -0.3603 -0.2230
    1MPD1    C214035   0.763   3.312  17.107  0.9633  0.2022 -0.3341
    1MPD1    C314036   0.753   3.234  16.995  0.1496  0.2702 -0.0233
    1MPD1    C414037   0.656   3.139  16.986 -0.0852 -0.8575 -0.2575
    1MPD1    C514038   0.562   3.125  17.084 -0.5314  0.5988 -0.0237
    1MPD1     H14039   0.842   3.385  17.123  1.0195 -0.1249  0.8678
    1MPD1    H114040   0.649   3.073  16.901  1.5234  0.5054 -1.4478
    1MPD1    H214041   0.496   3.193  17.277 -1.0833 -0.2876 -1.9208
    1MPD1    H314042   0.483   3.052  17.068  0.2287 -0.2584  0.1204
    1MPD1     N14043   0.835   3.263  16.878  0.3062 -0.4825 -0.0746
    1MPD1    H514044   0.820   3.200  16.800  0.9044 -1.7477  0.8280
    1MPD1    N114045   0.687   3.369  17.323 -0.3427  0.5354 -0.0499
    1MPD1    H614046   0.781   3.364  17.361 -0.0750  0.8159 -0.6647
    1MPD1    H714047   0.637   3.331  17.403  0.4146 -0.5978 -0.1265
    2MPD1     C14048   1.696   3.755  16.543 -0.4206  0.4549 -0.0118
    2MPD1    C114049   1.659   3.739  16.676 -0.0537 -0.2379  0.1951
    2MPD1    C214050   1.542   3.680  16.702 -0.2056  0.1066 -0.3906
    2MPD1    C314051   1.454   3.653  16.601  0.2937  0.2072 -0.8319
    2MPD1    C414052   1.489   3.676  16.472  0.7274  0.1362 -0.0211
    2MPD1    C514053   1.615   3.723  16.441 -0.7111  0.1095 -0.8474
    2MPD1     H14054   1.515   3.649  16.803 -2.6500 -3.0426 -2.0182
    2MPD1    H114055   1.426   3.646  16.389  0.2478 -0.9487  0.7197
    2MPD1    H214056   1.792   3.798  16.517 -1.2090  1.7108 -0.8376
    2MPD1    H314057   1.653   3.719  16.340  1.7176 -0.3901  0.0805
    2MPD1     N14058   1.339   3.584  16.634  0.4182 -0.5625  0.1164
    2MPD1    H514059   1.305   3.584  16.730  1.2891 -1.4124  0.4200
    2MPD1    N114060   1.748   3.791  16.767  0.3641 -0.3675  0.1629
    2MPD1    H614061   1.846   3.764  16.757 -0.1168 -0.7393 -3.3304
    2MPD1    H714062   1.733   3.765  16.865 -2.0526  1.0871  0.1645
    3TMC3    C114063   1.141   3.441  16.594 -0.3117  0.2150  0.2597
    3TMC3    C214064   1.083   3.367  16.496  1.2431  0.3879 -0.1493
    3TMC3    C314065   0.999   3.271  16.522  0.1838  0.1561 -0.7256
    3TMC3    C414066   1.122   3.407  16.735 -0.5171  0.4106 -0.0802
    3TMC3    C514067   1.030   3.315  16.761  0.2236 -0.8265  0.1171
    3TMC3    C614068   0.972   3.244  16.656 -0.1326  0.3931 -0.2845
    3TMC3     C14069   1.261   3.506  16.547  0.1527 -0.1692 -0.1686
    3TMC3     O14070   1.288   3.473  16.434  0.2088 -0.5625 -0.1055
    3TMC3     H14071   1.088   3.409  16.396 -1.2694  0.6255 -0.1615
    3TMC3    H114072   1.188   3.454  16.806 -2.4184 -0.6299  2.3607
    3TMC3    H214073   0.894   3.171  16.675  0.0848  0.4532  0.8380
    3TMC3    C714074   0.954   3.337  16.882 -0.3697 -0.2423  0.1567
    3TMC3    C814075   0.898   3.228  16.427  0.4887  0.5177  0.2645
    3TMC3    O114076   1.010   3.407  16.965  0.3909  0.1947  0.1802
    3TMC3    O214077   0.796   3.181  16.476  0.1939 -0.1606 -0.2862
    4MPD1     C14078   0.703   3.179  15.953 -0.2447  0.3120 -0.5152
    4MPD1    C114079   0.838   3.204  15.939  0.0622 -0.3818 -0.4752
    4MPD1    C214080   0.911   3.201  16.054  0.1584 -0.4011  0.3078
    4MPD1    C314081   0.859   3.206  16.184 -0.4448 -0.5588  0.0984
    4MPD1    C414082   0.719   3.191  16.191  0.4625  0.0702  0.8985
    4MPD1    C514083   0.645   3.168  16.079 -0.4820  0.4359 -0.1305
    4MPD1     H14084   1.015   3.224  16.036 -0.4430  3.0980  1.3032
    4MPD1    H114085   0.672   3.202  16.288 -0.3982  4.0347  0.0609
    4MPD1    H214086   0.633   3.166  15.871  1.1394  1.4403 -1.8858
    4MPD1    H314087   0.539   3.150  16.094 -0.2404 -0.9408 -0.0581
    4MPD1     N14088   0.942   3.232  16.295 -0.9933  0.1541  0.7263
    4MPD1    H514089   1.040   3.244  16.273 -1.1841  1.0470  0.3624
    4MPD1    N114090   0.904   3.190  15.813 -0.2894 -0.0029 -0.4402
    4MPD1    H614091   0.978   3.260  15.813  0.3399 -0.6660 -0.1631
    4MPD1    H714092   0.844   3.215  15.736  1.0185  2.7576 -0.5527
    1TCq1    O114093   2.179   2.597  11.521 -0.4905 -0.4124 -0.5675
    1TCq1    C114094   2.183   2.733  11.557  0.1921 -0.6801 -0.1391
    1TCq1    O214095   2.278   2.787  11.619  0.0799  0.2189  0.0891
    1TCq1    C214096   2.051   2.790  11.535 -0.4583  0.0875 -0.1211
    1TCq1    C314097   1.975   2.728  11.445  0.2401  0.2225  0.9992
    1TCq1    C414098   1.859   2.791  11.406 -0.0685  0.0870 -0.0559
    1TCq1    C514099   1.800   2.868  11.503 -0.0663  0.2203 -0.0750
    1TCq1    C614100   1.876   2.904  11.612  0.7741 -0.3065 -0.1929
    1TCq1    C714101   2.003   2.860  11.635 -0.1874 -0.5635  0.4271
    1TCq1    C814102   1.842   3.022  11.688 -0.2581 -0.2951 -0.0790
    1TCq1    O414103   1.915   3.052  11.781 -0.5575 -0.0813  0.3409
    1TCq1    C914104   1.772   2.725  11.314 -0.4100 -1.1654 -0.5529
    1TCq1    O514105   1.663   2.786  11.289 -0.2965  0.0415 -0.0371
    1TCq1    O614106   1.798   2.609  11.278 -0.4052  0.6631  0.6848
    1TCq1    H114107   2.091   2.571  11.487 -0.4634  0.1095 -1.0519
    1TCq1    H214108   2.023   2.681  11.360  1.0284  1.5288  0.7109
    1TCq1    H314109   1.693   2.887  11.493  0.1312 -0.2859 -3.2488
    1TCq1    H414110   2.075   2.908  11.699 -0.5392  0.3781  0.1183
    2MPD1     C14111   1.576   3.450  11.747 -0.0867  0.2190 -0.7031
    2MPD1    C114112   1.533   3.391  11.633  0.0316 -0.0420 -0.1208
    2MPD1    C214113   1.596   3.268  11.599 -0.3672  0.2156 -0.0098
    2MPD1    C314114   1.688   3.211  11.687 -0.2784  0.5016 -0.5182
    2MPD1    C414115   1.740   3.273  11.798  0.0035  0.4352  0.0564
    2MPD1    C514116   1.681   3.393  11.821  1.2530 -0.3649  0.4341
    2MPD1     H14117   1.561   3.214  11.512  1.4275 -0.2297 -0.4509
    2MPD1    H114118   1.811   3.235  11.871 -0.4760  0.3638  0.4920
    2MPD1    H214119   1.540   3.548  11.777  0.4116  0.6663 -1.5608
    2MPD1    H314120   1.716   3.449  11.907  0.8634  0.9285 -0.2551
    2MPD1     N14121   1.733   3.086  11.635 -0.1412 -0.2670 -0.2389
    2MPD1    H514122   1.696   3.051  11.548  0.1450 -1.5250  0.1506
    2MPD1    N114123   1.419   3.436  11.571 -0.2276  0.8694  0.1317
    2MPD1    H614124   1.419   3.398  11.476  1.7622 -1.0949  0.9107
    2MPD1    H714125   1.427   3.537  11.562  3.2831  0.7607  1.9343
    1TMC1    C114126   1.293   2.432   0.043 -0.9658 -0.2689  0.7279
    1TMC1    C214127   1.271   2.323   0.124 -0.2746  0.2699  0.3680
    1TMC1    C314128   1.156   2.319   0.201  0.3147 -0.5370 -0.3186
    1TMC1    C414129   1.200   2.540   0.041  0.1064 -0.2214  0.3989
    1TMC1    C514130   1.084   2.529   0.113 -0.6681 -0.1626 -0.3292
    1TMC1    C614131   1.066   2.418   0.194  0.1018 -0.0549  0.0380
    1TMC1     C14132   1.409   2.439  17.707  0.3985 -0.3901  0.6571
    1TMC1     O14133   1.434   2.548  17.656  0.1808  0.0674  0.1904
    1TMC1     H14134   1.341   2.242   0.139 -1.3829 -0.4704  1.5086
    1TMC1    H114135   1.212   2.624  17.721 -1.0375  0.4162  1.0052
    1TMC1    H214136   0.977   2.415   0.257  0.8448 -1.0843  1.0341
    1TMC1    C714137   0.987   2.636   0.123  0.3031 -0.1689  0.1314
    1TMC1    C814138   1.093   2.193   0.238  0.3324  0.3066  0.3171
    1TMC1    O114139   0.879   2.618   0.177 -0.6244  0.3256 -0.2446
    1TMC1    O214140   0.971   2.174   0.251 -0.7108  0.4331  0.7891
    1TMC1    O314141   1.049   2.760   0.107  1.2165 -0.0133 -0.5214
    1TMC1    H314142   1.147   2.755   0.095  1.0913  0.4548 -1.7089
    1TMC1    O514143   1.178   2.130   0.321 -0.1269 -0.6919  0.0006
    1TMC1    H514144   1.271   2.158   0.308 -0.2916 -0.1095  0.0726
    2MPD1     C14145   1.805   2.224  17.471 -0.2691  0.4346 -0.4656
    2MPD1    C114146   1.709   2.127  17.489  0.2658  0.2698  0.0176
    2MPD1    C214147   1.610   2.164  17.573 -0.1671  0.3937 -0.2062
    2MPD1    C314148   1.584   2.290  17.614 -0.4356 -0.3666  0.9126
    2MPD1    C414149   1.670   2.386  17.581 -0.2769  0.1072  0.3047
    2MPD1    C514150   1.782   2.353  17.508  0.0201 -0.1392 -0.7930
    2MPD1     H14151   1.525   2.101  17.594  0.0462 -0.3507 -1.5431
    2MPD1    H114152   1.661   2.489  17.612 -0.3720  0.1138  0.2544
    2MPD1    H214153   1.899   2.212  17.420  0.3636 -1.8030  1.2496
    2MPD1    H314154   1.856   2.428  17.484 -0.6633  0.9930  0.6490
    2MPD1     N14155   1.459   2.311  17.682  0.0654  0.1045 -0.1750
    2MPD1    H514156   1.409   2.227  17.706  1.3190 -1.0097 -1.4209
    2MPD1    N114157   1.737   1.994  17.465  0.2360  0.3016  0.0191
    2MPD1    H614158   1.650   1.944  17.448  1.4356 -1.5883 -0.5523
    2MPD1    H714159   1.791   1.982  17.379 -0.0198  0.3685 -0.1522
    1MPD1     C14160   3.629   2.702  12.240  0.2118  0.0140 -0.2357
    1MPD1    C114161   3.695   2.736  12.127 -0.7211  0.1340 -0.0509
    1MPD1    C214162   3.679   2.863  12.083 -0.2674  0.0355 -0.4888
    1MPD1    C314163   3.610   2.955  12.159  0.1754 -0.5922  0.6072
    1MPD1    C414164   3.551   2.919  12.279 -0.2453 -0.0572  0.3509
    1MPD1    C514165   3.560   2.789  12.322  0.2374  0.8587  0.5895
    1MPD1     H14166   3.729   2.897  11.993  1.8212  0.1291  0.7044
    1MPD1    H114167   3.512   2.997  12.343 -0.5431 -0.4877  0.6879
    1MPD1    H214168   3.640   2.600  12.277  1.0213  0.2611  0.2091
    1MPD1    H314169   3.520   2.754  12.417  0.6874 -0.6721  0.2232
    1MPD1     N14170   3.604   3.084  12.102 -0.1914 -0.4925  0.6184
    1MPD1    H514171   3.665   3.103  12.023 -1.0283 -0.3687  0.0008
    1MPD1    N114172   3.745   2.634  12.045  0.3317  0.5260 -0.2403
    1MPD1    H614173   3.780   2.557  12.103 -2.7801 -2.1731 -2.0014
    1MPD1    H714174   3.831   2.655  11.994  1.9846 -3.1346  0.9986
    2MPD1     C14175   2.599   3.598  11.799  0.3536 -0.0106  0.5857
    2MPD1    C114176   2.568   3.550  11.675 -0.8346  0.3815  0.1189
    2MPD1    C214177   2.671   3.501  11.601 -0.2235 -0.0854 -0.8404
    2MPD1    C314178   2.796   3.480  11.653 -0.4815 -0.2816  1.1210
    2MPD1    C414179   2.815   3.523  11.783  0.3142 -0.7215  0.7843
    2MPD1    C514180   2.726   3.592  11.850  0.4060  0.4284 -0.6122
    2MPD1     H14181   2.649   3.475  11.498  0.6010 -0.1847 -0.9959
    2MPD1    H114182   2.906   3.497  11.834  0.4792 -0.1212  0.7976
    2MPD1    H214183   2.523   3.639  11.865  0.3772  0.5068  0.2910
    2MPD1    H314184   2.738   3.617  11.955 -3.7405  3.4510 -0.8716
    2MPD1     N14185   2.902   3.420  11.587 -0.2325  0.0852 -0.2071
    2MPD1    H514186   2.994   3.424  11.630  0.1671 -0.2626 -1.0332
    2MPD1    N114187   2.445   3.585  11.621 -0.0473 -0.0684 -0.0756
    2MPD1    H614188   2.407   3.537  11.539 -0.7338  0.1628  0.1110
    2MPD1    H714189   2.374   3.591  11.693  1.0957 -0.1307  1.0630
    3MPD1     C14190   2.817   2.843  10.815 -0.2769 -0.0338  0.4661
    3MPD1    C114191   2.799   2.789  10.938 -0.0401 -0.8459  0.2209
    3MPD1    C214192   2.859   2.852  11.048  0.2216  0.5042 -0.1029
    3MPD1    C314193   2.960   2.944  11.031 -0.3876  0.7480  0.2053
    3MPD1    C414194   2.987   2.983  10.901  0.0665  0.3565 -0.2305
    3MPD1    C514195   2.921   2.930  10.794 -0.1022 -0.1271 -0.0744
    3MPD1     H14196   2.836   2.816  11.148  0.2356  3.3289  0.9367
    3MPD1    H114197   3.055   3.067  10.896 -0.0430  0.4450 -0.2229
    3MPD1    H214198   2.758   2.824  10.726 -1.1964 -0.3371  1.1435
    3MPD1    H314199   2.936   2.980  10.700  1.4565 -1.8938 -0.7667
    3MPD1     N14200   3.008   3.022  11.142  0.1908  0.5438 -0.2517
    3MPD1    H514201   2.954   3.023  11.228 -1.4059  1.8547 -1.2649
    3MPD1    N114202   2.712   2.682  10.971 -0.2582  0.2674 -0.6100
    3MPD1    H614203   2.693   2.620  10.893 -0.6305  0.8115 -0.9551
    3MPD1    H714204   2.758   2.636  11.049 -3.6390 -0.6041  0.8337
    4MPD2     C14205   3.331   3.711  11.755 -0.3818 -0.1942 -0.2441
    4MPD2    C114206   3.432   3.760  11.834  0.5379  0.7070 -0.5980
    4MPD2    C214207   3.525   3.836  11.770 -0.4221 -0.0386 -0.3346
    4MPD2    C314208   3.521   3.859  11.634 -0.0584  0.9392  0.0213
    4MPD2    C414209   3.423   3.804  11.555  0.4981 -0.2647  0.9408
    4MPD2    C514210   3.322   3.732  11.619  0.3606  1.0318 -0.1796
    4MPD2     H14211   3.613   3.870  11.823  0.1403 -0.1120 -1.2180
    4MPD2    H114212   3.426   3.821  11.448 -0.5709  0.5139  1.0391
    4MPD2    H214213   3.244   3.664  11.799 -1.0352  0.7742 -0.5041
    4MPD2    H314214   3.236   3.699  11.562 -0.2750  2.7442 -0.2160
    4MPD2     N14215   3.608   3.939  11.561  0.2795  0.0876 -0.0184
    4MPD2    H514216   3.596   3.929  11.460 -2.1402  0.9300  0.1845
    4MPD2    N114217   3.448   3.722  11.968  0.0178  0.0409  0.2965
    4MPD2    H714218   3.509   3.779  12.026  1.9211 -2.3349  0.6004
    5TMC3    C114219   3.484   3.549  12.118  0.6697 -0.4999  0.9320
    5TMC3    C214220   3.447   3.416  12.134 -0.3389  0.2186 -0.0455
    5TMC3    C314221   3.541   3.314  12.104 -0.0131  0.4570 -0.3854
    5TMC3    C414222   3.614   3.574  12.075 -0.6190 -0.0417  0.0702
    5TMC3    C514223   3.695   3.474  12.034 -0.0707 -0.0105  0.4982
    5TMC3    C614224   3.668   3.343  12.053 -0.4157 -0.1836 -0.3278
    5TMC3     C14225   3.392   3.611  12.023 -0.2015 -0.0164 -0.3282
    5TMC3     O14226   3.296   3.541  11.993 -0.1775  0.5129  0.2300
    5TMC3     H14227   3.344   3.394  12.160 -0.5387  3.1170  1.5655
    5TMC3    H114228   3.643   3.679  12.069  0.0921 -0.4350 -3.2042
    5TMC3    H214229   3.742   3.265  12.040 -0.1171  0.0326  0.0326
    5TMC3    C714230   3.794   3.518  11.938  0.4296 -0.7611 -0.2367
    5TMC3    C814231   3.510   3.174  12.143  0.5035 -0.7248 -0.0947
    5TMC3    O114232   3.813   3.639  11.931  0.0771  0.4215  0.1679
    5TMC3    O214233   3.409   3.149  12.212  0.1442 -0.7064 -0.4880
    6TMC3    C114234   3.011   3.310  11.421  0.4880 -0.3722  0.3502
    6TMC3    C214235   3.006   3.205  11.338  0.4872 -0.1039 -0.2169
    6TMC3    C314236   3.127   3.173  11.279  0.0152  0.0899 -0.4043
    6TMC3    C414237   3.126   3.387  11.437 -0.3131 -0.0578  0.0531
    6TMC3    C514238   3.233   3.362  11.356  0.2859 -0.8743  0.0306
    6TMC3    C614239   3.240   3.248  11.289  0.1446  0.7379 -0.1716
    6TMC3     C14240   2.886   3.372  11.462  0.9701 -0.2311 -0.5307
    6TMC3     O14241   2.790   3.315  11.408  0.1806 -0.6537 -0.2840
    6TMC3     H14242   2.910   3.161  11.314  0.2953 -0.4541  1.2251
    6TMC3    H114243   3.130   3.479  11.494 -3.5011 -0.6072  1.1692
    6TMC3    H214244   3.323   3.237  11.220  2.0527 -1.9375  2.5476
    6TMC3    C714245   3.357   3.444  11.353 -0.4067 -0.5402  0.1015
    6TMC3    C814246   3.114   3.113  11.149  0.2477  0.8794  0.1032
    6TMC3    O114247   3.345   3.562  11.334  0.0119 -0.1894 -1.0217
    6TMC3    O214248   3.192   3.140  11.058  0.5584  0.3885 -0.3977
    7MPD2     C14249   4.090   3.428  11.526  0.2143  0.5077  0.3134
    7MPD2    C114250   4.056   3.552  11.587 -0.8635 -0.3383  0.2348
    7MPD2    C214251   3.983   3.543  11.701 -0.3561 -0.6402  0.9226
    7MPD2    C314252   3.933   3.423  11.756  0.5155 -0.0932 -0.0040
    7MPD2    C414253   3.976   3.307  11.701  1.0358  0.8483 -0.0355
    7MPD2    C514254   4.054   3.305  11.588 -0.1657 -0.4556 -0.4928
    7MPD2     H14255   3.943   3.636  11.740 -0.9197 -0.1214 -0.8714
    7MPD2    H114256   3.938   3.209  11.727  2.6251 -1.0934 -5.0546
    7MPD2    H214257   4.152   3.435  11.437  0.4244  1.1282  0.5167
    7MPD2    H314258   4.059   3.207  11.542  0.6947 -0.2413 -0.8570
    7MPD2     N14259   3.842   3.411  11.865  0.7845  0.6924 -0.6735
    7MPD2    H514260   3.827   3.316  11.899 -1.3105  1.9346  1.7469
    7MPD2    N114261   4.073   3.679  11.521 -0.1679  0.0359  0.1833
    7MPD2    H714262   4.112   3.672  11.428 -1.6531  0.2259 -0.4494
    8TMC3    C114263   4.003   3.910  11.492  0.3567 -0.5279  0.9473
    8TMC3    C214264   3.963   3.871  11.369  0.0919  0.0557 -0.1483
    8TMC3    C314265   3.835   3.914  11.326  0.0290 -0.7087  0.7015
    8TMC3    C414266   3.934   4.001  11.559  0.7580  0.2164  0.6331
    8TMC3    C514267   3.814   4.047  11.505  0.3117 -0.2563  0.0833
    8TMC3    C614268   3.767   4.011  11.379 -0.0789 -0.3305  0.8352
    8TMC3     C14269   4.050   3.804  11.578  0.6272  0.1842 -0.1573
    8TMC3     O14270   4.053   3.827  11.700 -0.2969  0.6662 -0.1220
    8TMC3     H14271   4.023   3.796  11.318  0.2202  0.4502 -0.5743
    8TMC3    H114272   3.967   4.035  11.656 -0.9141  0.3535  1.1537
    8TMC3    H214273   3.678   4.052  11.333  1.8076  0.9297 -1.7117
    8TMC3    C714274   3.706   4.024  11.609 -0.4197 -0.3095  0.0437
    8TMC3    C814275   3.749   3.817  11.267  0.2640  0.7231 -0.2662
    8TMC3    O114276   3.740   4.039  11.726  0.0808  0.4340  0.1501
    8TMC3    O214277   3.632   3.837  11.282 -0.4705  0.5341  0.1468
    9MPD2     C14278   3.861   3.479  11.308  0.3750 -0.1154  0.1966
    9MPD2    C114279   3.770   3.574  11.292 -0.3013 -0.2642 -0.1470
    9MPD2    C214280   3.637   3.534  11.317  0.5986 -0.0005 -0.0292
    9MPD2    C314281   3.599   3.408  11.349 -0.1525  0.8128  0.7749
    9MPD2    C414282   3.700   3.317  11.373  0.2537  0.1693  0.4932
    9MPD2    C514283   3.828   3.348  11.342 -1.3030 -0.2252 -0.0139
    9MPD2     H14284   3.565   3.604  11.276 -0.5400 -2.0689 -1.5890
    9MPD2    H114285   3.675   3.213  11.383  0.1808  0.4557  3.1158
    9MPD2    H214286   3.967   3.500  11.299  0.9583 -2.0545  2.4866
    9MPD2    H314287   3.904   3.272  11.357 -0.9684  0.2917  0.9317
    9MPD2     N14288   3.470   3.367  11.369  0.6021 -0.3294  0.0219
    9MPD2    H514289   3.448   3.273  11.400 -1.1584 -0.0162 -0.2286
    9MPD2    N114290   3.819   3.701  11.258 -0.0141 -0.6073  0.1760
    9MPD2    H714291   3.916   3.707  11.227 -0.8359  0.7860 -2.1267
    1MPD1     C14292   4.498   2.193  16.597  0.1592  0.4696  1.0516
    1MPD1    C114293   4.557   2.252  16.704 -0.2681 -0.6560  0.1914
    1MPD1    C214294   4.479   2.331  16.788 -0.2778  0.6728 -0.3184
    1MPD1    C314295   4.346   2.350  16.765  0.1158 -0.7131 -0.4911
    1MPD1    C414296   4.290   2.300  16.652  0.9037  0.3459  0.0217
    1MPD1    C514297   4.368   2.220  16.567  0.5123  0.1552  0.4617
    1MPD1     H14298   4.529   2.374  16.874 -0.7742 -1.0733  0.8415
    1MPD1    H114299   4.183   2.307  16.632  1.1200  0.4384 -1.0921
    1MPD1    H214300   4.557   2.134  16.528 -0.9957 -0.2483  0.6718
    1MPD1    H314301   4.329   2.177  16.476  0.4733  0.1015  0.5040
    1MPD1     N14302   4.256   2.420  16.852  0.5416  0.6136 -0.0136
    1MPD1    H514303   4.159   2.430  16.825  1.3466  0.2262 -2.9447
    1MPD1    N114304   4.695   2.255  16.710 -0.0795  0.0344 -0.5049
    1MPD1    H614305   4.719   2.283  16.805  1.2463  0.2650 -0.9105
    1MPD1    H714306   4.736   2.167  16.678  0.7431 -0.5904  2.2601
    2TMC2    C114307   3.984   2.647  17.043 -0.4383 -1.2277  0.8926
    2TMC2    C214308   4.017   2.734  17.143 -0.4826  0.4452 -0.0063
    2TMC2    C314309   4.149   2.743  17.173 -0.7460  0.2361 -0.6390
    2TMC2    C414310   4.074   2.558  16.990 -0.7311  0.0104 -0.3769
    2TMC2    C514311   4.211   2.564  17.031  0.8915  0.0113 -0.6464
    2TMC2    C614312   4.251   2.663  17.120  0.2158 -0.2368 -0.4505
    2TMC2     C14313   3.852   2.595  17.026  0.7715  0.1372  0.2451
    2TMC2     O14314   3.844   2.473  17.007  1.2081 -0.1684  0.5512
    2TMC2     H14315   3.941   2.797  17.188 -0.0346  0.2996  0.9687
    2TMC2    H114316   4.037   2.497  16.909 -0.3342  1.0460 -1.3228
    2TMC2    H214317   4.353   2.678  17.153  0.0980 -0.2866 -0.0687
    2TMC2    C714318   4.304   2.499  16.956 -0.2808  0.9070 -0.6855
    2TMC2    C814319   4.199   2.862  17.236  0.1221  1.0543 -0.9418
    2TMC2    O114320   4.417   2.507  17.004  0.3907 -0.8042  0.1585
    2TMC2    O214321   4.307   2.873  17.295 -0.1044 -0.1336  0.4334
    2TMC2    O514322   4.138   2.959  17.160 -0.1470 -0.4520  0.2491
    2TMC2    H514323   4.059   2.935  17.108 -2.3885  4.6962  1.2280
    3MPD1     C14324   3.342   2.651  17.035 -0.1996  0.1125 -0.2581
    3MPD1    C114325   3.400   2.770  17.008 -0.2740 -0.4139  0.5706
    3MPD1    C214326   3.538   2.784  17.020 -0.6202  0.1780  0.2121
    3MPD1    C314327   3.618   2.673  17.037 -1.1031 -0.1058  0.3656
    3MPD1    C414328   3.561   2.550  17.053 -0.8633  0.0597  0.1345
    3MPD1    C514329   3.422   2.542  17.059  0.0495 -0.1674 -0.2876
    3MPD1     H14330   3.586   2.881  17.020 -0.9940  0.3661 -0.2499
    3MPD1    H114331   3.624   2.467  17.085 -1.2866 -0.4165 -0.2622
    3MPD1    H214332   3.234   2.643  17.042 -0.1641 -0.5231 -0.4434
    3MPD1    H314333   3.378   2.447  17.085 -0.7354 -0.1405 -1.4771
    3MPD1     N14334   3.755   2.694  17.041 -0.1836  0.0365  0.1226
    3MPD1    H514335   3.793   2.786  17.025  0.8043 -0.0610  1.9027
    3MPD1    N114336   3.311   2.881  17.003  0.0450 -0.5470  0.3490
    3MPD1    H614337   3.224   2.864  16.952  0.3065  0.7989 -0.5393
    3MPD1    H714338   3.359   2.964  16.969  1.2200 -1.0732  0.7421
    1TMC1    C114339   0.994   0.955  12.698  0.0244 -0.1092  0.2562
    1TMC1    C214340   0.876   0.880  12.709 -0.2281  0.0894 -0.1096
    1TMC1    C314341   0.811   0.833  12.600 -0.8108 -0.6379  0.0220
    1TMC1    C414342   1.046   0.986  12.572  0.6829  0.1878  0.0915
    1TMC1    C514343   0.979   0.938  12.466  0.7093  0.3067  0.6557
    1TMC1    C614344   0.870   0.854  12.477 -0.4509  0.4526  0.2378
    1TMC1     C14345   1.053   1.015  12.820 -0.6044  1.2390 -0.2607
    1TMC1     O14346   0.981   1.054  12.914  0.4389  0.0573 -0.4993
    1TMC1     H14347   0.857   0.848  12.810 -4.1226 -1.2879 -1.2820
    1TMC1    H114348   1.124   1.060  12.568 -1.1595  2.1305  0.1857
    1TMC1    H214349   0.830   0.791  12.398 -0.6789  0.1241  0.6139
    1TMC1    C714350   1.035   0.954  12.336  0.7251 -0.3032  0.2771
    1TMC1    C814351   0.766   0.698  12.617 -0.5651  0.0991 -0.3558
    1TMC1    O114352   0.958   0.955  12.242  0.0258 -0.3257  0.1695
    1TMC1    O214353   0.826   0.601  12.577 -0.4802  0.4250 -0.1753
    1TMC1    O314354   1.156   1.020  12.342  0.0272 -0.3357 -0.4050
    1TMC1    H314355   1.203   0.998  12.425 -2.6397 -2.1986  0.6027
    1TMC1    O514356   0.686   0.694  12.726 -0.0108  0.5589 -0.3865
    1TMC1    H514357   0.655   0.784  12.749  1.5634 -0.1475  4.5886
    2MPD2     C14358   1.256   1.137  13.018  0.5150  0.0132 -0.5247
    2MPD2    C114359   1.275   1.032  12.930 -0.4846 -0.6218  0.8604
    2MPD2    C214360   1.394   0.967  12.947 -0.1134 -0.3028  1.0722
    2MPD2    C314361   1.491   0.998  13.051  0.4900  0.2987  0.1142
    2MPD2    C414362   1.463   1.112  13.121  1.0522 -0.5934 -0.6082
    2MPD2    C514363   1.349   1.181  13.108 -1.0455  0.1312 -0.0350
    2MPD2     H14364   1.406   0.892  12.870  1.1471 -0.1638  1.1317
    2MPD2    H114365   1.530   1.153  13.196 -0.0949  0.0756  0.0480
    2MPD2    H214366   1.166   1.196  13.003  0.4949  0.1619  0.1713
    2MPD2    H314367   1.325   1.272  13.162  2.3174  1.4613 -0.8239
    2MPD2     N14368   1.603   0.911  13.057  0.7351  0.6250 -0.1785
    2MPD2    H514369   1.602   0.832  12.992 -0.0095 -1.2053  2.0641
    2MPD2    N114370   1.186   0.994  12.822 -0.3636  0.0587  0.0509
    2MPD2    H714371   1.222   0.935  12.748  0.8392  1.6907 -0.6680
    3TCq1    O114372   1.964   0.457  13.111 -0.0222 -0.2234 -0.9123
    3TCq1    C114373   1.891   0.514  13.013 -0.8084  0.2512  0.2845
    3TCq1    O214374   1.780   0.475  12.985  0.2681 -0.5346  0.7731
    3TCq1    C214375   1.917   0.654  13.037  0.0447 -0.1527 -0.2745
    3TCq1    C314376   2.039   0.695  13.084 -0.1084 -0.9853  0.1098
    3TCq1    C414377   2.046   0.813  13.154 -0.1806  0.3111  0.1748
    3TCq1    C514378   1.938   0.892  13.166 -0.3917  0.3936  0.1011
    3TCq1    C614379   1.820   0.848  13.116  0.4800  0.3982 -0.4984
    3TCq1    C714380   1.807   0.728  13.057  0.2890 -0.1491 -0.2520
    3TCq1    C814381   1.708   0.934  13.139 -0.1034  0.6442  0.8678
    3TCq1    O414382   1.731   1.030  13.210 -0.4220 -0.4546  1.3300
    3TCq1    C914383   2.170   0.856  13.194 -0.2163 -0.1586  0.1266
    3TCq1    O514384   2.185   0.978  13.222  0.2245  0.1264  0.2654
    3TCq1    O614385   2.242   0.764  13.238 -0.3894 -0.6033  0.1852
    3TCq1    H114386   2.034   0.520  13.138 -0.8720  0.3224  0.0434
    3TCq1    H214387   2.140   0.670  13.054  0.0049  0.7064 -0.9728
    3TCq1    H314388   1.947   0.984  13.222  2.0889 -1.0018  2.0064
    3TCq1    H414389   1.712   0.682  13.032  1.2113 -1.5429 -1.2351
    1MPD2     C14390   1.274   2.290  14.962  0.0768  0.9003 -0.2103
    1MPD2    C114391   1.166   2.211  14.918  0.3562 -0.4564  0.4501
    1MPD2    C214392   1.191   2.075  14.904  0.7231 -0.4581 -0.0295
    1MPD2    C314393   1.318   2.024  14.914 -0.0282  0.4536 -0.3906
    1MPD2    C414394   1.428   2.102  14.939  0.0890  0.3182 -0.2140
    1MPD2    C514395   1.401   2.235  14.970 -0.1574 -0.3557  0.1642
    1MPD2     H14396   1.113   2.009  14.869  0.1337  0.4481 -0.4192
    1MPD2    H114397   1.528   2.064  14.956 -0.2214 -0.6122 -0.4459
    1MPD2    H214398   1.263   2.397  14.976 -1.1612  0.5467  1.4830
    1MPD2    H314399   1.484   2.299  14.999  0.0529  0.3189 -1.9872
    1MPD2     N14400   1.330   1.886  14.887  0.2081  0.8079  0.8929
    1MPD2    H514401   1.241   1.840  14.865  0.5795  2.3276 -3.8492
    1MPD2    N114402   1.040   2.268  14.899  0.6488  0.2482  0.1172
    1MPD2    H714403   1.041   2.362  14.861 -0.0431 -0.4778 -1.6779
    2TMC3    C114404   0.800   2.264  14.866 -0.8205  0.1234  0.5080
    2TMC3    C214405   0.692   2.186  14.897 -0.3627  0.0600 -0.0915
    2TMC3    C314406   0.585   2.174  14.812 -0.1859 -0.1467  0.2751
    2TMC3    C414407   0.792   2.344  14.758 -0.0591 -0.2958  1.0630
    2TMC3    C514408   0.680   2.343  14.678  0.0767  0.3552 -0.0474
    2TMC3    C614409   0.572   2.263  14.709 -0.2824 -0.3844 -0.3190
    2TMC3     C14410   0.921   2.191  14.895  0.7150 -0.1076  0.4843
    2TMC3     O14411   0.895   2.076  14.929  0.2379  0.5644  0.6707
    2TMC3     H14412   0.694   2.133  14.992  0.5758 -0.3542 -0.3437
    2TMC3    H114413   0.883   2.391  14.722 -1.5104  1.2481 -0.5569
    2TMC3    H214414   0.489   2.264  14.640 -1.8959  0.4865  1.6149
    2TMC3    C714415   0.702   2.343  14.539 -0.3135  0.5275  0.4367
    2TMC3    C814416   0.558   2.034  14.776 -0.1903 -0.6593  0.1792
    2TMC3    O114417   0.632   2.272  14.467  0.3300  0.3612 -0.1809
    2TMC3    O214418   0.474   2.016  14.689 -0.1186  0.0867 -0.5994
    3TCq1    O114419   1.084   3.271  13.828  0.0517  0.4116  0.3428
    3TCq1    C114420   1.094   3.302  13.953 -0.0811  0.2383  0.6825
    3TCq1    O214421   1.163   3.400  13.982 -0.0406  0.3627  0.4657
    3TCq1    C214422   1.115   3.178  14.030 -0.2856 -0.0159 -0.6873
    3TCq1    C314423   1.185   3.204  14.147 -0.0947 -0.4774 -0.2073
    3TCq1    C414424   1.214   3.103  14.233  0.1141 -0.5780 -0.7180
    3TCq1    C514425   1.163   2.974  14.210  0.1462  0.5987 -0.3676
    3TCq1    C614426   1.084   2.948  14.098 -0.9461  0.2396 -0.3866
    3TCq1    C714427   1.056   3.054  14.003 -0.5394  0.3047 -0.0403
    3TCq1    C814428   1.016   2.820  14.084 -0.2129  0.7548  0.6104
    3TCq1    O414429   0.969   2.793  13.973 -0.0371  0.5768 -1.0284
    3TCq1    C914430   1.315   3.126  14.335 -0.4110  0.3666  0.1340
    3TCq1    O514431   1.309   3.039  14.427 -0.9225  0.0668 -0.1373
    3TCq1    O614432   1.400   3.221  14.323  0.3725  0.4234 -0.5470
    3TCq1    H114433   1.005   3.213  13.817 -0.3958  1.0380  0.2732
    3TCq1    H214434   1.218   3.303  14.176 -2.2634  0.0644  0.3747
    3TCq1    H314435   1.176   2.896  14.284 -2.2692 -0.0634 -0.6522
    3TCq1    H414436   0.994   3.034  13.917  0.1922 -2.9942  0.1978
    4MPD2     C14437   0.909   2.540  14.108  0.3810 -0.0742  0.6297
    4MPD2    C114438   0.942   2.619  14.214 -0.0356 -0.6147  0.1261
    4MPD2    C214439   0.905   2.584  14.339  0.1999 -0.0731  0.3908
    4MPD2    C314440   0.831   2.469  14.367 -0.2017 -0.2509  1.0776
    4MPD2    C414441   0.828   2.379  14.268 -0.9314 -0.1613 -0.1164
    4MPD2    C514442   0.862   2.416  14.136  0.5431 -0.1087 -0.3713
    4MPD2     H14443   0.926   2.656  14.417 -0.9752  0.1024  0.5526
    4MPD2    H114444   0.787   2.280  14.279 -0.3627 -0.6127 -2.0322
    4MPD2    H214445   0.915   2.570  14.004 -0.9666 -0.1939  0.5219
    4MPD2    H314446   0.835   2.349  14.055 -1.5100  0.1452  0.0874
    4MPD2     N14447   0.787   2.444  14.502  0.4862  0.0175 -0.4667
    4MPD2    H514448   0.814   2.505  14.579 -2.5122  1.3310 -0.4633
    4MPD2    N114449   0.997   2.746  14.201  0.0624  0.4389 -0.0042
    4MPD2    H714450   1.013   2.801  14.285  0.3879  0.6695 -0.2151
    5TMC2    C114451   1.195   1.580  14.820 -0.6002 -1.0955 -0.6892
    5TMC2    C214452   1.212   1.496  14.926 -0.9626  0.1741 -0.6834
    5TMC2    C314453   1.327   1.499  14.999  0.1038  0.0183  0.3072
    5TMC2    C414454   1.299   1.667  14.795  0.4057  0.1526 -0.6012
    5TMC2    C514455   1.413   1.671  14.871 -0.5932 -0.2239  0.2909
    5TMC2    C614456   1.430   1.583  14.973 -0.2599  0.4326  0.5939
    5TMC2     C14457   1.069   1.646  14.828  0.0651  0.1235 -0.1564
    5TMC2     O14458   1.077   1.768  14.835 -0.1352  0.4530 -0.0012
    5TMC2     H14459   1.134   1.426  14.952 -0.5311 -0.8306 -2.1485
    5TMC2    H114460   1.290   1.731  14.708  1.3155 -0.6094 -1.2497
    5TMC2    H214461   1.522   1.590  15.031 -1.2770  1.4176  2.0846
    5TMC2    C714462   1.446   1.806  14.901  0.3539 -0.5935  0.8073
    5TMC2    C814463   1.331   1.395  15.106  0.4816 -0.4068 -0.6294
    5TMC2    O114464   1.555   1.826  14.950 -0.1418  0.0828 -0.5850
    5TMC2    O214465   1.254   1.300  15.115 -0.2802  0.2649  0.1300
    5TMC2    O514466   1.416   1.435  15.195 -0.3556 -0.3259 -0.3237
    5TMC2    H514467   1.475   1.509  15.168 -0.0291 -0.7680 -0.8276
    6MPD2     C14468   0.608   1.749  14.680 -0.2919 -0.1299 -0.7444
    6MPD2    C114469   0.686   1.817  14.769  0.5990 -0.2387  0.1004
    6MPD2    C214470   0.806   1.756  14.800 -0.5930  0.2299  0.6744
    6MPD2    C314471   0.843   1.639  14.741  0.4868  0.1152 -0.1827
    6MPD2    C414472   0.751   1.575  14.654 -0.0580  0.3165  0.2597
    6MPD2    C514473   0.642   1.639  14.619 -0.2472  0.2379  0.2810
    6MPD2     H14474   0.859   1.810  14.878 -2.9512  0.1940  2.3137
    6MPD2    H114475   0.769   1.481  14.603 -1.3064 -1.7937  3.6680
    6MPD2    H214476   0.508   1.791  14.678 -1.0514 -1.8027  1.6982
    6MPD2    H314477   0.570   1.587  14.558  0.6400 -1.0012  0.2724
    6MPD2     N14478   0.964   1.571  14.772 -0.8334 -0.0830  0.0875
    6MPD2    H514479   0.993   1.488  14.721 -0.7173  0.3370 -0.5280
    6MPD2    N114480   0.656   1.945  14.819  0.1149  0.6098 -0.1710
    6MPD2    H714481   0.723   1.992  14.879 -1.5171 -0.4958  2.4875
  945NH3     N114482   0.965   4.317  14.271 -0.6935 -0.1312  0.1883
  945NH3     H214483   0.875   4.321  14.224  0.1812 -1.7412 -1.6117
  945NH3     H314484   0.974   4.411  14.307 -2.7320 -0.1882  0.8441
  945NH3     H414485   0.949   4.262  14.355 -0.1552  1.9015  1.6313
  946SOD     NA14486   1.216   3.940  13.446  0.1404 -0.5795 -0.0036
  947SOD     NA14487   3.206   2.274   3.866  0.0101  0.4041  0.5367
  948SOD     NA14488   3.339   0.171   7.826  0.1264 -0.2046  0.2792
  949SOD     NA14489   1.731   3.033  10.167  0.2403 -0.1249 -0.3102
  950SOD     NA14490   3.449   1.381   8.516  0.1097  0.1459  0.3754
  951SOD     NA14491   1.751   2.208  14.480 -0.3945  0.0151  0.3484
  952SOD     NA14492   1.618   1.109  13.637  0.5921  0.6150  0.1664
  953SOD     NA14493   2.302   4.613  17.209 -0.1891  0.4735  0.5541
  954SOL     OW14494   0.888   2.198   6.239 -0.0131 -0.2269  0.2525
  954SOL    HW114495   0.968   2.157   6.271  0.2501  0.2861  0.2643
  954SOL    HW214496   0.827   2.125   6.229 -1.0964  0.8481 -0.9400
  955SOL     OW14497   4.151   3.636  13.450 -0.0557 -0.0299 -0.0513
  955SOL    HW114498   4.099   3.716  13.462 -0.4497  0.0327 -2.1663
  955SOL    HW214499   4.203   3.630  13.530  0.6542  1.9926 -0.3685
  956SOL     OW14500   1.883   4.575   1.809 -0.3522 -0.0443  0.6088
  956SOL    HW114501   1.789   4.594   1.816  0.2246  3.9316 -2.4452
  956SOL    HW214502   1.892   4.544   1.899  1.7096  0.5777  0.6221
  957SOL     OW14503   2.242   4.729   1.974  0.1028 -0.1276  0.2625
  957SOL    HW114504   2.178   4.718   2.044  0.3350  0.2268  0.5308
  957SOL    HW214505   2.189   0.051   1.920  1.2039 -0.2035 -0.9110
  958SOL     OW14506   3.265   1.337  12.985  0.5680  0.3393  0.0915
  958SOL    HW114507   3.188   1.394  12.976 -0.0922 -0.6215 -0.2620
  958SOL    HW214508   3.259   1.292  12.901  0.7401  0.6213 -0.0742
  959SOL     OW14509   3.834   0.931   7.119 -0.2548 -0.0239 -0.5047
  959SOL    HW114510   3.831   1.026   7.105  1.2717 -0.0529 -1.0581
  959SOL    HW214511   3.920   0.914   7.159 -0.6396  0.7592  0.6527
  960SOL     OW14512   4.119   4.145   2.743 -0.1606 -0.1686 -0.0150
  960SOL    HW114513   4.038   4.180   2.779 -0.9707  0.3922 -2.3786
  960SOL    HW214514   4.190   4.190   2.789 -0.7619  1.1235 -0.3589
  961SOL     OW14515   3.946   0.661   7.727  0.7413  0.3115 -0.1278
  961SOL    HW114516   3.937   0.670   7.633  1.0570  3.7626  0.1876
  961SOL    HW214517   4.042   0.663   7.734  0.5578  2.0338  2.0028
  962SOL     OW14518   1.894   2.237   2.789 -0.1821  0.3623  0.3440
  962SOL    HW114519   1.918   2.197   2.706 -1.8657  2.9847 -1.3847
  962SOL    HW214520   1.954   2.188   2.845 -0.3455 -1.8560 -1.4538
  963SOL     OW14521   0.752   1.177   4.410 -0.2631 -0.3262  0.1821
  963SOL    HW114522   0.780   1.245   4.348  0.0615 -0.1446  0.5284
  963SOL    HW214523   0.668   1.219   4.430 -0.6083 -1.5516  1.2624
  964SOL     OW14524   2.720   4.008   6.430  0.0882  0.6227  0.1604
  964SOL    HW114525   2.679   4.094   6.432  0.1410  0.6861 -1.0712
  964SOL    HW214526   2.652   3.963   6.480  1.3728  1.1491  2.3905
  965SOL     OW14527   3.025   3.298   2.981 -0.1169 -0.5566  0.2096
  965SOL    HW114528   3.077   3.294   2.901 -1.0548 -2.9840 -0.2788
  965SOL    HW214529   3.049   3.384   3.017  1.2700 -0.0721 -1.8896
  966SOL     OW14530   1.619   3.955   1.167 -0.1353  0.1064  0.2813
  966SOL    HW114531   1.653   3.872   1.201  1.3124  1.0887  1.2486
  966SOL    HW214532   1.605   4.008   1.246  0.6238  0.1030  0.4209
  967SOL     OW14533   0.531   1.121   1.373  0.0009 -0.1159  0.3207
  967SOL    HW114534   0.511   1.174   1.451  0.5682  1.6839 -0.7622
  967SOL    HW214535   0.588   1.048   1.397  1.6855  1.9254  2.5413
  968SOL     OW14536   1.614   0.207   5.609 -0.2703  0.5560  0.0997
  968SOL    HW114537   1.582   0.118   5.597 -0.0699  0.9867 -3.8381
  968SOL    HW214538   1.663   0.231   5.530  1.5744  0.1534  1.1202
  969SOL     OW14539   0.471   1.157   5.260  0.2389 -0.5800 -0.0813
  969SOL    HW114540   0.388   1.204   5.271  1.0004  1.0045 -1.0655
  969SOL    HW214541   0.473   1.092   5.330  0.0462 -2.7402 -2.0779
  970SOL     OW14542   4.717   4.083  11.678  0.0514  0.4627  0.3383
  970SOL    HW114543   4.719   4.078  11.773  1.0608  0.4464  0.3116
  970SOL    HW214544   4.646   4.023  11.653  2.4696 -2.7061  1.1138
  971SOL     OW14545   4.737   1.969   1.887 -0.1602  0.2181 -0.2505
  971SOL    HW114546   4.727   1.955   1.982 -1.9883 -0.1307 -0.5021
  971SOL    HW214547   4.652   1.996   1.854  0.4693  0.4106 -1.6932
  972SOL     OW14548   0.983   3.832   6.604  0.0645  0.2355  0.5055
  972SOL    HW114549   0.937   3.781   6.670 -1.5450  1.5187  0.3833
  972SOL    HW214550   0.947   3.921   6.615  2.3009  0.9355  2.0715
  973SOL     OW14551   1.700   3.319   2.122 -0.0516  0.9625  0.1238
  973SOL    HW114552   1.717   3.229   2.093 -1.2998  0.8035 -0.1171
  973SOL    HW214553   1.694   3.358   2.034  0.5522  1.4085  0.2781
  974SOL     OW14554   0.194   1.080   7.553 -0.0056 -0.0373  0.1151
  974SOL    HW114555   0.222   1.077   7.461 -1.3416 -2.8598 -0.2133
  974SOL    HW214556   0.280   1.068   7.593  0.6100  0.0179 -1.1664
  975SOL     OW14557   0.533   1.325   4.474 -0.3086 -0.2501 -0.1234
  975SOL    HW114558   0.532   1.415   4.441  0.0039 -0.5445 -0.9483
  975SOL    HW214559   0.441   1.303   4.488 -1.0326  0.9044 -2.9185
  976SOL     OW14560   0.086   0.592  15.307  0.2309  0.3870 -0.1000
  976SOL    HW114561   0.049   0.581  15.394  2.1154 -3.5679  0.2062
  976SOL    HW214562   0.158   0.652  15.326  0.3784  0.3509 -0.5441
  977SOL     OW14563   4.397   2.099   7.542 -0.3007  0.0753  0.0042
  977SOL    HW114564   4.461   2.106   7.613  0.6930 -1.4674 -0.7378
  977SOL    HW214565   4.448   2.142   7.473  1.0822 -0.7349  0.5174
  978SOL     OW14566   4.384   2.845   6.884 -0.3205  0.4159  0.1083
  978SOL    HW114567   4.458   2.836   6.824  1.5067 -0.8627  2.5817
  978SOL    HW214568   4.380   2.939   6.899 -2.5892  0.4579 -0.7079
  979SOL     OW14569   1.114   0.865   8.767 -0.4839  0.3679 -0.0941
  979SOL    HW114570   1.020   0.846   8.768 -0.5052  0.5054  1.3067
  979SOL    HW214571   1.152   0.802   8.705  0.5575  0.9072 -0.0074
  980SOL     OW14572   2.787   3.759   2.081  0.1260 -0.2475 -0.5404
  980SOL    HW114573   2.872   3.729   2.051  0.4470  0.0726  0.0469
  980SOL    HW214574   2.829   3.822   2.140 -1.6797  0.8234 -0.3733
  981SOL     OW14575   4.305   4.534   5.588 -0.1130  0.6868  0.2082
  981SOL    HW114576   4.309   4.623   5.553  0.2398  0.7706  0.4602
  981SOL    HW214577   4.246   4.504   5.519 -2.2838  2.6734  1.2078
  982SOL     OW14578   0.450   3.570   6.800  0.1991  0.1312  0.1045
  982SOL    HW114579   0.441   3.475   6.815  0.2023 -0.3411 -2.8424
  982SOL    HW214580   0.508   3.595   6.872 -1.1697  0.7831  0.9689
  983SOL     OW14581   2.392   4.338   7.446 -0.2409 -0.0911 -0.3012
  983SOL    HW114582   2.404   4.244   7.432 -2.3193 -0.7331  2.1864
  983SOL    HW214583   2.297   4.334   7.455 -0.1163 -1.1603  0.5589
  984SOL     OW14584   2.184   3.164   8.074 -0.1029  0.3745 -0.3366
  984SOL    HW114585   2.096   3.196   8.055  1.3974  3.3265 -2.3318
  984SOL    HW214586   2.231   3.248   8.071  1.5105 -0.5648 -1.5817
  985SOL     OW14587   4.509   2.712  14.924  0.0125  0.1465 -0.8888
  985SOL    HW114588   4.559   2.792  14.939 -1.2068  1.2939 -2.8536
  985SOL    HW214589   4.435   2.738  14.868 -0.1266  0.8860 -0.3582
  986SOL     OW14590   3.025   3.440  16.798 -0.3559  0.1299  0.2760
  986SOL    HW114591   2.944   3.407  16.757  0.0115 -0.8649  0.3501
  986SOL    HW214592   3.074   3.358  16.802 -0.4920 -0.0466 -2.0873
  987SOL     OW14593   1.934   2.029   0.997 -0.2740 -0.7042  0.5949
  987SOL    HW114594   1.863   2.091   1.014  1.2122  1.9405 -2.8514
  987SOL    HW214595   1.978   2.066   0.920 -0.9405 -0.5802  0.2734
  988SOL     OW14596   2.751   3.633   0.568 -0.2708 -0.7277  0.1380
  988SOL    HW114597   2.752   3.624   0.473  2.1308  0.6620  0.0222
  988SOL    HW214598   2.836   3.676   0.578  0.1324 -1.9226  1.8693
  989SOL     OW14599   4.654   3.204  13.467 -0.1202 -0.2402 -0.4902
  989SOL    HW114600   4.642   3.268  13.397  1.2518  1.0761  0.4794
  989SOL    HW214601   4.579   3.147  13.447 -0.3878 -0.5808  1.4474
  990SOL     OW14602   2.283   2.860   4.906  0.1685 -0.7273 -0.2120
  990SOL    HW114603   2.251   2.940   4.947  0.0494 -1.6082  1.4307
  990SOL    HW214604   2.361   2.903   4.872  0.5735 -0.4595  1.0558
  991SOL     OW14605   4.213   1.108   9.342  0.2602  0.0593 -0.1579
  991SOL    HW114606   4.152   1.102   9.268 -0.4460 -1.2985  0.5164
  991SOL    HW214607   4.277   1.168   9.303 -0.3524 -0.3812 -1.8212
  992SOL     OW14608   0.603   4.467   2.604  0.1412  0.2377 -0.3714
  992SOL    HW114609   0.630   4.512   2.524 -2.6413  0.1721 -1.3238
  992SOL    HW214610   0.515   4.439   2.581 -0.2956  1.5438 -0.2985
  993SOL     OW14611   0.295   1.138   2.759  0.0441 -0.0648 -0.1656
  993SOL    HW114612   0.245   1.193   2.700 -1.4935 -0.0330  1.1629
  993SOL    HW214613   0.322   1.062   2.708  0.9212  1.8462 -2.5121
  994SOL     OW14614   3.523   2.657  16.671 -0.8561 -0.2089  0.3902
  994SOL    HW114615   3.485   2.722  16.611  1.0197  1.4967  1.0698
  994SOL    HW214616   3.461   2.661  16.744 -0.9237 -0.0040  0.3215
  995SOL     OW14617   3.914   0.178  15.328 -0.2298 -0.1786  0.0342
  995SOL    HW114618   3.983   0.151  15.389 -0.3317  1.4518  0.8733
  995SOL    HW214619   3.902   0.096  15.282 -0.7826 -0.1703  0.1710
  996SOL     OW14620   0.184   2.714   9.089 -0.2323  0.5150  0.0605
  996SOL    HW114621   0.100   2.671   9.105 -0.3482 -0.3105 -2.8007
  996SOL    HW214622   0.168   2.801   9.126  1.5230  0.4012  1.0634
  997SOL     OW14623   1.729   3.443   8.890  0.5938 -0.7879  0.2906
  997SOL    HW114624   1.689   3.529   8.905  0.6872 -0.8273  0.7644
  997SOL    HW214625   1.695   3.396   8.966 -0.8092 -1.1123 -0.5209
  998SOL     OW14626   3.151   1.163   8.836 -0.3977  0.3217  0.1702
  998SOL    HW114627   3.073   1.108   8.829  0.1305 -0.4985  0.7387
  998SOL    HW214628   3.195   1.129   8.913  1.7562  0.6026 -0.9227
  999SOL     OW14629   1.527   0.859   1.922 -0.0110 -0.0248  0.1947
  999SOL    HW114630   1.486   0.796   1.864 -1.1298  0.0425  0.9201
  999SOL    HW214631   1.483   0.842   2.005 -1.2131 -2.7146 -1.0218
 1000SOL     OW14632   0.480   0.109   2.615 -0.0582 -0.3212 -0.0721
 1000SOL    HW114633   0.567   0.118   2.654 -0.5014  0.8857  0.6369
 1000SOL    HW214634   0.496   0.055   2.537  0.4738  2.5667 -1.9716
 1001SOL     OW14635   0.571   0.100   6.489 -0.3754  0.3361 -0.3605
 1001SOL    HW114636   0.513   0.096   6.566 -0.3394  1.5851 -0.2544
 1001SOL    HW214637   0.625   0.176   6.511  0.9469 -0.5341 -0.5989
 1002SOL     OW14638   1.101   4.673   8.451  0.1719 -0.3933 -0.4797
 1002SOL    HW114639   1.165   4.694   8.518 -0.9056 -0.3264  0.5356
 1002SOL    HW214640   1.043   4.619   8.505 -1.2300 -2.0280 -3.5781
 1003SOL     OW14641   2.662   0.830   2.100 -0.3758  0.0442 -0.3761
 1003SOL    HW114642   2.636   0.922   2.103  0.8501  0.3636  0.5301
 1003SOL    HW214643   2.576   0.788   2.108  1.2835 -3.1613  0.3782
 1004SOL     OW14644   3.633   0.968   5.862  0.4451 -0.6552  0.0825
 1004SOL    HW114645   3.715   1.009   5.888  0.1959  0.4377 -0.8448
 1004SOL    HW214646   3.658   0.892   5.810  0.4790  0.7405 -1.9342
 1005SOL     OW14647   4.031   0.592   5.139 -0.0364  0.4200  0.1622
 1005SOL    HW114648   3.991   0.677   5.157  0.6340  1.3552 -2.8207
 1005SOL    HW214649   3.961   0.530   5.122  0.0067  0.6847 -0.9427
 1006SOL     OW14650   2.873   3.607   9.300  0.2393 -0.0060  0.0312
 1006SOL    HW114651   2.780   3.626   9.290  0.1560  0.0215  0.8444
 1006SOL    HW214652   2.872   3.512   9.306 -0.9901  0.0726  1.1973
 1007SOL     OW14653   2.752   2.404  12.830 -0.0504  0.2955  0.1992
 1007SOL    HW114654   2.685   2.415  12.763 -0.3006  2.3487  0.7859
 1007SOL    HW214655   2.699   2.402  12.910 -0.6366  0.9510 -0.1753
 1008SOL     OW14656   3.187   0.263  15.463  0.3659  0.0842  0.3523
 1008SOL    HW114657   3.219   0.336  15.515  1.2710  0.9633 -1.4285
 1008SOL    HW214658   3.110   0.251  15.518  0.2735  0.7049  0.3565
 1009SOL     OW14659   1.698   1.164   4.725 -0.2094  0.0583  0.1722
 1009SOL    HW114660   1.747   1.184   4.804 -0.3266  1.4108 -0.0849
 1009SOL    HW214661   1.766   1.132   4.665 -1.5622  2.7788 -2.8717
 1010SOL     OW14662   1.050   4.652   6.499  0.4668  0.2550 -0.0452
 1010SOL    HW114663   1.111   4.646   6.425 -1.1942  2.0890 -1.5499
 1010SOL    HW214664   1.100   4.710   6.556  0.5951 -1.7389  1.8543
 1011SOL     OW14665   0.782   3.969   2.071  0.0813 -0.4929  0.2388
 1011SOL    HW114666   0.705   3.923   2.039 -2.1630  1.9604  2.1607
 1011SOL    HW214667   0.801   3.929   2.155 -3.9438 -3.0012 -0.0581
 1012SOL     OW14668   0.193   1.120  17.551 -0.4630  0.0049  0.6649
 1012SOL    HW114669   0.221   1.194  17.604 -0.9711  1.4659 -1.0724
 1012SOL    HW214670   0.247   1.126  17.472  0.9581  0.5089  1.6926
 1013SOL     OW14671   2.676   1.291   9.485 -0.3617 -0.7862 -0.3696
 1013SOL    HW114672   2.646   1.362   9.543  0.1485 -1.4660  0.7369
 1013SOL    HW214673   2.745   1.248   9.536  2.0498  2.6281 -0.6907
 1014SOL     OW14674   0.547   2.118  15.447 -0.3975  0.1775  0.6663
 1014SOL    HW114675   0.612   2.050  15.468 -3.2045 -2.3119  1.1925
 1014SOL    HW214676   0.542   2.169  15.528  1.0922  1.4090 -0.0028
 1015SOL     OW14677   2.787   4.540   6.371  0.8616  0.1190  0.4850
 1015SOL    HW114678   2.762   4.527   6.462 -0.3019  0.3692  0.2006
 1015SOL    HW214679   2.760   4.629   6.347  0.9444  0.0427  0.1097
 1016SOL     OW14680   1.533   3.295   4.390  0.0811  0.7336  0.1601
 1016SOL    HW114681   1.505   3.381   4.359  1.0133  1.2749  0.8407
 1016SOL    HW214682   1.625   3.296   4.362 -0.6909  1.2274 -2.4263
 1017SOL     OW14683   3.839   0.406   2.244  0.1599  0.4200  0.3106
 1017SOL    HW114684   3.768   0.385   2.184  1.2248 -0.1153 -0.7738
 1017SOL    HW214685   3.823   0.373   2.332  2.6013 -0.7973  0.2862
 1018SOL     OW14686   0.772   0.102   4.100 -0.4463 -0.1585  0.3490
 1018SOL    HW114687   0.842   0.046   4.133 -0.5247 -1.8104 -2.2678
 1018SOL    HW214688   0.708   0.041   4.063  0.7180 -0.3113 -1.4383
 1019SOL     OW14689   2.472   1.126   6.802  0.9524 -0.3173 -0.2302
 1019SOL    HW114690   2.463   1.175   6.884  1.0079  0.1864 -0.5228
 1019SOL    HW214691   2.394   1.147   6.751  0.1981  0.5227  1.2600
 1020SOL     OW14692   4.012   2.742  13.319  0.6577  0.1522  0.2142
 1020SOL    HW114693   4.010   2.826  13.366  0.7085  0.5272 -0.4488
 1020SOL    HW214694   3.933   2.701  13.354  1.5137 -1.5249  0.1571
 1021SOL     OW14695   1.605   2.825   6.774 -0.0163  0.0617  0.0659
 1021SOL    HW114696   1.698   2.828   6.795  0.7599  0.8003 -3.4689
 1021SOL    HW214697   1.577   2.741   6.812  2.4559 -1.2592 -1.0623
 1022SOL     OW14698   4.630   2.670  13.099  0.1006 -0.3852 -0.1711
 1022SOL    HW114699   4.681   2.592  13.076 -0.2630 -1.3424  2.3125
 1022SOL    HW214700   4.698   2.734  13.120 -0.4609  0.1833 -0.0562
 1023SOL     OW14701   3.707   1.286   4.281 -0.2955 -0.5563 -0.2974
 1023SOL    HW114702   3.612   1.274   4.289 -0.4020 -0.2848 -1.1119
 1023SOL    HW214703   3.749   1.203   4.303  1.5779  0.8145  1.2353
 1024SOL     OW14704   3.709   0.102   1.355 -0.6138  0.0944 -0.0099
 1024SOL    HW114705   3.684   0.087   1.264  0.5793  1.1513 -0.5244
 1024SOL    HW214706   3.805   0.099   1.356 -0.6775 -1.8090 -0.4707
 1025SOL     OW14707   0.117   2.590  14.138  0.2030  0.4923  0.4511
 1025SOL    HW114708   0.104   2.670  14.087  1.3746  0.3434 -0.0781
 1025SOL    HW214709   0.038   2.545  14.109 -0.2431 -0.1522  2.6872
 1026SOL     OW14710   3.557   3.936  14.644 -0.3937  0.3387 -0.2225
 1026SOL    HW114711   3.516   3.994  14.708  3.4230  0.8373  1.7228
 1026SOL    HW214712   3.579   3.992  14.569 -0.9784  3.4589  1.9510
 1027SOL     OW14713   2.781   1.431   7.071  0.1211  0.3900  0.9050
 1027SOL    HW114714   2.849   1.494   7.047 -1.3390  0.2488 -3.5839
 1027SOL    HW214715   2.806   1.347   7.032  2.3312  2.1068 -1.3596
 1028SOL     OW14716   4.077   4.652   8.358 -0.7613 -0.5643  0.1415
 1028SOL    HW114717   4.170   4.636   8.376 -0.2658  0.6190 -1.3519
 1028SOL    HW214718   4.056   4.597   8.282  2.4690  0.6571 -1.6454
 1029SOL     OW14719   1.746   1.997   7.853 -0.2853  0.4738 -0.5483
 1029SOL    HW114720   1.744   1.931   7.784  1.7103  0.5912 -0.7153
 1029SOL    HW214721   1.745   2.080   7.806  0.6389  2.7656  3.4979
 1030SOL     OW14722   1.623   4.502  10.527 -0.1820 -0.4100 -0.6351
 1030SOL    HW114723   1.677   4.455  10.591  0.1067  0.2960 -0.3530
 1030SOL    HW214724   1.644   4.593  10.550 -0.0312 -0.4739 -0.5147
 1031SOL     OW14725   4.222   0.715   7.759 -0.5199  0.4160  0.0425
 1031SOL    HW114726   4.268   0.790   7.797 -0.8713  0.3453  0.6041
 1031SOL    HW214727   4.286   0.646   7.774 -0.4060  0.7258  1.0147
 1032SOL     OW14728   2.287   4.445   9.760  0.1886 -0.3777  0.3100
 1032SOL    HW114729   2.270   4.492   9.842 -1.1618 -0.0318 -0.1524
 1032SOL    HW214730   2.381   4.458   9.772  0.0010  0.5473  0.8329
 1033SOL     OW14731   3.460   2.695   8.620  0.2973  0.4234 -0.3186
 1033SOL    HW114732   3.399   2.640   8.570  0.4846 -0.0946  0.0243
 1033SOL    HW214733   3.506   2.632   8.676  0.7102  1.0274  0.0140
 1034SOL     OW14734   3.800   4.305   3.608 -0.3150 -0.3555  0.0479
 1034SOL    HW114735   3.887   4.319   3.646 -0.0260 -0.4947 -0.5657
 1034SOL    HW214736   3.827   4.302   3.516 -4.1779 -1.2319 -1.0454
 1035SOL     OW14737   1.891   0.882   7.669 -0.5343 -0.2795 -0.6948
 1035SOL    HW114738   1.831   0.832   7.724 -1.5748  1.2443 -0.4396
 1035SOL    HW214739   1.889   0.827   7.591  3.4146 -0.5523 -0.6245
 1036SOL     OW14740   4.049   4.233   7.447 -0.3326 -0.1488  0.0046
 1036SOL    HW114741   4.135   4.196   7.431 -0.2944  0.2724 -0.7702
 1036SOL    HW214742   4.041   4.296   7.376  0.1372 -1.0923 -0.8781
 1037SOL     OW14743   1.482   3.227  17.467 -0.0738 -0.0011 -0.1745
 1037SOL    HW114744   1.411   3.241  17.530 -1.0715  3.3385 -2.0563
 1037SOL    HW214745   1.508   3.315  17.443  0.4315  0.4784  2.0883
 1038SOL     OW14746   2.434   2.297   7.995 -0.6212  0.3128  0.1315
 1038SOL    HW114747   2.343   2.295   7.968 -0.8986 -0.0312  1.0785
 1038SOL    HW214748   2.430   2.335   8.083  0.0884  0.2283  0.2056
 1039SOL     OW14749   4.149   3.510   4.639  0.3762 -0.5379 -0.1180
 1039SOL    HW114750   4.107   3.464   4.567  2.1036 -2.6612  0.2514
 1039SOL    HW214751   4.238   3.514   4.603 -0.0999  2.3276 -1.0146
 1040SOL     OW14752   0.788   1.960   2.348 -0.2847  0.2397 -0.2271
 1040SOL    HW114753   0.704   1.953   2.304 -0.5709 -2.2538  0.6897
 1040SOL    HW214754   0.836   2.006   2.279 -1.5319 -0.4118 -1.5305
 1041SOL     OW14755   4.361   3.258   6.296 -0.2577  0.0714 -0.0664
 1041SOL    HW114756   4.448   3.270   6.258 -1.1257 -2.1053 -2.7303
 1041SOL    HW214757   4.360   3.169   6.332  2.1722  0.4820  1.0083
 1042SOL     OW14758   2.877   0.358   1.818  0.0195 -0.4349  0.0086
 1042SOL    HW114759   2.894   0.421   1.888  1.6799 -0.8907  0.0263
 1042SOL    HW214760   2.933   0.395   1.750 -0.4542  1.2777  0.5467
 1043SOL     OW14761   3.911   1.724  17.199 -0.0959 -0.1559 -0.3449
 1043SOL    HW114762   3.899   1.635  17.166 -2.7330  0.2560 -0.4851
 1043SOL    HW214763   3.820   1.753  17.195  0.3710  1.5100  1.2277
 1044SOL     OW14764   1.437   2.594   5.124  0.5338  0.1353  0.2575
 1044SOL    HW114765   1.463   2.537   5.196  2.0459 -0.3837 -0.7145
 1044SOL    HW214766   1.420   2.675   5.171 -2.9879 -0.2420 -0.3095
 1045SOL     OW14767   0.788   0.232   1.133  0.5771  0.0381  0.4820
 1045SOL    HW114768   0.784   0.325   1.111 -1.5026 -0.1090  0.2743
 1045SOL    HW214769   0.709   0.202   1.088 -0.6696  2.9949  0.7352
 1046SOL     OW14770   4.490   2.538   3.473  0.3733  0.4676 -0.0968
 1046SOL    HW114771   4.428   2.559   3.403  1.5976  2.5161 -0.5822
 1046SOL    HW214772   4.437   2.553   3.550  2.5110  1.7391  1.1417
 1047SOL     OW14773   0.594   3.197  11.872 -0.1591  0.5389 -0.2133
 1047SOL    HW114774   0.501   3.195  11.891 -0.5776  1.3155 -2.1919
 1047SOL    HW214775   0.600   3.257  11.798 -1.3720  1.2819  0.2979
 1048SOL     OW14776   3.729   4.102   3.241 -0.1857 -0.0778 -0.1845
 1048SOL    HW114777   3.668   4.028   3.228  0.5136 -0.0893 -3.4191
 1048SOL    HW214778   3.767   4.105   3.153  1.5238 -0.9355  0.5198
 1049SOL     OW14779   1.250   4.044  10.838  0.0522  0.8112 -0.0238
 1049SOL    HW114780   1.219   3.982  10.905 -1.7879  0.2202 -1.4227
 1049SOL    HW214781   1.250   3.995  10.757  0.5811 -1.0932  1.1310
 1050SOL     OW14782   3.271   2.083  11.813  0.0210 -0.3694 -0.1118
 1050SOL    HW114783   3.327   2.016  11.775 -0.2919  0.1159 -1.4043
 1050SOL    HW214784   3.183   2.071  11.776  0.1999  2.7864 -1.5283
 1051SOL     OW14785   1.841   3.324  13.649  0.2072 -0.1583 -0.2063
 1051SOL    HW114786   1.814   3.407  13.611  1.7359  2.1926  3.8450
 1051SOL    HW214787   1.785   3.317  13.726  1.7191 -1.9620  0.7358
 1052SOL     OW14788   0.240   3.093  12.370 -0.7855  0.1510 -0.0283
 1052SOL    HW114789   0.211   3.013  12.326  3.0435 -1.0280 -0.3446
 1052SOL    HW214790   0.300   3.127  12.304 -0.7006  1.8454  0.9251
 1053SOL     OW14791   1.919   4.308   6.747 -0.0362  0.2684 -0.3254
 1053SOL    HW114792   1.997   4.344   6.789 -0.8778 -0.0321  1.4822
 1053SOL    HW214793   1.887   4.272   6.830 -0.1787 -0.1940 -0.5766
 1054SOL     OW14794   0.066   4.445  17.250  0.3305  0.1398  0.2032
 1054SOL    HW114795   0.086   4.518  17.309 -1.9711  0.9535 -0.0392
 1054SOL    HW214796   4.709   4.450  17.269 -0.1265 -1.0435 -1.7085
 1055SOL     OW14797   3.967   4.264   9.307 -0.4779  0.2305  0.3434
 1055SOL    HW114798   3.883   4.231   9.339 -0.8763  0.6809 -0.2386
 1055SOL    HW214799   3.979   4.321   9.383 -0.7233  1.4927 -0.5758
 1056SOL     OW14800   3.869   1.405  10.476  0.5775  0.1220 -0.4524
 1056SOL    HW114801   3.960   1.407  10.447  0.3204 -1.3564 -1.3536
 1056SOL    HW214802   3.816   1.435  10.403 -0.9225 -0.8719  0.2281
 1057SOL     OW14803   2.996   1.892   6.394  0.1078 -0.4385  0.0342
 1057SOL    HW114804   3.018   1.882   6.301  2.2646 -0.9805  0.5958
 1057SOL    HW214805   2.927   1.957   6.385  0.7809 -0.0443 -2.2567
 1058SOL     OW14806   3.076   1.818   2.447 -0.2765 -0.4286  0.0553
 1058SOL    HW114807   3.012   1.875   2.489 -1.2429 -0.6047 -1.1714
 1058SOL    HW214808   3.064   1.735   2.492  0.1482 -1.4031 -1.6317
 1059SOL     OW14809   4.606   0.907   7.289  0.0604 -0.3585 -0.3870
 1059SOL    HW114810   4.624   1.001   7.286 -0.2023 -0.3339 -1.0587
 1059SOL    HW214811   4.544   0.898   7.361  1.8153  1.2796  1.3455
 1060SOL     OW14812   0.331   4.615   3.630  0.5072  0.6119  0.0243
 1060SOL    HW114813   0.380   4.651   3.556  0.1480 -0.5830 -0.7925
 1060SOL    HW214814   0.352   4.679   3.698  1.0450 -1.4812  1.8666
 1061SOL     OW14815   1.557   4.486  16.297  0.0986  0.2673 -0.7101
 1061SOL    HW114816   1.500   4.461  16.370  1.1426  1.4500  0.5228
 1061SOL    HW214817   1.522   4.574  16.279 -0.4637 -0.3950 -2.8937
 1062SOL     OW14818   1.521   1.779  12.748  0.6967 -0.2368  0.1680
 1062SOL    HW114819   1.519   1.718  12.674  1.3442 -1.5613  1.2630
 1062SOL    HW214820   1.608   1.761  12.785 -0.0845 -1.1390  1.5292
 1063SOL     OW14821   1.461   2.282   3.635  0.3545  0.0361 -0.4876
 1063SOL    HW114822   1.419   2.229   3.568  1.2198 -0.2871 -0.7775
 1063SOL    HW214823   1.404   2.265   3.711 -1.9717 -1.1075 -2.4853
 1064SOL     OW14824   1.439   4.417   2.998 -0.1064 -1.0760 -0.1922
 1064SOL    HW114825   1.440   4.370   3.082  0.4935 -1.8232 -0.6145
 1064SOL    HW214826   1.481   4.499   3.025 -2.3665  1.2056 -3.6412
 1065SOL     OW14827   1.547   1.853  15.731 -0.1665  0.2073  0.4451
 1065SOL    HW114828   1.590   1.770  15.712 -0.0153  0.3594  0.1313
 1065SOL    HW214829   1.616   1.887  15.788  1.1513 -2.4940  0.4712
 1066SOL     OW14830   0.002   0.016  11.586  0.4914  0.6082 -0.6237
 1066SOL    HW114831   0.045   0.095  11.619  1.7367  0.3868 -1.7065
 1066SOL    HW214832   4.657   0.063  11.569 -0.4386 -1.4666 -1.8652
 1067SOL     OW14833   4.133   0.980   5.961 -0.6844 -0.0817 -0.2884
 1067SOL    HW114834   4.219   0.940   5.976  0.4661  1.9590 -1.4224
 1067SOL    HW214835   4.156   1.073   5.968 -0.0872 -0.1737 -0.9911
 1068SOL     OW14836   0.068   2.106   8.781 -0.3243 -0.1304 -0.0595
 1068SOL    HW114837   0.156   2.121   8.746 -1.4893 -1.1929 -3.4793
 1068SOL    HW214838   0.044   2.188   8.826  0.6579 -0.2887  0.7454
 1069SOL     OW14839   3.995   0.466   4.342  0.5150 -0.6845 -0.0236
 1069SOL    HW114840   4.013   0.544   4.289  0.0990 -0.3094  0.3837
 1069SOL    HW214841   3.900   0.461   4.333  0.4368  0.2382  0.2209
 1070SOL     OW14842   2.237   4.179   2.749  0.2336  0.5158  0.3211
 1070SOL    HW114843   2.216   4.238   2.821 -0.2712  0.9020 -0.1441
 1070SOL    HW214844   2.160   4.123   2.757  0.9344 -0.5170 -0.1596
 1071SOL     OW14845   0.681   0.580  17.625  0.0396  0.1143  0.5742
 1071SOL    HW114846   0.754   0.642  17.635  0.4803 -0.4330  0.7376
 1071SOL    HW214847   0.611   0.631  17.664 -1.1792 -2.1728  1.3821
 1072SOL     OW14848   4.444   3.761   8.408  0.4584 -0.7044 -0.2455
 1072SOL    HW114849   4.472   3.844   8.369  1.1287 -0.7765  0.0863
 1072SOL    HW214850   4.525   3.715   8.429  0.5363 -0.7521 -0.6504
 1073SOL     OW14851   0.827   3.288   1.138 -0.4593  0.2802  0.3314
 1073SOL    HW114852   0.921   3.277   1.154 -0.4938 -1.5851 -0.7807
 1073SOL    HW214853   0.795   3.278   1.228  2.0233 -2.1849  0.9793
 1074SOL     OW14854   4.532   4.556   5.229 -0.1871 -0.3580  0.0965
 1074SOL    HW114855   4.514   4.472   5.189 -2.8046  0.0050  0.4942
 1074SOL    HW214856   4.451   4.607   5.223 -0.0758 -0.4281 -1.7894
 1075SOL     OW14857   1.641   0.959   7.162  0.9231  0.6238  0.1637
 1075SOL    HW114858   1.569   0.957   7.098  1.3010  2.9172 -0.3135
 1075SOL    HW214859   1.705   0.893   7.137  0.1280 -0.0327 -0.1363
 1076SOL     OW14860   3.852   1.144   4.501  0.0709 -0.0517 -0.0877
 1076SOL    HW114861   3.776   1.104   4.543 -1.0532  0.7091 -1.3958
 1076SOL    HW214862   3.885   1.215   4.556  2.2763 -1.0906 -0.0807
 1077SOL     OW14863   3.353   4.694   9.072  0.4826  0.3972  0.3097
 1077SOL    HW114864   3.430   4.669   9.021  0.6700  1.3753  0.0999
 1077SOL    HW214865   3.306   0.007   9.005 -0.3482  1.6458  1.8379
 1078SOL     OW14866   3.261   3.275   9.037 -0.0104  0.7548  0.1105
 1078SOL    HW114867   3.268   3.360   8.994  2.9359  0.4757  0.0422
 1078SOL    HW214868   3.338   3.286   9.093 -0.2288 -0.9100  0.7340
 1079SOL     OW14869   3.998   0.371   8.197  0.3317 -0.1303 -0.1191
 1079SOL    HW114870   4.000   0.278   8.176  0.0621 -0.4173  1.1677
 1079SOL    HW214871   4.025   0.370   8.289 -0.5412  0.4958  0.1460
 1080SOL     OW14872   3.823   3.819  17.074  0.5918 -0.4957  0.4188
 1080SOL    HW114873   3.918   3.825  17.069  0.4970  0.0098 -0.8429
 1080SOL    HW214874   3.816   3.724  17.061 -2.3331 -0.3154  0.7274
 1081SOL     OW14875   0.865   2.027   3.800 -0.3412  0.2827 -0.6789
 1081SOL    HW114876   0.864   1.974   3.880  1.4648  1.3168  0.0328
 1081SOL    HW214877   0.852   1.963   3.730 -1.1203 -0.3089  0.0102
 1082SOL     OW14878   1.893   1.890   2.678 -0.2747  0.2058  0.6768
 1082SOL    HW114879   1.842   1.871   2.599  0.5478 -1.5202  0.5624
 1082SOL    HW214880   1.860   1.837   2.750 -3.0308  2.1275  0.8353
 1083SOL     OW14881   2.555   3.350   5.089 -0.3054  0.5648  0.0879
 1083SOL    HW114882   2.529   3.384   5.175 -1.5249 -0.3957  0.1008
 1083SOL    HW214883   2.509   3.408   5.028  0.0912  0.5244 -0.2445
 1084SOL     OW14884   1.543   1.222   2.867 -0.2180  0.1653 -0.0268
 1084SOL    HW114885   1.494   1.184   2.939 -0.2277  1.1323  0.4808
 1084SOL    HW214886   1.579   1.301   2.907 -0.0602  0.8011 -1.4093
 1085SOL     OW14887   3.355   4.633   4.829 -0.5068 -0.2810 -0.2603
 1085SOL    HW114888   3.329   4.549   4.866  1.4545  0.0059  1.7833
 1085SOL    HW214889   3.347   4.606   4.737 -0.8553 -1.6826  0.1827
 1086SOL     OW14890   3.076   3.967  14.928 -0.1076 -0.7867  0.0579
 1086SOL    HW114891   3.125   3.984  14.847  0.8868 -1.2705  0.5514
 1086SOL    HW214892   2.984   3.977  14.905 -0.3465  1.3540  2.0604
 1087SOL     OW14893   2.720   4.438   3.030 -0.6147  0.5483 -0.6759
 1087SOL    HW114894   2.779   4.363   3.022 -1.7518 -0.3937 -0.1930
 1087SOL    HW214895   2.773   4.494   3.086 -0.4638  0.2913 -0.5637
 1088SOL     OW14896   0.047   1.645   2.714  0.0125  0.3977 -0.0290
 1088SOL    HW114897   0.118   1.582   2.722 -0.0943  0.3818  0.8109
 1088SOL    HW214898   4.718   1.594   2.668  0.7850  0.7324 -1.5085
 1089SOL     OW14899   1.834   2.935  15.594  0.5008  0.2861 -0.1118
 1089SOL    HW114900   1.761   2.922  15.655  1.0920 -0.1760  0.4959
 1089SOL    HW214901   1.820   2.868  15.526 -0.6592  1.6555 -1.2126
 1090SOL     OW14902   4.289   3.679  10.245  0.0980  0.1086 -0.0969
 1090SOL    HW114903   4.364   3.619  10.237 -0.3506 -0.5119  0.3608
 1090SOL    HW214904   4.320   3.762  10.209 -0.1920  0.4290  0.3969
 1091SOL     OW14905   1.799   3.492   7.833  0.0644  0.3045 -0.4518
 1091SOL    HW114906   1.819   3.440   7.755 -2.5716 -0.7758 -0.4100
 1091SOL    HW214907   1.842   3.574   7.811 -0.8562  0.5597 -1.3143
 1092SOL     OW14908   3.557   4.662   8.889 -0.4169 -0.1990 -0.4503
 1092SOL    HW114909   3.499   4.704   8.825 -1.3794 -1.4300 -0.3739
 1092SOL    HW214910   3.644   4.704   8.891 -0.6003  0.0600  2.3880
 1093SOL     OW14911   0.754   0.491   7.794  0.2761 -0.3852 -0.2633
 1093SOL    HW114912   0.840   0.499   7.753  0.6935 -0.3260  0.6275
 1093SOL    HW214913   0.732   0.409   7.749 -0.7720  0.0274 -0.5095
 1094SOL     OW14914   2.289   2.200   0.744 -0.4476 -0.3034  0.1230
 1094SOL    HW114915   2.205   2.167   0.776 -0.4728 -0.1085  0.2585
 1094SOL    HW214916   2.281   2.295   0.753 -0.2883 -0.0192 -2.7593
 1095SOL     OW14917   3.808   1.209   7.821 -0.4529  0.0470 -0.0272
 1095SOL    HW114918   3.803   1.298   7.784  0.8871  0.4958  0.8531
 1095SOL    HW214919   3.745   1.158   7.771  1.2825 -0.1755 -2.0293
 1096SOL     OW14920   4.392   2.859   6.067  0.4200  0.1605 -0.1132
 1096SOL    HW114921   4.415   2.914   5.992 -0.9949 -0.9038 -1.3326
 1096SOL    HW214922   4.324   2.907   6.114 -1.4141 -1.5802 -0.9487
 1097SOL     OW14923   2.807   3.535   3.068 -0.0349 -0.2156 -0.3532
 1097SOL    HW114924   2.891   3.544   3.111 -1.1039 -1.6282  2.0306
 1097SOL    HW214925   2.760   3.607   3.109  1.4146  0.6095 -0.1879
 1098SOL     OW14926   3.004   2.251   5.536 -0.1292  0.1189 -0.3170
 1098SOL    HW114927   3.057   2.173   5.551  0.6337  0.0147 -3.5104
 1098SOL    HW214928   3.008   2.243   5.441  0.7095  3.7476 -0.5738
 1099SOL     OW14929   0.702   2.063   4.533 -0.1288 -0.4233  0.8994
 1099SOL    HW114930   0.686   1.996   4.466 -1.9114 -1.1610  2.0574
 1099SOL    HW214931   0.678   2.146   4.493  2.3468 -0.3913 -0.5216
 1100SOL     OW14932   1.953   1.195   4.626 -0.2623  0.5327 -0.3315
 1100SOL    HW114933   2.018   1.172   4.691 -1.7446 -0.8955  0.6455
 1100SOL    HW214934   1.990   1.267   4.575 -0.8546 -0.2253 -1.8558
 1101SOL     OW14935   1.467   4.358   1.460  0.4853  0.0308  0.0233
 1101SOL    HW114936   1.415   4.416   1.405  0.1057 -0.1406  0.2027
 1101SOL    HW214937   1.555   4.396   1.457  0.8424 -0.8164 -0.2730
 1102SOL     OW14938   3.784   0.365   3.503  0.0915 -0.6949 -0.0674
 1102SOL    HW114939   3.776   0.398   3.414 -0.6537 -0.2788  0.1475
 1102SOL    HW214940   3.840   0.289   3.491  0.9998  0.1201 -1.0115
 1103SOL     OW14941   1.865   4.447   4.894 -0.2411 -0.3051  0.8817
 1103SOL    HW114942   1.953   4.479   4.916 -0.5828  0.4888  1.0943
 1103SOL    HW214943   1.812   4.459   4.973 -2.2698  1.4914 -0.7458
 1104SOL     OW14944   1.201   3.151   4.365 -0.0942 -0.1942 -0.4803
 1104SOL    HW114945   1.110   3.124   4.354 -0.1692  0.0979 -0.5821
 1104SOL    HW214946   1.213   3.231   4.315 -0.1767  1.9107  2.8484
 1105SOL     OW14947   0.860   3.931   5.692  0.3541 -0.8304 -0.0560
 1105SOL    HW114948   0.932   3.949   5.632  0.3421  0.1779  0.2157
 1105SOL    HW214949   0.842   4.011   5.742 -1.9036 -1.0084 -0.6028
 1106SOL     OW14950   2.926   1.622   7.922 -0.1556 -0.3047 -0.3944
 1106SOL    HW114951   2.942   1.716   7.932  0.8656 -0.4947 -0.2787
 1106SOL    HW214952   2.992   1.591   7.984 -0.0614 -1.6571 -1.1737
 1107SOL     OW14953   0.391   1.414   1.842  0.3608  0.3452 -0.4715
 1107SOL    HW114954   0.459   1.447   1.902  0.9952 -0.3071 -0.8401
 1107SOL    HW214955   0.317   1.474   1.855 -0.7569 -1.1572  0.0913
 1108SOL     OW14956   0.148   4.571   2.741 -0.6332 -0.0038 -0.1420
 1108SOL    HW114957   0.154   4.588   2.647  0.8841 -0.2605 -0.0981
 1108SOL    HW214958   0.107   4.485   2.744  0.2527 -0.3901  1.1903
 1109SOL     OW14959   2.546   3.479   0.683  0.1183  0.0320  0.4229
 1109SOL    HW114960   2.637   3.500   0.661 -0.6966  1.0575 -2.0455
 1109SOL    HW214961   2.506   3.498   0.598 -1.0372  1.9266  1.4023
 1110SOL     OW14962   3.507   1.654   1.932  0.3224 -0.3619 -0.2298
 1110SOL    HW114963   3.411   1.647   1.928  0.2992 -1.3202  2.0825
 1110SOL    HW214964   3.538   1.567   1.907  0.3025 -0.3255 -0.3854
 1111SOL     OW14965   0.111   1.742   4.848 -0.6077 -0.3219 -0.2598
 1111SOL    HW114966   0.186   1.801   4.850 -3.2559  3.1333 -2.4272
 1111SOL    HW214967   0.053   1.780   4.913  0.9486  2.4519 -0.5207
 1112SOL     OW14968   4.321   1.826   3.755 -0.5395  0.3181 -0.2853
 1112SOL    HW114969   4.235   1.848   3.719  0.5216 -1.2828 -3.7422
 1112SOL    HW214970   4.332   1.733   3.732  4.6114  0.5333  1.4850
 1113SOL     OW14971   1.372   3.956  17.467  0.2201  0.5235  0.1347
 1113SOL    HW114972   1.452   3.933  17.514 -0.1782  1.4941  1.3111
 1113SOL    HW214973   1.376   4.052  17.458  1.0004  0.4710 -0.0362
 1114SOL     OW14974   4.175   2.388   2.901  0.3093 -0.1775 -0.1558
 1114SOL    HW114975   4.179   2.298   2.869  1.6931 -0.1866  0.0522
 1114SOL    HW214976   4.217   2.380   2.986  1.1908 -1.0890 -0.6793
 1115SOL     OW14977   3.399   4.183   2.421 -0.1952  0.1365 -0.5601
 1115SOL    HW114978   3.433   4.144   2.501  1.3042 -0.3560 -1.4384
 1115SOL    HW214979   3.315   4.138   2.410 -0.0064 -0.7465  1.6119
 1116SOL     OW14980   2.166   4.054   7.524  0.1688  0.0533 -0.1433
 1116SOL    HW114981   2.126   4.104   7.454 -0.6421  0.4524  0.6003
 1116SOL    HW214982   2.256   4.076   7.499  0.8537 -0.7628  1.5490
 1117SOL     OW14983   2.917   1.186   2.530  0.4143 -0.1811  0.4031
 1117SOL    HW114984   2.909   1.278   2.556 -0.1206  0.1328 -0.8457
 1117SOL    HW214985   2.992   1.190   2.471  1.4592  1.2108  1.8460
 1118SOL     OW14986   1.172   1.292   9.181  0.3389  0.4900  0.5880
 1118SOL    HW114987   1.133   1.241   9.252 -0.0570  2.2857  1.6548
 1118SOL    HW214988   1.166   1.228   9.110  2.9023 -0.3256  1.1024
 1119SOL     OW14989   1.984   3.005   2.404 -0.4967 -0.3264  0.6549
 1119SOL    HW114990   2.071   2.996   2.444  0.5332 -1.1502 -1.7194
 1119SOL    HW214991   1.961   3.093   2.431  1.1549  0.3450 -0.1206
 1120SOL     OW14992   4.304   0.194   2.186  0.0258 -0.0816  0.7100
 1120SOL    HW114993   4.229   0.155   2.141  1.9410 -0.9266 -1.7282
 1120SOL    HW214994   4.361   0.225   2.116  0.4998 -0.5265  0.8880
 1121SOL     OW14995   2.007   4.124  10.125  0.3608 -0.6539  0.2234
 1121SOL    HW114996   1.990   4.050  10.183  1.2621 -1.5461 -0.6538
 1121SOL    HW214997   2.039   4.078  10.048  0.7572  0.6733 -0.4092
 1122SOL     OW14998   4.274   2.817  11.253  0.0859  0.2231 -0.1007
 1122SOL    HW114999   4.323   2.750  11.301 -1.9276 -1.5338 -0.5021
 1122SOL    HW215000   4.250   2.875  11.325 -0.1714 -0.1272  0.0931
 1123SOL     OW15001   3.995   0.551   2.901 -0.1000 -0.3851  0.3027
 1123SOL    HW115002   3.970   0.479   2.958  1.7621 -0.6291  0.8273
 1123SOL    HW215003   3.910   0.585   2.873  1.3522 -0.2276 -3.9682
 1124SOL     OW15004   1.307   4.233   2.000 -0.0215  0.3818 -0.6220
 1124SOL    HW115005   1.288   4.148   1.960 -0.1623  0.1774 -0.1135
 1124SOL    HW215006   1.240   4.237   2.068 -0.0033 -0.1694 -0.5673
 1125SOL     OW15007   1.139   1.398  15.353 -0.1897 -0.1178 -0.6119
 1125SOL    HW115008   1.174   1.371  15.268 -0.9504 -0.0038 -0.9631
 1125SOL    HW215009   1.207   1.459  15.379  0.6146 -1.3296  0.0902
 1126SOL     OW15010   0.985   2.620   7.504 -0.0609 -0.7402  0.6241
 1126SOL    HW115011   0.969   2.526   7.495  0.2664 -0.6255 -1.2370
 1126SOL    HW215012   1.006   2.631   7.597 -0.0257 -0.4698  0.5848
 1127SOL     OW15013   3.671   1.439   8.443 -0.1607  0.4008 -0.8644
 1127SOL    HW115014   3.707   1.528   8.448 -1.4966  0.6997  3.0253
 1127SOL    HW215015   3.729   1.394   8.505  0.3328  3.5705  0.9722
 1128SOL     OW15016   4.044   1.597   7.770 -0.6755 -0.4093  0.9466
 1128SOL    HW115017   3.971   1.584   7.709 -0.8383  1.6958  0.6859
 1128SOL    HW215018   4.015   1.676   7.816 -0.4988  1.0505 -1.4584
 1129SOL     OW15019   2.316   4.700   5.832  0.1471 -0.1888 -0.4025
 1129SOL    HW115020   2.386   4.635   5.827  0.9718  0.6187  0.5483
 1129SOL    HW215021   2.342   4.732   5.919  0.3821  0.6209 -0.7739
 1130SOL     OW15022   4.216   1.466   4.630 -0.1667  0.2054  0.4404
 1130SOL    HW115023   4.196   1.530   4.698  0.4922 -0.2771  1.0893
 1130SOL    HW215024   4.311   1.462   4.629 -0.1734  0.1384 -0.2067
 1131SOL     OW15025   0.389   3.657   3.141  0.6523  0.2311 -0.7199
 1131SOL    HW115026   0.357   3.747   3.135  3.2859  1.1142 -1.6212
 1131SOL    HW215027   0.339   3.617   3.070 -2.5922  2.6744  0.1998
 1132SOL     OW15028   0.095   1.990   8.072 -0.3468  0.4569  0.4074
 1132SOL    HW115029   0.081   2.084   8.081 -1.0848  0.1908  2.0119
 1132SOL    HW215030   0.006   1.971   8.041 -0.0528 -1.7864  0.8849
 1133SOL     OW15031   4.029   2.136   4.674  0.5045  0.0239 -0.5009
 1133SOL    HW115032   4.110   2.090   4.652  0.9006  0.7208 -0.4936
 1133SOL    HW215033   4.058   2.170   4.759 -1.5345 -0.6210  0.4605
 1134SOL     OW15034   0.615   3.662  11.554 -0.0494 -0.1812  0.3018
 1134SOL    HW115035   0.533   3.708  11.572 -1.5080 -1.8942 -1.9916
 1134SOL    HW215036   0.611   3.593  11.621 -0.2621 -0.9740 -0.5351
 1135SOL     OW15037   2.923   1.427   2.883 -0.2550 -0.3041 -0.3560
 1135SOL    HW115038   2.851   1.412   2.823 -0.0971 -0.4074 -0.5184
 1135SOL    HW215039   3.000   1.423   2.826 -0.6589  3.1121 -1.1630
 1136SOL     OW15040   0.174   3.978   7.879  0.5051 -0.0477 -0.0611
 1136SOL    HW115041   0.091   4.020   7.900  1.3922  1.4882  0.4663
 1136SOL    HW215042   0.236   4.027   7.934  1.4745 -2.4706  0.9879
 1137SOL     OW15043   0.057   0.310   9.147  0.2283  0.8175  0.3990
 1137SOL    HW115044   0.137   0.263   9.172 -1.3554 -1.7860  0.5575
 1137SOL    HW215045   0.033   0.310   9.240  3.3724  1.0180  1.1931
 1138SOL     OW15046   3.107   2.333  16.935 -0.2976  0.2712 -0.5714
 1138SOL    HW115047   3.183   2.293  16.977 -0.3659  1.3439  0.6042
 1138SOL    HW215048   3.041   2.271  16.965  0.7704 -1.4224 -1.7125
 1139SOL     OW15049   2.988   2.248   4.679 -0.5793  0.8442  0.2723
 1139SOL    HW115050   2.985   2.338   4.647  1.7265  0.2419 -1.7063
 1139SOL    HW215051   3.022   2.261   4.767  0.4613 -0.7647  0.1185
 1140SOL     OW15052   0.791   4.219   5.003  0.2608 -0.1777 -0.2687
 1140SOL    HW115053   0.724   4.191   4.941 -0.0770 -1.5507  0.7090
 1140SOL    HW215054   0.857   4.156   4.974  0.8744 -0.0498  0.8545
 1141SOL     OW15055   1.982   0.919   8.094  0.0779  0.1143  0.7076
 1141SOL    HW115056   1.944   0.835   8.121  0.5166 -0.3665 -0.1694
 1141SOL    HW215057   2.054   0.934   8.155  2.4082 -0.7609 -1.8406
 1142SOL     OW15058   3.911   3.918   5.769 -0.0369 -0.1462  0.0242
 1142SOL    HW115059   3.990   3.964   5.797  0.0428 -1.2218  1.5596
 1142SOL    HW215060   3.872   3.881   5.848 -0.2056  3.1645  1.4851
 1143SOL     OW15061   1.806   4.339   9.293 -0.1622 -0.4128 -0.5868
 1143SOL    HW115062   1.869   4.284   9.339  0.8994  0.1667 -1.3487
 1143SOL    HW215063   1.733   4.283   9.267 -0.1371 -0.7714  0.1098
 1144SOL     OW15064   1.448   4.142   7.803 -0.1966 -0.1203 -0.5996
 1144SOL    HW115065   1.468   4.194   7.725 -3.3614  2.0447  0.0349
 1144SOL    HW215066   1.369   4.182   7.839 -0.4275  0.0763 -1.3300
 1145SOL     OW15067   2.119   0.467   4.397  0.3263  0.0768  0.2819
 1145SOL    HW115068   2.042   0.411   4.396 -1.3604  2.3862 -0.0833
 1145SOL    HW215069   2.089   0.545   4.443  0.3382  1.0022 -1.2742
 1146SOL     OW15070   3.487   2.351   5.556 -0.1485  0.1752  0.2145
 1146SOL    HW115071   3.427   2.296   5.505 -0.0329  0.8349 -0.6330
 1146SOL    HW215072   3.525   2.287   5.617  0.2338  1.0659  0.9006
 1147SOL     OW15073   0.180   4.553   4.324  0.0271  0.3924 -0.4687
 1147SOL    HW115074   0.189   4.518   4.235  0.2240 -1.3347  0.2302
 1147SOL    HW215075   0.217   4.482   4.376 -2.9327 -0.4700  0.4343
 1148SOL     OW15076   4.116   3.155   9.697 -0.6028 -0.4586 -0.4261
 1148SOL    HW115077   4.169   3.235   9.695 -1.8363  0.3681 -0.4094
 1148SOL    HW215078   4.040   3.195   9.740  0.6345 -0.1459  1.5078
 1149SOL     OW15079   4.338   0.876   9.428  0.1014 -0.3557 -0.2409
 1149SOL    HW115080   4.367   0.848   9.341  2.4418 -2.6762  1.3232
 1149SOL    HW215081   4.258   0.925   9.409  0.1068 -0.5099 -0.6738
 1150SOL     OW15082   2.700   0.858  15.879  0.5613  0.4106  0.2618
 1150SOL    HW115083   2.789   0.846  15.845  0.7078 -0.7310  1.0560
 1150SOL    HW215084   2.686   0.779  15.930 -1.5692 -0.2383 -1.3257
 1151SOL     OW15085   0.738   1.173  10.547  0.2719 -0.3693  0.9721
 1151SOL    HW115086   0.827   1.138  10.541  0.7725  0.7585  1.8575
 1151SOL    HW215087   0.730   1.174  10.642 -0.7094 -0.2291  0.8915
 1152SOL     OW15088   0.585   2.200   3.153  0.3536  0.5472  0.1098
 1152SOL    HW115089   0.565   2.206   3.247 -0.3758  1.2123 -0.0870
 1152SOL    HW215090   0.507   2.148   3.133  0.5508  0.2297  0.1630
 1153SOL     OW15091   1.666   3.846   9.256  0.4267 -0.6225 -0.0591
 1153SOL    HW115092   1.756   3.845   9.286  0.4192 -1.8064 -0.0715
 1153SOL    HW215093   1.686   3.870   9.165 -1.2731 -1.9875 -0.7889
 1154SOL     OW15094   3.630   4.469   9.162  0.6753  0.3582  0.4695
 1154SOL    HW115095   3.703   4.524   9.132  0.0111  0.6463 -0.6169
 1154SOL    HW215096   3.556   4.513   9.122 -0.6307 -0.2659  2.1927
 1155SOL     OW15097   3.779   1.665   7.289  0.8395 -0.6449 -0.1321
 1155SOL    HW115098   3.871   1.671   7.267  0.8394 -0.5167 -0.0967
 1155SOL    HW215099   3.738   1.709   7.215 -1.3485 -2.0549  0.2244
 1156SOL     OW15100   1.526   4.423   0.668 -0.1217  0.3851  0.3711
 1156SOL    HW115101   1.484   4.483   0.730 -1.8808 -0.7372  0.2527
 1156SOL    HW215102   1.537   4.483   0.594 -2.2714  1.8375  1.2485
 1157SOL     OW15103   4.220   0.408   2.364  0.0755  0.2389 -0.1523
 1157SOL    HW115104   4.241   0.351   2.290  1.4672 -1.5198  1.6025
 1157SOL    HW215105   4.204   0.489   2.316 -0.7710 -0.0790 -0.4111
 1158SOL     OW15106   0.817   2.679   8.067 -0.0092  0.1523 -0.2771
 1158SOL    HW115107   0.780   2.691   8.155 -0.4015 -0.1355 -0.4023
 1158SOL    HW215108   0.817   2.583   8.059 -1.9779  0.0898  0.4775
 1159SOL     OW15109   1.914   3.072   8.095 -0.2705  0.3165 -0.3326
 1159SOL    HW115110   1.948   3.025   8.171 -0.4052  0.1169 -0.3952
 1159SOL    HW215111   1.943   3.161   8.114  0.6096  0.1334 -0.8146
 1160SOL     OW15112   4.645   3.878  12.109  0.3424 -0.5085 -0.6199
 1160SOL    HW115113   4.566   3.875  12.163  0.1915 -0.3038 -0.8257
 1160SOL    HW215114   4.722   3.886  12.166  1.4327 -2.7872 -1.8044
 1161SOL     OW15115   4.293   0.559   5.379  0.1398 -0.1628  0.3700
 1161SOL    HW115116   4.205   0.531   5.354 -0.0595  0.8215 -0.0195
 1161SOL    HW215117   4.270   0.596   5.465  2.0902  0.8406  0.4447
 1162SOL     OW15118   3.978   0.485   1.770  0.0405 -0.4983  0.2199
 1162SOL    HW115119   3.943   0.430   1.700 -1.0038  0.1315  0.2367
 1162SOL    HW215120   3.948   0.572   1.744  2.0378  0.3659  0.8691
 1163SOL     OW15121   0.723   0.971   1.514  0.2757  0.1428 -0.6252
 1163SOL    HW115122   0.808   0.974   1.470  0.9754 -0.4966  0.6805
 1163SOL    HW215123   0.722   0.878   1.536 -1.8651 -0.2639 -2.4637
 1164SOL     OW15124   2.903   2.760   5.457  0.3795  0.8909  0.4205
 1164SOL    HW115125   2.999   2.762   5.459  0.3874 -0.2708  1.1696
 1164SOL    HW215126   2.880   2.716   5.539 -0.6338  0.3178 -0.1767
 1165SOL     OW15127   0.197   1.828   3.681 -0.4447 -0.0714 -0.0096
 1165SOL    HW115128   0.244   1.819   3.764 -1.4555 -2.8713  0.2400
 1165SOL    HW215129   0.255   1.774   3.627 -2.6678  0.2444 -2.6513
 1166SOL     OW15130   1.082   2.301   3.515  0.2030 -0.2938 -0.0330
 1166SOL    HW115131   1.033   2.231   3.471  3.5399 -2.2741 -0.6297
 1166SOL    HW215132   1.176   2.290   3.496  0.0140  0.6512 -1.4866
 1167SOL     OW15133   0.500   0.949   8.348  0.7118  0.3234 -0.0360
 1167SOL    HW115134   0.512   0.875   8.287 -1.4334 -1.9830  2.3634
 1167SOL    HW215135   0.556   0.934   8.424  0.8504 -1.1912 -0.4307
 1168SOL     OW15136   0.630   0.196   7.467  0.0703  0.3592  0.0962
 1168SOL    HW115137   0.688   0.131   7.507 -0.0947 -1.2306 -2.2083
 1168SOL    HW215138   0.671   0.281   7.478 -3.3724  1.9533  0.5694
 1169SOL     OW15139   3.213   1.933  12.038 -0.4158 -0.2293 -0.0364
 1169SOL    HW115140   3.234   1.994  12.108  2.2022 -0.1360 -0.9210
 1169SOL    HW215141   3.238   1.988  11.964 -1.2257 -1.2691 -1.0966
 1170SOL     OW15142   2.547   0.043  16.827 -0.2372 -0.3631  0.3086
 1170SOL    HW115143   2.593   0.103  16.885  2.4179 -2.3603  0.2410
 1170SOL    HW215144   2.555   0.094  16.747  0.1307 -1.4474 -0.3374
 1171SOL     OW15145   1.203   2.399   2.378 -0.1424  0.0379  0.2638
 1171SOL    HW115146   1.271   2.399   2.311 -2.7323 -0.2611 -2.3906
 1171SOL    HW215147   1.188   2.306   2.390 -0.8063  0.1625  0.4061
 1172SOL     OW15148   4.376   3.846  17.001  0.1871  0.5064 -0.4144
 1172SOL    HW115149   4.423   3.928  17.014  2.5223 -1.3069  2.5630
 1172SOL    HW215150   4.392   3.796  17.081  0.2484  0.5713 -0.3864
 1173SOL     OW15151   3.998   0.425   6.376  0.0936  0.0090  0.6316
 1173SOL    HW115152   3.974   0.463   6.460 -0.1304  1.3785 -0.0537
 1173SOL    HW215153   4.069   0.365   6.397  0.3154 -0.1136 -0.4494
 1174SOL     OW15154   0.911   2.966  11.306  0.5152 -0.1797  0.3007
 1174SOL    HW115155   0.835   3.024  11.304  0.0584 -0.8012 -0.4173
 1174SOL    HW215156   0.862   2.885  11.289  1.8260 -0.9366  0.1623
 1175SOL     OW15157   2.893   1.007   5.066 -0.0454  0.2693  0.6626
 1175SOL    HW115158   2.843   1.063   5.125  1.7352  2.6260 -0.0729
 1175SOL    HW215159   2.853   1.046   4.989  1.7402 -0.6336 -0.7470
 1176SOL     OW15160   1.557   3.720   5.707  0.3285  0.5407 -0.4215
 1176SOL    HW115161   1.539   3.798   5.760  2.4895  1.5061 -1.1142
 1176SOL    HW215162   1.641   3.745   5.670  0.8800  0.6585  0.8921
 1177SOL     OW15163   2.261   2.554   1.539 -0.5606 -0.1947 -0.3214
 1177SOL    HW115164   2.276   2.643   1.569  0.2480  0.6336 -3.1988
 1177SOL    HW215165   2.241   2.503   1.618  1.7239 -0.2614  0.2244
 1178SOL     OW15166   2.768   3.580   8.676  0.3707 -0.2050 -1.1501
 1178SOL    HW115167   2.818   3.502   8.699 -0.9916 -0.7364  0.0218
 1178SOL    HW215168   2.707   3.549   8.609 -1.7183 -2.1844  1.7088
 1179SOL     OW15169   4.145   2.438   5.590  0.3191 -0.0055  0.2513
 1179SOL    HW115170   4.053   2.447   5.565  0.9927 -1.8196 -2.8158
 1179SOL    HW215171   4.172   2.529   5.605  0.8922 -0.0714 -0.4089
 1180SOL     OW15172   1.043   0.331   5.651 -0.6329 -0.0908  0.0582
 1180SOL    HW115173   1.106   0.390   5.609  0.3855 -2.0843 -1.1686
 1180SOL    HW215174   1.000   0.383   5.719 -1.2536 -0.0131 -0.3891
 1181SOL     OW15175   2.266   4.135   2.453  0.2055  0.4763 -0.1458
 1181SOL    HW115176   2.265   4.153   2.546 -1.0418 -0.4683  0.0250
 1181SOL    HW215177   2.285   4.224   2.423  1.6820  0.2524  0.1549
 1182SOL     OW15178   1.957   1.567   0.880 -0.5468 -0.0399  0.1616
 1182SOL    HW115179   1.889   1.533   0.821  1.4201 -0.9729 -1.5603
 1182SOL    HW215180   2.003   1.628   0.822 -2.7082  0.6275 -0.8569
 1183SOL     OW15181   3.602   4.722   3.931  0.3115  0.0288  0.5331
 1183SOL    HW115182   3.591   4.702   4.024 -2.1010 -1.9381 -0.1563
 1183SOL    HW215183   3.599   4.640   3.881  1.0010 -1.1864  2.4559
 1184SOL     OW15184   1.369   4.251   2.487  0.3303 -0.0947 -0.1506
 1184SOL    HW115185   1.339   4.257   2.577  0.3713 -1.7166 -0.0243
 1184SOL    HW215186   1.408   4.339   2.482  0.6765 -0.1263  2.1718
 1185SOL     OW15187   2.932   0.739   7.731 -0.2384  0.0806  0.1450
 1185SOL    HW115188   3.012   0.729   7.680 -0.7765  3.1409 -1.2413
 1185SOL    HW215189   2.921   0.832   7.751  1.9632  0.5382 -0.8067
 1186SOL     OW15190   0.224   2.690   8.481 -0.4824  0.2711 -0.2505
 1186SOL    HW115191   0.161   2.736   8.536 -1.1890 -0.2374 -0.6298
 1186SOL    HW215192   0.171   2.646   8.415  0.5346 -1.5554  0.1252
 1187SOL     OW15193   1.364   4.391  15.913 -0.0686  0.4927 -0.1380
 1187SOL    HW115194   1.458   4.376  15.921  0.0211  1.0474 -0.2030
 1187SOL    HW215195   1.346   4.458  15.979 -1.8024 -1.6367  1.5626
 1188SOL     OW15196   4.141   2.820   3.121 -0.2361  0.1731 -0.5517
 1188SOL    HW115197   4.138   2.911   3.150  0.6278  0.8125 -2.4926
 1188SOL    HW215198   4.050   2.810   3.091  0.7003  0.7997 -3.6121
 1189SOL     OW15199   1.963   1.530  16.297 -0.2758 -0.2245  0.0900
 1189SOL    HW115200   2.008   1.446  16.307 -2.5278 -1.4237  0.2617
 1189SOL    HW215201   1.994   1.568  16.215 -1.2573 -0.5184 -0.4173
 1190SOL     OW15202   0.289   0.149   3.260 -0.1986 -0.1136  0.2416
 1190SOL    HW115203   0.245   0.232   3.280 -0.0057  0.0577 -0.0459
 1190SOL    HW215204   0.299   0.158   3.165 -2.8052  0.1595 -0.0175
 1191SOL     OW15205   4.340   2.036   5.346 -0.2596 -0.5477  0.6049
 1191SOL    HW115206   4.319   2.112   5.400 -1.9948  0.3841 -1.3696
 1191SOL    HW215207   4.405   2.080   5.292  0.6036 -1.6766  0.7345
 1192SOL     OW15208   4.302   0.342   7.886 -0.3990 -0.5586 -0.2593
 1192SOL    HW115209   4.367   0.385   7.941 -0.5593 -1.3383  0.5423
 1192SOL    HW215210   4.229   0.400   7.909  0.6068 -0.0171  1.5222
 1193SOL     OW15211   3.571   3.209  16.966 -0.3460 -0.3993  0.0638
 1193SOL    HW115212   3.542   3.300  16.975  1.6374  0.3253 -0.7758
 1193SOL    HW215213   3.666   3.203  16.982 -0.6593 -2.2835  1.1706
 1194SOL     OW15214   1.531   3.077   6.722  0.0660 -0.1387 -0.5211
 1194SOL    HW115215   1.561   2.987   6.727 -0.3424 -0.0119  4.4306
 1194SOL    HW215216   1.485   3.072   6.806  0.8352 -2.0318 -0.2170
 1195SOL     OW15217   0.104   4.136   5.055 -0.3125 -0.4596  0.1947
 1195SOL    HW115218   0.030   4.147   4.996 -0.7117 -0.3488  0.7201
 1195SOL    HW215219   0.074   4.061   5.106 -1.1664 -1.6109 -2.0100
 1196SOL     OW15220   4.634   0.521   0.678  0.7389  0.4612  0.8724
 1196SOL    HW115221   4.628   0.440   0.730  1.4136  0.7555  1.4103
 1196SOL    HW215222   4.588   0.586   0.731 -0.1698  2.1992 -2.0925
 1197SOL     OW15223   0.710   1.666   1.159 -0.0827  0.1582  0.3994
 1197SOL    HW115224   0.667   1.609   1.095  1.3950 -0.0641 -0.3816
 1197SOL    HW215225   0.650   1.660   1.233 -0.2923 -0.4255  0.1795
 1198SOL     OW15226   0.393   0.796   9.962 -0.1208 -0.2217 -0.9590
 1198SOL    HW115227   0.487   0.803   9.948 -0.1887 -0.3511 -1.4813
 1198SOL    HW215228   0.390   0.801  10.058  1.5791 -0.8530 -0.8849
 1199SOL     OW15229   2.959   1.303   6.437 -0.5923  0.1112 -0.9733
 1199SOL    HW115230   2.888   1.240   6.448  0.5167 -1.2417 -1.6454
 1199SOL    HW215231   2.917   1.371   6.385 -0.0486  2.1791  1.2701
 1200SOL     OW15232   4.302   0.690   7.082  0.1907  0.2100 -0.6406
 1200SOL    HW115233   4.236   0.676   7.150  1.4562 -0.6293  0.4364
 1200SOL    HW215234   4.340   0.603   7.072  2.1538  0.6887  2.6714
 1201SOL     OW15235   2.780   4.521   5.405  0.2591  0.4863  0.6265
 1201SOL    HW115236   2.757   4.461   5.476 -0.3372 -0.1558 -0.1074
 1201SOL    HW215237   2.822   4.460   5.345 -0.4841  0.4934  0.0889
 1202SOL     OW15238   0.237   0.264   5.057 -0.0995 -0.6742 -0.2053
 1202SOL    HW115239   0.261   0.246   5.148  0.0409  0.3204 -0.0526
 1202SOL    HW215240   0.320   0.242   5.014 -0.4490  0.8125 -1.6200
 1203SOL     OW15241   2.133   1.773   5.976 -0.4575  0.2047 -0.3725
 1203SOL    HW115242   2.107   1.682   5.994 -1.8285  0.4576 -1.0376
 1203SOL    HW215243   2.056   1.807   5.930 -1.5114 -0.4913  0.8671
 1204SOL     OW15244   2.827   1.283   6.793 -0.2140  0.0015 -0.0701
 1204SOL    HW115245   2.862   1.368   6.766  0.4741  0.1073  1.1531
 1204SOL    HW215246   2.843   1.235   6.711 -0.0664  0.2394 -0.1809
 1205SOL     OW15247   4.630   1.065  10.594 -0.1133 -0.2414  0.1544
 1205SOL    HW115248   4.677   1.119  10.657  0.9482 -0.3483 -0.5584
 1205SOL    HW215249   4.688   1.083  10.520 -0.0471  1.0959  0.5346
 1206SOL     OW15250   0.601   1.357   4.990  0.4436 -0.0479 -0.1508
 1206SOL    HW115251   0.580   1.266   4.969 -0.2682  0.1783 -0.4372
 1206SOL    HW215252   0.525   1.378   5.045 -0.4925  0.5658 -1.6728
 1207SOL     OW15253   2.027   3.907   7.263 -0.5307 -0.7154  0.4144
 1207SOL    HW115254   2.106   3.864   7.230  0.2619  1.4316 -0.5027
 1207SOL    HW215255   2.070   3.987   7.291  0.6349 -0.8813 -0.8452
 1208SOL     OW15256   1.857   2.853   1.258  0.8909 -0.1882 -0.6000
 1208SOL    HW115257   1.893   2.829   1.172 -0.3608 -0.7109 -0.9774
 1208SOL    HW215258   1.859   2.763   1.290 -1.8687  0.5437  1.6172
 1209SOL     OW15259   0.086   1.733  17.159 -0.4577  0.0346  0.3880
 1209SOL    HW115260   0.098   1.743  17.064 -0.7778  0.8093  0.4349
 1209SOL    HW215261   0.077   1.638  17.162 -1.7223  0.2236  2.3046
 1210SOL     OW15262   3.648   2.019   3.987  0.2417 -0.0450  0.1478
 1210SOL    HW115263   3.620   2.005   4.077 -0.2956  0.0643  0.0029
 1210SOL    HW215264   3.742   2.028   4.003  0.4582 -0.6680 -0.7793
 1211SOL     OW15265   0.976   2.334   4.205 -0.1099 -0.3164 -0.5853
 1211SOL    HW115266   1.066   2.347   4.232  0.1008 -1.5666 -0.6895
 1211SOL    HW215267   0.954   2.410   4.151 -1.3571  0.1817  0.6176
 1212SOL     OW15268   4.256   2.442   8.402  0.0470 -0.1185  0.1422
 1212SOL    HW115269   4.181   2.492   8.369  0.0952  0.6305  1.1679
 1212SOL    HW215270   4.232   2.350   8.414  2.7596 -0.8605 -0.1962
 1213SOL     OW15271   0.264   1.570   3.168  0.0640 -0.0423  0.1674
 1213SOL    HW115272   0.277   1.565   3.262  1.2519  2.9391  0.1488
 1213SOL    HW215273   0.244   1.481   3.137 -1.6226  0.5731 -0.5588
 1214SOL     OW15274   1.697   2.646  13.994 -0.3424  0.1358  0.3719
 1214SOL    HW115275   1.643   2.579  13.953  0.3780 -0.1225 -0.1651
 1214SOL    HW215276   1.687   2.726  13.943 -1.0442  0.6487  1.2997
 1215SOL     OW15277   2.273   1.628   1.121 -0.4753 -0.5525 -0.1275
 1215SOL    HW115278   2.270   1.640   1.216 -0.3538  0.3719 -0.2411
 1215SOL    HW215279   2.274   1.720   1.098 -0.2497  0.1597  2.6910
 1216SOL     OW15280   3.075   2.807  13.416 -0.2632  0.4271  0.1654
 1216SOL    HW115281   3.076   2.768  13.504 -0.2075 -1.0927 -0.5005
 1216SOL    HW215282   3.159   2.778  13.382  0.1368  2.2924 -0.4291
 1217SOL     OW15283   3.956   2.529   2.792  0.1812  0.3682 -0.3797
 1217SOL    HW115284   3.997   2.485   2.867 -0.4219  0.0121 -0.2614
 1217SOL    HW215285   3.952   2.451   2.736 -1.2319  0.1367  0.0504
 1218SOL     OW15286   4.401   4.151   2.111 -0.2889 -0.3294 -0.2014
 1218SOL    HW115287   4.328   4.212   2.106 -0.0928  0.1619  2.8848
 1218SOL    HW215288   4.468   4.198   2.062 -0.8546  3.6275  2.8268
 1219SOL     OW15289   1.034   2.779  16.666 -0.9933  0.5581 -0.1217
 1219SOL    HW115290   1.126   2.777  16.690 -1.0379  2.0409  0.1645
 1219SOL    HW215291   0.999   2.858  16.708 -0.0372  1.1936 -0.5220
 1220SOL     OW15292   1.022   3.894   3.712 -0.2258 -0.1745  0.3153
 1220SOL    HW115293   1.005   3.979   3.673  1.1349  2.1713  4.9323
 1220SOL    HW215294   0.956   3.892   3.781  0.1828 -0.8792  0.6848
 1221SOL     OW15295   1.686   2.559  13.037 -0.6274 -0.1578 -0.1282
 1221SOL    HW115296   1.592   2.570  13.055 -0.2818 -0.1034  1.6093
 1221SOL    HW215297   1.681   2.497  12.964 -0.4597 -1.3175  0.8441
 1222SOL     OW15298   1.900   1.715   8.234  0.2411 -0.0700 -0.0183
 1222SOL    HW115299   1.836   1.645   8.243  0.5745 -0.3131  0.4530
 1222SOL    HW215300   1.892   1.748   8.144 -0.8427  2.0771  0.8460
 1223SOL     OW15301   2.282   3.058   5.820 -0.3901 -0.4742  0.0964
 1223SOL    HW115302   2.262   2.980   5.768  0.4229 -1.1149  0.7410
 1223SOL    HW215303   2.258   3.126   5.757  0.2592 -1.7267 -1.5402
 1224SOL     OW15304   1.750   0.404   3.620  0.1449 -0.5700 -0.4981
 1224SOL    HW115305   1.821   0.440   3.567 -0.1769 -0.3112 -0.7544
 1224SOL    HW215306   1.790   0.341   3.679 -1.3399 -0.8468  0.2147
 1225SOL     OW15307   1.716   3.535  14.986 -0.1243  0.4611  0.6642
 1225SOL    HW115308   1.650   3.545  14.917  0.1071  1.4783  0.5932
 1225SOL    HW215309   1.746   3.626  14.985 -0.5430  0.6010  1.3561
 1226SOL     OW15310   2.244   3.560   5.213  0.2180 -0.1016 -0.2588
 1226SOL    HW115311   2.234   3.655   5.210  1.9013  0.0138 -1.9625
 1226SOL    HW215312   2.325   3.548   5.262  0.7257  1.7073 -0.6484
 1227SOL     OW15313   0.479   0.415   1.291 -0.4704  0.2306  0.2020
 1227SOL    HW115314   0.573   0.426   1.301 -0.7240  1.6540  1.0196
 1227SOL    HW215315   0.448   0.424   1.381 -0.0424  0.0034  0.3672
 1228SOL     OW15316   3.436   3.939   5.506  0.2553  0.0403 -0.4272
 1228SOL    HW115317   3.487   3.876   5.454 -0.2555 -0.9411  0.2607
 1228SOL    HW215318   3.359   3.885   5.523  0.2539  0.2870  0.3700
 1229SOL     OW15319   1.914   3.195  16.900  0.0678  0.0972  0.8755
 1229SOL    HW115320   1.848   3.171  16.965 -2.3206 -4.2997 -3.2346
 1229SOL    HW215321   1.873   3.267  16.852  0.1433 -0.1078  0.5085
 1230SOL     OW15322   3.133   2.394  17.471  0.2003 -0.1369 -0.0476
 1230SOL    HW115323   3.219   2.363  17.442 -0.5648 -1.4087 -0.9503
 1230SOL    HW215324   3.135   2.487  17.446 -0.8778 -0.4307 -1.2638
 1231SOL     OW15325   0.031   0.099   8.281  0.8311 -0.0013 -0.0731
 1231SOL    HW115326   0.050   0.183   8.239  3.7999 -1.5839 -1.9502
 1231SOL    HW215327   0.005   0.055   8.200  0.2967  2.0265 -0.9847
 1232SOL     OW15328   4.056   0.524  17.470 -0.1760 -0.0362 -0.3561
 1232SOL    HW115329   4.012   0.472  17.537 -3.0366  0.9770 -1.4545
 1232SOL    HW215330   4.057   0.462  17.398  0.6386  0.4049 -0.7197
 1233SOL     OW15331   0.852   3.761  15.780  0.8035 -0.2720 -0.3207
 1233SOL    HW115332   0.882   3.679  15.740  1.8430  0.8214 -1.7650
 1233SOL    HW215333   0.931   3.813  15.769  1.1182 -1.5666 -4.2827
 1234SOL     OW15334   3.811   1.307   2.353  0.6713  0.2564 -0.7238
 1234SOL    HW115335   3.831   1.333   2.443  1.2982  0.0715 -0.8079
 1234SOL    HW215336   3.824   1.212   2.360 -1.6161  0.0070 -0.0202
 1235SOL     OW15337   1.533   3.004  13.470  0.4985 -0.3706 -0.6750
 1235SOL    HW115338   1.482   2.988  13.391 -0.1048 -2.8593  0.2098
 1235SOL    HW215339   1.461   2.987  13.531  0.3565 -2.5648 -1.4392
 1236SOL     OW15340   2.331   2.013   8.333 -0.8785  0.6468  0.0014
 1236SOL    HW115341   2.243   2.043   8.310 -1.8558 -1.1112  1.4501
 1236SOL    HW215342   2.371   1.996   8.248  1.2097  0.8987  0.9386
 1237SOL     OW15343   3.419   3.537  10.593  0.1605 -0.3461  0.6486
 1237SOL    HW115344   3.380   3.556  10.678  1.7842  0.9288  1.1183
 1237SOL    HW215345   3.347   3.515  10.534 -0.5937 -1.6092  2.0421
 1238SOL     OW15346   3.581   3.983   0.247 -0.1851 -0.4858  0.5245
 1238SOL    HW115347   3.574   3.999   0.341  0.9530  1.0741  0.3559
 1238SOL    HW215348   3.588   3.888   0.244 -3.6475 -0.7316  0.7976
 1239SOL     OW15349   2.383   4.593   2.290 -0.1701  0.0926 -0.2454
 1239SOL    HW115350   2.363   4.686   2.304 -1.7204 -0.3086  0.1915
 1239SOL    HW215351   2.477   4.595   2.276 -0.2428  0.9780 -0.6194
 1240SOL     OW15352   0.270   2.297   6.271  0.4311 -1.0108  0.2131
 1240SOL    HW115353   0.356   2.263   6.294  0.7751  1.8895  3.0883
 1240SOL    HW215354   0.240   2.329   6.356  1.1535 -0.0882  0.1182
 1241SOL     OW15355   2.527   1.300   8.072 -0.1640 -0.1520  0.1314
 1241SOL    HW115356   2.522   1.284   7.977 -1.1963  2.0798 -0.1887
 1241SOL    HW215357   2.588   1.373   8.064  0.7785 -1.2421 -2.9695
 1242SOL     OW15358   3.750   3.537  17.332 -0.2990  0.7788  0.1313
 1242SOL    HW115359   3.839   3.573  17.337 -1.5977  3.8526  0.7925
 1242SOL    HW215360   3.742   3.512  17.424  1.8513 -1.5683 -0.3044
 1243SOL     OW15361   3.730   3.328   3.674  0.0466 -0.3177  0.2371
 1243SOL    HW115362   3.703   3.378   3.751  2.5639  0.0719  0.8631
 1243SOL    HW215363   3.814   3.287   3.694  0.2608 -0.1538 -0.3219
 1244SOL     OW15364   2.740   1.657   7.419 -0.1591 -0.2100 -0.2883
 1244SOL    HW115365   2.712   1.566   7.431  0.6714 -0.1511  2.1065
 1244SOL    HW215366   2.726   1.665   7.325 -1.9076 -2.1942 -0.2027
 1245SOL     OW15367   0.470   3.236   3.888 -0.1923  0.3711  0.3501
 1245SOL    HW115368   0.426   3.154   3.864  0.0077 -0.3153  2.3025
 1245SOL    HW215369   0.542   3.196   3.938  0.0422  0.1663 -0.1569
 1246SOL     OW15370   0.654   0.634  10.259  0.0115 -0.0889 -0.1320
 1246SOL    HW115371   0.726   0.633  10.196 -0.6036  0.3127 -0.8460
 1246SOL    HW215372   0.701   0.624  10.341 -0.8509 -1.9210  0.1534
 1247SOL     OW15373   4.029   4.734   4.025 -0.3074  0.1066 -0.7641
 1247SOL    HW115374   4.093   0.024   4.090 -0.0338 -2.5527  0.0911
 1247SOL    HW215375   3.980   0.077   4.005  0.8486  1.2030  0.8327
 1248SOL     OW15376   0.666   3.112  11.336 -0.2378 -0.5184  0.9102
 1248SOL    HW115377   0.573   3.123  11.353 -0.3976 -1.4815  0.6674
 1248SOL    HW215378   0.661   3.187  11.276 -0.4837 -3.0216 -2.1903
 1249SOL     OW15379   1.060   1.587   4.542  0.2343 -0.2575 -0.1962
 1249SOL    HW115380   1.080   1.586   4.636 -0.2033 -0.9626 -0.1089
 1249SOL    HW215381   1.084   1.498   4.514  1.2585  1.2426 -3.9931
 1250SOL     OW15382   4.150   4.634   8.676  0.2831 -0.7546  0.0389
 1250SOL    HW115383   4.179   4.556   8.724  2.3264 -0.2101 -0.3335
 1250SOL    HW215384   4.063   4.607   8.646  0.0381  0.8160 -0.6539
 1251SOL     OW15385   2.030   3.007  15.792  0.3568 -0.2847 -0.2281
 1251SOL    HW115386   1.995   2.952  15.863 -1.5488  0.3928 -0.6301
 1251SOL    HW215387   1.958   3.003  15.729  1.8539  0.4058 -1.9707
 1252SOL     OW15388   0.268   0.927   4.890  0.5716 -0.4178 -0.4701
 1252SOL    HW115389   0.191   0.872   4.874 -2.8286  3.8448  1.1705
 1252SOL    HW215390   0.249   0.999   4.830 -2.2369 -0.4982  0.3213
 1253SOL     OW15391   4.266   0.659   2.981  0.5144  0.1079 -0.1412
 1253SOL    HW115392   4.191   0.646   2.923  0.2519  1.8615 -0.1838
 1253SOL    HW215393   4.239   0.595   3.048 -1.2592 -0.8183 -1.7453
 1254SOL     OW15394   3.221   0.794  10.282  0.3475  0.1448  0.2344
 1254SOL    HW115395   3.226   0.717  10.225  1.1538  1.6226 -1.6819
 1254SOL    HW215396   3.179   0.758  10.361  1.1606 -0.5592  0.3526
 1255SOL     OW15397   0.949   4.260   7.963 -0.2150 -0.3485 -0.3344
 1255SOL    HW115398   0.856   4.274   7.983  0.3471  3.7139 -0.6871
 1255SOL    HW215399   0.969   4.190   8.026 -2.1308 -0.8162 -0.2398
 1256SOL     OW15400   1.466   0.983   4.557 -0.2698  0.0545 -0.5892
 1256SOL    HW115401   1.514   1.055   4.596 -0.4651  0.9576 -2.0177
 1256SOL    HW215402   1.466   1.003   4.463  1.0648  0.1199 -0.5727
 1257SOL     OW15403   3.579   3.075   1.662  0.4479 -0.2352 -0.3712
 1257SOL    HW115404   3.512   3.007   1.658 -0.1286  0.2432  1.0300
 1257SOL    HW215405   3.616   3.064   1.574  0.8971  1.6101 -0.4147
 1258SOL     OW15406   2.198   3.394  14.618 -0.1946  0.2555 -0.1696
 1258SOL    HW115407   2.261   3.384  14.546 -0.3271 -2.0829  0.0396
 1258SOL    HW215408   2.139   3.321  14.597 -0.6870  0.9370 -1.1992
 1259SOL     OW15409   0.445   0.062   7.277 -0.0732  0.1638 -0.2391
 1259SOL    HW115410   0.443   0.102   7.363 -1.7331  1.8241 -1.0479
 1259SOL    HW215411   0.531   0.084   7.241  0.9550  0.2488  2.3051
 1260SOL     OW15412   1.523   3.389   0.967  0.3711  0.2141 -0.3762
 1260SOL    HW115413   1.560   3.447   1.033  2.8703 -0.3624 -1.2652
 1260SOL    HW215414   1.605   3.369   0.921  0.5159  0.3458 -0.1782
 1261SOL     OW15415   1.494   4.639  13.037  0.3327 -0.5983 -0.4757
 1261SOL    HW115416   1.575   4.595  13.010  0.5278 -0.9122  0.6163
 1261SOL    HW215417   1.518   4.662  13.127  1.6270 -1.1947 -0.6708
 1262SOL     OW15418   3.390   3.658   3.384 -0.1174 -0.4942  0.0819
 1262SOL    HW115419   3.352   3.582   3.340 -1.6622  1.0462 -1.2510
 1262SOL    HW215420   3.467   3.624   3.430 -0.7632  0.1354  1.6477
 1263SOL     OW15421   1.751   4.731   3.067  0.1463 -0.4720  0.1292
 1263SOL    HW115422   1.658   4.710   3.072  0.2924 -1.0421  0.4802
 1263SOL    HW215423   1.789   4.644   3.051  0.6701 -0.1283 -0.4881
 1264SOL     OW15424   1.960   2.265   6.262  0.6303  0.2158  0.4261
 1264SOL    HW115425   1.916   2.349   6.257  0.4435  0.1690  1.2606
 1264SOL    HW215426   1.956   2.248   6.356  0.6683 -2.7449 -0.1109
 1265SOL     OW15427   0.279   4.212  12.449  0.0578  0.1280 -0.3220
 1265SOL    HW115428   0.259   4.290  12.396  0.0736  0.0732 -0.4076
 1265SOL    HW215429   0.374   4.206  12.446  0.0118 -0.3596 -0.7540
 1266SOL     OW15430   2.750   3.498  14.324  0.3373  0.4190 -0.3541
 1266SOL    HW115431   2.709   3.426  14.372  1.6940 -0.0377  0.1140
 1266SOL    HW215432   2.797   3.451  14.256 -0.9248 -2.0331  0.4549
 1267SOL     OW15433   2.232   3.450   2.440 -0.0327 -0.0987 -0.0992
 1267SOL    HW115434   2.166   3.462   2.509 -2.6550 -4.3378 -1.8939
 1267SOL    HW215435   2.188   3.405   2.368  0.1988 -0.7824  0.1907
 1268SOL     OW15436   0.055   1.890  17.423 -0.0576 -0.3273 -0.0087
 1268SOL    HW115437   0.145   1.921  17.414 -0.6607  0.4277 -3.7847
 1268SOL    HW215438   0.035   1.836  17.346 -0.3812 -1.6442  0.9912
 1269SOL     OW15439   3.358   1.668  17.531 -0.4056  0.3081 -0.1776
 1269SOL    HW115440   3.306   1.688  17.453 -0.0116 -2.2578 -1.0978
 1269SOL    HW215441   3.305   1.591  17.551 -0.1714 -0.5118 -2.7001
 1270SOL     OW15442   4.596   2.390  10.754 -0.2488  0.7749  0.8580
 1270SOL    HW115443   4.606   2.476  10.713  0.5719  0.8521  1.2143
 1270SOL    HW215444   4.529   2.404  10.821 -1.2680  1.7987 -0.3874
 1271SOL     OW15445   1.136   0.904   4.752  0.1078 -0.0031  0.2564
 1271SOL    HW115446   1.187   0.857   4.818  1.0920  0.1654 -0.3933
 1271SOL    HW215447   1.124   0.994   4.783  0.0435  0.0093  0.1946
 1272SOL     OW15448   4.160   3.440  13.276 -0.1808 -0.2737 -0.1368
 1272SOL    HW115449   4.154   3.382  13.352  1.5519 -0.1694  0.0682
 1272SOL    HW215450   4.145   3.518  13.330 -0.5820  0.0179 -0.6722
 1273SOL     OW15451   4.346   2.316   4.772 -0.4724 -0.3320  0.0407
 1273SOL    HW115452   4.321   2.340   4.861 -0.8129 -0.4122 -0.0327
 1273SOL    HW215453   4.434   2.351   4.761 -0.7969  0.4471 -0.0078
 1274SOL     OW15454   0.221   1.596   9.527 -0.4963  0.5316 -0.1005
 1274SOL    HW115455   0.304   1.557   9.553 -1.1082  0.3324  1.5471
 1274SOL    HW215456   0.247   1.638   9.445  1.1666 -0.0408  0.1408
 1275SOL     OW15457   0.123   2.786  13.199  0.9872  0.0408 -0.0677
 1275SOL    HW115458   0.206   2.768  13.243  0.3327 -1.6446  0.4966
 1275SOL    HW215459   0.150   2.863  13.150 -1.0265  1.1456  0.5424
 1276SOL     OW15460   0.860   4.059   6.370 -0.4989  0.2051 -0.1698
 1276SOL    HW115461   0.875   4.044   6.463  1.6745 -1.8211 -0.8454
 1276SOL    HW215462   0.910   3.990   6.326  0.4731  0.3993  0.6193
 1277SOL     OW15463   0.328   0.013   8.137 -0.2932  0.5824  0.3028
 1277SOL    HW115464   0.342   0.029   8.044 -0.1894 -1.3399 -0.0220
 1277SOL    HW215465   0.311   0.097   8.179 -1.5032  0.5277 -0.0692
 1278SOL     OW15466   0.227   0.925   5.143  0.0289 -0.1706  0.3822
 1278SOL    HW115467   0.229   0.935   5.048 -2.2060 -0.9040  0.2474
 1278SOL    HW215468   0.134   0.946   5.152 -0.0836 -0.1706 -0.7485
 1279SOL     OW15469   0.636   3.400   5.662 -0.1707  0.0841  0.4575
 1279SOL    HW115470   0.605   3.310   5.661  0.4310 -0.1629  3.2029
 1279SOL    HW215471   0.721   3.388   5.704 -0.2677 -1.0004  0.3333
 1280SOL     OW15472   3.126   0.664   4.459  0.1134 -0.1500  0.3267
 1280SOL    HW115473   3.112   0.729   4.390  2.0294 -0.2796 -0.1651
 1280SOL    HW215474   3.181   0.598   4.418 -2.7307 -2.7477  0.7023
 1281SOL     OW15475   1.054   1.509   9.819  0.5103  0.0596 -0.7456
 1281SOL    HW115476   1.093   1.588   9.782  0.3103 -0.0500 -1.1927
 1281SOL    HW215477   1.073   1.528   9.911 -0.7597 -0.0977 -0.4486
 1282SOL     OW15478   4.445   2.452   5.803 -0.2260 -0.5095 -0.6937
 1282SOL    HW115479   4.399   2.515   5.858 -3.3615 -2.7108 -0.8414
 1282SOL    HW215480   4.478   2.386   5.865  0.5033 -1.3977 -2.0257
 1283SOL     OW15481   1.344   4.235   7.408  0.1388 -0.2796 -0.1242
 1283SOL    HW115482   1.312   4.155   7.366 -0.9902  0.8983 -1.4572
 1283SOL    HW215483   1.295   4.303   7.363  2.6155  2.0378  0.6915
 1284SOL     OW15484   4.443   1.248   6.372 -0.2368  0.1787  0.6915
 1284SOL    HW115485   4.426   1.230   6.465 -1.6759  1.0554  0.5926
 1284SOL    HW215486   4.414   1.338   6.385 -1.2863 -0.0659 -0.0133
 1285SOL     OW15487   0.056   2.175   3.804  0.3250 -0.9388 -0.9091
 1285SOL    HW115488   0.045   2.248   3.743 -1.9234  1.0714  1.8845
 1285SOL    HW215489   4.722   2.120   3.770 -2.6313  2.2962  0.0417
 1286SOL     OW15490   1.892   3.352   5.694 -0.2452  0.3553  0.0943
 1286SOL    HW115491   1.914   3.334   5.602 -3.6110 -0.7220 -0.4692
 1286SOL    HW215492   1.798   3.367   5.687 -0.3790 -0.0939  0.9963
 1287SOL     OW15493   0.576   1.025   1.741  0.0837 -0.0762 -0.6867
 1287SOL    HW115494   0.660   1.011   1.698  1.0010  0.9284  0.7872
 1287SOL    HW215495   0.559   1.104   1.690 -1.1796  0.0403 -0.0944
 1288SOL     OW15496   3.570   1.548   4.584 -0.0402  0.5294 -0.2083
 1288SOL    HW115497   3.586   1.495   4.662  0.6646 -0.3597 -0.9543
 1288SOL    HW215498   3.477   1.535   4.563  0.2980  0.3699 -1.6233
 1289SOL     OW15499   1.992   1.508   5.666  0.2896  0.1578  0.1142
 1289SOL    HW115500   2.065   1.449   5.646 -0.8137 -1.1385 -0.1109
 1289SOL    HW215501   1.993   1.563   5.588  2.3136  2.8977  2.0787
 1290SOL     OW15502   3.782   0.753   5.727  0.7115 -0.9122  0.4582
 1290SOL    HW115503   3.858   0.778   5.675 -0.2866  2.0919  0.4522
 1290SOL    HW215504   3.821   0.692   5.789  1.7446 -0.1840  0.5121
 1291SOL     OW15505   1.496   1.018   1.517 -0.1873  0.0846 -0.0019
 1291SOL    HW115506   1.498   1.075   1.593 -2.4283 -1.2101  1.0152
 1291SOL    HW215507   1.442   1.075   1.463 -0.0009  0.1721 -0.0967
 1292SOL     OW15508   3.582   0.885   6.799 -0.6448  0.0986 -0.0210
 1292SOL    HW115509   3.524   0.853   6.868  1.0484  0.4381  1.5399
 1292SOL    HW215510   3.553   0.976   6.793  0.1263  0.2778 -0.9422
 1293SOL     OW15511   3.919   4.298   3.353  0.5186 -0.5545  0.1074
 1293SOL    HW115512   3.850   4.238   3.326  1.0723  0.3354 -3.2424
 1293SOL    HW215513   3.983   4.264   3.291  0.4608 -0.5060  0.0221
 1294SOL     OW15514   1.122   0.198   8.307  0.0857 -0.3049 -0.0655
 1294SOL    HW115515   1.042   0.171   8.262  0.1884 -0.0458 -0.4016
 1294SOL    HW215516   1.155   0.124   8.359  3.2544  0.3683 -1.1240
 1295SOL     OW15517   3.104   3.561   3.055 -0.1846 -0.5232  0.2293
 1295SOL    HW115518   3.081   3.641   3.102  0.4183  1.4439 -2.8043
 1295SOL    HW215519   3.176   3.532   3.111  1.4872 -0.9999 -2.1595
 1296SOL     OW15520   2.384   0.060   7.388 -0.0463 -0.5030 -0.2479
 1296SOL    HW115521   2.457   0.120   7.377  0.3296 -0.8123  0.5924
 1296SOL    HW215522   2.431   4.716   7.366  1.5336 -0.4159  2.8574
 1297SOL     OW15523   4.309   3.713   4.512 -0.3173 -0.3401  0.0628
 1297SOL    HW115524   4.264   3.662   4.445  0.8062  0.7501 -1.5287
 1297SOL    HW215525   4.355   3.782   4.464 -1.1323  0.5534  0.5773
 1298SOL     OW15526   0.408   4.391   4.250  0.5862 -0.2774  0.3839
 1298SOL    HW115527   0.362   4.372   4.331  0.1443 -2.9424 -0.5074
 1298SOL    HW215528   0.498   4.368   4.275  0.9838  0.0409 -0.7345
 1299SOL     OW15529   4.469   2.522   7.014 -0.2493  0.1197  0.3853
 1299SOL    HW115530   4.481   2.427   7.014 -2.7521 -0.1989 -0.3780
 1299SOL    HW215531   4.480   2.540   6.921 -1.4070  1.9747  0.6135
 1300SOL     OW15532   0.579   1.593  15.401 -0.1490 -0.2478 -0.0254
 1300SOL    HW115533   0.646   1.534  15.367  0.4905  0.0410  0.7377
 1300SOL    HW215534   0.583   1.575  15.495 -0.6437 -1.7238 -0.2891
 1301SOL     OW15535   0.761   4.491  12.867  0.0951  0.1215 -0.4003
 1301SOL    HW115536   0.692   4.428  12.848 -1.1469  1.0859  0.9352
 1301SOL    HW215537   0.833   4.441  12.830 -0.1510  0.2416 -1.0454
 1302SOL     OW15538   1.156   0.826   7.680  0.5357 -0.1995  0.0907
 1302SOL    HW115539   1.179   0.753   7.737  0.1821 -1.4060 -1.3200
 1302SOL    HW215540   1.151   0.901   7.739 -0.7938 -0.8002  0.7361
 1303SOL     OW15541   2.839   1.977   1.773  0.3697  0.1716 -0.5102
 1303SOL    HW115542   2.747   1.957   1.756  0.2500  1.9674 -1.9618
 1303SOL    HW215543   2.873   1.915   1.708 -1.0872 -1.0947 -0.0480
 1304SOL     OW15544   2.495   0.962   4.370  0.2053 -0.2850 -0.3163
 1304SOL    HW115545   2.522   0.929   4.285 -1.5282 -2.3140 -0.0900
 1304SOL    HW215546   2.506   0.883   4.423  1.0677 -0.0963 -0.2233
 1305SOL     OW15547   0.122   3.269   0.062 -0.6277  0.1024  0.6741
 1305SOL    HW115548   0.145   3.308   0.146 -0.9325  0.6353  0.5084
 1305SOL    HW215549   0.064   3.340   0.036 -0.1157  0.2630 -0.0102
 1306SOL     OW15550   0.922   3.074   4.089  0.3654  0.2653 -0.9842
 1306SOL    HW115551   0.948   3.068   4.181 -0.3176  1.2337 -0.7260
 1306SOL    HW215552   0.992   3.130   4.055 -0.5427  2.4349  0.6723
 1307SOL     OW15553   4.534   3.433   6.560 -0.5811  0.2843 -0.8501
 1307SOL    HW115554   4.567   3.344   6.573 -1.7893  0.1476  1.2885
 1307SOL    HW215555   4.583   3.480   6.627 -1.9891  1.3767 -0.5811
 1308SOL     OW15556   4.684   3.565   7.494  0.3760 -0.1147  0.5362
 1308SOL    HW115557   4.589   3.572   7.500  0.2412  0.1843 -1.8989
 1308SOL    HW215558   4.710   3.637   7.551 -0.2228  1.0609 -0.6726
 1309SOL     OW15559   2.911   2.563   8.543  0.5701 -0.2947 -0.3776
 1309SOL    HW115560   2.957   2.479   8.548  1.7121  0.2057 -2.4873
 1309SOL    HW215561   2.986   2.621   8.546  0.2272  0.1614 -0.5748
 1310SOL     OW15562   4.699   3.182   9.503  0.1632  0.4568  0.1439
 1310SOL    HW115563   4.674   3.255   9.559  0.7692  0.2185  0.7339
 1310SOL    HW215564   4.615   3.139   9.488 -0.1468  1.1322 -0.0546
 1311SOL     OW15565   1.986   1.735   7.089  0.0991 -0.3737 -0.0455
 1311SOL    HW115566   2.073   1.694   7.093  1.3076  1.8958 -3.0657
 1311SOL    HW215567   1.930   1.682   7.145  1.7563 -1.2887  0.7505
 1312SOL     OW15568   0.658   2.450   9.019  0.3164  0.1492 -0.1746
 1312SOL    HW115569   0.712   2.529   9.015  0.9402 -0.5332 -4.4341
 1312SOL    HW215570   0.718   2.376   9.014 -1.5618 -1.4386  0.7217
 1313SOL     OW15571   2.643   4.102   5.671  0.0914  0.3745  0.1640
 1313SOL    HW115572   2.555   4.064   5.671 -0.5673  1.9143  2.4901
 1313SOL    HW215573   2.672   4.049   5.746  2.1002  1.3130  0.0537
 1314SOL     OW15574   3.618   2.497   7.056  0.0425  0.3247 -0.2826
 1314SOL    HW115575   3.693   2.513   6.999  0.5574 -0.5964  0.1360
 1314SOL    HW215576   3.603   2.580   7.101 -1.4562  0.0812 -0.3401
 1315SOL     OW15577   4.204   0.165   8.644 -0.1745  0.2411 -0.2206
 1315SOL    HW115578   4.299   0.162   8.654 -0.0628  0.9925 -1.0316
 1315SOL    HW215579   4.204   0.072   8.666  0.5263  0.0081 -1.2395
 1316SOL     OW15580   3.480   1.915  15.481  0.4603  0.1130 -0.1209
 1316SOL    HW115581   3.536   1.850  15.439 -0.4173 -1.4937  1.1600
 1316SOL    HW215582   3.417   1.950  15.419  1.8608  1.2132 -0.9005
 1317SOL     OW15583   2.053   0.342   9.511 -0.0080  0.0927 -0.4060
 1317SOL    HW115584   2.086   0.302   9.592 -0.8035 -1.3693 -0.7968
 1317SOL    HW215585   2.073   0.432   9.537  3.5337 -1.0810  0.9387
 1318SOL     OW15586   2.470   2.667   4.332  0.2258 -0.0746  0.5340
 1318SOL    HW115587   2.500   2.604   4.398  1.4264 -1.5248 -1.4130
 1318SOL    HW215588   2.406   2.715   4.385 -0.4786 -0.2428 -0.1621
 1319SOL     OW15589   4.637   0.552   2.154 -0.3300  0.0155 -0.7289
 1319SOL    HW115590   4.679   0.483   2.206 -0.3685 -1.1948 -2.3127
 1319SOL    HW215591   4.545   0.534   2.169 -0.4327  1.4931  0.4392
 1320SOL     OW15592   3.815   1.634   7.622  0.2645 -0.4259 -1.2967
 1320SOL    HW115593   3.861   1.678   7.551 -1.8777 -0.6052 -2.7886
 1320SOL    HW215594   3.764   1.708   7.656 -0.2195  0.0119 -2.9926
 1321SOL     OW15595   3.969   3.282   7.543 -0.3976 -0.1417 -0.0329
 1321SOL    HW115596   4.031   3.214   7.567 -2.1078 -2.7572 -2.9734
 1321SOL    HW215597   3.900   3.233   7.499 -0.9548  0.2154  0.4297
 1322SOL     OW15598   0.063   0.046   3.930 -0.3685  0.8888  0.2863
 1322SOL    HW115599   0.088   0.136   3.951  1.7799  0.1475  0.8759
 1322SOL    HW215600   0.010   0.020   4.006  0.1678 -0.4029  0.2303
 1323SOL     OW15601   1.366   3.436   4.828 -0.1645  0.1585  0.0833
 1323SOL    HW115602   1.410   3.388   4.757 -2.2536 -0.0884 -1.0468
 1323SOL    HW215603   1.277   3.441   4.794 -0.0848 -1.6215 -0.3799
 1324SOL     OW15604   2.176   1.445   4.056  0.4719  0.0383  0.8447
 1324SOL    HW115605   2.196   1.358   4.088  1.8291  0.5278  1.3095
 1324SOL    HW215606   2.240   1.500   4.100 -1.7388  4.0164 -0.8828
 1325SOL     OW15607   0.491   4.380   5.796 -0.4962 -0.2082 -0.4139
 1325SOL    HW115608   0.416   4.436   5.775 -1.8775 -1.9514 -0.0875
 1325SOL    HW215609   0.560   4.447   5.799 -0.6577 -0.1404  1.7351
 1326SOL     OW15610   2.489   1.418  10.586 -0.0055  0.1181  0.1011
 1326SOL    HW115611   2.466   1.440  10.677 -0.6135 -0.4179  0.0785
 1326SOL    HW215612   2.472   1.496  10.533 -0.8064  0.7747  1.3029
 1327SOL     OW15613   4.092   3.967   3.362  0.1465 -0.0134  0.2935
 1327SOL    HW115614   4.059   3.962   3.452  0.0663  1.9179  0.3855
 1327SOL    HW215615   4.019   4.011   3.317  0.5972 -0.2532 -0.6534
 1328SOL     OW15616   1.930   4.499   8.717 -0.3737  0.1087  0.3477
 1328SOL    HW115617   1.895   4.581   8.751 -2.5543 -0.4558 -0.5285
 1328SOL    HW215618   2.011   4.480   8.762 -0.9196 -0.6771  0.9986
 1329SOL     OW15619   2.058   2.403  16.471 -0.1902 -0.1147 -0.1539
 1329SOL    HW115620   1.985   2.453  16.435 -0.0265 -0.8207 -1.4703
 1329SOL    HW215621   2.068   2.349  16.393 -0.6808 -0.8044  0.2555
 1330SOL     OW15622   0.497   1.487   7.639 -1.0565 -0.4275 -0.0632
 1330SOL    HW115623   0.444   1.564   7.620  2.4895  2.6399  2.5320
 1330SOL    HW215624   0.437   1.437   7.695  1.0897 -2.1163  0.7372
 1331SOL     OW15625   3.566   0.858   5.603 -0.1995  0.2122 -0.1921
 1331SOL    HW115626   3.530   0.914   5.673  0.2781 -0.2021  0.3863
 1331SOL    HW215627   3.647   0.828   5.643 -1.5788 -2.6324  0.4705
 1332SOL     OW15628   2.593   1.331   5.756 -0.0637 -0.0212 -0.1781
 1332SOL    HW115629   2.511   1.348   5.802 -0.0628  1.3220 -0.6607
 1332SOL    HW215630   2.581   1.245   5.715 -1.1940 -0.2620  0.6476
 1333SOL     OW15631   0.451   0.434   5.991  0.4248  0.4591  1.0623
 1333SOL    HW115632   0.356   0.440   5.982  0.4050 -2.7468 -0.7773
 1333SOL    HW215633   0.470   0.523   6.022  1.3047  0.6884 -0.1271
 1334SOL     OW15634   1.940   1.201   3.113  0.3609  0.3977  0.3483
 1334SOL    HW115635   2.035   1.215   3.117  0.5598 -0.4199 -1.6355
 1334SOL    HW215636   1.949   1.115   3.072  1.4433  0.9437 -0.5778
 1335SOL     OW15637   0.103   3.113  12.814 -0.2125 -0.3519 -0.0613
 1335SOL    HW115638   0.117   3.047  12.746  2.3680 -0.1587  0.2857
 1335SOL    HW215639   0.009   3.100  12.831  0.2514 -0.3320  2.4220
 1336SOL     OW15640   0.260   0.377   5.700  0.3282 -0.3201  0.0799
 1336SOL    HW115641   0.244   0.346   5.790  0.4630  1.1569  0.6134
 1336SOL    HW215642   0.259   0.472   5.705  0.9281 -0.3811  1.3486
 1337SOL     OW15643   0.125   0.448   6.795  0.0322  0.0795 -0.4290
 1337SOL    HW115644   0.077   0.402   6.864 -0.5028  0.8826 -0.2647
 1337SOL    HW215645   0.216   0.421   6.807  0.0432  0.3238  0.0266
 1338SOL     OW15646   0.728   0.625   4.133  0.6423  0.1270  0.5663
 1338SOL    HW115647   0.766   0.575   4.205  1.9010 -0.0059 -0.2091
 1338SOL    HW215648   0.697   0.554   4.078  1.9465  1.8444 -2.3615
 1339SOL     OW15649   3.972   1.412  16.050  0.1017 -0.9188 -0.2304
 1339SOL    HW115650   4.012   1.497  16.030 -2.6665  0.7513  1.3942
 1339SOL    HW215651   3.986   1.354  15.975  2.6681 -0.9576  0.2704
 1340SOL     OW15652   2.950   4.316  11.555  0.4439 -0.3109 -0.2679
 1340SOL    HW115653   2.976   4.345  11.642  0.1976 -0.6229 -0.0911
 1340SOL    HW215654   2.980   4.225  11.554 -0.8131 -0.7119 -2.5304
 1341SOL     OW15655   4.061   4.345   3.735 -0.2841 -0.1025  0.0814
 1341SOL    HW115656   4.004   4.389   3.798 -2.0184 -3.4275  0.8323
 1341SOL    HW215657   4.142   4.395   3.746 -0.7787  0.0910  2.8619
 1342SOL     OW15658   1.322   2.822   4.277 -0.4592  0.4153 -0.4732
 1342SOL    HW115659   1.412   2.851   4.262 -0.0568 -0.2383  0.7503
 1342SOL    HW215660   1.312   2.859   4.365 -1.7659  1.4666 -1.0470
 1343SOL     OW15661   3.328   4.427   2.079  0.2372 -0.1367  0.1643
 1343SOL    HW115662   3.248   4.443   2.030  0.6269 -1.1246 -0.7847
 1343SOL    HW215663   3.316   4.333   2.087 -0.6181  0.1306  2.1709
 1344SOL     OW15664   2.575   0.965   7.735 -0.0134 -0.5783  0.3582
 1344SOL    HW115665   2.486   0.930   7.743 -0.5493  0.2880 -1.9112
 1344SOL    HW215666   2.616   0.904   7.797  0.3279 -0.9408 -0.2235
 1345SOL     OW15667   2.145   4.426  11.208 -0.3649 -0.3998 -0.1014
 1345SOL    HW115668   2.158   4.369  11.283  0.1922 -1.3796 -0.9284
 1345SOL    HW215669   2.158   4.517  11.235  0.6688 -0.7236  0.4999
 1346SOL     OW15670   1.601   1.954   7.300  0.3181  0.1061 -0.2772
 1346SOL    HW115671   1.583   1.968   7.393 -0.5514 -0.7170 -0.3227
 1346SOL    HW215672   1.602   1.859   7.285 -1.7681 -0.2271  1.6625
 1347SOL     OW15673   4.579   3.399   9.652  0.2298  0.2771 -0.7355
 1347SOL    HW115674   4.504   3.378   9.708 -0.0617  0.2823 -1.1295
 1347SOL    HW215675   4.636   3.449   9.711  0.5186 -0.7706 -0.1083
 1348SOL     OW15676   1.528   1.102  10.379  0.5085 -0.1293  0.1498
 1348SOL    HW115677   1.610   1.077  10.420  1.2219 -0.1506 -1.2780
 1348SOL    HW215678   1.512   1.182  10.429  0.9273 -0.0056  0.0857
 1349SOL     OW15679   1.211   1.840   9.381 -0.0964 -0.6605 -0.1743
 1349SOL    HW115680   1.279   1.777   9.356 -0.0019 -0.4151 -0.5348
 1349SOL    HW215681   1.170   1.800   9.458  1.3558  1.4546  1.7152
 1350SOL     OW15682   4.329   3.067   2.010 -0.3271  0.0641  0.1731
 1350SOL    HW115683   4.335   3.011   2.087  1.5407 -1.6002 -1.1946
 1350SOL    HW215684   4.275   3.021   1.946 -0.6966  0.8489 -0.0821
 1351SOL     OW15685   0.753   4.028  10.472 -0.2126 -0.0627  0.1726
 1351SOL    HW115686   0.681   4.029  10.409 -1.2950  0.8649  1.4112
 1351SOL    HW215687   0.713   3.968  10.535  1.1588 -2.6432 -1.4306
 1352SOL     OW15688   3.743   0.579  15.722 -0.4892 -0.1236 -0.7302
 1352SOL    HW115689   3.837   0.575  15.705 -0.3168  2.1156 -0.3644
 1352SOL    HW215690   3.736   0.664  15.767 -1.4876  0.1862 -1.4598
 1353SOL     OW15691   1.285   2.208  11.693  0.4233 -0.4287  0.2142
 1353SOL    HW115692   1.286   2.245  11.782  1.0998 -1.5684  0.6809
 1353SOL    HW215693   1.300   2.114  11.706 -0.0679 -0.2646  1.9239
 1354SOL     OW15694   2.987   4.489  16.060 -0.6289  0.1696  0.3895
 1354SOL    HW115695   2.915   4.427  16.045  0.0750 -1.2412  2.8124
 1354SOL    HW215696   3.043   4.444  16.122  0.2174  1.3582  0.4759
 1355SOL     OW15697   1.659   2.692   8.528  0.0344 -0.0276  0.0789
 1355SOL    HW115698   1.660   2.787   8.528 -1.2074 -0.0098 -0.1098
 1355SOL    HW215699   1.634   2.671   8.618  1.9289 -0.4699  0.5026
 1356SOL     OW15700   1.032   1.767   2.805 -0.3133 -0.1674 -0.5791
 1356SOL    HW115701   0.953   1.713   2.800  0.4804 -1.3624 -0.1323
 1356SOL    HW215702   1.085   1.748   2.728  0.6280 -0.2883  0.1058
 1357SOL     OW15703   2.676   1.231   1.578 -0.2064 -0.3879 -0.1394
 1357SOL    HW115704   2.706   1.141   1.590  0.3614 -0.1176  0.5158
 1357SOL    HW215705   2.586   1.220   1.609 -0.1140 -0.6276  0.0491
 1358SOL     OW15706   2.666   2.697   4.151  0.4053  0.0636 -0.3232
 1358SOL    HW115707   2.592   2.717   4.209 -0.2782  2.5713 -2.0751
 1358SOL    HW215708   2.634   2.692   4.061 -0.4677  1.0157 -0.0634
 1359SOL     OW15709   1.431   0.438  16.787  1.0699 -0.2807 -0.1024
 1359SOL    HW115710   1.341   0.425  16.758  1.2347 -0.6182 -0.4686
 1359SOL    HW215711   1.427   0.490  16.868  0.6893 -1.7574  0.8235
 1360SOL     OW15712   3.651   4.062   7.988  0.0063 -0.8306  0.2752
 1360SOL    HW115713   3.679   4.022   7.905 -2.0387 -1.3662 -0.1543
 1360SOL    HW215714   3.573   4.008   7.998 -1.8653  1.5789 -1.2317
 1361SOL     OW15715   3.657   0.571  12.983  0.1268 -0.2460 -0.6964
 1361SOL    HW115716   3.695   0.638  13.039  0.8254 -0.4802 -0.8942
 1361SOL    HW215717   3.673   0.502  13.048 -0.3530 -1.2323 -1.6315
 1362SOL     OW15718   1.779   3.404   4.920  0.7858 -0.9748  0.8274
 1362SOL    HW115719   1.767   3.450   4.837  1.1012 -2.8000 -0.2299
 1362SOL    HW215720   1.822   3.325   4.888 -2.5422 -1.3058 -2.8113
 1363SOL     OW15721   3.971   1.628   5.040  0.0818  0.0382  0.3820
 1363SOL    HW115722   3.964   1.533   5.034 -0.3761 -0.0986  2.9319
 1363SOL    HW215723   3.921   1.636   5.121  0.2363 -1.4246  0.6325
 1364SOL     OW15724   0.763   1.808  16.063  0.0205  0.3250 -0.6238
 1364SOL    HW115725   0.734   1.717  16.056  2.2125 -0.5374  1.4093
 1364SOL    HW215726   0.859   1.800  16.061  0.0560  0.8197 -0.8260
 1365SOL     OW15727   3.571   2.618   6.345  0.1136 -0.5282  0.2104
 1365SOL    HW115728   3.501   2.680   6.325  0.1086  0.1178  2.1962
 1365SOL    HW215729   3.644   2.668   6.308  0.0091  0.3575  1.1852
 1366SOL     OW15730   0.216   4.488   5.822  0.3481 -0.3384 -0.1170
 1366SOL    HW115731   0.172   4.481   5.906  1.7974 -1.9582  0.5147
 1366SOL    HW215732   0.211   4.584   5.814 -2.2842 -0.3373  1.9950
 1367SOL     OW15733   0.940   0.072   5.114  0.0881 -0.7623 -0.0587
 1367SOL    HW115734   0.926   0.000   5.053  1.4974 -1.1734  0.0993
 1367SOL    HW215735   1.025   0.108   5.091 -0.2724 -0.1410 -0.4245
 1368SOL     OW15736   3.036   1.066   4.142  0.5129 -0.4032  0.0807
 1368SOL    HW115737   2.964   1.059   4.078  1.8951  2.3043 -1.7645
 1368SOL    HW215738   3.020   1.148   4.187  2.3014 -0.0300  0.0502
 1369SOL     OW15739   3.372   3.445  17.404  0.6284 -0.0553 -0.5886
 1369SOL    HW115740   3.397   3.416  17.316 -3.9721  0.4126 -2.0581
 1369SOL    HW215741   3.302   3.386  17.432 -0.1072 -0.0080 -2.3497
 1370SOL     OW15742   0.637   1.792   0.368  0.0432 -0.4193  0.2583
 1370SOL    HW115743   0.584   1.824   0.296 -1.1730 -1.4333  0.6955
 1370SOL    HW215744   0.712   1.851   0.367 -1.4127  1.4719  1.0648
 1371SOL     OW15745   2.366   2.118   3.970  0.1439  0.0792 -0.9146
 1371SOL    HW115746   2.367   2.063   4.049 -1.5883 -0.1590 -1.0599
 1371SOL    HW215747   2.290   2.168   3.999  0.4403  0.1235 -0.2073
 1372SOL     OW15748   4.379   3.169   2.415 -0.2913 -0.6638  0.0731
 1372SOL    HW115749   4.351   3.079   2.399  0.7526 -1.5983  3.4904
 1372SOL    HW215750   4.299   3.222   2.417  0.9704  1.3123 -2.5240
 1373SOL     OW15751   1.483   2.455  13.778  0.2109  0.4017 -0.0776
 1373SOL    HW115752   1.521   2.371  13.805  0.4150  0.1322 -1.2052
 1373SOL    HW215753   1.560   2.505  13.753 -0.1662  2.3990  2.7128
 1374SOL     OW15754   2.749   3.438   4.138 -0.4336 -0.1302  0.2333
 1374SOL    HW115755   2.654   3.435   4.123 -0.5621  2.5121  0.5090
 1374SOL    HW215756   2.766   3.399   4.224  0.2502 -0.2493  0.0451
 1375SOL     OW15757   2.543   1.451  11.857  0.2272 -0.1254 -0.2212
 1375SOL    HW115758   2.579   1.518  11.915 -0.0275  2.2491 -2.7970
 1375SOL    HW215759   2.452   1.479  11.847  0.1963  0.5896  2.1049
 1376SOL     OW15760   3.434   4.500   8.132  0.7761 -0.1802  0.2528
 1376SOL    HW115761   3.443   4.452   8.050 -0.0715  0.8594 -0.4313
 1376SOL    HW215762   3.401   4.425   8.182 -1.2169  0.1888 -0.5222
 1377SOL     OW15763   3.776   0.843   7.860  0.3381  0.2859 -0.0312
 1377SOL    HW115764   3.843   0.785   7.825 -0.2077 -0.1926 -0.2683
 1377SOL    HW215765   3.779   0.905   7.788  0.1635 -2.7063 -2.5983
 1378SOL     OW15766   4.708   0.149   2.656  0.1812  0.8228 -0.2810
 1378SOL    HW115767   0.024   0.227   2.641  1.6974 -0.4153 -1.2733
 1378SOL    HW215768   4.684   0.164   2.748  0.2057  1.1449 -0.3295
 1379SOL     OW15769   2.264   2.567   4.102 -0.3077  0.4803 -0.0883
 1379SOL    HW115770   2.188   2.617   4.073 -1.5188 -0.7340  1.0039
 1379SOL    HW215771   2.277   2.600   4.191  1.4862  1.1833 -0.5991
 1380SOL     OW15772   2.123   2.745   2.791 -0.7070  0.0244  0.5476
 1380SOL    HW115773   2.135   2.838   2.811  0.3264 -0.2660  1.2731
 1380SOL    HW215774   2.033   2.734   2.761 -0.5758  0.7135 -0.1254
 1381SOL     OW15775   0.539   1.054   1.117 -0.4126  0.0914 -0.3888
 1381SOL    HW115776   0.510   1.097   1.196  1.6721  1.0143 -0.1191
 1381SOL    HW215777   0.499   1.106   1.047 -0.5216  0.6835  0.1211
 1382SOL     OW15778   2.049   2.881   1.468 -0.1764  0.2721  0.1433
 1382SOL    HW115779   2.029   2.798   1.510 -0.4223  0.9282  1.3057
 1382SOL    HW215780   2.004   2.893   1.384 -1.5660 -3.4774  0.3551
 1383SOL     OW15781   1.208   3.969  10.570 -0.0758 -0.2072 -0.8510
 1383SOL    HW115782   1.121   3.992  10.536 -0.7917 -1.1238  0.3891
 1383SOL    HW215783   1.244   3.925  10.493 -2.7891 -2.0316 -1.0505
 1384SOL     OW15784   3.240   4.062   8.370  0.4394  0.0396  0.3710
 1384SOL    HW115785   3.285   3.979   8.382  1.1473  0.4289  0.4367
 1384SOL    HW215786   3.194   4.076   8.453  2.7001  0.6133  1.5459
 1385SOL     OW15787   4.322   2.547   8.144  0.1614  0.1064  0.2206
 1385SOL    HW115788   4.284   2.487   8.080  0.2366 -0.6436  0.8792
 1385SOL    HW215789   4.358   2.490   8.212  1.0890  2.2017  1.4684
 1386SOL     OW15790   1.861   2.996   2.141  0.0787  0.5463 -0.3825
 1386SOL    HW115791   1.853   2.901   2.137 -0.7071  0.5261  1.3799
 1386SOL    HW215792   1.928   3.001   2.210 -0.5621  0.1626  0.2699
 1387SOL     OW15793   4.196   0.078  11.201  0.1693 -0.2323  0.7997
 1387SOL    HW115794   4.276   0.119  11.168 -1.6889 -0.4632 -4.0476
 1387SOL    HW215795   4.222   0.064  11.292 -0.5003  0.0438  1.0375
 1388SOL     OW15796   3.933   4.638  16.504 -0.0728  0.3038 -0.1213
 1388SOL    HW115797   3.958   4.571  16.568 -0.6389 -0.4532 -0.6858
 1388SOL    HW215798   3.874   4.689  16.560  0.3073 -0.0610  0.6221
 1389SOL     OW15799   4.280   4.436   2.808  0.2011  0.0386 -0.4050
 1389SOL    HW115800   4.289   4.434   2.713  0.2213 -0.1547 -0.3979
 1389SOL    HW215801   4.362   4.479   2.833  0.9154  0.0754 -2.8272
 1390SOL     OW15802   2.176   0.496   2.163  0.7201  0.2712  0.1834
 1390SOL    HW115803   2.175   0.447   2.081  3.6045  0.0070  0.3131
 1390SOL    HW215804   2.226   0.570   2.128  1.2801 -0.8381 -1.3291
 1391SOL     OW15805   3.901   3.698   1.087  0.5390 -0.0154 -0.2586
 1391SOL    HW115806   3.856   3.632   1.034 -0.2726  1.3657 -1.2946
 1391SOL    HW215807   3.887   3.666   1.176  0.1422  0.7752 -0.0389
 1392SOL     OW15808   2.826   3.979   7.720  0.2022  0.3152 -0.1268
 1392SOL    HW115809   2.805   3.900   7.771 -1.6220  0.4237 -0.7201
 1392SOL    HW215810   2.850   4.050   7.779 -0.4688 -0.2585  0.8448
 1393SOL     OW15811   1.870   3.400   2.923  0.2667  0.3074 -0.6032
 1393SOL    HW115812   1.792   3.427   2.874  1.4896  1.0747 -2.1005
 1393SOL    HW215813   1.872   3.307   2.902 -0.6622  0.3005 -0.6623
 1394SOL     OW15814   2.799   3.793   7.918 -0.4861 -0.4381  0.1672
 1394SOL    HW115815   2.717   3.750   7.893  0.5380 -1.5278 -1.2986
 1394SOL    HW215816   2.775   3.817   8.007  2.3243 -1.7804  1.2732
 1395SOL     OW15817   2.836   1.769  13.924  1.1111  0.3150 -0.3533
 1395SOL    HW115818   2.831   1.864  13.912  0.3428  0.5077  1.5523
 1395SOL    HW215819   2.752   1.763  13.968  0.9744 -0.1288 -0.6815
 1396SOL     OW15820   4.441   3.684  16.039  0.1301  0.0077  0.2253
 1396SOL    HW115821   4.482   3.600  16.062 -0.7382 -0.6277 -0.5770
 1396SOL    HW215822   4.356   3.656  16.004 -0.4440 -0.2124  1.7950
 1397SOL     OW15823   1.406   4.736   8.523 -0.3279 -0.2020 -0.9516
 1397SOL    HW115824   1.427   0.028   8.612  2.2420 -1.0765 -1.2537
 1397SOL    HW215825   1.466   0.061   8.481  0.1669  0.9766  1.4733
 1398SOL     OW15826   0.395   4.038   0.816 -0.1158  0.1887 -0.1430
 1398SOL    HW115827   0.320   3.982   0.797 -1.3016  1.8750 -0.4609
 1398SOL    HW215828   0.379   4.082   0.899  2.1187 -0.5793  0.6990
 1399SOL     OW15829   0.172   0.393   5.982  0.4176  0.3658  0.3345
 1399SOL    HW115830   0.125   0.410   6.064  1.5134 -1.6056  1.3905
 1399SOL    HW215831   0.093   0.379   5.931  2.0611 -2.5309 -1.4482
 1400SOL     OW15832   2.495   0.191   2.513 -0.0193 -0.7822 -0.5503
 1400SOL    HW115833   2.524   0.189   2.422 -0.2609  0.1635 -0.6475
 1400SOL    HW215834   2.404   0.164   2.500 -0.9142  1.1660  1.7580
 1401SOL     OW15835   3.794   3.462  15.655 -0.0414 -0.0161  0.4761
 1401SOL    HW115836   3.703   3.436  15.640  0.5994 -2.5920  1.1361
 1401SOL    HW215837   3.787   3.553  15.627  1.1227  0.0916  0.5586
 1402SOL     OW15838   3.109   1.433   0.675 -0.6039 -0.3071 -0.0536
 1402SOL    HW115839   3.047   1.474   0.735  3.2477  1.5975  2.6246
 1402SOL    HW215840   3.131   1.355   0.726 -0.2709 -1.6077 -2.2029
 1403SOL     OW15841   3.825   4.560   6.884  0.1654  0.4232  0.1295
 1403SOL    HW115842   3.777   4.566   6.967  2.7345  0.2999  1.6234
 1403SOL    HW215843   3.869   4.477   6.903 -1.2862  0.0237  1.7689
 1404SOL     OW15844   2.404   1.835  13.808 -0.1881 -0.0334  0.0078
 1404SOL    HW115845   2.356   1.883  13.876  1.9584  0.7650  0.9680
 1404SOL    HW215846   2.493   1.829  13.844 -0.5502  2.1005  1.2829
 1405SOL     OW15847   2.538   3.697   1.948  0.1094 -0.4181 -0.0915
 1405SOL    HW115848   2.601   3.749   1.999 -0.2073 -0.9476  0.8487
 1405SOL    HW215849   2.570   3.719   1.861 -0.2707 -1.5223 -0.5014
 1406SOL     OW15850   0.580   2.552  10.096 -0.0205 -0.4046 -0.0258
 1406SOL    HW115851   0.605   2.462  10.072 -0.4699 -0.4093 -0.4933
 1406SOL    HW215852   0.634   2.602  10.035  1.2074  1.2221  2.4379
 1407SOL     OW15853   1.567   1.199  16.101 -0.0713 -0.5835  0.7901
 1407SOL    HW115854   1.478   1.185  16.133 -1.2544  0.1811 -2.1199
 1407SOL    HW215855   1.621   1.151  16.164 -2.2393 -4.3622 -0.2540
 1408SOL     OW15856   2.413   2.031   8.066  0.3408  0.1070 -0.4007
 1408SOL    HW115857   2.508   2.036   8.055  0.3768  0.3480  0.0312
 1408SOL    HW215858   2.400   2.120   8.032  2.0643 -0.3893 -2.3587
 1409SOL     OW15859   2.629   4.338   1.500  0.5746  0.0979 -0.0595
 1409SOL    HW115860   2.559   4.274   1.518 -1.0923  1.6322 -1.1403
 1409SOL    HW215861   2.713   4.309   1.536  0.3624  1.9662  1.9703
 1410SOL     OW15862   0.042   1.073   6.712  0.2406 -0.1637 -0.2702
 1410SOL    HW115863   0.026   1.101   6.622 -1.1316 -1.2901 -0.3652
 1410SOL    HW215864   4.733   1.141   6.761 -0.4559 -0.0364 -1.1046
 1411SOL     OW15865   4.522   2.788   6.503  0.7455 -0.1374  0.1782
 1411SOL    HW115866   4.504   2.745   6.419 -0.3749  1.2419 -0.2978
 1411SOL    HW215867   4.602   2.747   6.536  0.9973  0.7429  0.6649
 1412SOL     OW15868   0.409   2.751   0.025 -0.0600  0.3819 -0.5988
 1412SOL    HW115869   0.473   2.681   0.043 -0.8932 -0.5895 -1.4322
 1412SOL    HW215870   0.343   2.705   0.077  0.5957 -0.1201 -0.2086
 1413SOL     OW15871   0.946   4.509   4.716  0.0305  0.1393 -0.0286
 1413SOL    HW115872   0.959   4.436   4.655 -1.7196 -0.8161  0.7048
 1413SOL    HW215873   0.851   4.516   4.706 -0.0389  0.5478  0.8597
 1414SOL     OW15874   3.951   3.966   6.318 -0.2864  0.6253 -0.4947
 1414SOL    HW115875   3.958   4.062   6.319  2.1840  0.4383 -1.4848
 1414SOL    HW215876   3.996   3.943   6.399 -0.7032  0.0976 -0.4179
 1415SOL     OW15877   3.915   0.336  14.854 -0.3856  0.1224  0.1591
 1415SOL    HW115878   3.832   0.342  14.901 -0.5095  0.5544 -0.1149
 1415SOL    HW215879   3.971   0.339  14.932 -0.8004 -2.3118  0.5588
 1416SOL     OW15880   4.466   3.213  15.223  0.2627 -0.2286  0.2791
 1416SOL    HW115881   4.532   3.200  15.291 -0.5289  0.9533  1.2813
 1416SOL    HW215882   4.490   3.168  15.142  0.9867  1.8415 -0.6724
 1417SOL     OW15883   1.567   2.632   2.871 -0.0905  0.5062  0.0864
 1417SOL    HW115884   1.508   2.570   2.913 -0.6428 -0.3988 -2.0508
 1417SOL    HW215885   1.646   2.607   2.919 -0.6447 -1.8345 -0.2350
 1418SOL     OW15886   2.734   1.389   7.337  0.3102 -0.2250 -0.5186
 1418SOL    HW115887   2.727   1.294   7.349  0.5293 -0.3526 -1.3754
 1418SOL    HW215888   2.754   1.404   7.245  1.3943 -0.4719 -0.3303
 1419SOL     OW15889   2.461   3.982   8.390  0.4862 -0.1473  0.1601
 1419SOL    HW115890   2.468   3.887   8.405 -0.4581 -0.7493 -3.0626
 1419SOL    HW215891   2.476   4.028   8.472  0.9570  0.3010 -0.1725
 1420SOL     OW15892   2.954   0.454   8.295 -0.4310  0.3949  0.0644
 1420SOL    HW115893   2.877   0.493   8.337  0.3273  2.2885 -0.3214
 1420SOL    HW215894   2.929   0.363   8.281 -1.6348  0.7935 -0.4050
 1421SOL     OW15895   2.222   2.315  16.938 -0.3901  0.0566  0.3115
 1421SOL    HW115896   2.149   2.345  16.884  1.4741 -0.0188 -2.2887
 1421SOL    HW215897   2.192   2.228  16.963 -0.2074 -0.4099 -1.0624
 1422SOL     OW15898   2.099   0.983  10.386 -0.2761 -0.0800  0.0851
 1422SOL    HW115899   2.051   1.035  10.450  2.6636  3.3238 -0.4542
 1422SOL    HW215900   2.028   0.989  10.322  0.8799  1.7250 -1.0211
 1423SOL     OW15901   4.208   4.689   1.709 -0.2006  0.0565 -0.6717
 1423SOL    HW115902   4.153   4.613   1.724 -0.0320 -0.0738 -0.7105
 1423SOL    HW215903   4.281   4.636   1.675  0.0025 -0.1794  0.1277
 1424SOL     OW15904   3.898   0.187  11.359  0.4540 -0.0039 -0.0912
 1424SOL    HW115905   3.879   0.163  11.450  3.2146  1.1186  0.7779
 1424SOL    HW215906   3.989   0.158  11.361  0.0898 -1.1428 -0.2198
 1425SOL     OW15907   0.488   3.832   2.753 -0.4012  0.2657  0.0140
 1425SOL    HW115908   0.488   3.868   2.842 -1.1209 -1.1709  0.6053
 1425SOL    HW215909   0.578   3.836   2.720 -0.8469  1.3223 -1.0699
 1426SOL     OW15910   4.273   2.208   1.919 -0.2754 -0.6814 -0.5143
 1426SOL    HW115911   4.244   2.285   1.968 -1.2391 -1.8505  0.7866
 1426SOL    HW215912   4.226   2.228   1.838 -0.4926  1.2333  0.0875
 1427SOL     OW15913   0.695   1.150   8.749  0.0480  0.3073  0.0975
 1427SOL    HW115914   0.746   1.198   8.684  1.0652  0.3800  0.9558
 1427SOL    HW215915   0.613   1.198   8.751 -0.0289  0.2687 -2.2269
 1428SOL     OW15916   0.378   0.000   1.867  0.1471  0.1053  0.1569
 1428SOL    HW115917   0.400   0.043   1.950  0.1459 -0.8170  0.6288
 1428SOL    HW215918   0.328   0.067   1.820  2.7063  1.9751  0.0740
 1429SOL     OW15919   1.887   1.606   1.570 -1.1168  0.3221  0.2769
 1429SOL    HW115920   1.808   1.644   1.531 -0.8886  0.1866 -0.3118
 1429SOL    HW215921   1.861   1.587   1.660 -1.3267  0.4855  0.2496
 1430SOL     OW15922   2.331   4.180   4.634 -0.2198  0.5619  0.4903
 1430SOL    HW115923   2.374   4.105   4.592  0.4132  0.7185  0.8638
 1430SOL    HW215924   2.246   4.142   4.660 -0.3888 -1.1860 -2.6539
 1431SOL     OW15925   3.260   0.058   5.585 -0.3205 -0.5107 -0.0153
 1431SOL    HW115926   3.338   0.030   5.633  0.8803 -0.3132 -1.8291
 1431SOL    HW215927   3.284   0.035   5.495 -2.9959  0.4974 -0.9822
 1432SOL     OW15928   1.828   0.927   5.714  0.1075 -0.2115  0.0063
 1432SOL    HW115929   1.741   0.956   5.685 -0.8085 -1.7345  1.2783
 1432SOL    HW215930   1.825   0.836   5.684  0.9622 -0.3316  0.2788
 1433SOL     OW15931   0.976   2.935   4.638  0.1049 -0.3926  0.1252
 1433SOL    HW115932   1.045   3.000   4.626  1.1239 -2.0150 -2.6678
 1433SOL    HW215933   0.953   2.940   4.731 -0.7137  0.3886 -0.1154
 1434SOL     OW15934   0.475   0.060   3.441  0.0950 -0.0357  0.8535
 1434SOL    HW115935   0.533   0.041   3.367 -0.1759 -1.5755  1.0448
 1434SOL    HW215936   0.410   0.113   3.395 -0.9705 -1.1996  1.0290
 1435SOL     OW15937   0.463   1.016   2.544  0.3253 -0.1291 -0.3975
 1435SOL    HW115938   0.420   0.957   2.482  1.0516 -2.1046  0.9930
 1435SOL    HW215939   0.474   1.090   2.485 -1.4888  0.0026 -0.5556
 1436SOL     OW15940   0.311   1.744   6.689 -0.5098  0.3742 -0.5471
 1436SOL    HW115941   0.319   1.836   6.666 -1.1428  0.7661  0.7940
 1436SOL    HW215942   0.396   1.714   6.657 -1.1092  0.4612 -2.2441
 1437SOL     OW15943   3.472   2.989   9.221  0.1140  0.1202  0.9271
 1437SOL    HW115944   3.555   3.038   9.223 -0.5193  1.3096 -2.5504
 1437SOL    HW215945   3.415   3.053   9.262  0.2557 -0.9149  2.7332
 1438SOL     OW15946   0.278   2.190   5.950  0.6316 -0.2759  0.2114
 1438SOL    HW115947   0.330   2.228   6.021  2.2995 -1.8277 -0.1659
 1438SOL    HW215948   0.347   2.147   5.899 -1.4152 -3.3235  0.0336
 1439SOL     OW15949   1.134   2.153   5.249 -0.2480 -0.3990 -0.3532
 1439SOL    HW115950   1.203   2.195   5.197 -3.1814  0.2969 -3.6480
 1439SOL    HW215951   1.135   2.069   5.202  0.0342  0.5210 -1.9696
 1440SOL     OW15952   4.067   3.472   2.060 -0.2610  0.6172 -0.2079
 1440SOL    HW115953   4.128   3.408   2.095 -3.8905 -0.3748  4.3308
 1440SOL    HW215954   4.083   3.543   2.122 -0.0911  1.9950 -1.8153
 1441SOL     OW15955   0.177   1.740   6.919  0.2846  0.2419  0.3505
 1441SOL    HW115956   0.133   1.655   6.911 -0.4261  0.6267  0.1838
 1441SOL    HW215957   0.218   1.761   6.835 -0.8512  2.0409  0.2298
 1442SOL     OW15958   3.520   3.734   2.023 -0.8545  0.5414  0.4854
 1442SOL    HW115959   3.502   3.670   1.953  0.3797  0.3914  0.3065
 1442SOL    HW215960   3.612   3.745   1.999 -1.1569  2.7718  0.4116
 1443SOL     OW15961   3.065   3.053  16.783 -0.0503 -0.0288  0.1464
 1443SOL    HW115962   3.078   2.958  16.775  0.6722  0.1523 -0.9094
 1443SOL    HW215963   3.152   3.088  16.801  0.3945  0.0836 -2.1506
 1444SOL     OW15964   3.488   2.857   4.372  0.7168  0.7530 -0.2946
 1444SOL    HW115965   3.470   2.878   4.280 -0.5952  0.4464 -0.0923
 1444SOL    HW215966   3.562   2.798   4.355 -1.9583 -3.2188  1.8993
 1445SOL     OW15967   3.730   3.626  10.224  0.3379  0.1765  0.2875
 1445SOL    HW115968   3.718   3.601  10.316  0.3773 -3.8050 -0.7580
 1445SOL    HW215969   3.819   3.661  10.230  0.6673 -0.4696 -0.9767
 1446SOL     OW15970   0.230   0.206  14.950 -0.0363 -0.0460 -0.5385
 1446SOL    HW115971   0.138   0.227  14.934 -0.8649 -2.4699  1.0696
 1446SOL    HW215972   0.245   0.268  15.022  2.8207 -0.7995 -0.5163
 1447SOL     OW15973   0.865   1.647   5.604  0.2235  0.0334  0.2567
 1447SOL    HW115974   0.866   1.563   5.560 -1.3318  0.5706 -0.7907
 1447SOL    HW215975   0.910   1.699   5.538  1.1184 -1.0418  0.0315
 1448SOL     OW15976   0.077   1.720  16.710 -0.1722  0.0716  0.2895
 1448SOL    HW115977   0.095   1.697  16.618  1.2983  2.6823 -0.0691
 1448SOL    HW215978   4.719   1.716  16.708 -0.1646 -0.1369  0.2700
 1449SOL     OW15979   1.735   1.629  11.299 -0.2145  0.0542 -1.0702
 1449SOL    HW115980   1.720   1.582  11.216 -1.5183 -2.3604  0.5281
 1449SOL    HW215981   1.655   1.680  11.312  1.2359  1.8061  0.8726
 1450SOL     OW15982   3.139   2.394   6.312 -0.1351 -1.0502 -0.1233
 1450SOL    HW115983   3.185   2.445   6.245 -0.6036 -3.2606 -2.1010
 1450SOL    HW215984   3.216   2.363   6.360 -1.3243 -1.9796  1.1920
 1451SOL     OW15985   3.568   1.958  13.850 -0.2192  0.8043  0.0503
 1451SOL    HW115986   3.634   1.911  13.901 -0.4778  2.2915  1.7782
 1451SOL    HW215987   3.625   1.980  13.776  2.0031 -1.6365  1.0306
 1452SOL     OW15988   1.790   4.658   3.798  0.5474  0.2593 -0.0535
 1452SOL    HW115989   1.785   4.694   3.710  0.8028 -2.4611 -1.1644
 1452SOL    HW215990   1.762   4.569   3.777  1.0031  0.3066 -0.8383
 1453SOL     OW15991   3.672   0.991   2.827 -0.1874  0.6458  0.0666
 1453SOL    HW115992   3.638   0.926   2.766  0.3189  1.2968 -0.9158
 1453SOL    HW215993   3.739   0.950   2.883 -1.1801 -0.9452  0.0946
 1454SOL     OW15994   3.996   1.857   3.385 -0.3338  0.4123 -0.0051
 1454SOL    HW115995   3.969   1.772   3.420  1.4377 -0.6931 -1.2965
 1454SOL    HW215996   3.938   1.908   3.442 -0.4791 -0.5798  0.7405
 1455SOL     OW15997   4.256   3.632   3.525  0.3419  0.2035 -0.0861
 1455SOL    HW115998   4.226   3.541   3.535  0.0143  0.2989 -0.1989
 1455SOL    HW215999   4.247   3.640   3.430  0.6110  1.0388 -0.0388
 1456SOL     OW16000   0.637   1.405   3.690  0.4571  0.1838 -0.1062
 1456SOL    HW116001   0.671   1.348   3.622  0.2712 -0.6250  0.4819
 1456SOL    HW216002   0.643   1.491   3.648  0.0100  0.0982 -0.3518
 1457SOL     OW16003   3.138   3.188  12.128  0.4222 -0.2614  0.2913
 1457SOL    HW116004   3.230   3.163  12.134  0.3315 -0.6875 -0.0964
 1457SOL    HW216005   3.098   3.101  12.118  2.4476 -1.1218 -0.3412
 1458SOL     OW16006   2.075   4.725   2.221  0.3901 -0.4633 -0.2958
 1458SOL    HW116007   2.084   4.646   2.274 -0.5827  0.2658  0.9940
 1458SOL    HW216008   1.980   4.734   2.233  0.5732  0.6721  0.2860
 1459SOL     OW16009   0.756   1.824   2.565 -0.1600 -0.6694  0.1450
 1459SOL    HW116010   0.823   1.758   2.553 -0.2256 -0.2760 -2.2977
 1459SOL    HW216011   0.775   1.881   2.491  0.5698  1.7351  2.1695
 1460SOL     OW16012   1.374   1.508   7.039  0.3280 -0.0898  0.0463
 1460SOL    HW116013   1.403   1.423   7.072  1.1109 -0.7083 -2.2348
 1460SOL    HW216014   1.332   1.543   7.118  0.4141  0.0138  0.0473
 1461SOL     OW16015   2.702   0.305   3.109  0.4861 -0.0509 -0.3139
 1461SOL    HW116016   2.673   0.360   3.182  0.2906  0.3270 -0.6772
 1461SOL    HW216017   2.622   0.252   3.101  0.8497 -0.4410 -1.3551
 1462SOL     OW16018   1.729   0.607   3.127 -0.4214  0.6207 -0.9052
 1462SOL    HW116019   1.666   0.537   3.111  0.9229 -0.6371 -0.7098
 1462SOL    HW216020   1.674   0.679   3.097 -0.7080 -0.0535 -2.0115
 1463SOL     OW16021   1.671   1.412   0.319  0.9899  0.2097 -0.2218
 1463SOL    HW116022   1.614   1.484   0.345 -0.5649 -1.1705  0.2081
 1463SOL    HW216023   1.619   1.340   0.355  0.4308  0.8558  0.2633
 1464SOL     OW16024   1.042   2.236   3.774 -0.1158  0.0059 -0.0609
 1464SOL    HW116025   1.009   2.148   3.791 -1.5823  0.1959 -1.9236
 1464SOL    HW216026   1.037   2.249   3.679 -2.0864 -0.8535 -0.0833
 1465SOL     OW16027   2.668   3.219   6.265  0.3617  0.8052 -0.3608
 1465SOL    HW116028   2.692   3.130   6.293 -2.9408 -0.2149 -0.7589
 1465SOL    HW216029   2.746   3.271   6.283  0.3536  0.5212  0.5204
 1466SOL     OW16030   1.941   4.597   4.047 -0.4301  0.0745  0.1813
 1466SOL    HW116031   1.876   4.605   4.118 -1.9867  1.1795 -1.3583
 1466SOL    HW216032   1.884   4.588   3.970  0.2581  1.9902 -0.5408
 1467SOL     OW16033   3.168   3.069   8.188 -0.3328  0.2005  0.1978
 1467SOL    HW116034   3.201   2.982   8.207  1.2004  0.7280 -0.0807
 1467SOL    HW216035   3.095   3.076   8.250  0.4647 -0.6044  1.2085
 1468SOL     OW16036   4.010   3.351  12.633  0.0434 -0.3023  0.1642
 1468SOL    HW116037   3.953   3.401  12.691 -0.5303 -0.9795  0.2000
 1468SOL    HW216038   3.982   3.264  12.661 -2.9194  0.0487 -1.6532
 1469SOL     OW16039   2.992   4.637   7.141 -0.0172 -0.1855 -0.2303
 1469SOL    HW116040   3.022   4.726   7.120  0.1959 -0.2640 -0.2633
 1469SOL    HW216041   2.982   4.641   7.236  0.8048  1.9739 -0.2366
 1470SOL     OW16042   0.153   0.866  16.628 -0.3029  0.1540  0.3727
 1470SOL    HW116043   0.141   0.850  16.534  0.6235 -0.6927  0.3976
 1470SOL    HW216044   0.207   0.788  16.641 -1.9015 -1.3274 -1.8718
 1471SOL     OW16045   2.748   1.993   7.743 -0.0803 -0.1287  0.6867
 1471SOL    HW116046   2.656   1.984   7.721  0.2853 -1.3266 -0.3345
 1471SOL    HW216047   2.790   1.919   7.699 -0.8035 -0.3587  0.3909
 1472SOL     OW16048   4.410   0.456   6.968 -0.0410 -0.6081  0.2352
 1472SOL    HW116049   4.506   0.450   6.967  0.0800  1.4635  0.4841
 1472SOL    HW216050   4.384   0.370   7.000  0.8085 -0.9574 -0.0030
 1473SOL     OW16051   0.144   2.254   0.562 -0.2256 -0.3093  0.1724
 1473SOL    HW116052   0.109   2.340   0.586  2.0965  0.6811  0.0011
 1473SOL    HW216053   0.221   2.254   0.620  0.6881 -0.1906 -1.0314
 1474SOL     OW16054   0.531   3.037   6.299 -0.0196  0.4809 -0.0505
 1474SOL    HW116055   0.487   3.056   6.216 -0.7471 -1.8316 -0.2168
 1474SOL    HW216056   0.506   2.946   6.318  1.3784 -0.3054 -2.0774
 1475SOL     OW16057   2.612   2.482   5.426  0.0061 -0.5998 -0.0236
 1475SOL    HW116058   2.689   2.460   5.373  0.2078 -0.0361  0.0393
 1475SOL    HW216059   2.631   2.452   5.515  2.3807 -1.9436 -1.0034
 1476SOL     OW16060   1.721   3.864   9.724  0.5316 -0.1699  0.4030
 1476SOL    HW116061   1.642   3.810   9.728  0.9260 -0.9881 -2.7990
 1476SOL    HW216062   1.777   3.823   9.790  1.5455 -0.4761 -0.6362
 1477SOL     OW16063   0.712   2.194   1.152  0.2960  0.5450  0.2211
 1477SOL    HW116064   0.646   2.223   1.215  0.6051  1.2954  0.1988
 1477SOL    HW216065   0.660   2.164   1.078  2.2519 -0.9958 -0.5297
 1478SOL     OW16066   0.437   0.606   7.096 -0.1173  0.5363  0.1496
 1478SOL    HW116067   0.368   0.672   7.085  0.6095  1.4269  0.8261
 1478SOL    HW216068   0.471   0.609   7.007 -3.3243  3.8905 -0.9868
 1479SOL     OW16069   2.491   1.178  17.494  0.7226  0.4110 -0.1718
 1479SOL    HW116070   2.519   1.128  17.570 -3.0975  1.4098  1.8958
 1479SOL    HW216071   2.410   1.133  17.471  0.3866  1.5762 -1.2871
 1480SOL     OW16072   3.876   3.911  11.952  0.3644  0.5862 -0.0273
 1480SOL    HW116073   3.796   3.906  11.899  0.1801 -0.7936  0.3762
 1480SOL    HW216074   3.923   3.839  11.908  1.1236  1.3576 -0.4786
 1481SOL     OW16075   3.423   2.669  10.546  0.5623 -0.1628 -0.2686
 1481SOL    HW116076   3.366   2.593  10.547 -0.5493  0.6454 -1.0966
 1481SOL    HW216077   3.372   2.724  10.605 -0.3021  0.4683 -1.5965
 1482SOL     OW16078   4.327   3.498   6.176 -0.3545  0.1405 -0.3514
 1482SOL    HW116079   4.341   3.424   6.235  1.8258  0.5838 -0.2868
 1482SOL    HW216080   4.419   3.522   6.159 -0.2589  1.6991  2.2815
 1483SOL     OW16081   4.711   2.018   5.534 -0.3324 -0.1748  0.6206
 1483SOL    HW116082   0.057   2.029   5.580 -0.2331  0.0672  0.3832
 1483SOL    HW216083   4.736   2.002   5.443 -3.2899  1.0692 -0.3718
 1484SOL     OW16084   2.990   1.692  12.441  0.1983 -0.6922  0.3291
 1484SOL    HW116085   2.944   1.670  12.360 -0.2423  1.6446 -0.0426
 1484SOL    HW216086   3.078   1.704  12.405  0.2969 -0.3321  0.6922
 1485SOL     OW16087   0.061   0.499   8.656  0.4845 -0.3979  0.2325
 1485SOL    HW116088   0.021   0.526   8.739 -1.5101 -0.5980 -0.6777
 1485SOL    HW216089   0.085   0.408   8.672  1.1587 -0.4085 -0.8957
 1486SOL     OW16090   2.204   4.562   1.366  0.1452  0.2229  0.1536
 1486SOL    HW116091   2.237   4.628   1.305  1.4133 -0.3828  0.1707
 1486SOL    HW216092   2.276   4.551   1.428  0.9801  1.8487 -0.5197
 1487SOL     OW16093   0.528   2.962   4.249 -0.1955  0.1802  0.3456
 1487SOL    HW116094   0.485   2.876   4.240 -0.0117  0.2663 -1.3051
 1487SOL    HW216095   0.576   2.942   4.329 -3.2137 -0.0791  2.1123
 1488SOL     OW16096   1.329   2.144   3.444  0.5788 -0.6101  0.6017
 1488SOL    HW116097   1.315   2.049   3.441 -1.9743 -0.3035  2.2600
 1488SOL    HW216098   1.305   2.169   3.355 -1.3385  1.5312  1.7050
 1489SOL     OW16099   2.994   1.102   8.309  0.3145 -0.4859  0.0527
 1489SOL    HW116100   3.003   1.092   8.404  0.2522 -0.7912  0.0261
 1489SOL    HW216101   3.085   1.111   8.281  1.2107 -1.0807  2.7884
 1490SOL     OW16102   3.540   3.772   9.009 -0.4488  0.2088 -0.2687
 1490SOL    HW116103   3.523   3.835   8.939  0.4197 -0.2447 -0.8812
 1490SOL    HW216104   3.466   3.786   9.069 -0.1045  0.9912 -0.0250
 1491SOL     OW16105   0.672   2.298   4.698  0.0075  0.2534  0.2128
 1491SOL    HW116106   0.706   2.357   4.630  3.0924 -1.0961  0.5991
 1491SOL    HW216107   0.742   2.303   4.763  1.2133  2.2664 -1.2315
 1492SOL     OW16108   0.279   0.846   2.972 -0.2916 -0.2746  0.3334
 1492SOL    HW116109   0.226   0.917   3.008  0.5732  0.5416 -0.0145
 1492SOL    HW216110   0.207   0.786   2.953  0.1448 -0.8868  0.6102
 1493SOL     OW16111   0.446   3.425   9.482 -0.4870  0.0912 -0.0132
 1493SOL    HW116112   0.450   3.364   9.409  1.0209  2.0922 -1.5999
 1493SOL    HW216113   0.416   3.365   9.550 -0.7371  0.6197  0.3479
 1494SOL     OW16114   0.099   0.900   8.694  0.1721  0.2954  0.1843
 1494SOL    HW116115   0.171   0.875   8.751 -0.3671  0.0178  0.7405
 1494SOL    HW216116   0.123   0.989   8.670  0.8751 -0.4040 -1.7842
 1495SOL     OW16117   0.645   1.350   6.753  0.3920  0.4311 -0.5269
 1495SOL    HW116118   0.639   1.435   6.797 -1.1137 -0.0492  0.2072
 1495SOL    HW216119   0.593   1.301   6.817  0.0075  1.1857 -0.2652
 1496SOL     OW16120   2.038   4.645   8.343 -0.2282  0.8018 -0.4236
 1496SOL    HW116121   2.045   4.699   8.265 -0.4779 -1.4474 -1.9925
 1496SOL    HW216122   2.126   4.650   8.381 -0.4675 -1.7379  0.4732
 1497SOL     OW16123   3.359   4.559   6.646  0.0917  0.5259 -0.7423
 1497SOL    HW116124   3.312   4.528   6.569 -1.3621  1.1156 -0.0819
 1497SOL    HW216125   3.433   4.500   6.632 -0.1279  0.6491 -2.3213
 1498SOL     OW16126   0.304   1.030   9.072  0.1627 -0.4431  0.0167
 1498SOL    HW116127   0.284   0.961   9.009  0.6497  0.6372 -1.3290
 1498SOL    HW216128   0.335   1.101   9.016  0.3575  0.4351  1.2317
 1499SOL     OW16129   2.940   2.401   7.685 -0.0194 -0.1623 -0.2242
 1499SOL    HW116130   2.931   2.376   7.777 -1.7311  0.0315 -0.3469
 1499SOL    HW216131   2.966   2.493   7.692  0.7411 -0.2158 -2.5594
 1500SOL     OW16132   4.139   1.327   3.688  0.4763 -0.0008 -0.1828
 1500SOL    HW116133   4.123   1.399   3.750 -0.4534 -2.6268  2.6103
 1500SOL    HW216134   4.190   1.257   3.728  1.2252  1.2110  1.0140
 1501SOL     OW16135   0.773   1.414  10.390 -0.0086  0.3943 -0.3657
 1501SOL    HW116136   0.852   1.431  10.441  0.7177 -1.0474 -0.9918
 1501SOL    HW216137   0.750   1.323  10.410  1.7665  0.1432  0.5081
 1502SOL     OW16138   1.900   0.893  14.517  0.2085 -0.5410 -0.6807
 1502SOL    HW116139   1.920   0.878  14.425  0.6827 -1.1121 -0.4901
 1502SOL    HW216140   1.981   0.874  14.564  0.6951 -1.7591 -2.0234
 1503SOL     OW16141   0.579   2.327   2.542 -0.0099  0.1543  0.2432
 1503SOL    HW116142   0.669   2.300   2.561 -0.6677 -0.9108  1.8783
 1503SOL    HW216143   0.539   2.328   2.629  0.1259 -1.9756  0.3286
 1504SOL     OW16144   1.415   0.499   3.468 -0.1553  0.6251  0.2421
 1504SOL    HW116145   1.443   0.414   3.434  1.1529  1.1433  0.0398
 1504SOL    HW216146   1.411   0.552   3.388 -1.6861  2.5776  1.6223
 1505SOL     OW16147   2.320   2.843   5.630 -0.8729  0.6864  0.1417
 1505SOL    HW116148   2.410   2.871   5.646 -0.3221 -1.4240  0.7779
 1505SOL    HW216149   2.324   2.751   5.656  1.1275  0.8384  0.3867
 1506SOL     OW16150   2.399   0.182   6.708 -0.3292  0.2132  0.3399
 1506SOL    HW116151   2.487   0.157   6.681 -0.4705  1.6295 -1.4011
 1506SOL    HW216152   2.382   0.243   6.637 -0.5926 -0.7932 -0.4562
 1507SOL     OW16153   3.576   3.065   3.923 -0.2243 -0.0901 -0.3835
 1507SOL    HW116154   3.627   3.142   3.948 -0.8587 -0.2300  1.3493
 1507SOL    HW216155   3.506   3.076   3.988  2.1537 -0.5123  2.2824
 1508SOL     OW16156   0.846   0.071   9.032  0.3064  0.0975  0.4650
 1508SOL    HW116157   0.919   0.047   9.088 -0.9475 -1.1444  1.5794
 1508SOL    HW216158   0.862   0.165   9.030 -0.8269  0.2894  0.0919
 1509SOL     OW16159   4.260   3.527   8.636 -0.2496  0.6254 -0.7080
 1509SOL    HW116160   4.257   3.516   8.540 -0.4474  0.9895 -0.7430
 1509SOL    HW216161   4.352   3.545   8.657 -1.0861  0.6796  2.8617
 1510SOL     OW16162   0.285   1.393  16.007  0.4998  0.3395 -0.5742
 1510SOL    HW116163   0.272   1.477  16.052 -0.6008 -0.0102 -0.2376
 1510SOL    HW216164   0.244   1.344  16.078  0.5477  0.0654 -0.7388
 1511SOL     OW16165   0.910   1.300   9.911 -0.2434 -0.3289  0.3912
 1511SOL    HW116166   0.928   1.288  10.004 -0.9742  2.8251  0.9277
 1511SOL    HW216167   0.962   1.375   9.884 -0.2424 -0.2485  0.6200
 1512SOL     OW16168   0.413   2.823   2.012 -0.3691 -0.0407  0.5052
 1512SOL    HW116169   0.452   2.911   2.012 -0.9180  0.2092 -0.7885
 1512SOL    HW216170   0.318   2.837   2.011 -0.2661  0.5590 -1.1483
 1513SOL     OW16171   2.381   0.203  12.129 -0.6591  0.4336  0.1037
 1513SOL    HW116172   2.371   0.296  12.112  1.4843  0.7242  0.3741
 1513SOL    HW216173   2.293   0.171  12.109 -0.7334  0.6256  0.1239
 1514SOL     OW16174   2.989   3.292   5.052  0.0711 -0.2585 -0.3350
 1514SOL    HW116175   3.046   3.215   5.047 -1.2203 -1.4635  3.3874
 1514SOL    HW216176   3.010   3.339   4.971 -1.5822  3.0225  1.1379
 1515SOL     OW16177   1.897   0.336   5.747  0.5916  0.4463  0.1607
 1515SOL    HW116178   1.873   0.384   5.668 -0.9287 -0.1266  0.2771
 1515SOL    HW216179   1.866   0.248   5.725  0.7747  0.1819  0.9453
 1516SOL     OW16180   4.299   4.526   7.710 -0.1416  0.2129 -0.5032
 1516SOL    HW116181   4.376   4.577   7.685 -0.2920 -0.1309 -1.6443
 1516SOL    HW216182   4.233   4.568   7.654 -0.8521 -2.2946 -1.5196
 1517SOL     OW16183   0.431   3.531   7.097  0.5421  0.4916 -0.2982
 1517SOL    HW116184   0.524   3.541   7.116  0.7762 -1.4272 -0.4420
 1517SOL    HW216185   0.417   3.439   7.118  0.6906 -0.0804 -2.6643
 1518SOL     OW16186   3.214   3.953   7.284  0.2491  0.6705 -0.4126
 1518SOL    HW116187   3.248   4.019   7.344 -1.1378  0.9888  0.0169
 1518SOL    HW216188   3.118   3.952   7.285  0.3011 -1.8117  0.9580
 1519SOL     OW16189   4.538   3.115   1.843  0.1424  0.2269 -0.3496
 1519SOL    HW116190   4.461   3.099   1.898 -0.4173 -0.6230 -1.3796
 1519SOL    HW216191   4.597   3.127   1.917 -1.5835  0.4112  1.0087
 1520SOL     OW16192   2.429   0.123   2.835 -0.4169  0.3895 -0.0944
 1520SOL    HW116193   2.498   0.176   2.794  2.9164 -2.8641  1.3651
 1520SOL    HW216194   2.474   0.044   2.862  0.0419  0.7048  0.0619
 1521SOL     OW16195   3.277   4.367  15.305 -0.4956 -0.4013  0.1555
 1521SOL    HW116196   3.315   4.454  15.308 -1.0677 -0.1171 -0.8612
 1521SOL    HW216197   3.352   4.323  15.344 -0.4625  0.3920  0.9728
 1522SOL     OW16198   0.022   0.127   4.985 -0.4345  0.0383  0.5521
 1522SOL    HW116199   0.004   0.094   5.073 -0.3971 -3.5025 -0.7332
 1522SOL    HW216200   0.110   0.163   4.988 -0.3662 -0.1824  1.2017
 1523SOL     OW16201   1.333   1.851  17.208 -0.0836  0.1797  0.0760
 1523SOL    HW116202   1.420   1.860  17.171  0.2912 -0.0591  0.9051
 1523SOL    HW216203   1.309   1.771  17.162  0.5973 -0.1850  0.3613
 1524SOL     OW16204   1.256   0.841   6.816  0.1327 -0.4025 -0.0735
 1524SOL    HW116205   1.228   0.932   6.826 -0.5435 -0.5322 -0.7984
 1524SOL    HW216206   1.272   0.822   6.908  0.2444 -1.8472 -0.3935
 1525SOL     OW16207   1.392   3.727   2.677 -0.5712  0.0975  0.6269
 1525SOL    HW116208   1.321   3.677   2.637  0.2563 -0.6012  0.0203
 1525SOL    HW216209   1.354   3.757   2.760 -0.1363  4.2957 -0.6868
 1526SOL     OW16210   2.844   4.389   3.829  0.6700  0.2626 -0.0124
 1526SOL    HW116211   2.875   4.429   3.747 -0.7537  3.3490  0.9603
 1526SOL    HW216212   2.815   4.309   3.786 -0.2351  0.0290  1.0550
 1527SOL     OW16213   0.752   0.531   2.713  0.1128  0.0297  0.4615
 1527SOL    HW116214   0.821   0.563   2.655 -2.9148  0.3650 -2.9591
 1527SOL    HW216215   0.789   0.552   2.799  1.5067  0.7219 -0.3122
 1528SOL     OW16216   2.480   4.230  17.356 -0.4948  0.1994  0.3187
 1528SOL    HW116217   2.422   4.301  17.331 -0.7439 -0.9448 -2.3656
 1528SOL    HW216218   2.519   4.227  17.269  1.6266  2.3194  1.2052
 1529SOL     OW16219   3.764   0.793  12.028  0.3646 -0.0640  0.3423
 1529SOL    HW116220   3.669   0.786  12.043  0.1772  0.0236 -0.8170
 1529SOL    HW216221   3.758   0.860  11.960  0.4006  0.8555  1.2541
 1530SOL     OW16222   2.690   1.619   2.975  0.2032 -0.0329  0.2477
 1530SOL    HW116223   2.781   1.587   2.976 -1.2304 -4.2287 -1.3344
 1530SOL    HW216224   2.704   1.711   2.993  3.1101  0.0655 -2.3854
 1531SOL     OW16225   0.665   3.653   7.354  0.3488 -0.0499 -0.2014
 1531SOL    HW116226   0.727   3.588   7.387 -1.1689 -0.5978  1.5394
 1531SOL    HW216227   0.682   3.642   7.260  1.5232  0.6351 -0.0567
 1532SOL     OW16228   2.954   3.333   5.318 -0.0291  0.3711 -0.3070
 1532SOL    HW116229   2.948   3.337   5.222 -1.7753 -1.5822 -0.2827
 1532SOL    HW216230   2.870   3.293   5.339  0.9648 -1.9523 -0.7042
 1533SOL     OW16231   1.785   0.637   1.899 -0.5581  0.8254  0.3103
 1533SOL    HW116232   1.768   0.552   1.940 -1.1250  0.2585 -1.1288
 1533SOL    HW216233   1.716   0.648   1.834 -0.1594  1.9857  0.0754
 1534SOL     OW16234   0.040   2.112  12.191 -0.0384 -0.5626 -0.0179
 1534SOL    HW116235   0.061   2.101  12.098  1.7935  1.1254  0.2039
 1534SOL    HW216236   0.050   2.027  12.233  1.9987  0.5970  1.8106
 1535SOL     OW16237   3.789   2.667   6.535 -0.0018  0.4490 -0.6007
 1535SOL    HW116238   3.712   2.636   6.487 -1.0906  0.8831  0.8607
 1535SOL    HW216239   3.805   2.589   6.589 -1.8496 -0.6742 -1.6910
 1536SOL     OW16240   3.763   4.657   7.989  0.0413  0.2564  0.1221
 1536SOL    HW116241   3.743   4.589   8.054  0.1954  1.9346  1.9008
 1536SOL    HW216242   3.829   4.614   7.935 -0.1669  0.3824 -0.2311
 1537SOL     OW16243   0.799   0.041  16.731 -0.3477 -0.0589 -0.1407
 1537SOL    HW116244   0.707   0.025  16.711 -0.9806  0.6171  2.2122
 1537SOL    HW216245   0.788   0.093  16.810 -0.9714  0.9681 -0.9000
 1538SOL     OW16246   4.502   2.357   9.298  0.1109  0.2240 -0.7423
 1538SOL    HW116247   4.556   2.435   9.308 -0.1962  0.4415 -0.7877
 1538SOL    HW216248   4.575   2.305   9.265  1.2191  1.9910 -1.0972
 1539SOL     OW16249   0.173   0.052  13.823  0.1002  0.3606 -0.0312
 1539SOL    HW116250   0.164   0.028  13.915  0.9508  3.6396  0.9250
 1539SOL    HW216251   0.085   0.084  13.802  0.8569  1.0616 -2.1202
 1540SOL     OW16252   4.219   3.931  14.929 -0.0847 -0.6193 -0.0646
 1540SOL    HW116253   4.194   4.019  14.958 -0.4961 -0.8105  0.1615
 1540SOL    HW216254   4.167   3.902  14.854  1.7600  0.6064 -1.8369
 1541SOL     OW16255   2.379   2.565  16.959 -0.3034 -0.6279 -0.1669
 1541SOL    HW116256   2.321   2.582  17.033  1.8479  0.8068  1.1948
 1541SOL    HW216257   2.332   2.491  16.920 -2.2129  0.8108 -0.6146
 1542SOL     OW16258   4.005   0.131   5.164 -0.5891 -0.0143 -0.4309
 1542SOL    HW116259   3.995   0.080   5.084  1.0124 -0.9245 -0.0520
 1542SOL    HW216260   4.013   0.065   5.232  0.7779 -0.8961 -1.4462
 1543SOL     OW16261   2.072   2.842   7.127  0.3477 -0.4237  0.5659
 1543SOL    HW116262   2.141   2.900   7.096  1.6628 -1.0028  2.4423
 1543SOL    HW216263   2.085   2.760   7.080 -2.6975  0.1450 -1.2822
 1544SOL     OW16264   2.986   4.015   5.871  0.2307  0.4535  0.3665
 1544SOL    HW116265   3.057   4.054   5.821  0.7824 -2.6155 -1.2782
 1544SOL    HW216266   3.021   3.928   5.891  2.4535  1.1481 -0.5244
 1545SOL     OW16267   4.702   3.309   1.719 -0.1040  0.1719  0.2558
 1545SOL    HW116268   0.059   3.310   1.733  0.0667 -0.3099 -0.8035
 1545SOL    HW216269   4.682   3.222   1.753  2.1016  0.2108  1.6292
 1546SOL     OW16270   1.455   3.141   4.117  0.1000  0.1051  0.4203
 1546SOL    HW116271   1.476   3.168   4.206 -0.8952  1.4729  0.2422
 1546SOL    HW216272   1.499   3.057   4.109 -0.5490 -0.1906 -0.0301
 1547SOL     OW16273   2.578   2.753  14.481  0.3401  0.3388  0.3207
 1547SOL    HW116274   2.591   2.721  14.392 -1.1943  3.3798 -1.0182
 1547SOL    HW216275   2.483   2.747  14.494  0.3515 -0.8882 -0.1595
 1548SOL     OW16276   2.750   4.240   8.173 -0.1561 -0.5471 -0.5491
 1548SOL    HW116277   2.834   4.279   8.195 -0.4504 -0.4786  0.4419
 1548SOL    HW216278   2.772   4.149   8.194  1.7992  0.2993  0.9865
 1549SOL     OW16279   3.416   3.323   7.096 -0.4630  0.3616 -0.4570
 1549SOL    HW116280   3.480   3.321   7.167  0.3277  1.3322 -1.1516
 1549SOL    HW216281   3.339   3.306   7.150 -0.5830  0.3805 -0.6208
 1550SOL     OW16282   3.084   1.345   7.916 -0.3008  0.3068  0.1870
 1550SOL    HW116283   3.160   1.377   7.867 -0.6247  0.2693 -0.3415
 1550SOL    HW216284   3.107   1.380   8.002 -0.1011 -1.1935  0.7388
 1551SOL     OW16285   1.836   1.526   7.608  0.3004 -0.4328  0.3142
 1551SOL    HW116286   1.793   1.446   7.579 -1.4421  0.5479  0.1717
 1551SOL    HW216287   1.845   1.511   7.702  1.9066 -1.8990 -0.0848
 1552SOL     OW16288   3.274   2.096  12.252  0.3395  0.0565  0.5245
 1552SOL    HW116289   3.285   2.071  12.343  1.0035  0.6529  0.6066
 1552SOL    HW216290   3.350   2.154  12.245 -0.1700  0.8822  1.9448
 1553SOL     OW16291   1.519   0.220   5.138 -0.3474  0.3085 -0.1079
 1553SOL    HW116292   1.455   0.157   5.171 -0.8556  0.6764 -0.3965
 1553SOL    HW216293   1.491   0.244   5.050 -3.5455  0.5379  0.9604
 1554SOL     OW16294   3.627   0.639   9.736 -0.5309 -0.2459  0.3895
 1554SOL    HW116295   3.693   0.698   9.771 -0.7392  0.4660 -0.4086
 1554SOL    HW216296   3.661   0.554   9.764  0.8565 -0.0637 -0.7519
 1555SOL     OW16297   2.032   0.723   1.069  0.2747  0.0165 -0.1758
 1555SOL    HW116298   1.992   0.789   1.125  1.1664  0.1855  0.2722
 1555SOL    HW216299   1.963   0.678   1.020  1.6218 -1.0714 -1.0966
 1556SOL     OW16300   2.345   3.283  13.573 -0.1049  0.3133 -0.0079
 1556SOL    HW116301   2.342   3.247  13.662  2.2240 -1.5999 -0.6983
 1556SOL    HW216302   2.266   3.337  13.569 -0.6522 -0.4003  1.2399
 1557SOL     OW16303   2.338   0.705   3.664  0.0621  0.0627 -0.0717
 1557SOL    HW116304   2.304   0.709   3.574  2.2051 -1.1620 -0.9404
 1557SOL    HW216305   2.279   0.638   3.697 -0.2673  1.6291  2.5415
 1558SOL     OW16306   2.400   3.337   1.576  0.3448  0.0462 -0.0207
 1558SOL    HW116307   2.319   3.303   1.540 -0.7131  0.4805  1.9751
 1558SOL    HW216308   2.450   3.332   1.494  1.4537 -0.0834  0.6660
 1559SOL     OW16309   0.602   0.927  13.607  0.3062 -0.0142  0.4428
 1559SOL    HW116310   0.576   0.840  13.637  1.6209 -0.4878  0.1960
 1559SOL    HW216311   0.526   0.950  13.553 -0.2705 -2.4194  0.2057
 1560SOL     OW16312   0.401   3.911   3.479  0.1930 -0.9509 -0.1862
 1560SOL    HW116313   0.476   3.853   3.468 -0.2820 -1.7750  0.9391
 1560SOL    HW216314   0.374   3.888   3.567 -0.7646  0.7059 -0.0496
 1561SOL     OW16315   1.216   0.103   6.652  0.5392  0.3874 -0.1697
 1561SOL    HW116316   1.301   0.093   6.608  1.0160 -0.5923  0.9715
 1561SOL    HW216317   1.218   0.198   6.647 -0.1355  0.3208 -1.4030
 1562SOL     OW16318   0.575   3.636   4.771  0.4245 -0.4009  0.4410
 1562SOL    HW116319   0.492   3.615   4.729  0.8360 -1.6366  0.2456
 1562SOL    HW216320   0.573   3.729   4.796  0.5811 -0.6584  1.4418
 1563SOL     OW16321   3.485   1.912   5.330  0.6321 -0.0512 -0.3421
 1563SOL    HW116322   3.492   1.923   5.235  2.2660 -0.5953 -0.2865
 1563SOL    HW216323   3.495   1.817   5.337  0.5522 -0.1354 -1.4476
 1564SOL     OW16324   1.692   0.083   8.927  0.7496  0.2465 -0.0058
 1564SOL    HW116325   1.731   0.122   9.005 -0.5908 -0.3498  0.9447
 1564SOL    HW216326   1.631   0.145   8.888  0.3091  1.1028  2.0849
 1565SOL     OW16327   0.626   2.241   1.455 -0.3038 -0.1361  0.2937
 1565SOL    HW116328   0.674   2.316   1.490  1.2376 -1.3464  0.7462
 1565SOL    HW216329   0.562   2.290   1.403 -1.0244 -2.5156 -1.0913
 1566SOL     OW16330   0.574   0.965   6.958 -0.3836 -0.2951 -0.0557
 1566SOL    HW116331   0.494   0.919   6.984  0.0229  0.5287  2.5970
 1566SOL    HW216332   0.557   0.991   6.867 -0.9984 -1.6572 -0.3392
 1567SOL     OW16333   3.299   3.639   4.024 -0.1007 -0.7116  0.5937
 1567SOL    HW116334   3.249   3.611   3.948  0.6482 -2.3176  0.6976
 1567SOL    HW216335   3.389   3.645   3.991 -0.0535 -1.7211  0.5542
 1568SOL     OW16336   0.542   0.616   3.363 -0.1013  0.4199  0.4652
 1568SOL    HW116337   0.465   0.594   3.416  0.6962 -1.1022  0.9777
 1568SOL    HW216338   0.510   0.660   3.283  0.8869  1.0648  0.4227
 1569SOL     OW16339   1.540   4.353   8.238 -0.2176 -0.2521  0.3674
 1569SOL    HW116340   1.508   4.264   8.250  0.1448 -0.2167  1.5378
 1569SOL    HW216341   1.630   4.354   8.269 -0.1932  0.2447  0.2891
 1570SOL     OW16342   2.909   0.374   6.391  0.4485 -0.0153 -0.2155
 1570SOL    HW116343   2.845   0.429   6.345 -0.4934  1.1913  2.5161
 1570SOL    HW216344   2.905   0.414   6.478  0.6417 -0.2897 -0.0806
 1571SOL     OW16345   0.747   3.984   2.743 -0.3494  0.6704 -0.2174
 1571SOL    HW116346   0.825   3.970   2.690 -1.0934  1.8854 -1.6560
 1571SOL    HW216347   0.718   4.068   2.706 -0.0973 -0.0028 -1.9142
 1572SOL     OW16348   2.313   1.418   3.827  0.1722 -0.1917  0.4042
 1572SOL    HW116349   2.286   1.431   3.918 -1.2786  0.7315 -0.1678
 1572SOL    HW216350   2.254   1.346   3.805  0.5945 -0.6216  0.6864
 1573SOL     OW16351   4.594   0.748  12.722 -0.3071 -0.1898  0.4021
 1573SOL    HW116352   4.509   0.778  12.753  0.4866  1.9182  0.5431
 1573SOL    HW216353   4.655   0.783  12.787  0.3880  0.3387 -0.5232
 1574SOL     OW16354   0.340   1.841   7.125  1.0660  0.1771 -0.0599
 1574SOL    HW116355   0.304   1.795   7.050  1.4474 -0.0633 -0.0979
 1574SOL    HW216356   0.365   1.921   7.079  1.1240 -1.9986 -3.8401
 1575SOL     OW16357   3.816   1.925  12.017  0.6856  0.7060 -0.1154
 1575SOL    HW116358   3.795   1.901  11.927 -0.4735 -1.6902  0.7691
 1575SOL    HW216359   3.727   1.949  12.043  1.0703 -0.0781  1.9354
 1576SOL     OW16360   1.153   2.378  16.410 -0.2760  0.3349 -0.3153
 1576SOL    HW116361   1.141   2.461  16.456 -2.1225  0.8181 -1.6565
 1576SOL    HW216362   1.132   2.403  16.320  2.1412 -0.4326 -1.1015
 1577SOL     OW16363   3.266   1.973   9.979 -0.3711 -0.1818 -0.6635
 1577SOL    HW116364   3.277   2.060   9.940  1.5217 -0.5690 -1.0166
 1577SOL    HW216365   3.248   1.991  10.071  2.0168 -2.1084  0.1780
 1578SOL     OW16366   2.938   3.669   7.534 -0.7552 -0.3817  0.7143
 1578SOL    HW116367   3.006   3.606   7.511 -0.1655  1.0583 -1.4022
 1578SOL    HW216368   2.987   3.728   7.591  0.8748  0.4060 -1.5400
 1579SOL     OW16369   0.027   0.520   4.641 -0.2612  0.0379  0.0918
 1579SOL    HW116370   0.039   0.490   4.731 -0.9378  1.8941  0.8158
 1579SOL    HW216371   0.111   0.566   4.636 -0.1440 -0.4091 -1.8481
 1580SOL     OW16372   2.727   4.282   6.074  0.1447  0.0033 -0.1041
 1580SOL    HW116373   2.661   4.317   6.134  2.2939  1.8239  1.1642
 1580SOL    HW216374   2.702   4.193   6.047  5.3661 -1.4528 -0.2491
 1581SOL     OW16375   1.035   0.179   3.178 -0.6335 -0.0587  0.1956
 1581SOL    HW116376   1.033   0.273   3.160 -2.1079 -0.2397 -0.5907
 1581SOL    HW216377   0.987   0.185   3.261  1.4089  1.5519  1.2635
 1582SOL     OW16378   4.218   3.816   7.457 -0.0097 -0.3104 -0.3599
 1582SOL    HW116379   4.227   3.911   7.446 -1.2527 -0.3729 -1.8383
 1582SOL    HW216380   4.122   3.809   7.457 -0.0388  0.1760 -1.4613
 1583SOL     OW16381   4.577   4.263  10.234 -0.7854 -0.1222 -0.0518
 1583SOL    HW116382   4.538   4.300  10.155  0.0561  1.7317  0.3842
 1583SOL    HW216383   4.500   4.258  10.290 -0.6246  0.7268  0.2381
 1584SOL     OW16384   3.688   2.112   1.478 -0.5727 -0.3696 -0.9699
 1584SOL    HW116385   3.649   2.024   1.479 -0.1930 -0.5457 -1.3981
 1584SOL    HW216386   3.688   2.144   1.568 -2.0751 -1.4813 -0.5730
 1585SOL     OW16387   2.425   1.236   0.766 -0.2898 -0.3482 -0.2070
 1585SOL    HW116388   2.476   1.255   0.686  1.6932 -2.1765  0.6179
 1585SOL    HW216389   2.428   1.142   0.746 -2.1982 -0.1411 -1.4632
 1586SOL     OW16390   1.329   2.677   7.636 -0.0829 -0.7607 -0.0699
 1586SOL    HW116391   1.294   2.722   7.559  1.1494  0.4755  0.0853
 1586SOL    HW216392   1.394   2.738   7.672  1.7163 -1.8325 -1.5141
 1587SOL     OW16393   0.920   1.376   1.202  0.6222  0.2974  0.5069
 1587SOL    HW116394   0.896   1.287   1.180  0.9062  0.7780 -1.6909
 1587SOL    HW216395   0.840   1.416   1.236  0.2283  1.9748 -2.3854
 1588SOL     OW16396   1.967   1.430   0.008 -0.4938  0.4456  0.0059
 1588SOL    HW116397   1.875   1.455   0.012  0.1400  2.7821  0.1725
 1588SOL    HW216398   1.979   1.377   0.087 -1.4576  0.9459  0.4937
 1589SOL     OW16399   2.497   3.043   4.318 -0.1289  0.3517 -0.1486
 1589SOL    HW116400   2.531   3.055   4.229 -2.4770  1.2867 -0.9347
 1589SOL    HW216401   2.412   3.006   4.292 -0.9171  2.2412 -0.2782
 1590SOL     OW16402   3.595   0.316  13.205  1.1060  0.4314 -0.1393
 1590SOL    HW116403   3.638   0.230  13.209 -0.4724 -0.2649  2.2562
 1590SOL    HW216404   3.656   0.376  13.246  1.7951 -0.4363  0.1178
 1591SOL     OW16405   0.440   1.533   2.845  0.3281  0.0705 -0.4674
 1591SOL    HW116406   0.430   1.617   2.800 -1.7908  0.1870  0.2359
 1591SOL    HW216407   0.481   1.559   2.927 -0.4092  2.3794 -0.8086
 1592SOL     OW16408   2.810   3.461   6.925  0.3481  0.0340 -0.3230
 1592SOL    HW116409   2.814   3.376   6.970 -1.2347 -1.1186 -2.3664
 1592SOL    HW216410   2.717   3.465   6.902  0.4798 -0.5641 -0.9765
 1593SOL     OW16411   3.944   0.895   1.312  0.4936 -0.5148 -0.3129
 1593SOL    HW116412   3.939   0.809   1.354  0.4580 -1.2946 -1.9207
 1593SOL    HW216413   3.927   0.881   1.219  1.3797 -1.2688 -0.3661
 1594SOL     OW16414   1.667   3.042   1.169 -0.0149 -0.1983 -0.1669
 1594SOL    HW116415   1.741   3.099   1.148  0.1874 -0.3307  0.1844
 1594SOL    HW216416   1.712   2.990   1.235 -0.7008 -0.0945  0.3746
 1595SOL     OW16417   3.293   3.441   3.256 -0.6311 -0.2015  0.3542
 1595SOL    HW116418   3.360   3.382   3.221  1.3388  2.8887 -1.0751
 1595SOL    HW216419   3.243   3.377   3.308 -3.1523  2.0869  0.7151
 1596SOL     OW16420   4.241   1.305   6.757 -0.0426 -0.3942  0.1977
 1596SOL    HW116421   4.199   1.357   6.689  1.4721 -0.9117 -1.1493
 1596SOL    HW216422   4.285   1.235   6.708 -2.7777 -0.8274 -1.6225
 1597SOL     OW16423   3.087   4.512   1.965 -0.2523 -0.5069 -0.1996
 1597SOL    HW116424   3.060   4.578   2.029  0.1101 -2.4112  1.8930
 1597SOL    HW216425   3.084   4.567   1.887 -0.9683  1.9250  1.5520
 1598SOL     OW16426   4.257   4.236  10.562 -0.4301  0.4165 -0.0531
 1598SOL    HW116427   4.268   4.327  10.535  0.0301  0.3071 -0.2274
 1598SOL    HW216428   4.307   4.221  10.643  1.8758  0.7252 -1.4100
 1599SOL     OW16429   4.428   4.553   9.683  0.7864  0.5866  0.1297
 1599SOL    HW116430   4.521   4.552   9.706  1.0368 -3.1503 -0.9824
 1599SOL    HW216431   4.428   4.575   9.590  1.6604  0.5033  0.1089
 1600SOL     OW16432   1.123   1.664   1.596 -0.2218 -0.5411 -0.4131
 1600SOL    HW116433   1.091   1.709   1.674  0.1859 -0.0783 -0.5078
 1600SOL    HW216434   1.183   1.733   1.567  0.7375 -1.6596 -1.0721
 1601SOL     OW16435   1.526   2.810   7.777  0.1554  0.1171  0.0097
 1601SOL    HW116436   1.464   2.855   7.835 -0.1411 -0.1456 -0.1075
 1601SOL    HW216437   1.611   2.837   7.814  0.8387 -0.8782 -0.8526
 1602SOL     OW16438   3.079   2.185   2.844 -0.2618  0.2985  0.1079
 1602SOL    HW116439   3.098   2.093   2.822  0.4142  0.2196  1.0113
 1602SOL    HW216440   3.046   2.176   2.934  0.3936 -0.4668  0.2794
 1603SOL     OW16441   0.717   3.756  10.353 -0.0098 -0.0620  0.0507
 1603SOL    HW116442   0.675   3.839  10.377 -2.1481 -0.6566 -1.6436
 1603SOL    HW216443   0.742   3.773  10.262 -1.0611  0.3713 -0.1606
 1604SOL     OW16444   3.976   0.858  15.287  0.3208  0.2935 -0.2920
 1604SOL    HW116445   4.046   0.912  15.322  0.0259  0.3238  0.2421
 1604SOL    HW216446   3.913   0.874  15.357  1.1192 -4.1758  1.4387
 1605SOL     OW16447   3.470   1.058   2.616  0.0687 -0.0622  0.0801
 1605SOL    HW116448   3.415   1.100   2.550  0.8380 -0.3856 -0.7631
 1605SOL    HW216449   3.520   1.133   2.649  0.3943 -0.2250 -0.0413
 1606SOL     OW16450   1.126   1.296  17.364 -0.8459  0.0372  0.2844
 1606SOL    HW116451   1.168   1.251  17.437 -1.4211  1.2243  1.3474
 1606SOL    HW216452   1.167   1.264  17.283 -1.3773  0.9317 -0.3428
 1607SOL     OW16453   2.030   3.790  14.248  0.4035 -0.6252 -0.3636
 1607SOL    HW116454   2.105   3.737  14.273 -0.5070 -0.4439  2.8645
 1607SOL    HW216455   1.967   3.719  14.234 -0.3194 -0.3649  1.4956
 1608SOL     OW16456   3.247   2.268   5.811 -0.5083 -0.3412  0.1888
 1608SOL    HW116457   3.152   2.267   5.798 -0.4830 -0.6969  0.0324
 1608SOL    HW216458   3.271   2.342   5.755 -0.3484 -0.2598  0.3633
 1609SOL     OW16459   0.711   0.798   2.950 -0.8625  0.2243  0.2542
 1609SOL    HW116460   0.650   0.782   2.878 -0.3105 -1.7732  0.2535
 1609SOL    HW216461   0.657   0.793   3.028  1.5942  0.2416  1.9389
 1610SOL     OW16462   2.501   0.967  16.981 -0.1279 -0.2247  0.2072
 1610SOL    HW116463   2.535   0.940  17.066  1.9641 -0.6614 -0.7660
 1610SOL    HW216464   2.579   0.987  16.930 -0.1404  1.4940  0.8684
 1611SOL     OW16465   1.276   3.828  10.331 -0.0880 -0.1555  0.0970
 1611SOL    HW116466   1.282   3.913  10.288 -0.8692 -0.1239  0.0383
 1611SOL    HW216467   1.213   3.771  10.287  0.2401  2.3452 -3.5536
 1612SOL     OW16468   3.047   4.256   2.532 -0.1292  0.1428 -0.4724
 1612SOL    HW116469   3.117   4.191   2.532 -0.4498 -0.2090 -0.0948
 1612SOL    HW216470   2.978   4.194   2.557 -1.4902  2.0174  0.4134
 1613SOL     OW16471   0.434   2.972   9.582  0.1035 -0.3981  0.3590
 1613SOL    HW116472   0.523   2.991   9.552  0.0689  0.6968  0.9652
 1613SOL    HW216473   0.412   3.051   9.632  2.6597  0.4949  0.0991
 1614SOL     OW16474   4.543   0.747  13.114 -0.8006 -0.2249  0.1969
 1614SOL    HW116475   4.471   0.747  13.051  0.1678 -0.0289 -0.9150
 1614SOL    HW216476   4.518   0.678  13.175  0.0654 -0.2254  0.5592
 1615SOL     OW16477   0.165   1.085   3.036 -0.0302 -0.2316 -0.1441
 1615SOL    HW116478   0.217   1.117   2.962  1.6179 -3.1757 -0.2798
 1615SOL    HW216479   0.222   1.085   3.112 -0.6590  3.1014  0.3193
 1616SOL     OW16480   0.196   3.924  10.286 -0.6569 -0.4593  0.5175
 1616SOL    HW116481   0.178   3.966  10.370  2.8943  0.1847  0.9610
 1616SOL    HW216482   0.175   4.001  10.233  3.7882  0.6504  0.3007
 1617SOL     OW16483   1.586   4.684   9.302  0.0253  0.2477  0.3700
 1617SOL    HW116484   1.674   4.649   9.316 -0.8579 -0.0830  5.3637
 1617SOL    HW216485   1.596   4.732   9.221  1.0033  1.7809  1.4071
 1618SOL     OW16486   0.037   2.795   4.506 -0.3710  0.3238 -0.1908
 1618SOL    HW116487   0.103   2.756   4.563 -1.5510 -0.4209  0.6534
 1618SOL    HW216488   0.001   2.866   4.559  2.7011  2.2393 -0.7186
 1619SOL     OW16489   4.597   1.288   9.607 -0.7684  0.2221  0.9084
 1619SOL    HW116490   4.665   1.261   9.668  0.2500  1.0835  0.1556
 1619SOL    HW216491   4.649   1.345   9.550 -0.7041 -2.9810 -2.2348
 1620SOL     OW16492   1.577   2.786   0.006 -0.2179 -0.1825  0.2822
 1620SOL    HW116493   1.642   2.821  17.692  0.4123 -1.3079  0.3125
 1620SOL    HW216494   1.552   2.705  17.708 -0.1394 -0.6455  1.0874
 1621SOL     OW16495   0.532   0.714   8.202  0.1209  0.0079 -0.2617
 1621SOL    HW116496   0.573   0.687   8.119  1.3173 -1.4348  0.8020
 1621SOL    HW216497   0.572   0.668   8.275 -0.5496  0.6296  0.4892
 1622SOL     OW16498   1.262   3.178   3.930  0.3986 -0.0445 -0.0394
 1622SOL    HW116499   1.337   3.200   3.985  1.8624 -0.4011 -1.8546
 1622SOL    HW216500   1.196   3.225   3.981 -0.2893 -0.3574 -0.6398
 1623SOL     OW16501   1.296   4.310  10.897 -0.0897 -0.0761  0.1815
 1623SOL    HW116502   1.265   4.220  10.886 -0.0804 -0.0062 -0.3907
 1623SOL    HW216503   1.381   4.302  10.856  0.2960  0.8632  0.8058
 1624SOL     OW16504   1.174   0.671  12.791 -0.3831 -0.0100  0.5505
 1624SOL    HW116505   1.207   0.601  12.735 -1.5706 -0.6805  0.6983
 1624SOL    HW216506   1.095   0.634  12.831 -0.9107  0.4418 -0.0755
 1625SOL     OW16507   3.149   1.618   0.914 -0.1948 -0.4592 -0.2949
 1625SOL    HW116508   3.074   1.660   0.873 -0.7855 -1.2711 -0.0513
 1625SOL    HW216509   3.120   1.572   0.993  1.3363  1.4199  1.3852
 1626SOL     OW16510   2.907   4.725   8.885 -0.3794 -0.4854  0.0066
 1626SOL    HW116511   2.834   0.050   8.880 -1.4343 -1.5517  1.8079
 1626SOL    HW216512   2.970   0.025   8.947 -1.1370  1.3602 -0.3326
 1627SOL     OW16513   3.304   0.757   5.517 -0.2999 -0.8780 -0.3756
 1627SOL    HW116514   3.295   0.778   5.610 -2.8383  1.3348 -1.1087
 1627SOL    HW216515   3.397   0.772   5.498  0.0093  1.6548  2.9541
 1628SOL     OW16516   3.914   0.817   5.184  0.3126 -0.0032  0.1169
 1628SOL    HW116517   3.900   0.806   5.278  0.0423  1.2605  0.2218
 1628SOL    HW216518   3.827   0.852   5.161 -0.1861 -0.3278  1.5312
 1629SOL     OW16519   0.810   1.326   5.532  0.3691 -0.0507 -0.5116
 1629SOL    HW116520   0.905   1.334   5.525  0.2562  0.9120 -0.8340
 1629SOL    HW216521   0.793   1.289   5.619  0.2405  1.1554 -0.0306
 1630SOL     OW16522   2.518   1.955   6.296  0.0504  0.0699  0.3879
 1630SOL    HW116523   2.430   1.937   6.264 -0.2801  0.3870  1.1183
 1630SOL    HW216524   2.520   2.051   6.290  2.0825  0.0574  0.8566
 1631SOL     OW16525   0.749   0.101  11.438  0.3582 -0.0125 -0.3371
 1631SOL    HW116526   0.800   0.180  11.420 -0.3627  0.3203 -0.9112
 1631SOL    HW216527   0.725   0.122  11.528 -2.3337  0.4718 -1.1953
 1632SOL     OW16528   2.752   2.709   7.425 -0.4102  0.5868  0.9289
 1632SOL    HW116529   2.810   2.678   7.355 -2.5965  0.7670 -0.9465
 1632SOL    HW216530   2.697   2.774   7.382 -0.0731 -0.5657 -1.2449
 1633SOL     OW16531   0.009   4.230   3.471 -0.2139 -0.0031  0.4239
 1633SOL    HW116532   0.043   4.158   3.417 -2.0831 -0.5668 -0.0173
 1633SOL    HW216533   0.055   4.215   3.553  0.5208  0.9491  0.1875
 1634SOL     OW16534   3.209   2.485   5.637 -0.3335  0.0453 -0.0941
 1634SOL    HW116535   3.126   2.448   5.607 -0.2421  0.0256 -0.3210
 1634SOL    HW216536   3.232   2.509   5.547 -0.5243  1.1494  0.1424
 1635SOL     OW16537   4.134   1.069  15.392  0.0351  0.0688 -0.4256
 1635SOL    HW116538   4.170   1.157  15.383  3.6537 -1.3021  0.4593
 1635SOL    HW216539   4.204   1.024  15.344  0.7258  0.4129  0.2667
 1636SOL     OW16540   1.179   4.547   5.115 -0.4109 -0.3139  0.3929
 1636SOL    HW116541   1.101   4.534   5.061  0.1564  1.3254 -0.8125
 1636SOL    HW216542   1.142   4.527   5.201  0.7876 -0.9981  0.7595
 1637SOL     OW16543   3.674   1.131  16.370 -0.1175 -0.4305  0.0099
 1637SOL    HW116544   3.626   1.125  16.452 -0.0188  0.5935  0.1477
 1637SOL    HW216545   3.764   1.119  16.400  0.5644  0.1988 -1.7211
 1638SOL     OW16546   3.663   2.409   4.506 -0.2102  0.2719 -0.7392
 1638SOL    HW116547   3.570   2.397   4.523 -0.4101  1.6385 -0.8896
 1638SOL    HW216548   3.672   2.481   4.569  0.3068 -0.9139  0.5427
 1639SOL     OW16549   1.988   0.034   4.561  0.1137 -0.3294  0.3153
 1639SOL    HW116550   1.972   0.055   4.653  3.3828 -0.7162  0.9810
 1639SOL    HW216551   2.081   0.052   4.545 -0.6014  3.4025  0.1836
 1640SOL     OW16552   3.588   3.004   8.200  0.4500 -0.5125  0.8024
 1640SOL    HW116553   3.657   3.054   8.245  0.5617  1.6125 -1.7153
 1640SOL    HW216554   3.543   2.966   8.275 -1.8303  0.5845 -0.0019
 1641SOL     OW16555   2.049   2.992  10.387 -0.0190  0.6317 -0.1476
 1641SOL    HW116556   2.014   2.921  10.333 -1.7132  1.6393 -0.3809
 1641SOL    HW216557   2.022   2.962  10.474 -0.8206  2.2553  0.1664
 1642SOL     OW16558   1.567   2.228  11.615  0.3382  0.1869 -0.0331
 1642SOL    HW116559   1.591   2.275  11.694 -2.4644 -2.4862  2.4239
 1642SOL    HW216560   1.472   2.234  11.617  0.4070  1.1337  0.1139
 1643SOL     OW16561   4.574   3.682  16.892 -0.7316  0.4104  0.3444
 1643SOL    HW116562   4.498   3.733  16.919 -2.5770 -1.3242 -1.5176
 1643SOL    HW216563   4.559   3.592  16.921 -2.2088 -0.2642 -2.5122
 1644SOL     OW16564   2.393   2.901   0.487 -0.5629 -0.1234  0.0730
 1644SOL    HW116565   2.402   2.950   0.405  2.6248 -1.8338 -0.6345
 1644SOL    HW216566   2.448   2.944   0.553 -2.0172  0.7901  0.6878
 1645SOL     OW16567   1.319   1.766   7.259 -0.6800 -0.2646  0.0477
 1645SOL    HW116568   1.309   1.690   7.317  2.1914 -0.5340  0.1925
 1645SOL    HW216569   1.409   1.755   7.228 -0.6451 -0.0149  0.0628
 1646SOL     OW16570   2.631   2.046  13.743  0.2634  0.2587 -0.0732
 1646SOL    HW116571   2.545   2.028  13.706  0.6759  2.1992 -1.9954
 1646SOL    HW216572   2.655   2.129  13.700  1.0223  0.3202  0.4625
 1647SOL     OW16573   0.249   3.326  16.406  0.1996 -0.7241 -0.4811
 1647SOL    HW116574   0.338   3.341  16.438 -0.7361  2.4116  0.6210
 1647SOL    HW216575   0.268   3.338  16.313  0.1140  0.4549 -0.3408
 1648SOL     OW16576   4.354   1.852   6.896 -0.7763  0.2719  0.0792
 1648SOL    HW116577   4.430   1.908   6.881 -2.1170  1.5541 -1.9435
 1648SOL    HW216578   4.384   1.769   6.859  0.9948  2.3119 -3.0390
 1649SOL     OW16579   3.829   2.474   1.972 -0.2755  1.0443 -0.2638
 1649SOL    HW116580   3.770   2.402   1.992 -1.5244  2.7088  2.0929
 1649SOL    HW216581   3.780   2.554   1.993  0.9436  1.7515 -0.1176
 1650SOL     OW16582   0.523   3.956  10.351  0.1291  0.5653 -0.1242
 1650SOL    HW116583   0.501   3.947  10.444 -1.5287 -1.4428 -0.7232
 1650SOL    HW216584   0.508   4.051  10.351  0.3476  0.5978 -0.7985
 1651SOL     OW16585   0.852   3.398   6.360  0.0353 -1.1844 -0.3927
 1651SOL    HW116586   0.874   3.418   6.269  0.1441  0.0976 -0.0883
 1651SOL    HW216587   0.862   3.488   6.392 -0.2441 -1.3289  0.1067
 1652SOL     OW16588   3.269   1.002   0.724  0.3239 -0.0337 -0.2020
 1652SOL    HW116589   3.317   1.078   0.758  1.6041 -1.8857  2.0929
 1652SOL    HW216590   3.279   1.000   0.629 -1.4506 -1.9993 -0.3457
 1653SOL     OW16591   1.747   4.245   8.021 -0.1184  0.1354  0.0924
 1653SOL    HW116592   1.773   4.272   7.933 -1.0955  1.5170  0.2149
 1653SOL    HW216593   1.691   4.320   8.042 -0.0856  0.5382 -1.2477
 1654SOL     OW16594   0.065   2.660   2.075  0.7684 -0.3894  0.5268
 1654SOL    HW116595   0.050   2.573   2.112  0.2186 -0.6078 -0.2154
 1654SOL    HW216596   4.716   2.680   2.039  0.2427 -3.1936  0.1886
 1655SOL     OW16597   3.477   4.532   7.696 -1.1003  0.6000 -0.1683
 1655SOL    HW116598   3.539   4.458   7.696  1.2700  2.6321 -2.9866
 1655SOL    HW216599   3.418   4.495   7.762 -0.4689  0.0785  0.1048
 1656SOL     OW16600   0.877   1.217   9.485 -0.3093 -0.0852  0.3518
 1656SOL    HW116601   0.807   1.166   9.445  0.1851  0.3596 -1.0909
 1656SOL    HW216602   0.834   1.297   9.514  1.3318  1.2244 -0.8109
 1657SOL     OW16603   2.008   0.678   4.567 -0.3112 -0.2043 -0.2377
 1657SOL    HW116604   2.022   0.732   4.489 -2.4254  1.7228  0.7288
 1657SOL    HW216605   1.915   0.662   4.557  0.1259 -3.0548  0.3794
 1658SOL     OW16606   0.596   2.847   8.974 -0.3662  0.3187  0.3908
 1658SOL    HW116607   0.567   2.910   8.908 -0.3273 -0.7732 -0.6729
 1658SOL    HW216608   0.634   2.908   9.037  1.6185 -3.2864  2.6237
 1659SOL     OW16609   3.850   3.305   9.493 -0.4485 -0.3939  0.6060
 1659SOL    HW116610   3.765   3.347   9.500 -0.4595 -0.1577 -0.8481
 1659SOL    HW216611   3.865   3.276   9.583 -0.5642  1.7816  1.3268
 1660SOL     OW16612   1.599   0.391   7.896 -0.0052  0.9575  0.3479
 1660SOL    HW116613   1.662   0.432   7.837  0.6707 -0.1919  0.2823
 1660SOL    HW216614   1.621   0.298   7.900 -1.9719  0.3920 -2.4403
 1661SOL     OW16615   1.510   0.476   8.145 -0.4487  0.0936 -0.3201
 1661SOL    HW116616   1.433   0.420   8.152 -1.2475  1.2642  0.1204
 1661SOL    HW216617   1.538   0.461   8.054  1.9777  1.6894  0.1569
 1662SOL     OW16618   4.093   3.842   7.921 -0.2490 -0.4614  0.3729
 1662SOL    HW116619   4.066   3.762   7.967  0.5150 -0.1742  1.3236
 1662SOL    HW216620   4.179   3.818   7.886  0.0275 -0.7618  1.2440
 1663SOL     OW16621   3.328   3.543   4.842 -0.5310 -0.1293 -0.1480
 1663SOL    HW116622   3.331   3.452   4.870 -1.4288 -0.3203 -0.6798
 1663SOL    HW216623   3.415   3.572   4.868 -0.6434  0.6642 -0.6501
 1664SOL     OW16624   2.095   2.649  14.615  0.3293  0.3706 -0.1749
 1664SOL    HW116625   2.158   2.715  14.644 -0.2659  0.6766  0.4018
 1664SOL    HW216626   2.159   2.582  14.590 -0.9425 -0.5559 -0.9125
 1665SOL     OW16627   4.590   2.289   3.362 -0.3373 -0.0151  0.5986
 1665SOL    HW116628   4.593   2.372   3.409 -1.2092 -0.5080  1.5141
 1665SOL    HW216629   4.537   2.235   3.420 -0.6048 -1.0402 -0.5993
 1666SOL     OW16630   4.592   4.000  12.497 -0.2093  0.2930  0.5452
 1666SOL    HW116631   4.665   4.033  12.549 -0.3096 -0.0900  0.9239
 1666SOL    HW216632   4.527   3.999  12.568  0.0308 -3.9853  0.7277
 1667SOL     OW16633   3.140   0.676   5.328  0.5835  0.4997 -0.0858
 1667SOL    HW116634   3.160   0.591   5.289 -0.5013  1.1175 -2.0094
 1667SOL    HW216635   3.218   0.707   5.373  1.6403 -1.1048 -0.8346
 1668SOL     OW16636   4.110   0.182   8.389 -0.1209  0.1452 -0.0778
 1668SOL    HW116637   4.158   0.166   8.471  0.6984  2.1357 -0.1612
 1668SOL    HW216638   4.073   0.095   8.374 -1.9976  0.7289  1.1733
 1669SOL     OW16639   0.835   4.593  16.541 -0.3488  0.5619 -0.5726
 1669SOL    HW116640   0.830   4.631  16.629  2.9284 -2.1720  0.7988
 1669SOL    HW216641   0.788   4.514  16.567 -0.2828  0.7800  0.2218
 1670SOL     OW16642   1.441   0.175   6.234 -0.6921 -0.4965  0.2738
 1670SOL    HW116643   1.511   0.152   6.173  1.7739  2.6151  1.9457
 1670SOL    HW216644   1.479   0.142   6.315  0.3365  1.0551  0.4184
 1671SOL     OW16645   3.397   1.552   0.839 -0.2223  0.2652  0.0525
 1671SOL    HW116646   3.317   1.588   0.877 -1.0536 -1.0400 -0.4668
 1671SOL    HW216647   3.395   1.462   0.872  3.4532  0.4523  0.7310
 1672SOL     OW16648   1.483   3.026   4.980  0.3368 -0.3467  0.1222
 1672SOL    HW116649   1.408   3.054   5.032 -0.0436 -1.0005 -0.0730
 1672SOL    HW216650   1.555   3.069   5.026  1.6151 -0.9631 -1.3015
 1673SOL     OW16651   2.852   3.761  16.796  0.0066  0.3209 -0.5463
 1673SOL    HW116652   2.758   3.766  16.777  0.1916 -0.8011 -1.7813
 1673SOL    HW216653   2.878   3.850  16.773  0.5712  0.3283  0.1189
 1674SOL     OW16654   0.636   0.204  10.330 -0.2368 -0.4833  0.6781
 1674SOL    HW116655   0.623   0.254  10.249 -1.2156 -0.8816  0.5925
 1674SOL    HW216656   0.726   0.172  10.324 -0.4367 -0.3788 -2.8436
 1675SOL     OW16657   2.913   3.364  17.052 -0.1605  0.4200 -0.4966
 1675SOL    HW116658   2.965   3.423  16.997 -1.6053  1.9614 -0.2082
 1675SOL    HW216659   2.840   3.342  16.994 -1.5724  2.2909  0.6010
 1676SOL     OW16660   3.223   3.242  15.759 -0.2352  0.7240 -0.4517
 1676SOL    HW116661   3.146   3.277  15.716 -0.0865  0.8123 -0.6436
 1676SOL    HW216662   3.288   3.253  15.690  0.6485  1.8585  0.5601
 1677SOL     OW16663   3.916   1.366   5.047  0.1085  0.5376 -0.3009
 1677SOL    HW116664   3.883   1.327   5.127 -0.6025 -0.6194 -1.1582
 1677SOL    HW216665   3.969   1.294   5.013 -0.5578 -0.2529  0.3593
 1678SOL     OW16666   4.175   3.481   2.816 -0.1388  0.1567 -0.3923
 1678SOL    HW116667   4.103   3.429   2.853 -0.0913  0.8888  0.7398
 1678SOL    HW216668   4.133   3.562   2.789 -0.8051  0.2667  0.9291
 1679SOL     OW16669   3.724   3.725   4.592  0.1436 -0.0916 -0.1315
 1679SOL    HW116670   3.774   3.754   4.516  1.3852 -0.8853  0.3882
 1679SOL    HW216671   3.767   3.771   4.664 -1.4368  1.5775 -0.2537
 1680SOL     OW16672   3.933   0.490  11.938 -0.1783  0.7245  0.0023
 1680SOL    HW116673   3.854   0.460  11.892 -0.0874 -0.4666  0.6221
 1680SOL    HW216674   3.958   0.407  11.980 -2.8479 -0.1513 -0.1254
 1681SOL     OW16675   0.241   2.632   6.979  0.3483  0.0019  0.0626
 1681SOL    HW116676   0.287   2.693   7.036 -1.0416  0.1399  1.0327
 1681SOL    HW216677   0.161   2.623   7.030 -0.7234  0.5691 -1.5129
 1682SOL     OW16678   3.569   3.417   6.564 -0.0652 -0.1619 -0.3704
 1682SOL    HW116679   3.498   3.355   6.578  0.6342 -1.4728 -2.6710
 1682SOL    HW216680   3.633   3.368   6.512 -0.0421 -0.0404 -0.4551
 1683SOL     OW16681   1.850   1.170   2.432  0.0673  0.0183 -0.3270
 1683SOL    HW116682   1.857   1.086   2.475 -3.4895 -1.1776 -2.0303
 1683SOL    HW216683   1.873   1.145   2.342  1.5750  0.7396 -0.1408
 1684SOL     OW16684   1.306   1.394   0.943 -0.2004  0.6827  0.2523
 1684SOL    HW116685   1.321   1.485   0.917 -2.5194  0.7049 -1.0017
 1684SOL    HW216686   1.386   1.361   0.902  0.0128  0.4187  0.8766
 1685SOL     OW16687   1.287   1.345  10.818 -0.0110 -0.1527  0.4448
 1685SOL    HW116688   1.339   1.394  10.882  0.5283  0.2431 -0.2856
 1685SOL    HW216689   1.294   1.397  10.737  1.6372 -0.0991  0.6149
 1686SOL     OW16690   3.843   3.064   4.884 -0.5519  0.1132  0.1939
 1686SOL    HW116691   3.809   3.113   4.958  1.0797 -0.1311  1.0985
 1686SOL    HW216692   3.910   3.018   4.935 -0.8193 -0.2263  0.2388
 1687SOL     OW16693   2.446   2.789   3.262  0.0419 -0.3858  0.1911
 1687SOL    HW116694   2.356   2.821   3.269  0.1080 -0.1326 -0.1696
 1687SOL    HW216695   2.460   2.800   3.168  0.2818 -0.2843  0.2400
 1688SOL     OW16696   1.503   4.252   4.925  0.1115 -0.2834  0.1354
 1688SOL    HW116697   1.546   4.247   5.010 -0.7717 -0.0625  0.5932
 1688SOL    HW216698   1.479   4.344   4.913 -0.2252 -0.3467  0.3318
 1689SOL     OW16699   3.275   2.342   3.647  0.4327 -0.3833 -0.0106
 1689SOL    HW116700   3.251   2.433   3.634  0.4369 -0.5876 -1.4407
 1689SOL    HW216701   3.302   2.315   3.559 -0.0030 -1.4760  0.1909
 1690SOL     OW16702   2.453   0.942   2.828  0.2493  0.2541  0.4258
 1690SOL    HW116703   2.391   0.903   2.889  0.0099  0.4246  0.2901
 1690SOL    HW216704   2.529   0.896   2.865  0.5639  0.4478  0.0183
 1691SOL     OW16705   0.810   3.097   6.217  0.4271 -0.5732 -0.5987
 1691SOL    HW116706   0.736   3.077   6.274  0.7183  0.7788  0.2630
 1691SOL    HW216707   0.887   3.074   6.269 -0.9629  1.7625  2.4644
 1692SOL     OW16708   1.428   3.980   0.019  0.0485 -0.3908 -0.3289
 1692SOL    HW116709   1.480   4.044   0.069  0.6489 -0.1008 -1.3162
 1692SOL    HW216710   1.400   3.914   0.082  1.6860 -2.0644 -1.3436
 1693SOL     OW16711   1.283   1.509  11.501  0.2716 -0.1606  0.3776
 1693SOL    HW116712   1.328   1.426  11.518  0.0437  0.0284  1.8582
 1693SOL    HW216713   1.265   1.502  11.407 -0.6993 -0.4390  0.5928
 1694SOL     OW16714   2.483   1.803   3.490 -0.1375 -0.1119 -0.1334
 1694SOL    HW116715   2.419   1.736   3.512  0.7781 -0.7411  0.6331
 1694SOL    HW216716   2.492   1.786   3.397 -0.7570  0.8229 -0.3637
 1695SOL     OW16717   2.957   2.358   0.725 -0.1144 -0.0533  0.0514
 1695SOL    HW116718   3.003   2.367   0.808 -0.9441 -2.6204  0.7712
 1695SOL    HW216719   2.927   2.267   0.721 -1.9121  0.4856  1.3414
 1696SOL     OW16720   2.544   4.137   7.103 -0.4192  0.6863  0.0451
 1696SOL    HW116721   2.579   4.087   7.029 -0.0255  1.7560 -0.4956
 1696SOL    HW216722   2.616   4.197   7.122  1.3115 -0.7908 -1.7891
 1697SOL     OW16723   0.023   0.738   2.987 -0.2246  0.1616 -0.0589
 1697SOL    HW116724   0.030   0.712   3.079 -1.1189  0.9944  0.2421
 1697SOL    HW216725   4.673   0.778   2.989  0.7515  2.3436 -1.8536
 1698SOL     OW16726   1.306   4.314   2.744 -0.0252  0.2030  0.6719
 1698SOL    HW116727   1.322   4.374   2.817  1.9394 -1.5262  1.6765
 1698SOL    HW216728   1.222   4.277   2.771  0.5896 -0.8366  1.1655
 1699SOL     OW16729   2.517   3.946   0.417  0.0953  0.1202 -0.6914
 1699SOL    HW116730   2.459   3.998   0.362 -1.7349  0.4809  1.5626
 1699SOL    HW216731   2.464   3.869   0.439  1.5394 -0.0254  2.2169
 1700SOL     OW16732   2.362   1.293   4.417  0.1995  0.0208 -0.1362
 1700SOL    HW116733   2.344   1.247   4.335  0.5467  0.7724 -0.6385
 1700SOL    HW216734   2.372   1.222   4.480 -0.6388  1.4354  1.6015
 1701SOL     OW16735   1.770   2.996   3.463  0.5175  0.2943 -0.5391
 1701SOL    HW116736   1.702   3.057   3.491  1.0695 -0.6106  2.7319
 1701SOL    HW216737   1.833   3.062   3.433  0.3072 -0.0065 -1.6606
 1702SOL     OW16738   1.127   2.204   2.868 -0.3805  0.0626  0.1573
 1702SOL    HW116739   1.212   2.165   2.885  0.9749  1.3964 -3.5763
 1702SOL    HW216740   1.063   2.134   2.879 -1.1394  0.6608 -0.4599
 1703SOL     OW16741   4.681   4.334  12.136  0.0651  0.0986 -0.4274
 1703SOL    HW116742   4.729   4.274  12.194  1.1365 -0.8790 -2.3401
 1703SOL    HW216743   4.598   4.340  12.183 -0.6035 -1.6883 -1.3810
 1704SOL     OW16744   4.320   0.443  13.091  1.0536 -0.0579 -0.2449
 1704SOL    HW116745   4.404   0.400  13.081  0.0113 -2.1122 -0.2206
 1704SOL    HW216746   4.342   0.480  13.176  1.5873  0.6946 -0.7084
 1705SOL     OW16747   1.892   2.658   5.502  0.3037  0.6978  0.3668
 1705SOL    HW116748   1.807   2.663   5.460  0.2348  1.2567  0.5748
 1705SOL    HW216749   1.948   2.628   5.430  0.1077  1.2126  0.0004
 1706SOL     OW16750   3.844   0.573   1.086 -0.6251 -0.5764 -0.3683
 1706SOL    HW116751   3.794   0.622   1.151  0.4660 -0.2124  0.2066
 1706SOL    HW216752   3.812   0.604   1.001 -0.6021 -2.3505 -1.0064
 1707SOL     OW16753   3.466   2.842   6.570  0.4145 -0.6384  0.5289
 1707SOL    HW116754   3.450   2.835   6.476  0.2585  0.4404  0.4685
 1707SOL    HW216755   3.550   2.887   6.569  0.2112 -0.2026  2.3463
 1708SOL     OW16756   4.475   0.775   6.327 -0.3619 -0.5766 -0.4447
 1708SOL    HW116757   4.492   0.830   6.404  1.8829 -0.7997 -0.7650
 1708SOL    HW216758   4.411   0.821   6.273  0.2721  0.0359 -0.6753
 1709SOL     OW16759   1.658   4.580  13.241  0.0864 -0.0811 -0.8300
 1709SOL    HW116760   1.597   4.592  13.314 -1.5153 -0.3602 -2.1056
 1709SOL    HW216761   1.662   4.485  13.232  0.5629 -0.0749 -0.6814
 1710SOL     OW16762   4.485   1.156   7.472  0.5398  0.4282 -0.3659
 1710SOL    HW116763   4.462   1.080   7.526 -1.4936  1.1200 -0.2830
 1710SOL    HW216764   4.411   1.163   7.413  0.2991 -0.3281 -0.1548
 1711SOL     OW16765   0.279   1.343  17.657 -0.2012  0.8334  0.5462
 1711SOL    HW116766   0.330   1.422  17.640 -1.6806  1.7973  0.5802
 1711SOL    HW216767   0.347   1.277  17.671  0.7742  2.3174  2.8942
 1712SOL     OW16768   2.803   2.697   6.259 -0.0200 -0.1746 -0.2148
 1712SOL    HW116769   2.760   2.629   6.311  1.7035 -0.5142  0.7385
 1712SOL    HW216770   2.824   2.656   6.175 -0.5083 -0.0133 -0.4191
 1713SOL     OW16771   1.774   1.562   3.954 -0.0546 -0.3612 -0.1298
 1713SOL    HW116772   1.766   1.603   3.868  1.2554  0.1037 -0.0404
 1713SOL    HW216773   1.684   1.534   3.968 -0.5836 -0.0047 -2.9882
 1714SOL     OW16774   3.759   0.042   8.299 -0.3184 -0.6383  0.5117
 1714SOL    HW116775   3.760   4.689   8.267 -1.0494  0.0096 -1.2804
 1714SOL    HW216776   3.787   0.076   8.214  1.3899 -0.5610  1.0992
 1715SOL     OW16777   1.121   1.957   3.646 -0.5819 -0.2545  0.1577
 1715SOL    HW116778   1.133   1.958   3.741 -1.4247 -0.3224  0.2657
 1715SOL    HW216779   1.054   1.888   3.641 -2.0302  0.9420  3.3899
 1716SOL     OW16780   0.717   1.753  10.251  0.1368 -0.0586 -0.1563
 1716SOL    HW116781   0.700   1.738  10.344  0.5709  0.3521 -0.0106
 1716SOL    HW216782   0.632   1.790  10.229  0.3504 -0.2153 -1.2079
 1717SOL     OW16783   3.460   3.503   5.635  0.3334  0.1170  0.4691
 1717SOL    HW116784   3.532   3.474   5.580 -0.0248 -0.5605  0.3601
 1717SOL    HW216785   3.434   3.426   5.685  0.1109  1.0582  1.8191
 1718SOL     OW16786   0.499   3.521   4.274 -0.1508 -0.0579  0.8197
 1718SOL    HW116787   0.588   3.484   4.272 -0.8113 -1.6563  1.3952
 1718SOL    HW216788   0.477   3.472   4.195 -0.1016 -0.0413  0.7956
 1719SOL     OW16789   4.133   2.621   4.749 -0.4996  0.3292  0.8829
 1719SOL    HW116790   4.129   2.704   4.701  0.9084 -0.0561  0.0832
 1719SOL    HW216791   4.161   2.557   4.683  0.1621  0.8370  0.6681
 1720SOL     OW16792   1.613   2.037   6.435 -0.1616  0.5099 -0.1056
 1720SOL    HW116793   1.615   2.095   6.359 -1.8459 -1.0202 -1.2886
 1720SOL    HW216794   1.520   2.046   6.459  0.3915 -1.0661  2.6793
 1721SOL     OW16795   0.923   2.097   4.723  0.6317  0.1704 -0.2963
 1721SOL    HW116796   0.865   2.116   4.649 -0.7039 -1.6320  0.3059
 1721SOL    HW216797   0.892   2.011   4.749  3.1472 -0.4441  0.7174
 1722SOL     OW16798   1.088   1.348   4.217  0.1164 -0.0852  0.0492
 1722SOL    HW116799   1.145   1.423   4.198  0.2553 -0.5068 -1.2360
 1722SOL    HW216800   1.039   1.343   4.134 -1.5663 -0.4063  1.0624
 1723SOL     OW16801   4.566   3.619   6.164 -0.1625 -0.1534 -0.1096
 1723SOL    HW116802   4.547   3.684   6.096  1.5909 -1.2315 -1.6269
 1723SOL    HW216803   4.632   3.666   6.216  1.1258 -1.1779 -0.8285
 1724SOL     OW16804   1.500   3.181   8.589  0.1832  0.1134  0.4842
 1724SOL    HW116805   1.526   3.147   8.503  3.0280  1.2619  0.9044
 1724SOL    HW216806   1.578   3.219   8.629 -0.6272  2.3627 -0.0386
 1725SOL     OW16807   1.512   4.289   5.745  0.3263 -0.7223  0.3012
 1725SOL    HW116808   1.461   4.229   5.799 -1.2348  0.3959  0.0813
 1725SOL    HW216809   1.593   4.283   5.796  1.7515  0.4098 -1.8209
 1726SOL     OW16810   4.038   0.978   8.727  0.5984 -0.3131  0.2473
 1726SOL    HW116811   4.109   1.041   8.721  0.1238  0.3390  1.5235
 1726SOL    HW216812   4.088   0.901   8.701  0.0211 -0.0503 -1.5883
 1727SOL     OW16813   3.970   4.166   7.694  0.0935 -0.4742  0.2853
 1727SOL    HW116814   4.065   4.158   7.705 -0.0751 -1.5254  0.9381
 1727SOL    HW216815   3.973   4.210   7.609  1.3499  0.4707  0.8127
 1728SOL     OW16816   2.060   1.460  15.341  0.1388  0.0458 -0.5711
 1728SOL    HW116817   2.012   1.377  15.337 -1.1534  0.8029 -0.6732
 1728SOL    HW216818   2.143   1.422  15.370 -0.5060 -1.5546 -0.7931
 1729SOL     OW16819   0.931   2.870   4.902 -0.2695  0.0621  0.4559
 1729SOL    HW116820   0.852   2.915   4.932 -1.2668 -0.9354 -0.7290
 1729SOL    HW216821   0.910   2.780   4.925 -5.3511  1.1210 -0.1627
 1730SOL     OW16822   1.766   2.874   2.901 -0.1364 -0.5925  0.1514
 1730SOL    HW116823   1.792   2.784   2.882  0.8904  0.1181 -1.8509
 1730SOL    HW216824   1.673   2.865   2.881 -0.3186 -0.4371  0.9481
 1731SOL     OW16825   4.472   2.662  15.939  0.3128  0.0825 -0.2063
 1731SOL    HW116826   4.512   2.592  15.992  2.2220 -0.6218 -2.5855
 1731SOL    HW216827   4.421   2.612  15.875 -1.2160  2.2532 -0.6517
 1732SOL     OW16828   1.030   1.998   8.093 -0.2196 -0.0837  0.4668
 1732SOL    HW116829   1.064   1.960   8.174  2.2220 -0.0703 -0.5213
 1732SOL    HW216830   0.941   2.020   8.120 -0.5924  2.9333 -3.1517
 1733SOL     OW16831   1.879   2.068  14.613  0.0353  0.0750  0.5300
 1733SOL    HW116832   1.854   2.027  14.695  0.9639 -1.8707 -0.1658
 1733SOL    HW216833   1.950   2.014  14.578 -0.0678 -0.3991  1.0647
 1734SOL     OW16834   3.093   0.058   9.168  0.2716 -0.1356 -0.2676
 1734SOL    HW116835   3.089   0.152   9.189  1.3199 -0.4451  1.3137
 1734SOL    HW216836   3.188   0.049   9.175  0.3937  1.6911  0.4315
 1735SOL     OW16837   0.349   3.083   6.110  0.7223  0.4685 -0.1319
 1735SOL    HW116838   0.382   3.116   6.026 -3.5562  1.5497 -1.4000
 1735SOL    HW216839   0.316   3.001   6.074  1.2914  0.6344 -1.0335
 1736SOL     OW16840   1.818   0.401   4.498 -0.2096 -0.1508  0.2003
 1736SOL    HW116841   1.828   0.373   4.589  0.1920 -1.6909 -0.3166
 1736SOL    HW216842   1.778   0.485   4.515  0.4017 -0.0109  0.9513
 1737SOL     OW16843   3.825   4.567  14.827 -0.1713  0.3336  0.3958
 1737SOL    HW116844   3.879   4.616  14.763 -0.0617 -2.4644 -1.6611
 1737SOL    HW216845   3.822   4.628  14.900  0.2296  0.9251 -0.0745
 1738SOL     OW16846   0.154   3.635   4.031 -0.4783  0.3911  1.0187
 1738SOL    HW116847   0.075   3.680   4.060  0.0990  0.5274  2.3633
 1738SOL    HW216848   0.149   3.558   4.088  0.9418  0.5870  1.4113
 1739SOL     OW16849   2.014   1.014   2.637 -0.2377  0.4831  0.3790
 1739SOL    HW116850   1.974   0.934   2.601 -1.3666  1.4897 -0.6031
 1739SOL    HW216851   2.104   0.990   2.616  0.2995  2.9164 -0.0547
 1740SOL     OW16852   2.154   3.635  16.439  0.0797  0.3170  0.5526
 1740SOL    HW116853   2.219   3.694  16.400  0.3933  0.0606  0.6796
 1740SOL    HW216854   2.154   3.565  16.373  0.5045  1.6216 -0.8483
 1741SOL     OW16855   0.423   2.055   2.515 -0.3681  0.1776  0.2682
 1741SOL    HW116856   0.395   2.054   2.607 -2.2775  0.2430 -0.3244
 1741SOL    HW216857   0.443   2.147   2.499  0.1579 -0.0381 -0.3182
 1742SOL     OW16858   2.291   2.001   2.745  0.2144 -0.0692  0.3598
 1742SOL    HW116859   2.366   1.995   2.686 -0.4962  3.1291 -0.8409
 1742SOL    HW216860   2.227   2.018   2.675  0.8021  0.1295 -0.1315
 1743SOL     OW16861   2.990   4.683   4.644 -0.2831  0.4114 -0.4471
 1743SOL    HW116862   3.056   4.721   4.585  0.7580  0.1485  0.5366
 1743SOL    HW216863   2.926   4.658   4.578 -0.2422  0.0730 -0.3570
 1744SOL     OW16864   1.508   0.561   7.029  0.5331  0.3005 -0.3142
 1744SOL    HW116865   1.566   0.550   6.953  3.2631 -1.3537  2.0283
 1744SOL    HW216866   1.556   0.598   7.103  2.2803 -1.3509 -0.6324
 1745SOL     OW16867   0.398   2.832  11.843 -0.2545  0.2472 -0.2091
 1745SOL    HW116868   0.478   2.845  11.792  0.8785 -0.6448  1.3470
 1745SOL    HW216869   0.382   2.741  11.818 -0.1349  0.4891 -1.1573
 1746SOL     OW16870   2.097   4.722  17.170  0.4601  0.1270 -0.7585
 1746SOL    HW116871   2.046   0.043  17.226  4.1192  0.9242  1.7229
 1746SOL    HW216872   2.035   4.731  17.097 -2.3257  0.2538  1.6190
 1747SOL     OW16873   4.539   2.687  12.725  0.4382 -0.1821  0.5104
 1747SOL    HW116874   4.482   2.617  12.757 -1.6941  0.9363 -0.8433
 1747SOL    HW216875   4.480   2.748  12.681 -0.6683 -2.3856 -1.0421
 1748SOL     OW16876   2.472   0.592   2.715  0.0079  0.2984  0.3736
 1748SOL    HW116877   2.508   0.647   2.784 -0.9763  2.0462 -0.5272
 1748SOL    HW216878   2.384   0.628   2.714  0.7852  2.0994 -2.6178
 1749SOL     OW16879   1.388   4.201   1.675  0.0458  0.3452 -0.3820
 1749SOL    HW116880   1.417   4.257   1.604 -0.5775  0.0852 -0.8402
 1749SOL    HW216881   1.293   4.204   1.665 -0.1192 -0.6480  0.9118
 1750SOL     OW16882   3.421   3.230   3.103  0.1558  0.0274  0.3018
 1750SOL    HW116883   3.482   3.293   3.065  2.7302 -1.3607  2.0741
 1750SOL    HW216884   3.360   3.215   3.031 -2.3753 -1.2382  2.7193
 1751SOL     OW16885   0.968   4.249  10.625 -0.0577  0.6558 -0.0606
 1751SOL    HW116886   1.036   4.309  10.594 -0.6920  2.2237  1.5644
 1751SOL    HW216887   0.888   4.294  10.596  0.2458  0.1872 -1.6421
 1752SOL     OW16888   0.491   3.330   7.478 -0.0142  0.0923  0.2592
 1752SOL    HW116889   0.505   3.424   7.486  0.4932  0.3319 -3.5166
 1752SOL    HW216890   0.396   3.339   7.470  0.0009  0.5532  0.6068
 1753SOL     OW16891   2.605   4.511   3.660  0.7759  0.4951 -0.0361
 1753SOL    HW116892   2.590   4.593   3.613 -1.8637 -0.1623 -0.3038
 1753SOL    HW216893   2.701   4.507   3.652  0.8122  3.0514 -1.0990
 1754SOL     OW16894   3.005   2.473   3.023 -0.1388 -0.0163  0.4016
 1754SOL    HW116895   2.988   2.402   3.084  1.3942 -1.4052 -0.8042
 1754SOL    HW216896   2.928   2.457   2.968 -0.4075 -1.2579  1.1600
 1755SOL     OW16897   4.508   0.419   6.510  0.1745  0.5028  0.1769
 1755SOL    HW116898   4.579   0.471   6.549  1.1156  0.6169 -1.7311
 1755SOL    HW216899   4.524   0.452   6.422  1.6889  1.6914  0.8907
 1756SOL     OW16900   3.760   4.592   2.360  0.4805  0.0304  0.4951
 1756SOL    HW116901   3.703   4.535   2.310 -1.7620  3.1217 -0.4821
 1756SOL    HW216902   3.759   4.681   2.324 -2.5962 -0.2191 -0.0259
 1757SOL     OW16903   0.859   0.814   1.891  0.6649  0.0763  0.4945
 1757SOL    HW116904   0.770   0.783   1.869  1.0073  1.1125 -2.3562
 1757SOL    HW216905   0.907   0.745   1.845  0.7815  1.6295 -1.7248
 1758SOL     OW16906   3.262   2.381  16.577  0.2591  0.6770 -0.0432
 1758SOL    HW116907   3.322   2.360  16.649 -1.4015 -0.8471  0.8960
 1758SOL    HW216908   3.196   2.437  16.618 -0.4614  1.7210 -2.6662
 1759SOL     OW16909   1.125   1.010  14.282  0.4626 -0.4048  0.1636
 1759SOL    HW116910   1.085   1.097  14.275 -0.9561 -0.9864  1.0678
 1759SOL    HW216911   1.107   0.985  14.191 -0.3101 -0.8750  0.4471
 1760SOL     OW16912   1.592   2.563   4.323  0.0051  0.1357 -0.2048
 1760SOL    HW116913   1.685   2.582   4.309 -0.1330  1.9228  1.4078
 1760SOL    HW216914   1.574   2.492   4.261  0.5634 -2.2075  2.2990
 1761SOL     OW16915   0.440   0.394   0.073  0.0860  0.0676  0.1844
 1761SOL    HW116916   0.377   0.466   0.081  0.8859  0.9691 -1.5796
 1761SOL    HW216917   0.384   0.334   0.024 -0.6972  1.0878 -0.1635
 1762SOL     OW16918   1.732   4.718  10.315 -0.1166  0.0521  0.1329
 1762SOL    HW116919   1.790   0.049  10.280 -1.9808  0.7146 -1.6640
 1762SOL    HW216920   1.689   0.022  10.390  0.9612  0.8601  0.3185
 1763SOL     OW16921   3.641   1.564   3.520  0.0536 -0.0751 -0.0417
 1763SOL    HW116922   3.645   1.631   3.587 -0.6461  0.1824 -0.2537
 1763SOL    HW216923   3.600   1.490   3.566 -1.5613  0.6245 -0.3528
 1764SOL     OW16924   4.586   3.437  14.528  0.3469 -0.1944 -0.0404
 1764SOL    HW116925   4.534   3.511  14.558  1.2024  1.4379 -2.5911
 1764SOL    HW216926   4.523   3.385  14.478  0.3200  0.6552 -0.8913
 1765SOL     OW16927   2.384   1.332   5.154  0.4279  0.1499  0.0983
 1765SOL    HW116928   2.422   1.257   5.198  0.7932  2.7385  4.2332
 1765SOL    HW216929   2.353   1.378   5.233  1.1338 -0.2683  0.6136
 1766SOL     OW16930   1.005   2.909  12.949 -0.5405  0.2568  0.3929
 1766SOL    HW116931   0.973   2.976  12.888 -0.9792 -0.1322  0.1938
 1766SOL    HW216932   1.044   2.839  12.896  0.2810  1.9912 -1.3256
 1767SOL     OW16933   4.381   1.677   8.451  0.4835  0.4537  0.0383
 1767SOL    HW116934   4.355   1.657   8.361 -3.3822 -0.3062  1.3262
 1767SOL    HW216935   4.314   1.740   8.477  0.7765 -0.1609  2.2151
 1768SOL     OW16936   2.038   4.702   9.056  0.0772  0.3626  0.1642
 1768SOL    HW116937   1.981   4.627   9.068 -0.0980  0.4135 -0.3370
 1768SOL    HW216938   2.023   0.006   9.141 -0.0180  0.1007  0.2723
 1769SOL     OW16939   1.493   3.719   8.252  0.5362 -0.0029 -0.1914
 1769SOL    HW116940   1.559   3.782   8.281 -1.0669  0.2458  2.9153
 1769SOL    HW216941   1.514   3.705   8.160  0.3488  3.2176 -0.7433
 1770SOL     OW16942   3.091   3.067   1.939  0.5200  0.1495  0.1675
 1770SOL    HW116943   3.125   3.034   2.023 -0.6843  2.1638  1.4412
 1770SOL    HW216944   2.996   3.057   1.937  0.3748  1.4902  0.7327
 1771SOL     OW16945   3.277   0.898   8.466 -0.6795  0.3638 -0.1101
 1771SOL    HW116946   3.357   0.908   8.518 -0.8967  0.8803  0.1187
 1771SOL    HW216947   3.264   0.979   8.416  0.5153  0.1976 -0.7042
 1772SOL     OW16948   2.726   1.927  16.498  0.3660  0.5044  0.0830
 1772SOL    HW116949   2.788   1.963  16.561  2.0667 -3.5833  0.7547
 1772SOL    HW216950   2.671   1.882  16.562 -0.0550  0.7217 -0.1250
 1773SOL     OW16951   0.755   1.831  14.422 -0.0498 -0.2199 -0.2514
 1773SOL    HW116952   0.711   1.781  14.353 -0.7568  1.1673 -0.7978
 1773SOL    HW216953   0.681   1.880  14.457  1.3496  0.7542  1.3127
 1774SOL     OW16954   1.612   1.405   7.837  0.4481  0.6764 -0.0544
 1774SOL    HW116955   1.600   1.375   7.927  0.1702  1.3507  0.1357
 1774SOL    HW216956   1.699   1.446   7.834 -0.3920  2.5301  0.5446
 1775SOL     OW16957   4.279   0.416   6.156  0.5487  0.4418  0.4844
 1775SOL    HW116958   4.224   0.379   6.225 -0.2310  0.4297 -0.1472
 1775SOL    HW216959   4.330   0.469   6.217 -1.1795  3.3758 -0.5936
 1776SOL     OW16960   4.629   0.966   1.632  0.3493 -0.6477 -0.3850
 1776SOL    HW116961   4.548   0.988   1.586  0.7363  0.3349 -0.5877
 1776SOL    HW216962   4.624   1.035   1.697  1.0936 -1.4590  0.5339
 1777SOL     OW16963   0.893   1.060   2.258 -0.4870  0.5031  0.0202
 1777SOL    HW116964   0.943   1.000   2.203  0.5069  0.0111  1.4752
 1777SOL    HW216965   0.816   1.005   2.276  0.9404 -0.5611  2.8561
 1778SOL     OW16966   1.313   1.594   5.886  0.9890  0.9332 -0.1527
 1778SOL    HW116967   1.222   1.597   5.856  0.2737 -1.1169  1.8012
 1778SOL    HW216968   1.335   1.501   5.880 -3.6999 -0.1851  0.2871
 1779SOL     OW16969   1.915   2.615  15.470 -0.3217  0.2640  0.7599
 1779SOL    HW116970   1.916   2.699  15.424 -0.1516 -0.9195 -1.3697
 1779SOL    HW216971   2.004   2.621  15.504 -0.8967  0.8826  2.1667
 1780SOL     OW16972   1.764   0.514   9.783  0.0538  0.4374  0.1341
 1780SOL    HW116973   1.711   0.495   9.860  0.7319  1.2539  0.7925
 1780SOL    HW216974   1.849   0.488   9.817  0.1457  0.8106  0.1889
 1781SOL     OW16975   3.876   2.625   6.933 -0.0282 -0.0816 -0.6712
 1781SOL    HW116976   3.957   2.676   6.927 -0.1460 -0.0084 -1.5849
 1781SOL    HW216977   3.911   2.553   6.880  1.8404 -0.2108  0.7361
 1782SOL     OW16978   3.297   3.945   3.906  0.0993  0.1652  0.1834
 1782SOL    HW116979   3.323   4.032   3.877 -0.2874  0.5872  1.1013
 1782SOL    HW216980   3.324   3.889   3.833 -1.2370  0.9072 -0.8758
 1783SOL     OW16981   2.933   4.235   2.954 -0.6170  0.4975  0.3169
 1783SOL    HW116982   2.936   4.161   3.014 -1.1205 -0.8635 -1.3202
 1783SOL    HW216983   3.023   4.266   2.959 -0.4746  0.2291 -0.4439
 1784SOL     OW16984   2.099   0.921   3.819  0.2690  0.5687  0.1460
 1784SOL    HW116985   2.193   0.937   3.808  0.5477 -0.1327  1.5383
 1784SOL    HW216986   2.106   0.832   3.852 -1.7887  0.4776  0.3407
 1785SOL     OW16987   4.323   4.283   3.644  0.4344 -0.7482  0.2442
 1785SOL    HW116988   4.286   4.353   3.590  0.0329  1.3010  3.1983
 1785SOL    HW216989   4.379   4.244   3.576 -0.4077 -0.3609 -0.6700
 1786SOL     OW16990   3.369   3.716  17.455 -0.2105 -0.1382  0.1092
 1786SOL    HW116991   3.370   3.623  17.477  0.0235  0.0600  0.9392
 1786SOL    HW216992   3.274   3.716  17.441 -0.2746 -1.0995  0.5054
 1787SOL     OW16993   1.645   1.966  16.112 -0.3453 -0.0169  0.2709
 1787SOL    HW116994   1.731   1.937  16.142  0.1490  2.5729  1.3564
 1787SOL    HW216995   1.608   1.880  16.090  0.7582 -0.2761 -0.6209
 1788SOL     OW16996   2.244   2.263  14.800 -0.2369  0.1025  0.6498
 1788SOL    HW116997   2.276   2.177  14.825 -0.2987  0.7548  2.9563
 1788SOL    HW216998   2.311   2.316  14.844  1.2619  0.3807 -1.9469
 1789SOL     OW16999   2.489   1.443   4.925 -0.6807 -0.4464 -0.4301
 1789SOL    HW117000   2.441   1.378   4.873  0.0077  0.6808 -2.4957
 1789SOL    HW217001   2.479   1.399   5.009 -1.7162 -0.3568 -0.4991
 1790SOL     OW17002   4.227   1.576   6.248  1.0298  0.1227 -0.4563
 1790SOL    HW117003   4.186   1.655   6.214  1.0319  0.0294 -0.6720
 1790SOL    HW217004   4.302   1.608   6.298  1.3791 -1.5331  0.0931
 1791SOL     OW17005   2.808   0.957   6.212  0.4763 -0.6444 -0.0353
 1791SOL    HW117006   2.826   0.930   6.122 -0.0365  0.1267 -0.3675
 1791SOL    HW217007   2.712   0.954   6.208  0.3969  0.3890  1.1137
 1792SOL     OW17008   0.821   2.735  12.595  0.5587  0.4111 -0.0988
 1792SOL    HW117009   0.878   2.811  12.602 -1.7443  2.2045 -0.5945
 1792SOL    HW217010   0.884   2.670  12.564  1.0893  0.5538  0.6867
 1793SOL     OW17011   3.312   1.365   1.723  0.6514 -0.1806  0.0076
 1793SOL    HW117012   3.252   1.305   1.678  1.4058 -0.4659 -0.6226
 1793SOL    HW217013   3.249   1.433   1.748  0.8048  0.6118 -1.7265
 1794SOL     OW17014   0.257   2.486  17.333  0.4199 -0.4902 -0.6897
 1794SOL    HW117015   0.202   2.435  17.392  0.8183 -0.6957 -0.4990
 1794SOL    HW217016   0.189   2.529  17.281  1.2733  1.4871 -0.1750
 1795SOL     OW17017   0.412   1.708   3.506  0.2041  0.5561 -0.6916
 1795SOL    HW117018   0.497   1.671   3.482 -0.6822 -1.4797 -0.7162
 1795SOL    HW217019   0.349   1.643   3.474  0.9165 -0.4829  0.0439
 1796SOL     OW17020   2.887   1.904   5.390  0.0311 -0.5288  0.4763
 1796SOL    HW117021   2.952   1.900   5.320 -1.1152  0.9841 -0.6683
 1796SOL    HW217022   2.871   1.811   5.407  1.2552 -1.0004 -1.0129
 1797SOL     OW17023   3.418   0.948  13.700  0.0289  0.5154  0.0973
 1797SOL    HW117024   3.408   0.854  13.689 -2.0883  0.5829  1.4187
 1797SOL    HW217025   3.349   0.967  13.764 -0.5171  0.0250 -0.3519
 1798SOL     OW17026   0.332   3.265   7.119 -0.1044  0.0902 -0.1968
 1798SOL    HW117027   0.238   3.254   7.129 -0.2937  1.0359 -1.0044
 1798SOL    HW217028   0.358   3.192   7.175  1.1053  2.7903  2.7626
 1799SOL     OW17029   1.586   1.518   6.279  0.1629  0.3386 -0.2337
 1799SOL    HW117030   1.670   1.479   6.302 -0.2644 -0.1120  0.5790
 1799SOL    HW217031   1.568   1.469   6.198  0.9588  0.3980 -0.4440
 1800SOL     OW17032   3.768   2.827  16.455  0.6492  1.2307 -0.1508
 1800SOL    HW117033   3.726   2.788  16.378  2.6597 -1.5921  0.1740
 1800SOL    HW217034   3.770   2.750  16.512 -3.2572  0.9732 -0.3176
 1801SOL     OW17035   0.401   3.623   9.142  0.2001 -0.0182 -0.2633
 1801SOL    HW117036   0.312   3.592   9.157  0.2346 -0.3076 -0.6596
 1801SOL    HW217037   0.452   3.559   9.191 -0.5450  0.9882  1.8185
 1802SOL     OW17038   3.567   3.215   9.519 -0.3632  0.5202 -0.4950
 1802SOL    HW117039   3.478   3.227   9.485 -0.9430 -1.4199  0.3737
 1802SOL    HW217040   3.614   3.182   9.442 -1.0945  0.9920 -1.1520
 1803SOL     OW17041   0.016   2.136   6.602 -0.4204 -0.4465  0.4520
 1803SOL    HW117042   4.665   2.102   6.584 -0.5018  0.0102 -0.0307
 1803SOL    HW217043   0.058   2.089   6.530  0.7728  0.2867  0.6785
 1804SOL     OW17044   1.859   4.594  17.046 -0.1941  0.1600  0.4703
 1804SOL    HW117045   1.779   4.558  17.007  0.4732 -1.8504  0.9447
 1804SOL    HW217046   1.849   4.684  17.016 -0.0317  0.9279  2.7040
 1805SOL     OW17047   2.558   1.976   1.876 -0.0972 -0.3169  0.5500
 1805SOL    HW117048   2.499   1.965   1.802  0.8747  0.8335 -0.3843
 1805SOL    HW217049   2.588   1.886   1.891  0.6152 -0.1930 -0.1722
 1806SOL     OW17050   0.503   2.413   7.201  0.2221 -0.1941 -0.3716
 1806SOL    HW117051   0.507   2.388   7.293  1.9962  0.6843 -0.2153
 1806SOL    HW217052   0.545   2.334   7.167  2.1579  1.3202 -1.5245
 1807SOL     OW17053   3.639   4.430  16.244 -0.1832 -0.4691  0.2272
 1807SOL    HW117054   3.701   4.502  16.256 -1.7765  0.6419  1.8568
 1807SOL    HW217055   3.693   4.352  16.256  1.6050  0.6042 -0.7883
 1808SOL     OW17056   2.752   1.238   5.124  0.3384  0.1000  0.9902
 1808SOL    HW117057   2.705   1.273   5.049 -1.1881  1.1900  2.4541
 1808SOL    HW217058   2.803   1.316   5.149  1.2146  0.4818 -2.0314
 1809SOL     OW17059   3.268   1.750   5.991 -0.1784  0.3809  0.1737
 1809SOL    HW117060   3.279   1.757   6.086  0.3406  0.2161  0.1225
 1809SOL    HW217061   3.320   1.670   5.983  0.2306  0.5709  0.9281
 1810SOL     OW17062   0.433   4.127  14.139  0.0802 -0.2577 -0.4311
 1810SOL    HW117063   0.343   4.097  14.130 -0.1554  0.7300 -1.3083
 1810SOL    HW217064   0.441   4.132  14.235 -0.1276  1.9864 -0.5305
 1811SOL     OW17065   2.620   2.624   4.601 -0.4335  0.0338 -0.1232
 1811SOL    HW117066   2.651   2.625   4.691 -2.2269  1.1329  0.4727
 1811SOL    HW217067   2.664   2.704   4.572  0.0404 -1.0065 -2.2795
 1812SOL     OW17068   4.715   3.492  12.137 -0.2242 -0.3268  0.2673
 1812SOL    HW117069   0.022   3.566  12.096  0.2779 -1.8446 -1.9380
 1812SOL    HW217070   4.625   3.521  12.149  0.3791  2.0309 -0.8843
 1813SOL     OW17071   2.432   3.041  13.487 -0.3316  0.4100 -0.2071
 1813SOL    HW117072   2.507   3.060  13.430  0.5602  0.0058  0.8287
 1813SOL    HW217073   2.402   3.127  13.514 -1.9579  0.2775 -1.6083
 1814SOL     OW17074   0.101   4.489   1.241 -0.1780 -0.1475  0.4324
 1814SOL    HW117075   0.070   4.576   1.268 -2.1168 -0.0647 -2.0682
 1814SOL    HW217076   0.170   4.525   1.185  1.8319 -2.0551  1.6733
 1815SOL     OW17077   3.262   0.200   1.803 -0.2613 -0.1413  0.0526
 1815SOL    HW117078   3.260   0.242   1.716 -1.5751 -3.2161 -1.4017
 1815SOL    HW217079   3.227   0.268   1.861 -0.4449 -0.2793  0.1030
 1816SOL     OW17080   3.598   0.771   6.088  0.0703 -0.2587  0.3359
 1816SOL    HW117081   3.580   0.795   6.179 -0.0739  2.1454 -0.3080
 1816SOL    HW217082   3.591   0.859   6.050  0.2405 -1.1079 -1.6568
 1817SOL     OW17083   2.596   1.417   6.706  0.4948  0.7679  0.3918
 1817SOL    HW117084   2.629   1.403   6.795  0.4509  0.2494  0.3304
 1817SOL    HW217085   2.643   1.358   6.647  2.2005  2.2937  0.2493
 1818SOL     OW17086   3.812   0.485  10.590 -0.7563  0.2126  0.0216
 1818SOL    HW117087   3.815   0.577  10.615  1.5711 -0.0402  0.6794
 1818SOL    HW217088   3.821   0.475  10.495  2.4085  0.7664  0.2472
 1819SOL     OW17089   3.727   4.500   8.217  0.1385  0.3197 -0.4626
 1819SOL    HW117090   3.632   4.501   8.230 -0.0340 -0.9587 -1.5338
 1819SOL    HW217091   3.747   4.407   8.232  0.1291  0.3567 -0.2166
 1820SOL     OW17092   1.360   3.146   7.946  0.2632  0.0178  0.2676
 1820SOL    HW117093   1.300   3.134   7.872  1.0356 -1.3933 -0.1288
 1820SOL    HW217094   1.363   3.053   7.969  1.0912  0.0386  0.2369
 1821SOL     OW17095   1.983   4.567  12.673  0.1811  0.0496  0.1379
 1821SOL    HW117096   1.983   4.663  12.667  0.7805  0.1762  2.0280
 1821SOL    HW217097   2.065   4.552  12.720  0.7253 -3.8323 -2.1506
 1822SOL     OW17098   2.463   1.771   6.654  0.1967 -0.3649 -0.4127
 1822SOL    HW117099   2.502   1.787   6.568 -0.2252  2.8130 -0.0437
 1822SOL    HW217100   2.399   1.705   6.627 -2.8376  1.5193  2.2113
 1823SOL     OW17101   2.083   1.922   2.049 -0.2658  0.0483  0.4786
 1823SOL    HW117102   2.126   1.953   1.970  1.1248  2.7298  2.2768
 1823SOL    HW217103   2.004   1.968   2.023 -1.0032 -1.8439 -0.6035
 1824SOL     OW17104   1.046   3.743   3.987 -0.3975 -0.3654  0.2601
 1824SOL    HW117105   0.967   3.788   3.958 -1.6382 -1.8847  1.2833
 1824SOL    HW217106   1.113   3.799   3.947 -0.8089 -0.4351 -0.5409
 1825SOL     OW17107   2.619   3.354  17.570 -0.2349 -0.8890  0.7539
 1825SOL    HW117108   2.692   3.294  17.575 -0.2947 -1.0418 -0.1530
 1825SOL    HW217109   2.570   3.324  17.646 -0.0282 -0.5724  1.0146
 1826SOL     OW17110   1.282   3.340   8.569 -0.3484 -0.1451 -0.0313
 1826SOL    HW117111   1.264   3.322   8.661  4.0724  0.2174  0.9024
 1826SOL    HW217112   1.364   3.291   8.565 -0.6298 -0.4090 -2.9621
 1827SOL     OW17113   3.502   2.488  15.925 -0.3540 -0.0005  0.3437
 1827SOL    HW117114   3.578   2.439  15.955  0.0396  1.5121  1.7875
 1827SOL    HW217115   3.549   2.571  15.917 -0.6208 -0.0175 -1.3396
 1828SOL     OW17116   0.964   4.500  11.084  0.2838  0.7677 -0.1522
 1828SOL    HW117117   0.986   4.593  11.081 -1.1703  1.0722 -1.4088
 1828SOL    HW217118   1.000   4.469  11.001  0.1777  0.9959 -0.2827
 1829SOL     OW17119   2.296   3.421   7.183  0.6682  0.4041  0.5291
 1829SOL    HW117120   2.299   3.333   7.222 -0.3894  0.0662 -0.1596
 1829SOL    HW217121   2.240   3.413   7.106  2.3691  1.6689 -0.8418
 1830SOL     OW17122   4.292   2.704   5.599 -0.6011  0.5960  0.1910
 1830SOL    HW117123   4.381   2.675   5.580 -0.7951 -0.1317  0.4170
 1830SOL    HW217124   4.272   2.749   5.517  0.5959  0.8005  0.0071
 1831SOL     OW17125   4.702   2.959   2.628 -0.0827 -0.1540 -0.6965
 1831SOL    HW117126   4.612   2.931   2.647 -0.8543  1.6254 -1.7411
 1831SOL    HW217127   4.683   3.026   2.563  0.4594 -0.4241 -1.1348
 1832SOL     OW17128   0.452   2.865   6.509  0.0929 -0.7751  0.7446
 1832SOL    HW117129   0.365   2.898   6.529  0.1628 -0.7104  0.9432
 1832SOL    HW217130   0.501   2.896   6.585  0.5039 -0.3090  0.2880
 1833SOL     OW17131   0.356   3.834   4.153 -0.1149  0.5607  0.0189
 1833SOL    HW117132   0.321   3.747   4.132  0.7439  0.4404 -0.9494
 1833SOL    HW217133   0.306   3.856   4.231 -1.2576  0.0370 -0.5615
 1834SOL     OW17134   0.707   4.387   2.181 -0.0053 -0.8051 -0.1735
 1834SOL    HW117135   0.667   4.302   2.197  0.1848 -1.0435 -0.9468
 1834SOL    HW217136   0.760   4.389   2.260 -1.6818  0.1647  0.9230
 1835SOL     OW17137   2.152   2.587   1.195  0.1303 -0.3748 -0.1080
 1835SOL    HW117138   2.138   2.504   1.150 -0.8819  1.1365 -2.6058
 1835SOL    HW217139   2.111   2.649   1.135  0.0832 -1.2119 -0.9458
 1836SOL     OW17140   4.346   0.254   3.062  0.3215  0.0220 -0.3423
 1836SOL    HW117141   4.375   0.204   3.137  0.6885  0.2121 -0.3570
 1836SOL    HW217142   4.431   0.268   3.019  0.4838 -0.8250 -0.2886
 1837SOL     OW17143   3.706   0.492   4.669 -0.1393 -1.0929  0.2187
 1837SOL    HW117144   3.744   0.427   4.610 -0.1062 -0.2204 -0.7286
 1837SOL    HW217145   3.640   0.440   4.714 -2.3575 -1.0316 -2.9503
 1838SOL     OW17146   0.315   3.747   1.628 -0.1338 -0.0723  0.1230
 1838SOL    HW117147   0.342   3.808   1.560 -1.9277 -0.0481 -0.5742
 1838SOL    HW217148   0.225   3.725   1.601 -0.0247 -2.0242  1.3070
 1839SOL     OW17149   2.192   3.211   3.498  0.6316 -0.3482  0.4492
 1839SOL    HW117150   2.275   3.200   3.452  0.7381  0.8979  0.3471
 1839SOL    HW217151   2.213   3.160   3.576 -2.5636  0.4370  1.8235
 1840SOL     OW17152   2.938   1.507  14.007 -0.5735  0.0068  0.1973
 1840SOL    HW117153   3.028   1.540  14.001 -1.1799  2.3475  4.0025
 1840SOL    HW217154   2.897   1.587  13.973 -2.5553 -0.2366  2.0177
 1841SOL     OW17155   3.734   2.637   7.908  0.0221  0.4189  0.1451
 1841SOL    HW117156   3.774   2.724   7.902  3.3661 -1.2796 -2.7719
 1841SOL    HW217157   3.805   2.583   7.873 -1.1134 -1.1110  0.2160
 1842SOL     OW17158   4.382   2.275   6.871  0.3418  0.4863 -0.2927
 1842SOL    HW117159   4.364   2.295   6.779  0.4250  1.1591 -0.1626
 1842SOL    HW217160   4.433   2.194   6.866 -1.1148 -0.4560  0.1827
 1843SOL     OW17161   0.836   2.734   1.370 -0.2544  0.3328 -0.4757
 1843SOL    HW117162   0.780   2.742   1.448 -0.4629  0.3538 -0.6273
 1843SOL    HW217163   0.892   2.811   1.381  1.0699 -0.5512 -1.0591
 1844SOL     OW17164   4.723   2.425   0.067 -0.0575 -0.1509 -0.2577
 1844SOL    HW117165   4.642   2.474   0.083  0.3228  0.5045 -0.3013
 1844SOL    HW217166   4.700   2.333   0.074 -1.7072  0.1415 -2.1211
 1845SOL     OW17167   2.799   3.939   6.787  0.1499 -0.0676  0.3104
 1845SOL    HW117168   2.818   3.862   6.840  1.5422  1.0117  1.3592
 1845SOL    HW217169   2.842   3.913   6.705  2.8586 -1.3423  2.1540
 1846SOL     OW17170   4.249   1.870   7.465 -0.1977  0.2499 -0.3194
 1846SOL    HW117171   4.296   1.949   7.493 -0.3434  1.1723 -2.7039
 1846SOL    HW217172   4.324   1.812   7.452 -0.0288  0.3855  0.0481
 1847SOL     OW17173   2.323   3.941  16.905 -0.5964 -0.4290 -0.0873
 1847SOL    HW117174   2.376   4.015  16.875 -2.6973  2.1115  2.4477
 1847SOL    HW217175   2.233   3.974  16.903 -0.5210 -0.2468 -0.3648
 1848SOL     OW17176   2.008   2.407   4.833  0.2022  0.1381  0.2123
 1848SOL    HW117177   1.917   2.376   4.827  0.4956 -0.6668 -0.1151
 1848SOL    HW217178   1.984   2.479   4.891  0.3584  0.5397 -0.2143
 1849SOL     OW17179   0.895   3.196   2.092  0.4015  0.0532  0.2594
 1849SOL    HW117180   0.875   3.103   2.083 -0.8198  0.1487  1.9831
 1849SOL    HW217181   0.976   3.190   2.143  0.5447 -1.9612 -0.2024
 1850SOL     OW17182   2.670   2.812   8.482  0.9083  0.4073  0.0870
 1850SOL    HW117183   2.652   2.764   8.401  1.2681 -2.2645  1.6182
 1850SOL    HW217184   2.684   2.741   8.544  0.7344 -0.5897 -1.0096
 1851SOL     OW17185   0.600   4.151   2.310  0.4391  0.2711 -0.7919
 1851SOL    HW117186   0.634   4.066   2.336 -2.6577 -0.5846  0.4598
 1851SOL    HW217187   0.541   4.139   2.235  0.9912  1.6747 -1.4568
 1852SOL     OW17188   4.189   4.236   6.964  0.1420 -0.5188  0.1163
 1852SOL    HW117189   4.258   4.287   7.006  1.5009 -1.8048 -0.5572
 1852SOL    HW217190   4.239   4.192   6.895  0.6077  2.5405 -1.5108
 1853SOL     OW17191   2.845   3.148   3.997  0.0134 -0.0440  0.3516
 1853SOL    HW117192   2.873   3.184   4.081 -0.8597  0.5962  0.3643
 1853SOL    HW217193   2.922   3.094   3.978  1.3436  1.2928  1.9874
 1854SOL     OW17194   1.948   0.200  16.185  0.4103  0.3709 -0.5885
 1854SOL    HW117195   2.038   0.219  16.212  0.0314  0.1322  0.8271
 1854SOL    HW217196   1.950   0.233  16.095  1.0999  1.6295 -0.1133
 1855SOL     OW17197   4.436   4.293  15.327 -0.2436  0.7027  0.2008
 1855SOL    HW117198   4.466   4.285  15.237 -2.9782 -2.9640 -0.3770
 1855SOL    HW217199   4.505   4.254  15.381 -0.4411  0.2769  0.1468
 1856SOL     OW17200   2.463   2.138  14.083  0.2199 -0.2952  0.1655
 1856SOL    HW117201   2.430   2.105  14.000 -0.4112  1.0889 -0.1369
 1856SOL    HW217202   2.398   2.208  14.096  2.6488  1.8714  0.6078
 1857SOL     OW17203   1.392   1.449  11.215  0.3136  0.0037  0.7474
 1857SOL    HW117204   1.338   1.380  11.176 -0.7081 -0.7943  3.5385
 1857SOL    HW217205   1.449   1.401  11.276  0.1560 -2.5457 -1.0816
 1858SOL     OW17206   0.459   0.838   1.359  0.2492  0.5764  0.2589
 1858SOL    HW117207   0.549   0.846   1.326  0.3556  1.7571  0.8117
 1858SOL    HW217208   0.460   0.746   1.385  3.1729 -0.2710 -2.8605
 1859SOL     OW17209   4.508   3.150   4.707  0.3534  0.5316 -0.5266
 1859SOL    HW117210   4.508   3.224   4.767  2.3876 -0.8154  1.1445
 1859SOL    HW217211   4.438   3.093   4.740  1.6163 -1.2702 -0.9401
 1860SOL     OW17212   2.026   2.244   5.598  0.0716  0.3513 -0.0189
 1860SOL    HW117213   1.951   2.189   5.574  0.3810 -0.4203  0.7779
 1860SOL    HW217214   2.046   2.234   5.691 -0.4152  1.6311  0.2169
 1861SOL     OW17215   1.858   3.346  10.371 -0.0670  0.2537 -0.0144
 1861SOL    HW117216   1.799   3.406  10.417  0.5741  2.9574 -2.7358
 1861SOL    HW217217   1.897   3.305  10.448 -1.7993 -1.7265 -0.1831
 1862SOL     OW17218   1.541   1.142   9.115  0.3111  0.2596  0.0452
 1862SOL    HW117219   1.628   1.113   9.141 -0.0717 -0.0456  1.0025
 1862SOL    HW217220   1.491   1.112   9.191 -1.3786  0.7013 -0.9003
 1863SOL     OW17221   0.509   0.171  10.947  0.2023 -0.4274  0.2202
 1863SOL    HW117222   0.591   0.164  10.995  0.3859  1.3298  0.1307
 1863SOL    HW217223   0.538   0.206  10.863  0.2117 -0.8789  0.0345
 1864SOL     OW17224   0.831   0.031   8.435  0.1219  0.0065 -0.1050
 1864SOL    HW117225   0.921   4.737   8.449  0.9855  1.8532 -1.4882
 1864SOL    HW217226   0.805   0.024   8.527 -2.7856  1.9909 -0.7684
 1865SOL     OW17227   0.550   3.604   6.067 -0.5393 -0.6610  0.4827
 1865SOL    HW117228   0.596   3.666   6.122 -1.0040 -0.8939  1.1326
 1865SOL    HW217229   0.582   3.516   6.087 -3.7576 -1.7204  1.0708
 1866SOL     OW17230   2.423   3.298  14.417  0.2151  0.2946  0.2898
 1866SOL    HW117231   2.491   3.285  14.483  0.0082  0.9328  0.6275
 1866SOL    HW217232   2.455   3.259  14.336 -0.4780 -1.6627  0.9599
 1867SOL     OW17233   0.528   3.001   6.751 -0.1254 -0.2290  0.3969
 1867SOL    HW117234   0.590   3.074   6.749 -1.8540  1.2265  0.4123
 1867SOL    HW217235   0.577   2.940   6.806  0.5271 -0.3033 -0.2690
 1868SOL     OW17236   3.674   4.162   4.354  0.0857  0.0107 -0.3084
 1868SOL    HW117237   3.644   4.077   4.385 -3.5284  2.2214  2.3457
 1868SOL    HW217238   3.714   4.129   4.274 -0.3468  1.6519 -1.2182
 1869SOL     OW17239   3.940   0.736   8.558 -0.2187  0.0908 -0.6571
 1869SOL    HW117240   4.014   0.743   8.618  0.6713 -0.9775 -1.6276
 1869SOL    HW217241   3.862   0.725   8.612  0.4615 -0.6206  0.1805
 1870SOL     OW17242   4.697   2.757  11.361 -0.6212  0.0609  0.3677
 1870SOL    HW117243   4.714   2.718  11.275 -1.2935 -1.0650  0.7406
 1870SOL    HW217244   0.036   2.800  11.399  0.0813  0.3375 -1.3412
 1871SOL     OW17245   3.916   0.094   4.341  0.2862  0.0307 -0.0828
 1871SOL    HW117246   3.964   0.013   4.359  1.3533  0.4872 -0.9069
 1871SOL    HW217247   3.943   0.150   4.414  0.1505 -0.1548  0.1096
 1872SOL     OW17248   0.382   3.486   5.747  0.2014  0.0466 -0.0986
 1872SOL    HW117249   0.374   3.492   5.651 -3.9433  1.4785  0.3201
 1872SOL    HW217250   0.477   3.487   5.748  0.2126  0.4047 -1.6688
 1873SOL     OW17251   3.929   2.510   4.898  0.2365  0.3793 -0.2153
 1873SOL    HW117252   4.011   2.549   4.868 -0.1408  1.6608  0.4457
 1873SOL    HW217253   3.880   2.498   4.817  1.0627 -1.2209 -0.4796
 1874SOL     OW17254   3.900   0.586  15.288  0.1005  0.2341  0.3002
 1874SOL    HW117255   3.927   0.674  15.264  0.6441 -0.1304 -0.4296
 1874SOL    HW217256   3.819   0.613  15.331  0.2712 -1.0938  1.4449
 1875SOL     OW17257   3.791   1.833   8.233 -0.1471 -0.4315  0.5077
 1875SOL    HW117258   3.738   1.912   8.226  0.5997 -0.1020 -1.4909
 1875SOL    HW217259   3.786   1.804   8.142  1.8809  1.4112 -0.2017
 1876SOL     OW17260   2.137   3.691   3.193  0.0963  0.6324  0.1610
 1876SOL    HW117261   2.194   3.697   3.117 -1.7215 -1.1556 -1.3227
 1876SOL    HW217262   2.103   3.779   3.209 -0.2139  0.1258  2.3718
 1877SOL     OW17263   1.937   3.498  12.060  0.5505 -0.6629 -0.2436
 1877SOL    HW117264   1.841   3.507  12.063  0.5165 -0.8978 -0.6487
 1877SOL    HW217265   1.971   3.556  12.128 -0.1115 -0.2090 -0.2922
 1878SOL     OW17266   1.936   3.208   2.569 -0.0011  0.0733  0.2740
 1878SOL    HW117267   1.981   3.290   2.586  1.0436 -0.3647 -0.3644
 1878SOL    HW217268   1.856   3.239   2.528 -0.2617  2.1886  2.3832
 1879SOL     OW17269   0.475   2.798   1.176 -0.1208 -0.2467  0.4290
 1879SOL    HW117270   0.452   2.792   1.083 -0.4016 -0.1623  0.4932
 1879SOL    HW217271   0.482   2.892   1.191  4.1296 -0.5116 -0.0123
 1880SOL     OW17272   1.144   2.331   7.655 -0.4071 -0.2158  0.2780
 1880SOL    HW117273   1.140   2.257   7.715  2.6372 -1.0687 -0.5652
 1880SOL    HW217274   1.066   2.321   7.600  0.2578  0.5655 -0.8015
 1881SOL     OW17275   1.915   2.899   3.800  0.4513  0.4783 -0.4053
 1881SOL    HW117276   1.871   2.982   3.819 -0.3987  0.0074 -0.2781
 1881SOL    HW217277   1.834   2.849   3.813 -0.4766  2.8382  2.9897
 1882SOL     OW17278   1.560   2.455  10.278  0.1073  0.3989 -0.1684
 1882SOL    HW117279   1.576   2.547  10.299 -2.8850  0.1913  3.1096
 1882SOL    HW217280   1.646   2.428  10.248  0.3126 -1.6008  2.2376
 1883SOL     OW17281   4.385   2.195   3.519  0.0392 -0.2172 -0.2130
 1883SOL    HW117282   4.385   2.215   3.612  0.7239 -1.0757 -0.0352
 1883SOL    HW217283   4.307   2.139   3.520 -1.2925  1.5426 -2.4470
 1884SOL     OW17284   2.095   4.085   1.332  0.3157 -0.1395 -0.6713
 1884SOL    HW117285   2.041   4.163   1.349  0.1528  0.2965 -3.2388
 1884SOL    HW217286   2.162   4.121   1.274 -0.4443  1.3851 -0.6018
 1885SOL     OW17287   2.379   1.496   5.824 -0.0319  0.0517 -0.4517
 1885SOL    HW117288   2.318   1.432   5.862 -1.4689  0.6872 -1.7029
 1885SOL    HW217289   2.403   1.539   5.907  1.9647 -0.5829 -0.6943
 1886SOL     OW17290   0.065   2.364  10.428  0.3086  0.3462  0.1384
 1886SOL    HW117291   0.097   2.449  10.399 -1.7919  1.3324  0.7027
 1886SOL    HW217292   0.030   2.381  10.515  0.7447 -0.6999  0.5179
 1887SOL     OW17293   1.722   4.523   5.137 -0.2258 -0.3346  0.1154
 1887SOL    HW117294   1.629   4.540   5.154 -0.2992 -2.4270  1.8707
 1887SOL    HW217295   1.754   4.486   5.219  0.2333  1.4545  0.7338
 1888SOL     OW17296   3.273   0.328  16.176  0.5684  0.1904 -0.3840
 1888SOL    HW117297   3.263   0.357  16.085 -1.1420 -1.5107 -0.7352
 1888SOL    HW217298   3.184   0.303  16.200 -0.3550  4.2568  0.3134
 1889SOL     OW17299   3.622   2.549   5.485 -0.3719 -0.4417  0.0232
 1889SOL    HW117300   3.565   2.472   5.493 -0.0908 -0.6695 -0.1689
 1889SOL    HW217301   3.588   2.583   5.568  0.2447  1.0168 -0.3258
 1890SOL     OW17302   3.266   3.072  12.434  0.2744  0.4374 -0.2748
 1890SOL    HW117303   3.326   3.107  12.367  1.3790  1.9410  1.5041
 1890SOL    HW217304   3.188   3.044  12.387 -1.4934  2.2851  1.5745
 1891SOL     OW17305   1.114   4.302   6.046  0.0465 -0.2578  0.3591
 1891SOL    HW117306   1.079   4.366   5.984 -0.3676 -1.1118 -0.2803
 1891SOL    HW217307   1.061   4.316   6.125 -0.9631 -2.9695  0.1640
 1892SOL     OW17308   4.586   4.028   8.430 -0.1934 -0.3121 -0.1157
 1892SOL    HW117309   4.605   4.116   8.463 -0.1965  0.4562 -2.1247
 1892SOL    HW217310   4.575   3.965   8.501 -1.2725  0.7875  0.7072
 1893SOL     OW17311   3.551   2.819   3.000  0.1702 -0.6785 -0.1257
 1893SOL    HW117312   3.607   2.775   2.936  1.1706  2.4722 -1.4652
 1893SOL    HW217313   3.603   2.894   3.028  0.8125 -1.4105  0.6327
 1894SOL     OW17314   2.834   4.438   7.362  0.0368  0.2476 -0.3725
 1894SOL    HW117315   2.825   4.365   7.423 -2.1021  0.8810  0.0569
 1894SOL    HW217316   2.749   4.479   7.376 -0.3507 -0.9803  0.8765
 1895SOL     OW17317   0.162   0.725   6.465 -0.7075  0.0814 -0.2270
 1895SOL    HW117318   0.223   0.760   6.401  0.7349 -0.3468  0.9070
 1895SOL    HW217319   0.188   0.772   6.544 -2.3829  1.3184 -0.4170
 1896SOL     OW17320   0.978   1.000  17.300 -0.8381  0.8901 -0.4739
 1896SOL    HW117321   1.023   1.080  17.327  1.2249 -0.6455  0.5591
 1896SOL    HW217322   1.042   0.934  17.325  1.1949  2.9616 -0.2107
 1897SOL     OW17323   1.594   1.671   6.532 -0.1525 -0.0619  0.0223
 1897SOL    HW117324   1.658   1.638   6.594 -1.2385 -1.7433  0.2396
 1897SOL    HW217325   1.614   1.639   6.444 -1.3231 -0.2090 -0.2000
 1898SOL     OW17326   3.917   3.325   1.896  0.1464 -0.0171  0.2466
 1898SOL    HW117327   3.984   3.368   1.948 -0.1542  1.1000 -0.2685
 1898SOL    HW217328   3.942   3.333   1.804 -1.6434  0.6303 -0.2022
 1899SOL     OW17329   1.154   0.169   4.871  0.5219  0.0550  0.2131
 1899SOL    HW117330   1.116   0.255   4.854  3.5054  0.6956 -3.0805
 1899SOL    HW217331   1.153   0.119   4.789 -1.4699 -0.6401  0.6507
 1900SOL     OW17332   2.665   0.509   3.308 -0.3002  0.6531  0.1439
 1900SOL    HW117333   2.639   0.532   3.397 -0.0867  0.0629  0.3572
 1900SOL    HW217334   2.750   0.549   3.296 -1.1627  2.5248  0.2882
 1901SOL     OW17335   1.325   0.263   8.088 -0.4054 -0.2123 -0.5738
 1901SOL    HW117336   1.242   0.279   8.133 -0.6533 -1.2141 -0.6760
 1901SOL    HW217337   1.335   0.168   8.086 -0.0914 -0.2195  1.1922
 1902SOL     OW17338   2.531   2.876   6.283  0.4944 -0.0890 -0.2600
 1902SOL    HW117339   2.522   2.870   6.188  3.1985  1.5810 -0.6154
 1902SOL    HW217340   2.619   2.912   6.289  0.0128  0.7692  1.5257
 1903SOL     OW17341   0.771   2.074   8.800 -0.0851 -0.7198  0.3080
 1903SOL    HW117342   0.813   2.005   8.749  1.8215  1.2267 -0.7536
 1903SOL    HW217343   0.686   2.093   8.759 -0.3097  0.0343  1.1188
 1904SOL     OW17344   0.188   0.318  17.698 -0.9639  0.0956  0.2584
 1904SOL    HW117345   0.153   0.351   0.034 -0.2730  0.2583  0.4814
 1904SOL    HW217346   0.107   0.323  17.646 -0.3234  0.7876 -0.6748
 1905SOL     OW17347   1.494   3.857   4.517  0.1342  0.1907  0.3776
 1905SOL    HW117348   1.580   3.845   4.557  0.8234  1.5099 -0.6949
 1905SOL    HW217349   1.450   3.797   4.576  0.2393 -0.6509 -0.4065
 1906SOL     OW17350   3.104   0.515   3.230  0.3689  0.0189  0.1805
 1906SOL    HW117351   3.190   0.547   3.200 -0.3885  0.1476 -1.8871
 1906SOL    HW217352   3.123   0.424   3.208  1.4906  0.4867 -0.8150
 1907SOL     OW17353   2.603   0.088  14.789  0.0196  0.0947 -0.1122
 1907SOL    HW117354   2.536   0.099  14.722  1.2300  0.4298 -1.2752
 1907SOL    HW217355   2.599   4.733  14.816 -0.1226  0.6784  1.7835
 1908SOL     OW17356   0.238   1.027   8.019  0.7844 -0.6419 -0.4000
 1908SOL    HW117357   0.258   1.088   8.090  2.0447 -1.9547  0.3667
 1908SOL    HW217358   0.274   0.947   8.057 -0.1176 -0.5686  0.6075
 1909SOL     OW17359   1.046   2.719   5.224  0.0334 -0.5955 -0.0034
 1909SOL    HW117360   1.108   2.761   5.164  0.8999 -2.3694 -0.3304
 1909SOL    HW217361   1.052   2.630   5.191 -0.2608 -0.8681  0.6743
 1910SOL     OW17362   0.818   1.133   1.100 -0.7451  0.7489  0.1956
 1910SOL    HW117363   0.736   1.083   1.097 -0.4682  0.5193 -3.4006
 1910SOL    HW217364   0.828   1.151   1.007 -2.3561 -0.2023 -0.1560
 1911SOL     OW17365   1.568   0.396   3.971 -0.2039  0.4125 -0.0741
 1911SOL    HW117366   1.479   0.401   3.936  0.1678 -0.8052 -1.1985
 1911SOL    HW217367   1.622   0.446   3.910 -0.0956 -0.3364 -0.6033
 1912SOL     OW17368   1.336   0.019   0.291 -0.4945 -0.2007  0.1846
 1912SOL    HW117369   1.256   0.063   0.321 -1.2750 -0.9457 -0.8110
 1912SOL    HW217370   1.377   0.005   0.376 -0.4409 -2.2451 -0.1754
 1913SOL     OW17371   1.279   2.637   8.857 -0.1060 -0.2777 -0.2376
 1913SOL    HW117372   1.231   2.717   8.836  0.2212 -0.1587 -0.5253
 1913SOL    HW217373   1.256   2.567   8.796  3.6013  0.5519 -2.5894
 1914SOL     OW17374   3.181   0.531   8.153 -0.6993 -0.2580  0.1598
 1914SOL    HW117375   3.099   0.515   8.200 -0.6525  2.6590  1.2153
 1914SOL    HW217376   3.231   0.595   8.202 -0.2482 -1.1870  0.9173
 1915SOL     OW17377   2.433   3.444   6.316  0.0717 -0.4606 -0.1691
 1915SOL    HW117378   2.403   3.354   6.306 -1.8071  0.3787 -1.9541
 1915SOL    HW217379   2.368   3.494   6.267  0.9359  0.8561  0.0232
 1916SOL     OW17380   4.386   1.489   1.216 -0.4097 -0.1154  0.6631
 1916SOL    HW117381   4.355   1.491   1.306 -0.7550  4.7245  0.4215
 1916SOL    HW217382   4.384   1.584   1.203 -1.8750 -0.2910 -0.4712
 1917SOL     OW17383   3.863   1.609   9.203  0.1437  0.3865 -0.1135
 1917SOL    HW117384   3.838   1.529   9.158 -0.7357 -0.4608  1.8830
 1917SOL    HW217385   3.952   1.590   9.230  0.4617  0.2076 -1.2994
 1918SOL     OW17386   1.198   4.213   7.661 -0.0714 -0.0914  0.3646
 1918SOL    HW117387   1.200   4.304   7.692  1.5763 -0.1934  0.5457
 1918SOL    HW217388   1.253   4.221   7.583  0.3659 -1.2778  0.5547
 1919SOL     OW17389   1.179   2.349  14.615 -0.1139 -0.6539  0.1217
 1919SOL    HW117390   1.092   2.326  14.582 -0.3936  2.6813 -1.4724
 1919SOL    HW217391   1.209   2.427  14.568 -0.9294 -0.9546 -0.9018
 1920SOL     OW17392   2.590   2.331   8.390 -0.4174 -0.0598  0.0884
 1920SOL    HW117393   2.657   2.366   8.331 -0.8888  0.0973 -0.3531
 1920SOL    HW217394   2.508   2.365   8.354  0.4272  0.8088 -1.0379
 1921SOL     OW17395   1.578   4.014   3.523  0.1432 -0.2677  0.2715
 1921SOL    HW117396   1.656   4.007   3.468  0.8358 -0.2213  1.2307
 1921SOL    HW217397   1.530   3.935   3.499  3.7083 -2.1615 -0.6967
 1922SOL     OW17398   3.596   1.657   1.327  0.3387 -0.0812 -0.0033
 1922SOL    HW117399   3.516   1.641   1.276  0.6633  0.0158 -0.5426
 1922SOL    HW217400   3.668   1.659   1.264  1.1896  3.0613  1.0894
 1923SOL     OW17401   0.825   4.309   5.288  0.3199 -0.4628  0.2064
 1923SOL    HW117402   0.824   4.270   5.200 -0.2977  2.8209 -1.2375
 1923SOL    HW217403   0.759   4.377   5.277 -1.1491 -2.0754 -0.9865
 1924SOL     OW17404   0.661   3.247   9.640  0.0437  0.4802  0.3175
 1924SOL    HW117405   0.683   3.340   9.630  1.5731  0.1270  0.4253
 1924SOL    HW217406   0.640   3.243   9.733 -2.1977 -1.2554 -0.2662
 1925SOL     OW17407   2.319   4.171   1.519  0.1576  0.5146  0.1099
 1925SOL    HW117408   2.396   4.155   1.575  0.3615  1.7240  0.1734
 1925SOL    HW217409   2.249   4.122   1.562 -0.5566  2.4639  1.1286
 1926SOL     OW17410   2.599   1.485   0.601  0.1069 -0.0450  0.3729
 1926SOL    HW117411   2.625   1.577   0.603  0.5821 -0.1821  0.3328
 1926SOL    HW217412   2.596   1.463   0.508 -1.4096  0.5140  0.2763
 1927SOL     OW17413   3.026   2.086  17.075 -0.0613 -0.0357  0.6159
 1927SOL    HW117414   2.991   2.114  17.160  1.9030 -1.3871  1.8863
 1927SOL    HW217415   3.060   1.997  17.089  3.3856  1.5069  1.9475
 1928SOL     OW17416   2.644   2.202   5.215  0.6692  0.2276 -0.0995
 1928SOL    HW117417   2.709   2.271   5.228  1.2725 -0.3396 -0.1296
 1928SOL    HW217418   2.568   2.245   5.175 -0.6865 -1.0086  1.1650
 1929SOL     OW17419   0.409   1.778  10.525 -0.3185  0.1670 -0.7080
 1929SOL    HW117420   0.463   1.708  10.489  0.1175 -0.3549  0.9799
 1929SOL    HW217421   0.476   1.847  10.523 -0.7212  0.5924  0.3006
 1930SOL     OW17422   1.625   0.611   5.305 -0.5648  0.4386  0.4976
 1930SOL    HW117423   1.683   0.686   5.318 -1.4533  1.1448  0.3913
 1930SOL    HW217424   1.600   0.585   5.393  2.6309  0.3013  1.3542
 1931SOL     OW17425   1.814   3.976   7.996  0.1879  0.2070 -0.0574
 1931SOL    HW117426   1.800   3.969   7.901 -1.5077  0.9486  0.1454
 1931SOL    HW217427   1.776   4.063   8.009 -1.2412 -0.4032 -0.1777
 1932SOL     OW17428   0.653   1.849   6.472  0.1446 -0.4020 -0.1000
 1932SOL    HW117429   0.656   1.917   6.540  0.5104 -1.2914  0.7855
 1932SOL    HW217430   0.619   1.774   6.521 -2.6011  1.6518  1.1529
 1933SOL     OW17431   3.644   1.322  16.603  0.0191 -0.9319  1.0128
 1933SOL    HW117432   3.550   1.317  16.585 -0.0940 -0.4756  1.4666
 1933SOL    HW217433   3.648   1.227  16.615 -0.4556 -0.7920  2.2904
 1934SOL     OW17434   3.840   4.651   3.725 -0.2713 -0.1387  0.2718
 1934SOL    HW117435   3.821   4.580   3.787 -0.3573 -1.4357 -1.2301
 1934SOL    HW217436   3.935   4.640   3.727 -0.3982 -1.0766  1.3238
 1935SOL     OW17437   3.035   3.613   7.250 -0.3638  0.1955  0.3418
 1935SOL    HW117438   2.995   3.700   7.250 -0.9942 -0.0982  2.1885
 1935SOL    HW217439   3.125   3.622   7.282 -0.7775  1.9167  1.0090
 1936SOL     OW17440   2.626   1.926  14.596  0.1957 -0.0754  0.2082
 1936SOL    HW117441   2.594   1.929  14.686 -1.5019 -0.7814 -0.3806
 1936SOL    HW217442   2.679   2.006  14.589  1.3876 -0.8451  0.3802
 1937SOL     OW17443   0.557   4.000  11.499  0.5737 -0.2174 -0.0143
 1937SOL    HW117444   0.638   4.036  11.461  0.0404  0.7051 -0.2807
 1937SOL    HW217445   0.488   4.035  11.443  1.9538 -0.9516 -2.1886
 1938SOL     OW17446   2.592   1.869   1.252  0.5048  0.3345 -0.1302
 1938SOL    HW117447   2.505   1.849   1.287 -0.0352  0.5919 -1.3196
 1938SOL    HW217448   2.611   1.953   1.294  0.2196  0.1882  0.2910
 1939SOL     OW17449   0.267   1.496   4.993  0.1423 -0.2894 -0.0698
 1939SOL    HW117450   0.198   1.548   4.952 -0.7732  0.1010  1.9503
 1939SOL    HW217451   0.219   1.475   5.073  1.4862  0.7449  0.9824
 1940SOL     OW17452   4.065   1.748   1.188  0.0488 -0.3241  0.1240
 1940SOL    HW117453   3.974   1.768   1.164 -0.0490  0.4261  1.1409
 1940SOL    HW217454   4.110   1.754   1.104 -0.9309 -1.3939 -0.4777
 1941SOL     OW17455   3.874   1.236  13.366  0.5007 -0.5344 -0.3823
 1941SOL    HW117456   3.884   1.329  13.351  0.0009 -0.5941 -1.0474
 1941SOL    HW217457   3.898   1.208  13.278  1.3789  1.2808 -0.7096
 1942SOL     OW17458   2.721   1.311  16.877 -0.7556 -0.3620 -0.2570
 1942SOL    HW117459   2.729   1.351  16.963 -1.4430 -4.6907  1.8193
 1942SOL    HW217460   2.757   1.385  16.830 -1.6832  0.1010 -0.2478
 1943SOL     OW17461   0.407   1.328   9.130  0.5748 -0.2959  0.3857
 1943SOL    HW117462   0.492   1.371   9.140 -0.3789  1.5245  0.6229
 1943SOL    HW217463   0.344   1.397   9.114 -1.2241 -1.7464  1.2009
 1944SOL     OW17464   3.477   4.380  11.099  0.3948 -0.3074  0.1174
 1944SOL    HW117465   3.524   4.382  11.183  0.2912 -2.5634  0.2206
 1944SOL    HW217466   3.496   4.293  11.065 -1.7665 -1.3798  1.6868
 1945SOL     OW17467   3.631   2.310   4.055 -0.6448 -0.4266  0.3257
 1945SOL    HW117468   3.688   2.326   4.131  0.6378 -2.0294 -0.3024
 1945SOL    HW217469   3.702   2.290   3.994 -0.9805  0.2011 -0.2617
 1946SOL     OW17470   2.388   0.416   1.547  0.6095 -0.5626  0.4733
 1946SOL    HW117471   2.467   0.378   1.585  0.2906 -0.7231  0.9869
 1946SOL    HW217472   2.356   0.459   1.627  0.3975  1.0011 -0.4435
 1947SOL     OW17473   3.275   2.248   3.380 -0.0865 -0.1037  0.2028
 1947SOL    HW117474   3.338   2.176   3.372 -0.1076 -0.0766 -0.2346
 1947SOL    HW217475   3.326   2.321   3.344 -2.0914  1.0765 -0.2156
 1948SOL     OW17476   3.199   2.985   3.617 -0.2893  0.0241  0.0538
 1948SOL    HW117477   3.262   2.959   3.550 -0.7401 -0.2873 -0.2473
 1948SOL    HW217478   3.210   3.080   3.607 -1.7801  0.3822  1.8054
 1949SOL     OW17479   3.214   1.771  12.352  0.2487  0.2320 -0.0363
 1949SOL    HW117480   3.262   1.848  12.383 -1.6816  0.2571  2.9339
 1949SOL    HW217481   3.268   1.740  12.280  0.4666 -0.0333  0.2394
 1950SOL     OW17482   0.483   3.238   9.243 -0.9982  0.1806 -0.0739
 1950SOL    HW117483   0.559   3.270   9.195 -0.8279 -1.2395 -0.7409
 1950SOL    HW217484   0.437   3.190   9.175  1.9788 -2.7395 -0.0559
 1951SOL     OW17485   3.019   4.257   1.869  0.3586  0.2019 -0.3421
 1951SOL    HW117486   3.027   4.305   1.786  1.6390  0.0854 -0.2793
 1951SOL    HW217487   3.007   4.335   1.924 -0.4265  0.1477 -0.4290
 1952SOL     OW17488   3.886   2.820   4.259  0.1040  0.5186 -0.1107
 1952SOL    HW117489   3.897   2.731   4.294 -1.1203 -0.1266 -1.3732
 1952SOL    HW217490   3.808   2.810   4.205 -0.8382  0.8344  1.1761
 1953SOL     OW17491   4.587   0.256   5.590  0.1134  0.1460 -0.1981
 1953SOL    HW117492   4.502   0.235   5.628  0.8750  0.3198  1.6014
 1953SOL    HW217493   4.632   0.172   5.582  0.0665  0.1558 -0.5693
 1954SOL     OW17494   0.607   3.961   5.954 -0.1611  0.2822  0.4156
 1954SOL    HW117495   0.687   3.979   6.002  0.6976  2.0078 -1.6650
 1954SOL    HW217496   0.564   4.047   5.949 -2.5437 -1.0641 -2.2544
 1955SOL     OW17497   0.818   2.240   9.711 -0.7646  0.0824  0.0006
 1955SOL    HW117498   0.875   2.247   9.787 -0.7144  0.3586 -0.0627
 1955SOL    HW217499   0.770   2.161   9.735  0.9489 -0.6275  1.0681
 1956SOL     OW17500   2.724   2.244   3.159  0.5761 -0.3162  0.1209
 1956SOL    HW117501   2.663   2.203   3.220 -0.1186 -0.8617 -0.9279
 1956SOL    HW217502   2.770   2.293   3.227 -0.7137  1.0134  0.0500
 1957SOL     OW17503   3.719   4.168  13.428 -0.0498 -0.4100 -0.6264
 1957SOL    HW117504   3.656   4.117  13.378 -1.3348  1.5909 -1.0751
 1957SOL    HW217505   3.686   4.255  13.403  1.4580 -0.3266 -2.3158
 1958SOL     OW17506   3.560   3.943   4.517 -0.0482  0.4381 -0.2557
 1958SOL    HW117507   3.491   3.883   4.543  1.2588 -0.3182  1.4863
 1958SOL    HW217508   3.629   3.905   4.571 -0.7609  1.3451  1.3011
 1959SOL     OW17509   2.401   4.178  16.743  0.3927  0.1759 -0.9053
 1959SOL    HW117510   2.329   4.172  16.680 -1.0408 -1.1856  0.8312
 1959SOL    HW217511   2.402   4.273  16.747  0.7655  0.0084  3.0260
 1960SOL     OW17512   0.102   1.841  15.369  0.5855  0.3449 -0.2223
 1960SOL    HW117513   0.076   1.888  15.448  1.5790 -1.2340  1.0369
 1960SOL    HW217514   0.197   1.841  15.380  0.7406  0.6591 -1.6354
 1961SOL     OW17515   2.658   2.565  17.228  0.1836  0.3950 -0.1015
 1961SOL    HW117516   2.639   2.526  17.142  0.2369 -0.3067  0.2057
 1961SOL    HW217517   2.719   2.635  17.204 -0.9403  1.6444  0.6859
 1962SOL     OW17518   3.196   2.902  14.106  0.2187  0.2615 -0.6475
 1962SOL    HW117519   3.127   2.857  14.058  0.2993  0.8509 -1.3191
 1962SOL    HW217520   3.253   2.941  14.039 -0.7591  0.8771 -1.1160
 1963SOL     OW17521   3.293   2.438   7.452 -0.3403 -0.1817  0.1256
 1963SOL    HW117522   3.269   2.522   7.492  1.1446  1.1347 -1.7723
 1963SOL    HW217523   3.213   2.409   7.409 -0.9155  2.3360 -0.5331
 1964SOL     OW17524   2.278   3.911   6.510  0.3000 -0.5846 -0.8398
 1964SOL    HW117525   2.348   3.852   6.540  0.4210 -0.8520 -1.6558
 1964SOL    HW217526   2.313   3.959   6.435  0.2000  0.3216 -0.3002
 1965SOL     OW17527   2.035   4.253  16.327  0.2071  0.6843  0.6433
 1965SOL    HW117528   2.016   4.242  16.234 -1.8940  0.7611  1.0718
 1965SOL    HW217529   1.959   4.301  16.360  0.0243 -0.4285  1.8661
 1966SOL     OW17530   4.199   1.391  16.299 -0.1887 -0.7180 -0.0144
 1966SOL    HW117531   4.109   1.418  16.283 -0.5702 -0.1051  3.0351
 1966SOL    HW217532   4.196   1.411  16.393 -1.9336 -1.2990  0.0495
 1967SOL     OW17533   2.574   3.162  13.276  0.1944 -0.5107  0.9137
 1967SOL    HW117534   2.646   3.226  13.282 -0.3062  0.0725  0.6901
 1967SOL    HW217535   2.512   3.198  13.213  2.0635  2.2169  0.6278
 1968SOL     OW17536   2.478   3.722   6.543  0.1294 -0.3466  0.0240
 1968SOL    HW117537   2.565   3.746   6.573  0.9042 -2.7876 -0.2055
 1968SOL    HW217538   2.510   3.699   6.455  1.3394  2.5199 -0.2575
 1969SOL     OW17539   1.182   0.632   5.364 -0.4079  0.5589  0.0825
 1969SOL    HW117540   1.104   0.631   5.308 -0.6632 -0.5609  0.4634
 1969SOL    HW217541   1.219   0.688   5.296 -1.8256  1.7815  0.3327
 1970SOL     OW17542   2.433   4.602  12.649  0.3347  0.3254  0.6984
 1970SOL    HW117543   2.361   4.555  12.691 -1.9660  1.8233 -1.6053
 1970SOL    HW217544   2.477   4.646  12.722  1.6632  0.5059 -0.2043
 1971SOL     OW17545   3.644   3.094   6.990  0.0398  0.5704  0.3709
 1971SOL    HW117546   3.558   3.053   6.993 -0.6233  2.0071  0.8599
 1971SOL    HW217547   3.633   3.184   6.960  0.2082  1.4164  2.8905
 1972SOL     OW17548   1.038   3.821  12.464  0.4945 -0.0996 -0.0233
 1972SOL    HW117549   1.049   3.776  12.380  0.0445 -1.4198  0.6239
 1972SOL    HW217550   1.037   3.749  12.527  3.3572 -0.2832 -0.1971
 1973SOL     OW17551   2.287   2.926   2.460  0.0331  0.4784  0.1316
 1973SOL    HW117552   2.363   2.942   2.516  0.5374 -2.6835  0.3188
 1973SOL    HW217553   2.261   2.835   2.476  0.6184  0.0858 -1.1740
 1974SOL     OW17554   2.145   4.629   4.341 -0.1729 -0.1882 -0.4317
 1974SOL    HW117555   2.211   4.635   4.272  0.9323 -1.9693  0.4800
 1974SOL    HW217556   2.186   4.589   4.417 -0.6225 -0.6868 -0.4540
 1975SOL     OW17557   3.625   2.594  11.175  0.2475 -0.3709 -0.2683
 1975SOL    HW117558   3.624   2.617  11.082 -2.8695 -1.4118 -0.4852
 1975SOL    HW217559   3.711   2.616  11.211  0.7157 -1.2049 -0.8756
 1976SOL     OW17560   1.534   3.315   4.652  0.7751  0.4689 -0.2104
 1976SOL    HW117561   1.535   3.309   4.557  0.4490  2.3248 -0.3188
 1976SOL    HW217562   1.596   3.383   4.679  0.4836 -0.1223  1.9609
 1977SOL     OW17563   3.483   0.307  10.978 -0.2197  0.2838 -0.3464
 1977SOL    HW117564   3.389   0.291  10.981  0.3876 -2.5834  2.9624
 1977SOL    HW217565   3.520   0.260  11.053 -0.8777  0.8512  0.3352
 1978SOL     OW17566   0.028   1.336   5.671 -0.2808 -0.1281  0.4990
 1978SOL    HW117567   4.710   1.262   5.648  1.1058 -0.8215 -0.5663
 1978SOL    HW217568   4.703   1.385   5.724  0.1248 -0.3060  1.1486
 1979SOL     OW17569   2.899   3.137   0.922  0.7402  0.7653  0.2996
 1979SOL    HW117570   2.943   3.119   0.839  0.4030 -0.1001  0.3069
 1979SOL    HW217571   2.822   3.178   0.884  0.3303  0.7659  1.1295
 1980SOL     OW17572   1.072   2.064  12.351 -0.4240  0.0553 -0.2133
 1980SOL    HW117573   1.150   2.094  12.398 -0.5126 -1.3971  0.8449
 1980SOL    HW217574   1.000   2.084  12.411 -0.0676  0.4990  0.0718
 1981SOL     OW17575   3.938   3.807  10.436  0.3151 -0.0446 -0.0432
 1981SOL    HW117576   3.883   3.730  10.453  2.4917 -1.2013  1.8986
 1981SOL    HW217577   4.024   3.772  10.461  0.4154 -0.4922 -1.0070
 1982SOL     OW17578   1.441   4.617   0.812  0.1891 -0.2812  0.1550
 1982SOL    HW117579   1.366   4.602   0.754 -0.0087 -0.1164  0.3676
 1982SOL    HW217580   1.438   4.712   0.800 -0.3050 -0.3488 -0.2523
 1983SOL     OW17581   2.684   4.520   8.449 -0.3434 -0.1934  0.5464
 1983SOL    HW117582   2.760   4.560   8.406 -1.4395  0.2656 -0.9516
 1983SOL    HW217583   2.636   4.592   8.489  2.3665  2.6774 -1.3411
 1984SOL     OW17584   0.122   1.430   7.232 -0.0246  0.0363  0.2788
 1984SOL    HW117585   0.176   1.415   7.155  0.9823 -1.6887  1.3141
 1984SOL    HW217586   0.187   1.480   7.282 -2.0068 -0.0245  2.9503
 1985SOL     OW17587   2.034   3.747   4.597 -0.8473  0.2708 -0.7830
 1985SOL    HW117588   2.129   3.748   4.607 -1.0549  0.9732  1.1853
 1985SOL    HW217589   2.028   3.657   4.565  1.3055 -0.9183  2.1132
 1986SOL     OW17590   0.293   3.509   5.477 -0.1761 -0.3735 -0.2661
 1986SOL    HW117591   0.240   3.430   5.482 -3.2602  1.6775 -0.0723
 1986SOL    HW217592   0.285   3.525   5.383  1.8068 -0.0170 -0.3737
 1987SOL     OW17593   2.889   1.000   1.620  0.1663 -0.5842 -0.2613
 1987SOL    HW117594   2.831   0.940   1.574  0.8341 -1.6748  0.3189
 1987SOL    HW217595   2.867   0.972   1.709  1.4709 -1.0780 -0.0907
 1988SOL     OW17596   1.939   2.309  15.453 -0.2776 -0.2600 -0.3816
 1988SOL    HW117597   1.977   2.251  15.519 -0.4746  0.9488  0.7939
 1988SOL    HW217598   1.967   2.396  15.480 -1.6956 -0.3412  1.3069
 1989SOL     OW17599   3.883   3.081   2.750  0.0068  0.4488 -0.7685
 1989SOL    HW117600   3.788   3.086   2.747  0.0247  2.4153  1.3261
 1989SOL    HW217601   3.909   2.994   2.780  0.6980  0.5578 -1.0465
 1990SOL     OW17602   4.702   1.475  16.009 -0.1716 -0.3645  1.0781
 1990SOL    HW117603   4.621   1.524  15.990  0.4026  0.7367  1.4673
 1990SOL    HW217604   0.029   1.510  15.947  0.1324 -1.5888  0.7006
 1991SOL     OW17605   3.887   2.231  11.811 -0.2974  0.0928 -0.1408
 1991SOL    HW117606   3.814   2.171  11.794 -0.8971 -0.1339  3.1096
 1991SOL    HW217607   3.936   2.244  11.730  0.1229 -0.5523  0.0099
 1992SOL     OW17608   2.604   3.384  17.047  0.3690  0.4518  0.2807
 1992SOL    HW117609   2.509   3.386  17.033  0.6350 -2.0321 -1.9743
 1992SOL    HW217610   2.611   3.341  17.131 -1.7540  0.1621  0.3021
 1993SOL     OW17611   2.163   4.394   1.783 -0.3806  0.3299 -0.2223
 1993SOL    HW117612   2.259   4.396   1.777 -0.3197 -5.3236 -1.2961
 1993SOL    HW217613   2.148   4.317   1.836  0.3743  0.0937 -0.3506
 1994SOL     OW17614   4.655   3.589   1.624  0.1671 -0.8874 -0.4761
 1994SOL    HW117615   4.584   3.561   1.568  0.3205 -0.1276 -1.0527
 1994SOL    HW217616   4.666   3.510   1.677  1.4358  0.2457  0.9606
 1995SOL     OW17617   4.461   4.528   4.909  0.2572 -0.2490 -0.4233
 1995SOL    HW117618   4.552   4.518   4.937  0.4267 -1.6630 -1.4751
 1995SOL    HW217619   4.442   4.438   4.885  3.4542 -1.5784  2.0990
 1996SOL     OW17620   0.854   2.429  10.246  0.5059  0.3782  0.8181
 1996SOL    HW117621   0.807   2.352  10.215  1.9481  0.4574 -1.5094
 1996SOL    HW217622   0.868   2.400  10.336 -0.0012 -1.7370  0.2060
 1997SOL     OW17623   0.051   0.407   7.257  0.1702  0.1681  0.3550
 1997SOL    HW117624   0.145   0.422   7.259  0.4970 -2.1148  1.7418
 1997SOL    HW217625   0.041   0.315   7.280  1.2617 -0.6555 -2.5045
 1998SOL     OW17626   0.964   0.577   5.216 -0.2279 -0.5891  0.0793
 1998SOL    HW117627   0.958   0.485   5.244 -0.4663 -1.8985 -4.2709
 1998SOL    HW217628   0.918   0.576   5.133 -2.9386 -0.5160  1.5804
 1999SOL     OW17629   0.789   1.878  11.775 -0.4449  0.6300 -0.4886
 1999SOL    HW117630   0.857   1.942  11.796 -1.1538  1.0193  0.6771
 1999SOL    HW217631   0.848   1.803  11.773  0.9635  1.7114  0.9339
 2000SOL     OW17632   2.378   2.678   8.152 -0.3654  0.4693 -0.4368
 2000SOL    HW117633   2.345   2.662   8.240  0.3841  1.2421 -0.0200
 2000SOL    HW217634   2.319   2.751   8.131  1.8031  1.6536 -2.4238
 2001SOL     OW17635   3.165   2.856   5.425  0.0915  0.0615 -1.0247
 2001SOL    HW117636   3.145   2.949   5.440  0.0333 -0.4648  2.3155
 2001SOL    HW217637   3.255   2.869   5.395 -0.3881 -0.3386 -2.6176
 2002SOL     OW17638   4.330   3.540   1.696  0.7252 -0.3597 -0.5715
 2002SOL    HW117639   4.393   3.544   1.767  3.1649 -0.9846 -2.7117
 2002SOL    HW217640   4.251   3.560   1.747  1.6089 -0.8380  0.9639
 2003SOL     OW17641   3.383   2.492   8.810  0.3230  0.1911 -0.2901
 2003SOL    HW117642   3.317   2.531   8.866 -0.8457 -0.4951 -1.1760
 2003SOL    HW217643   3.351   2.402   8.817  1.3641 -0.0050  1.8881
 2004SOL     OW17644   2.724   2.689  13.744 -0.3395  0.0360  0.4572
 2004SOL    HW117645   2.798   2.750  13.733 -0.9143  0.0887 -3.1207
 2004SOL    HW217646   2.744   2.658  13.832  1.5809  1.7035  0.6283
 2005SOL     OW17647   0.533   2.277  15.683  0.0794  0.1106  0.2260
 2005SOL    HW117648   0.626   2.289  15.703  0.0818  2.3152 -1.0499
 2005SOL    HW217649   0.514   2.271  15.777  0.9501 -2.9264  0.1854
 2006SOL     OW17650   4.672   0.502   7.036 -0.2339  0.2149 -0.0981
 2006SOL    HW117651   4.730   0.466   7.103  0.2853 -0.1492 -0.7399
 2006SOL    HW217652   4.658   0.586   7.081 -0.2014  0.4672 -0.5581
 2007SOL     OW17653   0.312   3.709   6.295  0.2661 -0.7202  0.3164
 2007SOL    HW117654   0.360   3.789   6.274 -2.1811  1.0706  1.5824
 2007SOL    HW217655   0.329   3.697   6.389 -0.0977 -0.7135  0.3835
 2008SOL     OW17656   4.470   3.470  17.017  0.1039  0.0194 -0.3161
 2008SOL    HW117657   4.441   3.484  17.107 -0.7087 -0.0594 -0.5686
 2008SOL    HW217658   4.413   3.395  16.999 -0.1834  0.1391  0.0923
 2009SOL     OW17659   0.188   2.450   2.765 -0.4645 -0.1236 -0.1177
 2009SOL    HW117660   0.135   2.528   2.785  0.7807 -0.1712  3.3383
 2009SOL    HW217661   0.154   2.394   2.835  1.5682 -1.1351  0.0631
 2010SOL     OW17662   1.977   4.466   2.049 -0.3753  0.2748  0.7927
 2010SOL    HW117663   2.017   4.419   2.122 -0.2474  0.4259  0.8201
 2010SOL    HW217664   2.040   4.434   1.984 -1.4008  0.3186 -0.2157
 2011SOL     OW17665   3.048   1.514   7.379 -0.1534 -0.3341  0.2819
 2011SOL    HW117666   2.990   1.580   7.341  0.4122 -0.1370 -0.2262
 2011SOL    HW217667   3.052   1.551   7.467 -0.4368 -0.6925  0.4450
 2012SOL     OW17668   2.556   4.709   8.557 -0.1919 -1.0954  0.1209
 2012SOL    HW117669   2.468   4.689   8.589 -0.8096  2.1195  0.4690
 2012SOL    HW217670   2.597   0.011   8.635  0.7075 -0.4678 -0.6671
 2013SOL     OW17671   1.274   0.707   4.887  0.0143 -0.2892  0.4376
 2013SOL    HW117672   1.200   0.658   4.924 -0.9184  0.0897 -0.9155
 2013SOL    HW217673   1.339   0.682   4.953  0.8060 -2.1554 -1.0511
 2014SOL     OW17674   3.772   1.676   2.672  0.0068 -0.0814 -0.2336
 2014SOL    HW117675   3.817   1.651   2.592  0.9509  1.2158 -0.1176
 2014SOL    HW217676   3.700   1.613   2.672 -2.0342  2.2546  0.8293
 2015SOL     OW17677   3.558   4.027  13.630 -0.5645  0.6434  0.1726
 2015SOL    HW117678   3.609   4.097  13.592 -1.3319 -0.1376 -2.2843
 2015SOL    HW217679   3.466   4.049  13.616 -0.6492 -0.5171 -1.1426
 2016SOL     OW17680   4.482   3.380  16.012 -0.5418 -0.2462 -0.1310
 2016SOL    HW117681   4.478   3.289  15.984 -0.0536 -1.3004  3.3289
 2016SOL    HW217682   4.532   3.386  16.093  0.3862  1.5996 -0.8112
 2017SOL     OW17683   3.092   1.760  14.747  0.3250 -0.2414  0.0906
 2017SOL    HW117684   3.172   1.809  14.729  0.3177 -0.0961  0.4486
 2017SOL    HW217685   3.121   1.706  14.821  1.0660 -1.5112 -1.1205
 2018SOL     OW17686   1.639   2.726   1.728 -0.1710 -0.4157  0.2686
 2018SOL    HW117687   1.663   2.676   1.650  1.6340  0.2070  0.4131
 2018SOL    HW217688   1.681   2.812   1.720  0.6903 -0.8701 -0.1992
 2019SOL     OW17689   1.704   2.379   6.997 -0.6844 -0.4971  0.0689
 2019SOL    HW117690   1.740   2.335   7.073  0.7236 -0.4179 -0.5491
 2019SOL    HW217691   1.613   2.352   7.009 -0.8218 -0.2821 -0.4762
 2020SOL     OW17692   2.447   1.697   5.430  0.6315  0.1385  0.0450
 2020SOL    HW117693   2.490   1.765   5.481 -1.9336  1.1204  0.9287
 2020SOL    HW217694   2.514   1.679   5.365  1.0573 -1.0480  0.8013
 2021SOL     OW17695   1.597   4.137   4.517 -0.4879 -0.9936  0.2390
 2021SOL    HW117696   1.687   4.166   4.502  0.0420 -2.1966  1.1073
 2021SOL    HW217697   1.598   4.078   4.443  0.8474 -1.8873  0.9780
 2022SOL     OW17698   4.049   0.361   5.380 -0.0112  0.6952  0.2569
 2022SOL    HW117699   4.058   0.298   5.309 -1.3955  1.2723 -0.4370
 2022SOL    HW217700   4.060   0.310   5.460  1.2674 -0.8861 -0.9239
 2023SOL     OW17701   2.612   3.726   8.218 -0.0382 -0.4395 -0.1179
 2023SOL    HW117702   2.610   3.660   8.149  0.5844  0.0999 -0.6525
 2023SOL    HW217703   2.599   3.667   8.292  0.3112  1.6131  1.5932
 2024SOL     OW17704   1.368   0.797   5.543 -0.7472  0.0747  0.4577
 2024SOL    HW117705   1.291   0.762   5.587  0.0825 -0.4643  1.4566
 2024SOL    HW217706   1.330   0.852   5.475 -1.0844 -0.5331  0.1571
 2025SOL     OW17707   1.455   3.631  12.014  0.1542  0.0679  0.2021
 2025SOL    HW117708   1.460   3.703  11.951 -3.9547  0.3137  0.1247
 2025SOL    HW217709   1.366   3.652  12.043 -0.2794 -0.2491 -0.9066
 2026SOL     OW17710   3.986   1.676  10.346  0.6708  0.2641  0.2444
 2026SOL    HW117711   4.049   1.613  10.311  0.9284  0.5373  0.2243
 2026SOL    HW217712   3.908   1.621  10.357  0.7275 -0.1571 -1.3998
 2027SOL     OW17713   4.440   4.643   3.438  0.1406 -0.0215 -0.0600
 2027SOL    HW117714   4.504   4.573   3.428  0.3507  0.4676 -2.1368
 2027SOL    HW217715   4.363   4.590   3.460  0.6204 -0.3479  0.8020
 2028SOL     OW17716   3.712   3.607  10.512 -0.3306  0.4786 -0.1466
 2028SOL    HW117717   3.730   3.514  10.524  0.4739  0.6588 -0.0021
 2028SOL    HW217718   3.620   3.597  10.539 -0.2791 -0.6193 -0.3642
 2029SOL     OW17719   2.455   3.215  15.184  0.4987  0.6466 -0.2347
 2029SOL    HW117720   2.432   3.308  15.179 -0.5018  0.3891 -0.5191
 2029SOL    HW217721   2.441   3.185  15.274 -1.3447  0.1866 -0.6721
 2030SOL     OW17722   1.917   3.909   6.934 -0.2455 -0.3435  0.5492
 2030SOL    HW117723   2.009   3.888   6.920 -0.1228  0.4327  0.1755
 2030SOL    HW217724   1.928   3.986   6.990  0.3588 -2.2412  2.9995
 2031SOL     OW17725   2.487   3.499   5.331  0.3322  0.2445  0.5959
 2031SOL    HW117726   2.559   3.534   5.383 -0.3948 -0.1364  1.8485
 2031SOL    HW217727   2.463   3.423   5.383 -1.3779  1.6458  1.8336
 2032SOL     OW17728   2.034   2.454  16.761  0.0522  0.4054 -0.0729
 2032SOL    HW117729   2.023   2.415  16.674  0.2582 -0.4867  0.3046
 2032SOL    HW217730   2.055   2.544  16.739  0.2198 -0.1248 -2.1204
 2033SOL     OW17731   3.770   2.563  16.593 -0.0579  0.6848 -0.0204
 2033SOL    HW117732   3.720   2.500  16.541  2.5085 -1.4791  0.1008
 2033SOL    HW217733   3.691   2.590  16.639 -0.9224  0.8803 -1.6017
 2034SOL     OW17734   2.537   0.946   7.059  0.1904 -0.1423 -0.0155
 2034SOL    HW117735   2.605   1.012   7.074  0.9099 -1.0033  0.5090
 2034SOL    HW217736   2.471   0.971   7.123  0.3917 -1.7531  0.8118
 2035SOL     OW17737   0.765   4.494   6.795 -0.6653 -0.3755  0.0774
 2035SOL    HW117738   0.747   4.522   6.885 -0.3739 -0.0568  0.0373
 2035SOL    HW217739   0.826   4.560   6.762  0.0540 -1.8752 -1.5620
 2036SOL     OW17740   1.277   3.451   5.729  0.0442  0.4669 -0.1194
 2036SOL    HW117741   1.335   3.437   5.655  0.2867 -0.2423  0.2030
 2036SOL    HW217742   1.296   3.366   5.768  1.2593  0.4028 -0.8764
 2037SOL     OW17743   3.786   4.243   6.016 -0.0004 -0.2169  0.2417
 2037SOL    HW117744   3.715   4.242   5.952  1.0237  0.6397 -0.9142
 2037SOL    HW217745   3.788   4.149   6.032 -2.1162 -0.3474 -0.3060
 2038SOL     OW17746   3.319   0.665   8.614  0.2677 -0.0713  0.7534
 2038SOL    HW117747   3.307   0.735   8.551  0.0042 -1.5429 -0.8355
 2038SOL    HW217748   3.372   0.596   8.574  3.3750  2.3152  0.7636
 2039SOL     OW17749   4.588   3.791   4.790  0.6420  0.5802  1.0387
 2039SOL    HW117750   4.511   3.786   4.847 -0.2233  1.1907 -0.0797
 2039SOL    HW217751   4.660   3.777   4.851  0.0026  0.9998  1.8950
 2040SOL     OW17752   2.914   4.724   5.689  0.5075  0.0663  0.3375
 2040SOL    HW117753   2.946   4.711   5.600 -0.2266 -1.9427  0.3529
 2040SOL    HW217754   2.821   4.733   5.667  0.4778  1.2568  0.9788
 2041SOL     OW17755   0.976   3.272   4.658 -0.0649 -0.2856 -0.5262
 2041SOL    HW117756   0.904   3.288   4.718 -0.6740 -3.3852 -0.4389
 2041SOL    HW217757   1.037   3.230   4.719  0.2167 -0.9954 -1.2829
 2042SOL     OW17758   1.324   1.133  10.102  0.6489 -0.0234  0.2081
 2042SOL    HW117759   1.367   1.218  10.107  2.4628 -0.8289 -1.9075
 2042SOL    HW217760   1.330   1.091  10.017  2.0611  0.6543 -0.0175
 2043SOL     OW17761   3.440   2.037   7.690 -0.4367 -0.0406 -0.1706
 2043SOL    HW117762   3.447   2.129   7.663  0.0545  0.0895  0.4031
 2043SOL    HW217763   3.411   2.052   7.780 -0.3197  0.3820 -0.2025
 2044SOL     OW17764   4.542   2.522   6.715 -0.2850  0.2577  0.3691
 2044SOL    HW117765   4.588   2.606   6.719 -0.5710  0.4435 -0.2644
 2044SOL    HW217766   4.536   2.517   6.619  1.5742  1.6161  0.1776
 2045SOL     OW17767   3.467   1.347   7.054  0.6042 -0.2438  0.5898
 2045SOL    HW117768   3.534   1.366   7.120  0.7612 -3.0255  1.2415
 2045SOL    HW217769   3.387   1.364   7.104 -0.6389 -0.2095 -1.4206
 2046SOL     OW17770   1.345   3.621   8.475  0.5922 -0.6362 -0.1800
 2046SOL    HW117771   1.388   3.592   8.394  0.5751 -1.1097 -0.0242
 2046SOL    HW217772   1.329   3.537   8.518  0.7528 -1.3958 -1.5749
 2047SOL     OW17773   1.192   3.814   1.526  0.5858 -0.4769  0.3579
 2047SOL    HW117774   1.226   3.830   1.438 -0.5958 -1.6855 -0.3143
 2047SOL    HW217775   1.152   3.729   1.504 -0.4996  0.2692 -0.5106
 2048SOL     OW17776   0.140   1.014   3.604  0.0291  0.3356 -0.1631
 2048SOL    HW117777   0.044   1.014   3.612 -0.0768 -2.1633 -1.3408
 2048SOL    HW217778   0.165   0.934   3.651 -1.5314  1.0165  1.8542
 2049SOL     OW17779   2.068   2.448  17.621  0.1850 -0.1958  0.0271
 2049SOL    HW117780   2.027   2.523  17.664 -0.2128 -1.5947  2.1459
 2049SOL    HW217781   2.015   2.381  17.665 -2.3999  1.0833 -1.1707
 2050SOL     OW17782   2.723   3.862   1.063  0.1462 -0.1116  0.4577
 2050SOL    HW117783   2.733   3.798   1.134 -0.5857 -1.1586 -0.3971
 2050SOL    HW217784   2.741   3.818   0.980 -3.1278  1.1812 -0.9171
 2051SOL     OW17785   1.135   1.208  16.910  0.3047  0.5453  0.4757
 2051SOL    HW117786   1.066   1.186  16.973  0.4875 -2.2206 -0.3120
 2051SOL    HW217787   1.142   1.124  16.865 -0.5023  0.5027  0.4282
 2052SOL     OW17788   3.200   3.494  17.055  0.6157  0.0031  0.1366
 2052SOL    HW117789   3.194   3.456  16.968  0.0899 -0.7415  0.4989
 2052SOL    HW217790   3.135   3.562  17.038  0.1555 -0.3411  0.5085
 2053SOL     OW17791   1.426   0.771   7.418  0.2758 -0.0101  0.0162
 2053SOL    HW117792   1.380   0.842   7.373  2.2705  2.1532  1.3426
 2053SOL    HW217793   1.483   0.823   7.476 -0.1038 -1.1758  1.4109
 2054SOL     OW17794   4.077   0.421   7.519 -0.3866 -0.6508  0.3461
 2054SOL    HW117795   4.136   0.346   7.520  0.5886  0.1271  1.8923
 2054SOL    HW217796   4.139   0.488   7.491 -1.9898  1.6583  2.2695
 2055SOL     OW17797   3.567   0.227   2.639  0.1075  0.6006 -0.1741
 2055SOL    HW117798   3.561   0.163   2.568 -0.4176  0.4407  0.0180
 2055SOL    HW217799   3.577   0.307   2.587  3.1506  0.7009  0.5417
 2056SOL     OW17800   3.313   1.839  11.448  0.0081  0.0988  0.0716
 2056SOL    HW117801   3.383   1.836  11.382  0.2187 -1.0289  0.3456
 2056SOL    HW217802   3.353   1.887  11.520  0.5695 -1.9400  1.1102
 2057SOL     OW17803   0.352   2.002   6.637  0.1287 -0.8773  0.1743
 2057SOL    HW117804   0.418   2.026   6.572 -0.8879 -1.4836 -1.0869
 2057SOL    HW217805   0.341   2.092   6.667 -2.4241 -0.3000 -2.5827
 2058SOL     OW17806   1.397   1.938   1.944  0.1578 -0.7789 -0.0579
 2058SOL    HW117807   1.450   1.989   1.882  0.8243  0.6838  1.7271
 2058SOL    HW217808   1.324   1.997   1.963  0.0670 -0.8398 -0.2126
 2059SOL     OW17809   1.480   4.455   4.629  0.3509  0.4285  0.0891
 2059SOL    HW117810   1.501   4.475   4.721  1.6776 -1.5810  0.2203
 2059SOL    HW217811   1.419   4.381   4.640  0.6294  0.3500  1.1462
 2060SOL     OW17812   0.849   2.962   6.480  0.3194 -0.0718  0.1869
 2060SOL    HW117813   0.843   3.051   6.514 -2.9053  0.2829 -1.4229
 2060SOL    HW217814   0.923   2.925   6.530  0.4498  0.6915  0.5635
 2061SOL     OW17815   3.124   0.472   6.966 -0.1078 -0.0627 -0.1019
 2061SOL    HW117816   3.032   0.497   6.975 -0.0423  0.7749 -1.7671
 2061SOL    HW217817   3.175   0.549   6.990  0.4988 -0.3942 -0.3067
 2062SOL     OW17818   2.464   0.973  15.937  0.6989 -0.0594 -0.1917
 2062SOL    HW117819   2.541   0.924  15.910  0.7043  0.3011 -0.8335
 2062SOL    HW217820   2.468   0.956  16.031 -1.9915 -0.5803 -0.1484
 2063SOL     OW17821   1.749   2.841  13.793  0.3380 -0.5596 -0.2768
 2063SOL    HW117822   1.715   2.918  13.746  1.2122 -0.3655 -0.6075
 2063SOL    HW217823   1.821   2.879  13.844 -0.4326  0.3153  0.1688
 2064SOL     OW17824   4.115   1.703  14.093  0.1820 -0.0432  0.3064
 2064SOL    HW117825   4.064   1.756  14.033  2.9835  1.3698 -0.8381
 2064SOL    HW217826   4.049   1.680  14.158 -1.2812  0.2083 -1.0948
 2065SOL     OW17827   0.752   2.861   9.733 -0.3082  0.2058 -0.1898
 2065SOL    HW117828   0.715   2.795   9.675  1.2089 -1.8805  1.2320
 2065SOL    HW217829   0.713   2.944   9.703 -1.3444 -0.0111  0.5512
 2066SOL     OW17830   1.180   1.317   5.224  0.2252 -1.3764 -0.1066
 2066SOL    HW117831   1.192   1.236   5.174 -1.1904  0.2530 -3.0901
 2066SOL    HW217832   1.116   1.299   5.292 -0.5174 -1.4253 -0.8151
 2067SOL     OW17833   1.456   1.969  16.329  0.2326  0.4082 -0.2234
 2067SOL    HW117834   1.368   1.951  16.295  0.1248  2.2301 -0.9173
 2067SOL    HW217835   1.509   1.958  16.250  2.7559  1.5185  1.3331
 2068SOL     OW17836   2.584   1.537   4.357  0.1202  0.6414 -0.0833
 2068SOL    HW117837   2.561   1.452   4.396  2.0571  0.0235 -0.3226
 2068SOL    HW217838   2.565   1.598   4.428 -0.9801  0.1931  0.0228
 2069SOL     OW17839   4.193   3.058   3.221 -0.0587  0.3428 -0.5514
 2069SOL    HW117840   4.219   3.095   3.137  0.7592 -0.4867 -0.6642
 2069SOL    HW217841   4.275   3.013   3.242 -0.0957  2.1429  3.4919
 2070SOL     OW17842   3.086   4.270   4.477  0.0341  0.2631  0.2425
 2070SOL    HW117843   3.139   4.216   4.418 -1.5655 -0.3090 -0.6637
 2070SOL    HW217844   3.050   4.340   4.423 -0.2091  1.5207  2.0519
 2071SOL     OW17845   2.993   4.405   8.776 -0.3312  0.1005 -0.1549
 2071SOL    HW117846   2.990   4.335   8.711 -2.6063  1.3901 -1.4057
 2071SOL    HW217847   3.003   4.351   8.855 -1.5908  1.2638  0.8032
 2072SOL     OW17848   2.741   1.060   8.210  0.5631  0.9874 -0.2106
 2072SOL    HW117849   2.738   1.125   8.139 -1.1391  1.1418  0.0083
 2072SOL    HW217850   2.832   1.064   8.238  0.0760 -0.0643  1.5078
 2073SOL     OW17851   0.877   3.049   3.738  0.2418  0.3700  0.5703
 2073SOL    HW117852   0.836   2.968   3.707  1.4705 -0.5463  1.3669
 2073SOL    HW217853   0.818   3.074   3.809 -0.2402  0.3105  0.1995
 2074SOL     OW17854   3.860   2.457   2.364 -0.0042  0.1717  0.0856
 2074SOL    HW117855   3.837   2.457   2.457  0.8921 -0.7889  0.3020
 2074SOL    HW217856   3.787   2.406   2.330 -0.6651  1.4962 -0.4757
 2075SOL     OW17857   1.377   0.406   0.991  0.0253  0.3291  0.2034
 2075SOL    HW117858   1.368   0.469   0.919  1.4661 -0.8901 -1.0327
 2075SOL    HW217859   1.461   0.440   1.021  1.1361 -0.8726 -1.5755
 2076SOL     OW17860   1.505   0.860  11.426  0.2885 -0.4006  0.3226
 2076SOL    HW117861   1.419   0.829  11.455 -0.3575  1.9523  0.8408
 2076SOL    HW217862   1.524   0.937  11.478  1.0215 -1.8335  2.1919
 2077SOL     OW17863   0.509   0.453   8.584  0.1680 -0.3071  0.0340
 2077SOL    HW117864   0.430   0.455   8.531  1.7768  1.1629 -2.2733
 2077SOL    HW217865   0.545   0.540   8.569  0.3630 -0.4487 -0.3316
 2078SOL     OW17866   4.416   1.538  14.326 -0.3425  0.0117 -0.0772
 2078SOL    HW117867   4.401   1.523  14.233 -0.3673 -0.3801 -0.0120
 2078SOL    HW217868   4.387   1.628  14.335 -1.7160 -0.6322  1.8776
 2079SOL     OW17869   1.704   1.479  17.737  0.0914 -0.1126  0.1361
 2079SOL    HW117870   1.641   1.546   0.019 -0.3316 -0.5668  0.2717
 2079SOL    HW217871   1.644   1.404  17.736  1.2429 -1.0224 -0.2583
 2080SOL     OW17872   3.663   0.299  14.071 -0.9327  0.1176 -0.1071
 2080SOL    HW117873   3.725   0.286  14.144  3.2265  2.1623 -3.2565
 2080SOL    HW217874   3.704   0.365  14.015 -0.6861 -0.7066 -0.9012
 2081SOL     OW17875   2.409   4.261   2.127  1.3627  0.0645 -0.2183
 2081SOL    HW117876   2.502   4.263   2.150  1.8735 -0.4961 -2.2094
 2081SOL    HW217877   2.406   4.194   2.059 -1.2288  1.8000 -1.8042
 2082SOL     OW17878   1.399   4.610   2.307  0.3146 -0.2411 -0.1663
 2082SOL    HW117879   1.329   4.667   2.340  1.4584 -0.1563  2.0984
 2082SOL    HW217880   1.382   4.606   2.212  1.5277  2.0625 -0.4800
 2083SOL     OW17881   0.963   2.643   7.830 -0.2041  0.2168  0.2527
 2083SOL    HW117882   0.916   2.671   7.909 -1.2878  0.8663 -0.6292
 2083SOL    HW217883   1.050   2.680   7.848 -1.2548  2.8509 -0.0407
 2084SOL     OW17884   4.382   1.055   0.469  0.0494  0.0326 -0.2705
 2084SOL    HW117885   4.388   0.986   0.403 -1.0776 -0.9752  0.6770
 2084SOL    HW217886   4.446   1.116   0.433 -2.9260  3.2882 -0.0740
 2085SOL     OW17887   2.487   1.967  16.041 -0.2541 -0.2857 -0.1231
 2085SOL    HW117888   2.577   1.935  16.038  0.0950  0.8132 -1.3693
 2085SOL    HW217889   2.496   2.008  16.126 -0.0429  0.1584 -0.3596
 2086SOL     OW17890   0.041   3.361   2.447  0.2393 -0.2433 -0.2827
 2086SOL    HW117891   0.017   3.288   2.390 -0.4862  0.8964 -1.4334
 2086SOL    HW217892   4.714   3.345   2.516  0.3247 -1.3420 -0.4565
 2087SOL     OW17893   3.088   4.077  10.719 -0.0715 -0.7788  0.0467
 2087SOL    HW117894   3.093   4.167  10.688  0.3248 -1.0622 -0.7185
 2087SOL    HW217895   3.164   4.044  10.672 -0.9039 -0.3738 -1.5821
 2088SOL     OW17896   1.505   3.631   3.119 -0.5819 -0.2353 -0.0424
 2088SOL    HW117897   1.550   3.562   3.070 -0.6152 -1.1522  1.2397
 2088SOL    HW217898   1.567   3.699   3.092  0.3324 -0.1068  2.3507
 2089SOL     OW17899   0.612   1.698  10.771  0.1212  0.5905  0.5626
 2089SOL    HW117900   0.684   1.637  10.788  0.7518  1.2353  0.1831
 2089SOL    HW217901   0.649   1.782  10.799  1.1947  0.3407 -0.0988
 2090SOL     OW17902   1.503   2.329   1.065  0.3089  0.2092  0.2957
 2090SOL    HW117903   1.443   2.386   1.113 -0.1190 -0.1337  0.1738
 2090SOL    HW217904   1.442   2.256   1.051 -0.6622  0.6882  2.0637
 2091SOL     OW17905   3.013   3.382   7.505 -0.3216 -0.6167  0.0121
 2091SOL    HW117906   2.970   3.304   7.472 -2.3946  1.1535 -1.4995
 2091SOL    HW217907   3.044   3.416   7.422  2.3560 -0.6867  0.9981
 2092SOL     OW17908   2.067   1.653   6.594  0.0010 -0.1246  0.9076
 2092SOL    HW117909   2.042   1.699   6.674 -1.0677 -0.0117  0.5110
 2092SOL    HW217910   2.063   1.723   6.529  0.7113 -0.7267  0.2268
 2093SOL     OW17911   1.048   1.409   1.501  0.7543  0.2358  0.5151
 2093SOL    HW117912   1.063   1.494   1.542  0.3312  0.1142  0.9142
 2093SOL    HW217913   1.052   1.420   1.406 -1.3100 -0.7102  0.3224
 2094SOL     OW17914   2.221   1.173   3.093  0.0458 -0.3742 -0.4902
 2094SOL    HW117915   2.261   1.204   3.011  0.3494 -1.2988 -0.6926
 2094SOL    HW217916   2.286   1.200   3.158  0.0881  0.9542 -1.0730
 2095SOL     OW17917   0.453   2.785   9.855  0.2523  0.4388 -0.0815
 2095SOL    HW117918   0.494   2.871   9.863  0.6069  0.0960  1.7709
 2095SOL    HW217919   0.536   2.737   9.854  1.3288  2.2752 -0.1464
 2096SOL     OW17920   1.868   1.851   5.816  0.0764  0.7312  0.5357
 2096SOL    HW117921   1.944   1.850   5.758  2.4943  2.9435  3.6251
 2096SOL    HW217922   1.824   1.767   5.817  1.4290  0.0029 -0.4253
 2097SOL     OW17923   3.452   1.117  11.685  0.3735  0.3948 -0.4245
 2097SOL    HW117924   3.426   1.119  11.778  1.0019 -0.5144 -0.2353
 2097SOL    HW217925   3.515   1.045  11.678  0.8827  0.8498 -0.4892
 2098SOL     OW17926   3.830   3.776   3.580  0.2126  0.1590 -0.2772
 2098SOL    HW117927   3.785   3.791   3.497 -2.6084 -0.1053  1.1699
 2098SOL    HW217928   3.914   3.820   3.571  0.7480 -0.6727  0.6109
 2099SOL     OW17929   3.005   4.499   4.357  0.2080 -0.0288 -0.3029
 2099SOL    HW117930   2.947   4.572   4.375 -0.6452 -0.2543 -2.1807
 2099SOL    HW217931   2.994   4.486   4.263  3.6156  1.3140 -0.9123
 2100SOL     OW17932   2.954   0.771  15.634 -0.0119  0.4367 -0.5331
 2100SOL    HW117933   2.967   0.678  15.655 -3.5027  0.2362  0.6671
 2100SOL    HW217934   2.985   0.807  15.717  0.8551  0.6894 -0.9661
 2101SOL     OW17935   3.889   2.987  13.575 -0.3008 -0.1080 -0.6489
 2101SOL    HW117936   3.807   2.937  13.570 -0.5557  0.1614  0.8812
 2101SOL    HW217937   3.868   3.070  13.531  2.2632  0.8462 -0.0929
 2102SOL     OW17938   0.141   2.656   5.718 -0.2920  0.0898 -0.3793
 2102SOL    HW117939   0.086   2.725   5.757 -0.4855  0.1583 -0.7745
 2102SOL    HW217940   0.189   2.703   5.650 -1.6692  2.6844  0.4242
 2103SOL     OW17941   4.576   2.659   5.313  0.1207  0.0643 -0.2882
 2103SOL    HW117942   4.570   2.680   5.406  0.0178  0.0450 -0.2904
 2103SOL    HW217943   4.656   2.606   5.313 -0.3335 -0.6148  0.0318
 2104SOL     OW17944   0.790   4.491   3.977  0.7631  0.3288  0.3144
 2104SOL    HW117945   0.763   4.447   4.058 -0.7918  1.1704  0.2554
 2104SOL    HW217946   0.717   4.552   3.967  1.2901  1.4034  2.9085
 2105SOL     OW17947   2.213   2.097   4.917  0.1877 -0.7420  0.3532
 2105SOL    HW117948   2.161   2.153   4.975 -2.4807 -2.3875 -0.4578
 2105SOL    HW217949   2.296   2.144   4.916 -0.0966 -0.2414  0.4546
 2106SOL     OW17950   0.013   0.296  15.293 -0.8005  0.0845 -0.2321
 2106SOL    HW117951   4.680   0.359  15.280 -1.5074 -0.8710 -1.1082
 2106SOL    HW217952   4.707   0.223  15.338  1.4924 -1.3889 -0.4347
 2107SOL     OW17953   3.867   3.025   1.625 -0.3341  0.4314  0.2936
 2107SOL    HW117954   3.825   2.989   1.547  2.5722 -1.1334 -0.5445
 2107SOL    HW217955   3.854   2.948   1.680  0.6427 -0.2222 -0.4033
 2108SOL     OW17956   1.580   2.246  14.629 -0.1210 -0.0442 -0.2093
 2108SOL    HW117957   1.501   2.192  14.633  0.7557 -1.6842 -4.8073
 2108SOL    HW217958   1.546   2.328  14.667 -2.0517 -1.8939  2.0203
 2109SOL     OW17959   1.050   4.271  11.863 -0.0946  0.4219 -0.4457
 2109SOL    HW117960   1.069   4.325  11.786  0.9709 -0.5012 -0.8386
 2109SOL    HW217961   1.011   4.335  11.922  0.7007  0.0078  0.5272
 2110SOL     OW17962   1.513   1.369   4.889  0.8983 -0.4899  0.0586
 2110SOL    HW117963   1.427   1.363   4.848 -0.0776 -3.6353  2.6108
 2110SOL    HW217964   1.556   1.435   4.835  1.2342 -1.9552 -1.4587
 2111SOL     OW17965   2.977   3.498   4.001  0.8757  0.3494 -0.0017
 2111SOL    HW117966   2.994   3.589   4.027 -0.4507  0.2048  1.3941
 2111SOL    HW217967   2.899   3.487   4.056  0.4135 -0.1130 -0.7462
 2112SOL     OW17968   0.872   1.059   3.021 -0.5097 -0.7676 -0.2110
 2112SOL    HW117969   0.820   0.985   2.988 -1.2814 -0.6487  0.7640
 2112SOL    HW217970   0.951   1.014   3.050 -0.7329 -0.7473  0.4137
 2113SOL     OW17971   0.332   2.160  15.023 -0.6688 -0.5781 -0.0824
 2113SOL    HW117972   0.302   2.229  14.964  0.7377 -0.1428 -0.3026
 2113SOL    HW217973   0.365   2.204  15.101  1.8455 -0.7326 -1.0376
 2114SOL     OW17974   2.533   3.272  11.417 -0.1040  0.2266 -0.4959
 2114SOL    HW117975   2.531   3.243  11.509 -0.3459  1.2922 -0.1662
 2114SOL    HW217976   2.628   3.289  11.416  0.0171 -0.3950 -0.0788
 2115SOL     OW17977   4.173   0.171   2.486 -0.2378 -0.0319  0.2766
 2115SOL    HW117978   4.253   0.179   2.538 -1.4086 -2.3062  2.4372
 2115SOL    HW217979   4.176   0.259   2.448  3.0812  0.3965  1.5776
 2116SOL     OW17980   0.484   1.643   1.612  0.2255  0.2458  0.3951
 2116SOL    HW117981   0.555   1.606   1.666  0.8667  0.4712 -0.2903
 2116SOL    HW217982   0.436   1.691   1.680  0.6730  1.5754 -0.2338
 2117SOL     OW17983   1.918   3.754   8.744  0.7939  0.8532  0.1209
 2117SOL    HW117984   1.840   3.702   8.764 -0.1965  1.8907 -1.0492
 2117SOL    HW217985   1.927   3.800   8.827 -1.1638 -1.6132  1.7286
 2118SOL     OW17986   1.418   3.129   5.680  0.3949 -0.4570 -0.3745
 2118SOL    HW117987   1.375   3.189   5.740 -0.3857  1.1281 -2.5156
 2118SOL    HW217988   1.509   3.160   5.680 -0.0710  0.8748  0.2479
 2119SOL     OW17989   2.178   4.673   5.606  0.1280  0.5035  0.5888
 2119SOL    HW117990   2.224   0.007   5.561  1.6134  1.0945  3.0558
 2119SOL    HW217991   2.201   4.693   5.697  0.8429  2.0473  0.0692
 2120SOL     OW17992   1.074   2.627  11.699 -0.0435  0.2130 -0.0032
 2120SOL    HW117993   1.094   2.565  11.630 -3.5628 -0.9192 -0.0140
 2120SOL    HW217994   1.126   2.701  11.666 -0.0715  0.0721 -0.3569
 2121SOL     OW17995   3.480   3.910   3.273 -0.0699 -0.5600  0.2679
 2121SOL    HW117996   3.426   3.844   3.317 -4.4736  2.1659 -0.9346
 2121SOL    HW217997   3.500   3.971   3.344 -0.2722  2.0091 -1.8622
 2122SOL     OW17998   2.553   0.183  14.334  0.7713 -0.1497  0.3248
 2122SOL    HW117999   2.471   0.232  14.333  2.5809  2.8367 -0.6599
 2122SOL    HW218000   2.540   0.142  14.248  0.2620 -0.1077  0.3823
 2123SOL     OW18001   1.046   0.280   9.431 -0.0015 -0.2304 -0.0995
 2123SOL    HW118002   1.003   0.197   9.410 -1.2709  0.2720  0.5203
 2123SOL    HW218003   1.082   0.262   9.518 -3.5762 -0.3348  1.3594
 2124SOL     OW18004   4.590   1.749   4.673  0.0415  0.5795  0.1531
 2124SOL    HW118005   4.533   1.674   4.690  1.1704 -0.1828  0.5745
 2124SOL    HW218006   4.616   1.768   4.763  0.7520  1.3485 -0.2142
 2125SOL     OW18007   0.895   3.633   2.298 -0.2503  0.5852 -0.6555
 2125SOL    HW118008   0.968   3.601   2.351 -0.8617  0.6330  0.2122
 2125SOL    HW218009   0.919   3.611   2.208 -0.1635 -0.7013 -0.3118
 2126SOL     OW18010   1.149   3.107   4.814 -0.2666 -0.1300 -0.0402
 2126SOL    HW118011   1.228   3.099   4.761  0.4860 -0.3592  1.1037
 2126SOL    HW218012   1.151   3.024   4.861 -0.9306  0.1934  0.5632
 2127SOL     OW18013   2.486   0.802   5.670  0.7063 -0.3128  0.0207
 2127SOL    HW118014   2.445   0.765   5.592 -0.0876  2.3296 -0.8275
 2127SOL    HW218015   2.554   0.736   5.684  1.5287  0.1906 -1.5779
 2128SOL     OW18016   2.850   1.410   5.771 -0.4413 -0.2550 -0.6819
 2128SOL    HW118017   2.827   1.500   5.747 -1.2788 -0.2247  0.2134
 2128SOL    HW218018   2.768   1.365   5.790  0.1534 -0.9063  0.3354
 2129SOL     OW18019   0.549   2.578   4.794  0.4371  0.8808 -0.3205
 2129SOL    HW118020   0.597   2.521   4.734  0.6101  0.0219  0.6355
 2129SOL    HW218021   0.535   2.528   4.874  0.0464  0.0830 -0.8933
 2130SOL     OW18022   1.970   1.672   2.117 -0.1225 -0.0581  0.3839
 2130SOL    HW118023   1.999   1.762   2.100 -0.5286  0.0508  0.2507
 2130SOL    HW218024   1.893   1.677   2.060 -0.6107 -0.3249  1.0123
 2131SOL     OW18025   2.436   1.251   1.729  0.7058 -0.0301 -1.3215
 2131SOL    HW118026   2.421   1.157   1.721  1.2835 -0.2276 -0.0676
 2131SOL    HW218027   2.370   1.262   1.797  0.8401 -4.5194 -0.4231
 2132SOL     OW18028   3.251   3.309  13.330  0.1378 -0.0482 -0.0387
 2132SOL    HW118029   3.166   3.268  13.342  1.1113 -1.9453  0.4052
 2132SOL    HW218030   3.281   3.259  13.255 -1.0025 -3.9943  2.1555
 2133SOL     OW18031   2.201   4.627   4.060  0.7673  0.3060 -0.3158
 2133SOL    HW118032   2.212   4.532   4.062  0.6980  0.2631 -1.6995
 2133SOL    HW218033   2.106   4.631   4.048  0.7158 -0.7871 -0.3377
 2134SOL     OW18034   0.244   2.690   4.662  0.2406 -0.3819  0.1027
 2134SOL    HW118035   0.236   2.625   4.732  1.9188  0.5404  1.1620
 2134SOL    HW218036   0.331   2.669   4.626  0.0821  1.6869 -1.5065
 2135SOL     OW18037   4.556   3.127   3.477  0.0945  0.6235 -0.4310
 2135SOL    HW118038   4.619   3.190   3.512 -0.1447 -0.3094  1.6681
 2135SOL    HW218039   4.541   3.060   3.543 -0.3264  0.9855 -0.1564
 2136SOL     OW18040   3.394   0.944  15.781 -0.2926  0.2026  0.1567
 2136SOL    HW118041   3.439   1.021  15.815 -2.9247  2.2324 -0.9548
 2136SOL    HW218042   3.404   0.878  15.850  2.1785 -0.7547 -1.1195
 2137SOL     OW18043   1.396   2.972   3.725  0.2404  0.1511 -0.1246
 2137SOL    HW118044   1.302   2.972   3.743  0.1645 -0.2736 -0.5337
 2137SOL    HW218045   1.429   3.053   3.763 -0.3013  0.4057 -0.1942
 2138SOL     OW18046   3.949   3.152   6.564 -0.3117  0.4489  0.4375
 2138SOL    HW118047   3.979   3.131   6.653  2.4803  0.0490 -0.6088
 2138SOL    HW218048   4.011   3.222   6.545 -1.2400  1.5436  1.3793
 2139SOL     OW18049   1.778   0.889   2.053 -0.2037  0.5977  0.0597
 2139SOL    HW118050   1.798   0.808   2.006  0.1035  0.5881  0.2047
 2139SOL    HW218051   1.698   0.909   2.005  0.2759 -1.5654 -1.6085
 2140SOL     OW18052   3.492   2.985  14.702  0.0571  0.4959 -0.0542
 2140SOL    HW118053   3.462   2.962  14.614  2.1551  1.5334 -1.0487
 2140SOL    HW218054   3.406   3.002  14.740  0.7727  0.9873  1.3472
 2141SOL     OW18055   1.352   2.447   2.949 -0.4421 -0.5174 -0.2160
 2141SOL    HW118056   1.392   2.367   2.983  1.9143  1.3498  1.3796
 2141SOL    HW218057   1.321   2.492   3.027  1.4237 -0.6055  0.5720
 2142SOL     OW18058   1.700   4.444   6.680  0.0856 -0.2147  0.8402
 2142SOL    HW118059   1.702   4.425   6.586 -0.5336  0.9760  0.5867
 2142SOL    HW218060   1.766   4.386   6.717  2.9219  2.6925  0.2977
 2143SOL     OW18061   2.288   3.124   6.271  0.1630 -0.3122 -0.1165
 2143SOL    HW118062   2.329   3.078   6.198  1.2649  1.2481 -0.4638
 2143SOL    HW218063   2.338   3.085   6.343  2.9110 -1.3901 -2.6493
 2144SOL     OW18064   2.250   4.114   6.730 -0.0828 -0.2009  0.2595
 2144SOL    HW118065   2.249   4.034   6.677 -0.0495 -0.2154  0.2805
 2144SOL    HW218066   2.336   4.152   6.715 -0.6304  0.2207 -1.8478
 2145SOL     OW18067   4.647   3.840  10.085 -0.0981 -0.7123 -0.4469
 2145SOL    HW118068   4.570   3.885  10.119 -0.0609 -0.5226 -0.6174
 2145SOL    HW218069   4.704   3.916  10.091 -2.0081  0.7713 -1.2606
 2146SOL     OW18070   4.545   2.192   8.659 -0.2612 -0.1589  0.5477
 2146SOL    HW118071   4.635   2.191   8.694  0.0511 -0.1592 -0.2638
 2146SOL    HW218072   4.483   2.188   8.732 -0.4562  2.9917  0.5836
 2147SOL     OW18073   2.940   1.471  10.114  0.5396 -0.5187 -0.2967
 2147SOL    HW118074   2.908   1.547  10.164 -0.1064  0.2818 -1.9479
 2147SOL    HW218075   2.865   1.461  10.055 -1.4516  1.4385  1.8332
 2148SOL     OW18076   2.528   2.113  11.750  0.1903  0.4326 -0.2598
 2148SOL    HW118077   2.516   2.169  11.673 -0.7265  1.9706  0.9900
 2148SOL    HW218078   2.588   2.171  11.797 -1.5890  2.0808 -0.0384
 2149SOL     OW18079   0.405   1.112   9.537 -0.0540 -0.4146 -0.0192
 2149SOL    HW118080   0.433   1.093   9.626  1.7879 -1.7157 -0.8876
 2149SOL    HW218081   0.487   1.118   9.488  0.5285  0.6022  1.0748
 2150SOL     OW18082   3.698   0.278   7.070 -0.2870  0.5792 -0.1062
 2150SOL    HW118083   3.767   0.267   7.135  0.5449  3.5716 -0.4836
 2150SOL    HW218084   3.667   0.195   7.033  1.0029  0.2506 -0.4323
 2151SOL     OW18085   0.949   3.229   8.722 -0.2003  0.0147  0.2279
 2151SOL    HW118086   1.042   3.244   8.740 -0.3693  0.0142  1.0973
 2151SOL    HW218087   0.916   3.313   8.751  2.0692  2.0400 -3.0365
 2152SOL     OW18088   4.211   3.629   1.424 -0.0742  0.6343 -0.1728
 2152SOL    HW118089   4.131   3.591   1.459  2.1931 -0.1242  4.1340
 2152SOL    HW218090   4.265   3.621   1.503  0.1886  0.2059 -0.3932
 2153SOL     OW18091   1.429   2.643   7.345 -0.1796  0.4469 -0.6358
 2153SOL    HW118092   1.347   2.652   7.296 -0.5863  0.8314  0.1137
 2153SOL    HW218093   1.405   2.560   7.387  1.0375  0.3384 -0.1587
 2154SOL     OW18094   1.527   0.057   4.825  0.0789 -0.5308 -0.0075
 2154SOL    HW118095   1.461   0.048   4.757  0.8794  1.9697 -1.0905
 2154SOL    HW218096   1.508   0.148   4.846  1.0213 -0.1614 -0.7271
 2155SOL     OW18097   3.785   3.981   7.334 -0.2331 -0.3308 -0.4145
 2155SOL    HW118098   3.857   4.030   7.294  0.1296 -1.8049 -1.5750
 2155SOL    HW218099   3.793   3.902   7.281  0.6673  1.3490 -2.7525
 2156SOL     OW18100   3.976   0.236   8.807  0.0583 -0.6997  0.1371
 2156SOL    HW118101   3.970   0.323   8.768 -3.9371 -0.1668  1.8806
 2156SOL    HW218102   4.045   0.196   8.754  0.0348 -0.8904  0.2519
 2157SOL     OW18103   4.648   0.160   2.960  0.3063  0.0583 -0.2388
 2157SOL    HW118104   4.668   0.225   3.026  1.5259 -2.5561  1.9742
 2157SOL    HW218105   4.720   0.096   2.965  0.0589 -0.0767  1.4253
 2158SOL     OW18106   3.906   4.332  15.388  0.4073 -0.1219 -0.3614
 2158SOL    HW118107   3.848   4.280  15.332 -2.4186  0.0086  2.4833
 2158SOL    HW218108   3.990   4.318  15.344  0.4078 -1.6220  0.1060
 2159SOL     OW18109   0.008   2.687   2.642 -0.0399  0.2427 -0.4388
 2159SOL    HW118110   4.733   2.782   2.638 -0.9486  0.2074  1.2116
 2159SOL    HW218111   4.730   2.677   2.736  1.0121  0.8320 -0.2067
 2160SOL     OW18112   1.025   4.169   4.303 -0.8087  0.5061  0.4384
 2160SOL    HW118113   1.024   4.170   4.208  0.7824 -0.1922  0.4080
 2160SOL    HW218114   1.062   4.082   4.318  0.5796  0.8609 -0.9014
 2161SOL     OW18115   2.641   0.135   9.719  0.2514  0.0077 -0.0483
 2161SOL    HW118116   2.701   0.144   9.793  1.1338 -0.1804 -0.7448
 2161SOL    HW218117   2.564   0.094   9.757  1.4049 -1.1412  1.0069
 2162SOL     OW18118   0.201   2.471   8.666  0.9559 -0.4761 -1.2827
 2162SOL    HW118119   0.284   2.493   8.707 -0.3249 -1.1127  1.6294
 2162SOL    HW218120   0.214   2.522   8.586  0.0310 -0.7230 -1.5898
 2163SOL     OW18121   1.322   1.140   3.025 -0.4104  0.0998  0.5129
 2163SOL    HW118122   1.267   1.196   2.970 -1.0138 -1.5856 -0.6021
 2163SOL    HW218123   1.274   1.057   3.021 -2.7441  1.4820 -0.2019
 2164SOL     OW18124   2.469   4.069   3.697  0.1966 -0.0418  0.0484
 2164SOL    HW118125   2.467   4.076   3.601 -0.3584 -0.9355 -0.0052
 2164SOL    HW218126   2.418   3.988   3.703  1.3309 -0.6952  0.8707
 2165SOL     OW18127   2.315   1.390   6.741  0.6939  0.5377 -0.2961
 2165SOL    HW118128   2.406   1.382   6.769  0.3885  2.8872  1.3497
 2165SOL    HW218129   2.270   1.391   6.826  1.3180  1.1900  0.0219
 2166SOL     OW18130   3.623   2.827   6.140 -0.9687 -0.0775 -0.6010
 2166SOL    HW118131   3.611   2.914   6.179  1.7706  0.6526 -1.4567
 2166SOL    HW218132   3.584   2.838   6.053  1.5987 -1.2445 -1.8696
 2167SOL     OW18133   3.526   0.556   2.481 -0.4030  0.1031 -0.2409
 2167SOL    HW118134   3.471   0.517   2.413  0.7746 -0.4829 -0.8426
 2167SOL    HW218135   3.511   0.650   2.471 -0.8595 -0.1774 -2.2562
 2168SOL     OW18136   0.304   4.485   3.257  0.3361  0.2136  0.7719
 2168SOL    HW118137   0.329   4.481   3.165 -0.6754  1.2593  0.4520
 2168SOL    HW218138   0.349   4.408   3.292  2.2100 -0.1794 -2.5177
 2169SOL     OW18139   3.717   3.155   0.367 -0.0224  0.3548  0.3862
 2169SOL    HW118140   3.758   3.237   0.393  1.4285  0.0795 -1.0340
 2169SOL    HW218141   3.659   3.199   0.305 -1.0905 -0.4389  0.8185
 2170SOL     OW18142   0.065   2.427   5.337 -0.2659 -0.2278  0.0031
 2170SOL    HW118143   0.158   2.444   5.346 -0.1138 -0.2292 -1.5253
 2170SOL    HW218144   0.062   2.443   5.243  0.5314  0.9905  0.1899
 2171SOL     OW18145   0.723   0.755   4.740  0.3236  0.4154  0.2710
 2171SOL    HW118146   0.647   0.748   4.798 -0.2892 -1.5098 -0.7284
 2171SOL    HW218147   0.689   0.817   4.676  0.4437  0.3412  0.1355
 2172SOL     OW18148   1.998   2.243  14.056 -0.2637  0.8362 -0.9174
 2172SOL    HW118149   1.929   2.266  14.117  0.1673  3.1311 -1.2958
 2172SOL    HW218150   1.940   2.219  13.983 -0.6596  1.9689 -0.9652
 2173SOL     OW18151   2.640   4.134  16.604  0.3784 -0.5155  0.0236
 2173SOL    HW118152   2.555   4.144  16.646  0.8055 -0.2705  0.8526
 2173SOL    HW218153   2.618   4.165  16.517 -1.9538 -0.6666  0.5620
 2174SOL     OW18154   2.521   4.594  17.186  0.4763 -0.0841  0.0236
 2174SOL    HW118155   2.546   4.592  17.279 -0.2336  1.7563  0.2518
 2174SOL    HW218156   2.596   4.636  17.145  2.0351 -2.7910  0.0981
 2175SOL     OW18157   1.762   1.961   1.694  0.3324 -0.1826 -0.2690
 2175SOL    HW118158   1.677   1.935   1.658  0.9178 -1.2825 -0.8913
 2175SOL    HW218159   1.749   2.055   1.686  0.7771  0.0423  1.7270
 2176SOL     OW18160   2.488   0.274   7.035  0.3434  0.0460  0.2089
 2176SOL    HW118161   2.482   0.325   6.955 -3.0043  1.3542  1.3042
 2176SOL    HW218162   2.546   0.327   7.089  0.3531 -0.0054  0.2497
 2177SOL     OW18163   1.748   4.025   6.547 -0.5060  0.8734 -0.1705
 2177SOL    HW118164   1.836   4.047   6.516 -0.1487 -1.3156 -0.7039
 2177SOL    HW218165   1.743   3.933   6.521  1.3067  0.3364  1.3642
 2178SOL     OW18166   0.296   4.564   9.695  0.3451 -0.2686  0.1865
 2178SOL    HW118167   0.253   4.525   9.771  0.1790  0.3623  0.4161
 2178SOL    HW218168   0.377   4.513   9.699 -0.3609 -1.3621  0.4757
 2179SOL     OW18169   1.928   1.798  17.300  0.4352 -0.2776  0.7337
 2179SOL    HW118170   1.887   1.715  17.322  2.4037 -1.5352 -0.4119
 2179SOL    HW218171   1.982   1.764  17.229 -0.9531 -0.9482  0.0054
 2180SOL     OW18172   0.524   1.244   2.866  0.3763 -0.2611  0.7028
 2180SOL    HW118173   0.462   1.186   2.822  0.8252 -1.0724  1.1398
 2180SOL    HW218174   0.485   1.332   2.868  0.4833 -0.2695  2.8740
 2181SOL     OW18175   1.261   0.272   1.628 -0.1261  0.3776 -0.1270
 2181SOL    HW118176   1.239   0.213   1.555 -0.1329 -0.8889  0.8947
 2181SOL    HW218177   1.287   0.352   1.584  0.5945  0.7662  1.0253
 2182SOL     OW18178   0.988   3.231   9.212 -0.4701  0.1126  0.3179
 2182SOL    HW118179   1.045   3.222   9.136  1.2624 -1.1802  1.7539
 2182SOL    HW218180   1.010   3.146   9.251 -0.9649  0.5113  1.4590
 2183SOL     OW18181   2.694   3.462   8.403  0.0004  0.6429 -0.0318
 2183SOL    HW118182   2.700   3.371   8.431 -0.0431  0.2841 -1.2152
 2183SOL    HW218183   2.604   3.462   8.369  0.1371 -1.6791 -0.3753
 2184SOL     OW18184   1.365   4.266   4.263 -0.2258  0.5807  0.3861
 2184SOL    HW118185   1.335   4.205   4.331 -0.6415  1.8631  1.3529
 2184SOL    HW218186   1.384   4.349   4.308  1.6418  1.1858 -1.5548
 2185SOL     OW18187   3.072   3.772   7.779  0.1903  0.1716  0.1521
 2185SOL    HW118188   2.999   3.776   7.840 -1.4968 -1.1288 -1.7671
 2185SOL    HW218189   3.137   3.718   7.824 -0.6320 -0.3063  0.7721
 2186SOL     OW18190   2.156   0.172   7.703  0.2845 -0.0865 -0.0702
 2186SOL    HW118191   2.138   0.080   7.681 -0.2420 -0.0840  0.3487
 2186SOL    HW218192   2.175   0.199   7.614 -0.3989 -0.6761 -0.3958
 2187SOL     OW18193   4.542   1.148  15.133  0.0223 -0.0238  0.2939
 2187SOL    HW118194   4.466   1.118  15.183 -0.8250  0.1614 -0.8772
 2187SOL    HW218195   4.508   1.220  15.079 -0.7046 -0.8338 -0.3253
 2188SOL     OW18196   3.123   0.084   4.892  0.6993  0.2141 -0.2926
 2188SOL    HW118197   3.200   0.034   4.866 -0.7811 -2.4153  0.4428
 2188SOL    HW218198   3.061   0.061   4.822 -0.0111  1.2547 -0.0077
 2189SOL     OW18199   0.528   4.710  16.682 -0.0519 -0.2846  0.0142
 2189SOL    HW118200   0.537   4.653  16.758 -0.6875  0.6713  0.8085
 2189SOL    HW218201   0.432   4.711  16.681 -0.0580 -0.0249  0.7112
 2190SOL     OW18202   3.022   2.663   5.792 -0.5493  0.0935  0.0809
 2190SOL    HW118203   3.030   2.620   5.877 -3.0739  0.4310  0.4815
 2190SOL    HW218204   3.103   2.714   5.787 -0.8553  0.4980 -0.7025
 2191SOL     OW18205   0.387   2.702   4.287  0.2287  0.0906  0.7983
 2191SOL    HW118206   0.426   2.617   4.306 -1.4713 -1.1174 -1.0875
 2191SOL    HW218207   0.298   2.666   4.280 -0.0484  1.2015 -1.4800
 2192SOL     OW18208   2.631   3.576   8.975 -0.2305 -0.3230  0.3176
 2192SOL    HW118209   2.628   3.597   9.069  0.3047 -1.9267  0.7031
 2192SOL    HW218210   2.666   3.654   8.934 -1.4580  0.1693  0.2017
 2193SOL     OW18211   0.986   1.978   5.581 -0.2839 -0.0470 -0.1509
 2193SOL    HW118212   0.963   1.920   5.508  1.6323  0.3135 -1.0292
 2193SOL    HW218213   0.902   1.990   5.627  0.0239 -0.8358  0.6260
 2194SOL     OW18214   2.495   2.181   6.129 -0.0349  0.5289  0.4803
 2194SOL    HW118215   2.405   2.212   6.136 -0.5970 -1.0435  0.0922
 2194SOL    HW218216   2.499   2.143   6.041 -0.8843  0.5813  0.4194
 2195SOL     OW18217   2.919   1.875  17.715 -0.0412 -0.1177  0.3032
 2195SOL    HW118218   2.931   1.791  17.672 -2.2531  0.8215 -2.1418
 2195SOL    HW218219   3.000   1.875   0.020 -0.4842 -0.1545  0.9880
 2196SOL     OW18220   0.846   0.340   8.977 -0.6768  0.0368  0.5491
 2196SOL    HW118221   0.923   0.398   8.985  0.4209 -1.1442 -1.4061
 2196SOL    HW218222   0.834   0.345   8.882  0.2654 -1.9066  0.3318
 2197SOL     OW18223   1.346   4.222   4.663  0.0464  0.1617  0.0640
 2197SOL    HW118224   1.324   4.180   4.580  0.8539  1.1258 -0.6407
 2197SOL    HW218225   1.439   4.211   4.681  0.1673  0.0724 -0.6051
 2198SOL     OW18226   1.058   1.973   0.553  0.2986 -0.3844  0.4438
 2198SOL    HW118227   1.097   2.026   0.483 -0.5299 -1.2294 -0.6774
 2198SOL    HW218228   0.971   2.011   0.540  0.3616 -0.4222 -0.0865
 2199SOL     OW18229   0.416   1.819   9.777  0.4554 -0.5794  0.0003
 2199SOL    HW118230   0.431   1.726   9.757  1.5988 -0.8891  2.2778
 2199SOL    HW218231   0.340   1.805   9.832  2.1529  3.1615  3.2661
 2200SOL     OW18232   1.429   3.739  17.289 -0.0850 -0.1569  0.1433
 2200SOL    HW118233   1.411   3.744  17.195  2.2974  0.7268 -0.2621
 2200SOL    HW218234   1.386   3.819  17.318  1.1062  0.1577  1.0413
 2201SOL     OW18235   3.668   3.000  13.290 -0.2345 -0.4176 -0.0978
 2201SOL    HW118236   3.664   2.992  13.385  0.0986 -0.9364 -0.1286
 2201SOL    HW218237   3.763   2.999  13.285 -0.1139  0.6383  1.9065
 2202SOL     OW18238   3.466   3.113  11.557 -0.0492  0.0383 -0.2981
 2202SOL    HW118239   3.396   3.057  11.524 -0.9201  0.3881  0.9332
 2202SOL    HW218240   3.538   3.061  11.523  1.7006  2.0592  0.3447
 2203SOL     OW18241   1.694   3.218  17.177  0.0604  0.0990  0.0422
 2203SOL    HW118242   1.647   3.301  17.164  0.0655  0.2007  0.6642
 2203SOL    HW218243   1.786   3.245  17.188  0.6160 -1.9192  0.3096
 2204SOL     OW18244   2.789   4.325  11.325 -0.2693  0.2285  0.4339
 2204SOL    HW118245   2.867   4.333  11.381  0.5287 -0.0195 -0.6505
 2204SOL    HW218246   2.725   4.371  11.379 -2.4308 -1.5953 -0.5873
 2205SOL     OW18247   0.924   0.799   5.962 -0.2941  0.0214 -0.0643
 2205SOL    HW118248   0.894   0.829   6.048 -2.5414 -1.1251 -0.4642
 2205SOL    HW218249   1.008   0.845   5.957 -1.1284  1.7178  1.4422
 2206SOL     OW18250   0.983   1.592   6.192  0.0905 -0.5196 -0.3712
 2206SOL    HW118251   0.971   1.662   6.129  2.4815  0.9155  0.7676
 2206SOL    HW218252   0.999   1.506   6.152 -1.7829 -0.1231 -1.9816
 2207SOL     OW18253   2.028   1.961   8.283  0.4846  0.4792 -0.2768
 2207SOL    HW118254   1.974   1.988   8.208 -3.0848 -1.3242  1.6410
 2207SOL    HW218255   1.992   1.873   8.295  1.4482  0.5652  3.1996
 2208SOL     OW18256   4.182   0.211  16.794 -0.0602 -0.2171  0.0768
 2208SOL    HW118257   4.178   0.205  16.699 -0.2355  0.4430  0.0428
 2208SOL    HW218258   4.116   0.144  16.813 -0.8380 -0.1640 -2.5928
 2209SOL     OW18259   3.082   3.557   8.121 -0.0084  0.1005  0.9167
 2209SOL    HW118260   3.161   3.595   8.161  1.3570 -2.4784  0.6637
 2209SOL    HW218261   3.115   3.475   8.084 -0.4839 -0.0939  0.9286
 2210SOL     OW18262   3.878   2.014   4.103 -0.2292  0.3287 -0.2181
 2210SOL    HW118263   3.922   1.936   4.068  0.6090  0.2176  1.0745
 2210SOL    HW218264   3.847   1.966   4.180 -0.0754 -0.8607 -0.9014
 2211SOL     OW18265   1.358   1.427   6.526 -0.0520  0.5171  0.3574
 2211SOL    HW118266   1.444   1.461   6.552 -0.9198  2.3506  0.8225
 2211SOL    HW218267   1.373   1.333   6.518  2.3918  1.0034 -1.0843
 2212SOL     OW18268   2.854   3.612  17.575  0.1260 -0.4176 -0.3841
 2212SOL    HW118269   2.832   3.682  17.513 -1.5691 -0.7100 -0.1086
 2212SOL    HW218270   2.847   3.531  17.524 -1.5844 -0.6877  0.2866
 2213SOL     OW18271   1.534   0.497   7.523 -0.0838 -0.0673  0.0933
 2213SOL    HW118272   1.502   0.412   7.552  0.1956 -0.6989 -1.4250
 2213SOL    HW218273   1.593   0.523   7.594  0.0437 -1.8680  0.6519
 2214SOL     OW18274   2.111   4.239  12.540  0.2356  0.3203  0.7256
 2214SOL    HW118275   2.119   4.212  12.448  0.0724  0.9144  0.5369
 2214SOL    HW218276   2.093   4.155  12.582  2.3336 -0.7845 -0.5957
 2215SOL     OW18277   4.180   0.024   5.471  0.2152  0.4858  0.1758
 2215SOL    HW118278   4.099   0.019   5.522  0.1371  0.4959  0.0505
 2215SOL    HW218279   4.224   0.091   5.525  1.1707  0.7214 -0.8935
 2216SOL     OW18280   1.463   1.175   3.266 -0.7124  0.3898 -0.5117
 2216SOL    HW118281   1.556   1.157   3.251 -1.3018 -0.6971 -2.8793
 2216SOL    HW218282   1.419   1.142   3.188 -2.3215 -0.9161  0.9398
 2217SOL     OW18283   0.428   3.414   3.327 -0.3061 -0.0815 -0.4390
 2217SOL    HW118284   0.395   3.451   3.245  0.4327  2.1589  0.2595
 2217SOL    HW218285   0.491   3.348   3.299 -0.0792 -0.8289  1.8381
 2218SOL     OW18286   2.244   4.071   8.716 -0.0396 -0.0616 -0.4929
 2218SOL    HW118287   2.261   4.148   8.662  0.4341  1.4430  1.8378
 2218SOL    HW218288   2.334   4.044   8.731 -0.4627 -0.8624  0.5739
 2219SOL     OW18289   3.767   1.377   6.167  0.0758 -0.3502 -0.1849
 2219SOL    HW118290   3.834   1.444   6.155  0.4592 -0.7166 -0.0894
 2219SOL    HW218291   3.693   1.424   6.206 -0.6894 -0.1125 -1.8778
 2220SOL     OW18292   0.853   3.298   2.523  0.0663  0.2873  0.2632
 2220SOL    HW118293   0.865   3.364   2.591  1.9229  1.1571 -0.9188
 2220SOL    HW218294   0.759   3.283   2.511  0.2218  1.6774 -2.5445
 2221SOL     OW18295   1.840   1.768  16.168  0.4391 -0.1084 -0.1690
 2221SOL    HW118296   1.846   1.700  16.235 -1.1688  1.3002  1.4110
 2221SOL    HW218297   1.842   1.712  16.091 -2.3683 -1.6808  0.9029
 2222SOL     OW18298   0.748   2.701   8.537  0.5595 -0.5785  0.3887
 2222SOL    HW118299   0.678   2.667   8.594  0.2508  0.7250  0.8030
 2222SOL    HW218300   0.821   2.653   8.576  1.1065 -2.2514 -2.7239
 2223SOL     OW18301   1.062   4.696   5.975 -0.1988  0.1479 -0.2148
 2223SOL    HW118302   1.067   0.039   6.027  2.7744  1.2376 -2.1864
 2223SOL    HW218303   0.987   4.654   6.019  0.5026  0.4331  1.2508
 2224SOL     OW18304   1.289   0.392   5.480 -0.0915  0.3549  0.2934
 2224SOL    HW118305   1.271   0.486   5.467 -1.0760 -0.4239 -3.9165
 2224SOL    HW218306   1.281   0.367   5.388  1.7595 -1.5552  0.6743
 2225SOL     OW18307   1.219   2.671  16.979 -0.4993  0.8985  0.3677
 2225SOL    HW118308   1.286   2.714  17.032 -2.0110  3.9750 -0.1907
 2225SOL    HW218309   1.156   2.640  17.044 -0.2946 -0.2686  0.0184
 2226SOL     OW18310   1.318   4.623   5.628  0.6367  0.9749  0.7725
 2226SOL    HW118311   1.403   4.612   5.586 -0.2049 -1.4420 -0.3606
 2226SOL    HW218312   1.336   4.629   5.722  0.3882  0.5640  0.8461
 2227SOL     OW18313   1.324   2.806   0.112  0.8475 -0.2989  0.3743
 2227SOL    HW118314   1.336   2.878   0.051 -1.1053 -0.0392  0.3060
 2227SOL    HW218315   1.411   2.766   0.117 -0.2585 -2.7261  0.5767
 2228SOL     OW18316   1.023   0.902   2.081 -0.3370 -0.1218  0.6853
 2228SOL    HW118317   0.959   0.879   2.014  0.0758  1.8360 -0.4172
 2228SOL    HW218318   1.091   0.942   2.026  0.4965 -0.0315  1.7809
 2229SOL     OW18319   3.333   3.082  17.215  0.3748 -0.3214  0.1463
 2229SOL    HW118320   3.329   3.002  17.162 -0.4155 -0.4509  0.4005
 2229SOL    HW218321   3.244   3.116  17.210  1.8859  3.6299  0.1365
 2230SOL     OW18322   0.317   1.847  10.806 -0.1245  0.8590  0.1550
 2230SOL    HW118323   0.311   1.919  10.743  0.2836  0.9535  0.2261
 2230SOL    HW218324   0.335   1.770  10.753 -0.8459  0.1194  0.9939
 2231SOL     OW18325   1.577   0.597   5.608 -0.3191  0.7544 -0.0978
 2231SOL    HW118326   1.521   0.674   5.604 -0.8589  0.4933  2.9357
 2231SOL    HW218327   1.522   0.534   5.654  0.0249  0.5991  0.0982
 2232SOL     OW18328   0.825   1.423   3.260  0.2574 -0.5430 -0.5739
 2232SOL    HW118329   0.902   1.368   3.251  1.4005  1.0213 -0.3166
 2232SOL    HW218330   0.773   1.409   3.181 -1.8452 -2.6151  1.1618
 2233SOL     OW18331   4.581   3.172   6.579  0.1065  0.1399 -0.5537
 2233SOL    HW118332   4.636   3.132   6.512  1.8481  0.2816  0.7864
 2233SOL    HW218333   4.494   3.135   6.562 -0.3071  1.0047 -0.2777
 2234SOL     OW18334   2.169   3.918  12.395 -0.0772  0.0724 -0.5062
 2234SOL    HW118335   2.179   3.975  12.319 -0.8907  1.4706  0.4538
 2234SOL    HW218336   2.252   3.869  12.391  1.1970  2.1011  0.7040
 2235SOL     OW18337   3.573   4.725   7.247  0.7720 -0.0092 -0.3636
 2235SOL    HW118338   3.537   0.016   7.332  0.0920  2.6038 -1.4991
 2235SOL    HW218339   3.500   4.681   7.203  1.6530 -1.7082 -0.1218
 2236SOL     OW18340   3.491   2.260  11.903 -1.1075 -0.6960  0.0066
 2236SOL    HW118341   3.405   2.218  11.899 -0.9431 -0.9874 -0.4790
 2236SOL    HW218342   3.485   2.301  11.989 -2.4565 -1.1349  0.1242
 2237SOL     OW18343   1.258   2.354   4.834  0.1099 -0.0558 -0.3074
 2237SOL    HW118344   1.332   2.413   4.839  0.1589 -0.1669  0.2616
 2237SOL    HW218345   1.221   2.372   4.748  2.7158  2.0382 -0.9792
 2238SOL     OW18346   4.025   4.172   4.201 -0.2945  0.0240 -0.1037
 2238SOL    HW118347   3.956   4.107   4.211 -1.3320  0.9920 -1.0324
 2238SOL    HW218348   4.067   4.155   4.117  0.0960  3.2235 -0.5572
 2239SOL     OW18349   2.952   4.556   9.224  0.1099 -0.3496 -0.3381
 2239SOL    HW118350   2.991   4.638   9.194  1.2729  0.6321  3.8475
 2239SOL    HW218351   3.021   4.513   9.275 -0.3793  0.7927  1.2632
 2240SOL     OW18352   3.071   2.113  10.275 -0.3289 -0.2976  0.2267
 2240SOL    HW118353   3.016   2.040  10.304 -0.9622  0.5048  1.0778
 2240SOL    HW218354   3.154   2.072  10.300  0.2316  1.7271  1.6885
 2241SOL     OW18355   3.605   1.964   2.365  0.0275  0.0606  0.1383
 2241SOL    HW118356   3.648   1.894   2.315 -0.6072  0.1488 -0.5386
 2241SOL    HW218357   3.517   1.954   2.327 -0.3289  0.1181  0.9475
 2242SOL     OW18358   4.461   3.870  16.697  0.5161  0.7436  0.0568
 2242SOL    HW118359   4.509   3.796  16.733 -0.3132  0.7648  1.2200
 2242SOL    HW218360   4.431   3.839  16.612 -0.3848  0.1581  0.5814
 2243SOL     OW18361   2.602   4.083   0.987 -0.3859 -0.7458  0.0499
 2243SOL    HW118362   2.572   4.114   1.073 -0.8692 -0.8108 -0.0916
 2243SOL    HW218363   2.652   4.007   1.016 -0.1819 -0.4644  0.4274
 2244SOL     OW18364   2.842   2.145   0.271 -0.3274  0.1406 -0.4610
 2244SOL    HW118365   2.807   2.165   0.358  0.1552  0.4546 -0.3363
 2244SOL    HW218366   2.795   2.067   0.242  0.0532  0.2715 -1.4208
 2245SOL     OW18367   4.283   2.349   9.085 -0.3483  0.1464  0.2257
 2245SOL    HW118368   4.260   2.437   9.053 -1.0516  0.4464  1.5445
 2245SOL    HW218369   4.362   2.369   9.136  0.2884 -1.5158 -0.1333
 2246SOL     OW18370   0.563   3.400   9.846 -0.7300 -0.0664 -0.0377
 2246SOL    HW118371   0.571   3.477   9.902  2.3126  1.6276 -2.8138
 2246SOL    HW218372   0.498   3.351   9.896  0.2911 -0.5753  0.7677
 2247SOL     OW18373   4.224   3.553   9.381 -0.4133  0.1547 -0.2505
 2247SOL    HW118374   4.290   3.584   9.318 -0.7642  0.6699 -0.3630
 2247SOL    HW218375   4.141   3.595   9.361 -0.1422  0.5303 -0.5791
 2248SOL     OW18376   4.583   2.076   0.348 -0.2183  0.5235 -0.3201
 2248SOL    HW118377   4.521   2.128   0.400 -1.7790 -0.0352 -1.6263
 2248SOL    HW218378   4.518   2.021   0.304 -0.3031  0.1479  0.2743
 2249SOL     OW18379   2.114   3.349   3.807  0.0364 -0.0639  0.3023
 2249SOL    HW118380   2.087   3.440   3.793 -0.8537 -0.2394  0.9127
 2249SOL    HW218381   2.040   3.315   3.756 -1.1765  1.2591  1.1498
 2250SOL     OW18382   2.441   3.795   1.074  0.3569  0.5485  0.1196
 2250SOL    HW118383   2.523   3.843   1.075  0.1563  0.9000 -1.0956
 2250SOL    HW218384   2.385   3.851   1.021  0.8175  0.1294 -0.8147
 2251SOL     OW18385   3.627   4.044   6.338  0.1336  0.1329 -0.1268
 2251SOL    HW118386   3.556   3.980   6.329 -0.2441  0.8260 -1.9141
 2251SOL    HW218387   3.571   4.120   6.354 -0.3313 -0.4102  0.8704
 2252SOL     OW18388   0.052   2.691   7.326 -0.2886  0.2565  0.3508
 2252SOL    HW118389   0.069   2.781   7.352  0.5328 -0.2891  1.7332
 2252SOL    HW218390   0.003   2.708   7.246  1.7858  0.0915 -0.9705
 2253SOL     OW18391   4.189   3.494   5.400 -0.6555 -0.1247 -0.7567
 2253SOL    HW118392   4.216   3.562   5.339 -5.0577  0.6334 -1.8316
 2253SOL    HW218393   4.123   3.537   5.455 -0.5642 -0.0461 -0.7092
 2254SOL     OW18394   1.208   0.969  11.719  0.7001 -0.4123 -0.2151
 2254SOL    HW118395   1.164   0.932  11.795  0.9865 -1.7408 -0.7107
 2254SOL    HW218396   1.221   0.888  11.669 -1.0204 -0.6596 -0.2605
 2255SOL     OW18397   0.987   0.318   5.350  0.1241  0.3339 -0.3830
 2255SOL    HW118398   1.031   0.302   5.434  0.4830  2.5634 -0.1571
 2255SOL    HW218399   1.026   0.253   5.291 -0.3317  1.5862 -2.0678
 2256SOL     OW18400   4.388   4.063   8.232 -0.6114  0.2083 -0.0451
 2256SOL    HW118401   4.474   4.045   8.193 -0.3988  0.2684  0.3950
 2256SOL    HW218402   4.403   4.115   8.311 -0.6437  0.2075 -0.0386
 2257SOL     OW18403   2.501   3.116   3.673  0.0024  0.1783 -0.2338
 2257SOL    HW118404   2.473   3.034   3.714 -2.1188  1.6323  1.2176
 2257SOL    HW218405   2.542   3.084   3.592  1.3609 -2.5684  1.5398
 2258SOL     OW18406   4.554   2.480  16.142 -0.6827  0.5165  0.3787
 2258SOL    HW118407   4.646   2.486  16.118 -0.9299 -3.4836 -1.6590
 2258SOL    HW218408   4.530   2.390  16.118  0.7461  0.4273 -0.7159
 2259SOL     OW18409   2.376   2.918   7.942 -0.2535  0.5147  0.0614
 2259SOL    HW118410   2.297   2.913   7.996  1.2644 -2.9081  2.0095
 2259SOL    HW218411   2.359   2.867   7.864 -0.6554 -2.8301  2.3287
 2260SOL     OW18412   3.209   0.939   3.588 -0.7863 -0.1051 -0.1749
 2260SOL    HW118413   3.261   0.883   3.645 -0.8614 -1.4297 -1.4223
 2260SOL    HW218414   3.170   0.994   3.656  0.0386 -1.5932  1.4944
 2261SOL     OW18415   3.504   2.210   3.767  0.1881 -0.3881 -0.2001
 2261SOL    HW118416   3.574   2.167   3.816 -0.0981  0.6122  1.0792
 2261SOL    HW218417   3.458   2.135   3.730  1.7927 -1.7012  0.4629
 2262SOL     OW18418   2.612   4.553  14.891 -0.7508 -0.1035  0.2654
 2262SOL    HW118419   2.678   4.523  14.953  1.2663 -0.0730 -1.8849
 2262SOL    HW218420   2.560   4.475  14.872 -0.3048 -0.1652 -0.6725
 2263SOL     OW18421   0.295   0.312   4.444  0.8610  0.2651  0.4670
 2263SOL    HW118422   0.301   0.333   4.537  0.5341 -0.8986  0.7504
 2263SOL    HW218423   0.371   0.255   4.434  1.6551  1.4266 -0.1504
 2264SOL     OW18424   1.726   3.709   6.826 -0.2377  0.1520  0.3371
 2264SOL    HW118425   1.648   3.763   6.815 -1.0154 -1.1957 -0.7136
 2264SOL    HW218426   1.792   3.778   6.834  1.9084 -1.8599  0.0025
 2265SOL     OW18427   1.372   4.705   7.757  0.3965  0.3177  0.2063
 2265SOL    HW118428   1.344   4.691   7.666 -0.7602 -0.6504  0.7158
 2265SOL    HW218429   1.293   4.707   7.810 -0.2145  0.7975 -0.7304
 2266SOL     OW18430   2.330   4.571  11.936  0.2184  0.2482 -0.5920
 2266SOL    HW118431   2.333   4.479  11.911  0.1099  0.1993 -0.4208
 2266SOL    HW218432   2.296   4.567  12.026  0.9106 -1.1798 -0.3982
 2267SOL     OW18433   1.690   3.145   5.102  0.0123 -0.3062 -0.2066
 2267SOL    HW118434   1.702   3.219   5.042 -2.1503 -0.8220 -1.2893
 2267SOL    HW218435   1.768   3.090   5.092  0.1533  0.0567 -1.1401
 2268SOL     OW18436   2.741   0.732   7.514 -0.2452  0.2947  0.1270
 2268SOL    HW118437   2.683   0.800   7.546  0.6510  0.4510  1.3895
 2268SOL    HW218438   2.720   0.653   7.563 -3.0311  0.8745 -0.1548
 2269SOL     OW18439   0.896   4.382  12.067 -0.5233 -0.3367 -0.3399
 2269SOL    HW118440   0.835   4.309  12.054 -2.9288  1.5876  0.2796
 2269SOL    HW218441   0.883   4.395  12.160 -0.0004 -0.5954 -0.2275
 2270SOL     OW18442   2.987   2.664  14.884  0.3455 -0.0307 -0.4873
 2270SOL    HW118443   2.969   2.756  14.905  0.9887 -0.5423  2.3037
 2270SOL    HW218444   2.933   2.636  14.810  0.6321  1.5787 -1.3046
 2271SOL     OW18445   3.627   0.986  13.970  0.0462 -0.3799  0.0000
 2271SOL    HW118446   3.680   0.965  13.893  2.6256 -2.2854  2.3066
 2271SOL    HW218447   3.580   1.064  13.939 -0.4058 -1.6269 -2.4504
 2272SOL     OW18448   0.142   4.313  11.615 -0.1069 -0.4930  0.5097
 2272SOL    HW118449   0.075   4.250  11.642 -0.1683 -1.0935 -1.0322
 2272SOL    HW218450   0.158   4.367  11.692 -1.9586 -0.4230  0.8412
 2273SOL     OW18451   1.220   3.571   7.911  0.2371  0.1061 -0.4126
 2273SOL    HW118452   1.178   3.498   7.956 -0.5361  0.3352 -0.7555
 2273SOL    HW218453   1.216   3.643   7.974  2.2531 -0.6265  0.5332
 2274SOL     OW18454   2.684   1.886   0.243 -0.2490  0.4615  0.4448
 2274SOL    HW118455   2.760   1.832   0.263  0.0869  0.7624 -0.0025
 2274SOL    HW218456   2.640   1.845   0.169 -0.3983  1.4053  0.0122
 2275SOL     OW18457   0.771   0.283   6.233 -0.7458 -0.3977 -0.5401
 2275SOL    HW118458   0.836   0.230   6.278  0.8796  0.3769 -1.9688
 2275SOL    HW218459   0.764   0.359   6.291 -0.6559 -1.8154  1.3411
 2276SOL     OW18460   2.684   4.566  16.696 -0.3763 -0.5839  0.9792
 2276SOL    HW118461   2.633   4.625  16.752 -2.0709 -0.6886 -0.4716
 2276SOL    HW218462   2.712   4.618  16.621 -0.4624 -0.8866  0.7353
 2277SOL     OW18463   2.829   1.340   4.754 -0.8080  0.5251 -0.3846
 2277SOL    HW118464   2.806   1.270   4.815  1.7856  0.6290  0.6857
 2277SOL    HW218465   2.740   1.368   4.729 -0.1872  2.0642 -0.8897
 2278SOL     OW18466   4.395   2.864   7.460 -0.3462  0.6048 -0.4206
 2278SOL    HW118467   4.393   2.959   7.476 -0.4561  0.4659  0.4092
 2278SOL    HW218468   4.399   2.865   7.365 -2.7999  4.1479 -0.4789
 2279SOL     OW18469   2.604   0.124   1.808  0.3955  0.5048 -0.9225
 2279SOL    HW118470   2.531   0.101   1.751 -1.0701 -0.1978  1.2365
 2279SOL    HW218471   2.677   0.107   1.749  1.6639  0.5576  0.6452
 2280SOL     OW18472   0.893   4.695   5.361 -0.4284  0.1098  0.0222
 2280SOL    HW118473   0.913   4.725   5.272 -0.3335 -1.5781 -0.5181
 2280SOL    HW218474   0.944   0.020   5.413 -1.5125 -0.3354  1.6063
 2281SOL     OW18475   1.061   3.439   2.723 -0.1712  0.2238 -0.5319
 2281SOL    HW118476   1.086   3.403   2.808 -0.3874  2.3945  0.4533
 2281SOL    HW218477   1.007   3.508   2.762  3.0666  1.4978  1.8188
 2282SOL     OW18478   4.037   0.408   1.358 -0.0509 -0.5502 -0.0351
 2282SOL    HW118479   3.954   0.379   1.396  0.6098  1.1798  2.7610
 2282SOL    HW218480   4.089   0.383   1.434  0.1599  2.8975  0.9541
 2283SOL     OW18481   2.117   3.930   2.996  0.0483 -0.1962  0.2662
 2283SOL    HW118482   2.079   3.976   2.921 -0.3316 -2.6439 -1.0459
 2283SOL    HW218483   2.097   3.839   2.975  1.2797 -0.6964  1.2299
 2284SOL     OW18484   3.398   0.324   8.828  0.0375 -0.0423  0.2859
 2284SOL    HW118485   3.373   0.399   8.883 -1.5599 -2.6914  3.2250
 2284SOL    HW218486   3.483   0.352   8.793  0.4237  0.8989  1.9813
 2285SOL     OW18487   4.554   2.403  13.748 -0.0732 -0.1081 -0.2195
 2285SOL    HW118488   4.504   2.360  13.679  0.3516 -1.4845  0.3084
 2285SOL    HW218489   4.502   2.481  13.766  3.6476  1.9980  1.4438
 2286SOL     OW18490   0.376   2.846  12.117 -0.1847  0.2329 -0.4090
 2286SOL    HW118491   0.373   2.836  12.022 -0.7505  1.9544 -0.5616
 2286SOL    HW218492   0.456   2.795  12.128 -0.3659 -0.2132 -1.1713
 2287SOL     OW18493   3.919   4.475   4.956  0.1310 -0.2453 -0.3798
 2287SOL    HW118494   3.981   4.403   4.967  0.1073 -0.4567 -1.5928
 2287SOL    HW218495   3.870   4.435   4.884 -1.1498 -1.8467  1.3906
 2288SOL     OW18496   3.910   3.964  13.581  0.7452 -0.4758  0.3024
 2288SOL    HW118497   3.886   4.051  13.550 -1.3495 -1.3384 -0.4206
 2288SOL    HW218498   3.996   3.948  13.541  1.0056 -1.8431  1.3766
 2289SOL     OW18499   1.084   1.261  10.136  0.2502  0.2597  0.1247
 2289SOL    HW118500   1.158   1.203  10.123  0.8946  1.2025 -0.4604
 2289SOL    HW218501   1.039   1.222  10.210  0.0664 -0.2115 -0.2358
 2290SOL     OW18502   1.605   1.323   2.499 -0.3312  0.4818  0.1833
 2290SOL    HW118503   1.680   1.271   2.470  0.0456  0.0612  1.9124
 2290SOL    HW218504   1.565   1.345   2.415  0.1788 -0.7388 -0.3819
 2291SOL     OW18505   1.348   2.474   1.527 -0.3339 -0.0600 -0.2386
 2291SOL    HW118506   1.309   2.513   1.449 -0.2108  0.3576 -0.0957
 2291SOL    HW218507   1.439   2.462   1.498 -0.3215 -0.9033  0.1799
 2292SOL     OW18508   2.309   0.439   8.083 -0.6387 -0.1351 -0.1916
 2292SOL    HW118509   2.310   0.503   8.012 -2.3090 -0.1086 -0.1967
 2292SOL    HW218510   2.275   0.362   8.037 -2.6410  1.3456 -1.2029
 2293SOL     OW18511   1.751   3.558  13.568  0.2832 -0.4514  0.0996
 2293SOL    HW118512   1.685   3.520  13.510 -0.8026 -2.4120  2.6158
 2293SOL    HW218513   1.705   3.547  13.651 -0.8227 -1.2097 -0.6089
 2294SOL     OW18514   1.424   0.780   2.617  0.3214 -0.2302 -0.4470
 2294SOL    HW118515   1.473   0.714   2.567 -0.5772 -1.2011 -0.0332
 2294SOL    HW218516   1.461   0.860   2.580 -1.7421  0.9346  0.0193
 2295SOL     OW18517   0.366   1.424   4.072  0.2992 -0.3712 -0.3998
 2295SOL    HW118518   0.359   1.441   3.978  2.4816 -0.9502 -0.6703
 2295SOL    HW218519   0.351   1.329   4.068  0.5546 -0.3214 -2.2623
 2296SOL     OW18520   3.329   1.994   1.306 -0.8313  0.3256 -0.3024
 2296SOL    HW118521   3.265   2.056   1.341 -2.4652 -1.7093  0.2425
 2296SOL    HW218522   3.300   1.984   1.215 -1.9880 -3.1437  0.4815
 2297SOL     OW18523   1.084   0.820   1.219 -0.6500 -0.2151  0.4489
 2297SOL    HW118524   1.162   0.803   1.273 -0.6462 -1.4171  0.0652
 2297SOL    HW218525   1.129   0.820   1.135  1.5234  1.8360  1.6203
 2298SOL     OW18526   4.497   1.887   2.797  0.2135  0.0334  0.2309
 2298SOL    HW118527   4.574   1.939   2.775  0.3837 -0.0251  0.6884
 2298SOL    HW218528   4.507   1.812   2.738  0.0495  0.4958 -0.3831
 2299SOL     OW18529   1.378   0.505   9.056  0.1416 -0.2257 -0.4045
 2299SOL    HW118530   1.337   0.457   9.128 -3.5303  0.4476 -2.0287
 2299SOL    HW218531   1.338   0.590   9.071 -1.1881 -1.0603  0.8636
 2300SOL     OW18532   0.884   3.453   8.883 -0.2621 -0.3339  0.2639
 2300SOL    HW118533   0.937   3.415   8.953  0.8521 -0.3668 -0.6009
 2300SOL    HW218534   0.929   3.537   8.887 -1.5406  0.4180 -1.1058
 2301SOL     OW18535   3.810   1.228   5.752  0.3750  0.4409  0.1405
 2301SOL    HW118536   3.870   1.193   5.686  0.1520 -0.9961  0.6956
 2301SOL    HW218537   3.824   1.321   5.738 -0.4530  0.5070 -0.2752
 2302SOL     OW18538   2.751   3.751   1.304  0.0258  0.1100 -0.4772
 2302SOL    HW118539   2.831   3.711   1.338 -0.4005 -0.3576 -0.0295
 2302SOL    HW218540   2.687   3.693   1.344  1.2611 -1.0170 -0.1276
 2303SOL     OW18541   1.418   2.360   7.034 -0.0620 -0.1411  0.4229
 2303SOL    HW118542   1.421   2.292   7.101  1.8688  1.1884  1.6883
 2303SOL    HW218543   1.434   2.325   6.946 -0.7115  0.8815 -0.1054
 2304SOL     OW18544   1.574   1.263   1.297  0.6137 -0.2002  0.2955
 2304SOL    HW118545   1.508   1.327   1.272  1.9184  0.6391 -0.9866
 2304SOL    HW218546   1.515   1.198   1.335 -1.6479  0.5795 -1.9336
 2305SOL     OW18547   2.820   2.987   1.712  0.1207 -0.1173 -0.2161
 2305SOL    HW118548   2.792   3.056   1.773  0.2229 -0.2246 -0.0493
 2305SOL    HW218549   2.736   2.952   1.682  0.4913 -2.0768  1.1121
 2306SOL     OW18550   1.484   0.220  15.000 -0.4705  0.0552  0.7483
 2306SOL    HW118551   1.449   0.134  14.978 -0.9621 -0.0357  1.8934
 2306SOL    HW218552   1.578   0.206  15.011 -0.0455  2.0315 -0.3611
 2307SOL     OW18553   1.624   0.259  12.995  0.1747  0.0706 -0.1513
 2307SOL    HW118554   1.665   0.345  12.991  0.7786 -0.2228 -0.4043
 2307SOL    HW218555   1.684   0.203  13.045  1.7572  0.5686 -1.4754
 2308SOL     OW18556   1.049   2.447   2.838 -0.0537  0.2054 -0.0449
 2308SOL    HW118557   1.078   2.358   2.859  0.5087  0.4812  0.3416
 2308SOL    HW218558   1.106   2.458   2.762 -0.5272  0.8816 -0.3030
 2309SOL     OW18559   2.985   0.698   4.013  0.0864 -0.6768 -0.4688
 2309SOL    HW118560   2.935   0.618   3.995 -0.6615 -0.3554  0.2173
 2309SOL    HW218561   3.038   0.690   3.933  0.9117  0.9530 -0.0782
 2310SOL     OW18562   4.268   3.655  11.022 -0.2385  0.0977 -0.1366
 2310SOL    HW118563   4.193   3.703  11.056 -0.3572  1.3000 -2.0966
 2310SOL    HW218564   4.256   3.673  10.929 -0.5919 -0.2742 -0.1655
 2311SOL     OW18565   3.319   3.157   8.785  0.0807  0.1095 -0.6780
 2311SOL    HW118566   3.276   3.179   8.868 -1.2809 -1.8429 -0.8582
 2311SOL    HW218567   3.342   3.241   8.747  0.0784 -0.4224 -1.8457
 2312SOL     OW18568   4.458   0.385   7.250  0.7025  0.2853  0.2702
 2312SOL    HW118569   4.411   0.455   7.295 -0.1685  0.3253 -0.7007
 2312SOL    HW218570   4.530   0.440   7.218  0.5472  1.3998  1.8425
 2313SOL     OW18571   0.332   1.916  10.141 -0.3612 -0.2660 -0.2320
 2313SOL    HW118572   0.351   1.834  10.096  2.6672  0.3664 -0.1263
 2313SOL    HW218573   0.241   1.914  10.169 -0.9601 -2.2404 -2.3201
 2314SOL     OW18574   3.614   0.422   3.205  0.2736  0.2589  0.0513
 2314SOL    HW118575   3.666   0.499   3.184 -2.0695  1.9529  0.4386
 2314SOL    HW218576   3.676   0.348   3.206 -0.1793 -0.1218  0.0585
 2315SOL     OW18577   1.913   4.614   1.326  0.3571 -0.1078 -0.0272
 2315SOL    HW118578   1.992   4.588   1.372 -0.7469 -0.0759  1.8727
 2315SOL    HW218579   1.913   4.594   1.232 -0.5084  1.6847 -0.4171
 2316SOL     OW18580   2.028   2.677   2.241  0.5040 -0.3204 -0.3266
 2316SOL    HW118581   2.100   2.615   2.246  0.2267 -0.6701 -0.7388
 2316SOL    HW218582   2.028   2.715   2.329 -1.1067  0.2709 -0.5659
 2317SOL     OW18583   3.482   2.896   8.436  0.0306 -0.0305  0.4829
 2317SOL    HW118584   3.517   2.844   8.508  2.0940  0.1035 -0.3998
 2317SOL    HW218585   3.430   2.957   8.489  1.7380  1.5258  0.3795
 2318SOL     OW18586   0.384   1.985   3.089 -0.3643  0.7018  0.5999
 2318SOL    HW118587   0.319   1.921   3.119  1.2398 -0.8269  0.7975
 2318SOL    HW218588   0.463   1.931   3.096  0.1060  1.1786 -1.1019
 2319SOL     OW18589   4.321   2.931   2.289  0.1033  0.5782  0.2301
 2319SOL    HW118590   4.286   2.849   2.324 -1.8316  1.1600 -0.3269
 2319SOL    HW218591   4.415   2.922   2.301 -0.4987  0.1276  4.5805
 2320SOL     OW18592   0.873   1.031   7.800  0.3709  0.0258  0.1661
 2320SOL    HW118593   0.968   1.043   7.807  0.0406  2.0412  1.3392
 2320SOL    HW218594   0.846   1.119   7.775  0.6267 -0.0730 -0.4502
 2321SOL     OW18595   2.521   0.261   8.709 -0.0443 -0.1231  0.2063
 2321SOL    HW118596   2.427   0.275   8.709  0.4633  3.3781 -0.0768
 2321SOL    HW218597   2.549   0.353   8.707  2.0843 -0.7711 -0.1907
 2322SOL     OW18598   0.189   1.726   8.097 -0.0850 -0.4375  0.1034
 2322SOL    HW118599   0.183   1.822   8.101  0.9870 -0.4165  1.4038
 2322SOL    HW218600   0.095   1.707   8.102 -0.2106 -0.6232 -2.9156
 2323SOL     OW18601   3.709   3.017  16.647 -0.9387 -0.1918  0.2762
 2323SOL    HW118602   3.711   2.948  16.580  0.8744 -0.6110  0.7552
 2323SOL    HW218603   3.725   3.089  16.585 -2.1045  0.1094  0.3407
 2324SOL     OW18604   0.730   2.584  12.300 -0.3250 -0.3865 -0.3110
 2324SOL    HW118605   0.794   2.654  12.317 -1.8601  1.3969 -2.0163
 2324SOL    HW218606   0.696   2.619  12.219 -0.3695  0.0025 -0.1245
 2325SOL     OW18607   4.715   0.910   7.621 -0.0271 -0.5582 -0.1353
 2325SOL    HW118608   0.056   0.924   7.567  0.3809 -1.7530  0.1521
 2325SOL    HW218609   0.010   0.909   7.711  0.5543  1.3407 -0.3195
 2326SOL     OW18610   0.632   2.488   6.480  0.7749  0.7657 -0.2161
 2326SOL    HW118611   0.625   2.504   6.575 -0.9927  3.1327 -0.7421
 2326SOL    HW218612   0.690   2.559   6.453  1.7141  1.3455  3.2898
 2327SOL     OW18613   4.431   3.064   0.605  0.2644 -0.4422  0.2031
 2327SOL    HW118614   4.451   2.972   0.623  1.1692 -0.8286 -2.7449
 2327SOL    HW218615   4.430   3.085   0.698 -1.5718 -0.5448  0.2056
 2328SOL     OW18616   0.090   4.123   6.334 -0.0718 -0.0163  0.2231
 2328SOL    HW118617   0.171   4.163   6.303 -0.8461  0.3443 -1.3370
 2328SOL    HW218618   0.059   4.094   6.248  2.7047 -0.7431 -0.5536
 2329SOL     OW18619   2.633   4.320  16.079 -0.1422  0.5598 -0.4471
 2329SOL    HW118620   2.715   4.300  16.034 -0.6723 -1.9700 -0.2737
 2329SOL    HW218621   2.585   4.362  16.007 -2.1125 -0.0185  0.5334
 2330SOL     OW18622   1.321   1.929  11.702 -0.6328 -0.5135 -0.0386
 2330SOL    HW118623   1.323   1.836  11.680  0.9386 -0.4680 -0.0847
 2330SOL    HW218624   1.379   1.925  11.778  2.2369 -2.4385 -2.3226
 2331SOL     OW18625   3.992   0.877   5.635 -0.7369  0.1134 -0.1193
 2331SOL    HW118626   3.951   0.962   5.622 -1.4002 -0.4444 -1.6907
 2331SOL    HW218627   4.075   0.909   5.670 -0.8187  0.5461 -0.3209
 2332SOL     OW18628   0.338   1.660  16.042  0.0198 -0.7011 -0.2334
 2332SOL    HW118629   0.408   1.686  16.102 -0.8347  0.1530  0.3983
 2332SOL    HW218630   0.365   1.698  15.959 -3.0923  1.0352 -0.4442
 2333SOL     OW18631   4.366   2.788  14.566 -0.4945 -0.5024  0.4593
 2333SOL    HW118632   4.435   2.812  14.627 -1.1839  0.2223  0.9383
 2333SOL    HW218633   4.417   2.739  14.501 -2.6625 -0.8765 -0.9735
 2334SOL     OW18634   1.441   1.670  11.689  0.2429  0.2290 -0.6694
 2334SOL    HW118635   1.390   1.613  11.631 -2.0780  0.2947  1.2967
 2334SOL    HW218636   1.439   1.626  11.774  0.8760  0.0674 -0.7413
 2335SOL     OW18637   2.707   2.628   8.685 -0.2425  0.4805  0.3931
 2335SOL    HW118638   2.782   2.593   8.636 -0.3289  0.4551  0.2790
 2335SOL    HW218639   2.671   2.550   8.727 -0.5532  0.4977  0.1495
 2336SOL     OW18640   2.781   2.258  11.685  0.4127 -0.3154  0.4308
 2336SOL    HW118641   2.734   2.340  11.667  0.0812 -0.9608 -1.6693
 2336SOL    HW218642   2.800   2.276  11.777 -1.3965 -0.8030  0.8920
 2337SOL     OW18643   0.910   4.053   8.108  0.0576  0.0867 -0.4131
 2337SOL    HW118644   0.949   3.968   8.088  0.0642 -0.4928  2.0222
 2337SOL    HW218645   0.816   4.035   8.101  0.0765 -1.4689  3.5580
 2338SOL     OW18646   4.432   0.079   7.988 -0.0870 -0.1250  0.8140
 2338SOL    HW118647   4.440   0.130   8.068  0.8609  1.1689 -0.1092
 2338SOL    HW218648   4.519   0.038   7.988 -0.2192 -0.4066  2.3942
 2339SOL     OW18649   2.981   1.977  15.871  0.4836 -0.0303  0.4428
 2339SOL    HW118650   2.985   2.067  15.904 -1.5807  0.2218  0.0055
 2339SOL    HW218651   2.995   2.000  15.779  1.9303  2.2205  1.2141
 2340SOL     OW18652   1.414   0.294   1.238 -0.0056 -0.6150 -0.3715
 2340SOL    HW118653   1.501   0.329   1.255 -0.2552 -0.9995  1.6338
 2340SOL    HW218654   1.397   0.314   1.145 -0.6755 -1.2788 -0.3936
 2341SOL     OW18655   4.499   2.143  10.675 -0.2727 -0.4281 -0.0231
 2341SOL    HW118656   4.516   2.237  10.685  2.4853 -1.3112  3.5543
 2341SOL    HW218657   4.572   2.099  10.718  0.9256  0.2807 -1.3227
 2342SOL     OW18658   1.770   3.749  16.094 -0.1358  0.3822  0.2419
 2342SOL    HW118659   1.865   3.747  16.085 -0.1597  1.1505 -0.1319
 2342SOL    HW218660   1.742   3.773  16.006  0.1423 -0.4903 -0.0877
 2343SOL     OW18661   0.773   3.717   9.324  0.0135  0.4347 -0.1488
 2343SOL    HW118662   0.709   3.712   9.395  0.5670 -1.2018  0.2307
 2343SOL    HW218663   0.801   3.625   9.323  1.2057  0.8148 -2.2684
 2344SOL     OW18664   3.788   0.222   3.229 -0.3286  0.2731  0.6655
 2344SOL    HW118665   3.831   0.192   3.309  1.1897  0.4781 -0.0642
 2344SOL    HW218666   3.780   0.133   3.195 -0.8594  0.7519 -0.4896
 2345SOL     OW18667   4.137   4.301  15.251  0.6656 -0.6395  0.2946
 2345SOL    HW118668   4.208   4.264  15.303 -0.4772 -1.5817  1.2136
 2345SOL    HW218669   4.151   4.248  15.172  0.0413 -0.9619  0.3980
 2346SOL     OW18670   0.846   3.364   3.876 -0.2315 -0.2616  0.1275
 2346SOL    HW118671   0.846   3.443   3.821 -0.3363 -0.5417 -0.2746
 2346SOL    HW218672   0.895   3.309   3.815  2.8308  1.1510  1.3205
 2347SOL     OW18673   0.502   0.455  11.949  0.0567  0.5687 -0.1540
 2347SOL    HW118674   0.467   0.389  11.890  1.7886  0.1470 -0.7257
 2347SOL    HW218675   0.425   0.458  12.004 -0.5013 -1.1235 -0.8298
 2348SOL     OW18676   1.227   4.334   1.111 -0.5553  0.1160 -0.3206
 2348SOL    HW118677   1.204   4.280   1.187  0.1979 -0.5471 -0.5648
 2348SOL    HW218678   1.264   4.408   1.159  1.6846 -1.4529  0.3659
 2349SOL     OW18679   1.906   3.988   1.919  0.1789 -0.8618  0.1066
 2349SOL    HW118680   1.821   4.031   1.931  0.0929 -1.8238  2.8928
 2349SOL    HW218681   1.898   3.901   1.957  0.1604 -0.5580  0.8011
 2350SOL     OW18682   3.856   1.182  10.635 -0.5070  0.5277 -0.8906
 2350SOL    HW118683   3.830   1.123  10.564  0.1644 -0.6845 -0.1418
 2350SOL    HW218684   3.863   1.262  10.583  2.0444  0.3913 -0.7561
 2351SOL     OW18685   2.919   1.009   8.864 -0.4479  0.7338 -0.0719
 2351SOL    HW118686   2.916   0.928   8.812  0.7958  0.7320 -0.1414
 2351SOL    HW218687   2.835   1.011   8.909 -1.5609  0.3493 -2.1431
 2352SOL     OW18688   2.077   3.934   9.963  0.5981 -0.1909  0.6225
 2352SOL    HW118689   2.122   3.851   9.949  1.8621  1.0216 -2.6878
 2352SOL    HW218690   2.080   3.966   9.872 -2.3258  0.5375  0.7569
 2353SOL     OW18691   2.849   2.075   4.543  0.3210  0.1890  0.6555
 2353SOL    HW118692   2.914   2.129   4.588  0.7325 -0.7347  1.1735
 2353SOL    HW218693   2.788   2.144   4.517 -1.0196 -1.5895 -0.9361
 2354SOL     OW18694   2.877   1.289   5.527  0.3843  0.2506 -0.3324
 2354SOL    HW118695   2.813   1.359   5.508  0.9853  1.4751  2.1617
 2354SOL    HW218696   2.885   1.310   5.620 -2.1769  1.8324 -0.4470
 2355SOL     OW18697   3.917   2.688   4.004 -0.1554 -0.1301  0.1703
 2355SOL    HW118698   3.917   2.651   4.092  3.2672 -0.6335 -0.0450
 2355SOL    HW218699   3.821   2.688   3.999 -0.1652  1.2439  0.2489
 2356SOL     OW18700   1.436   2.141   7.185  0.0245  0.1246  0.6990
 2356SOL    HW118701   1.395   2.169   7.266 -0.3476 -0.8400  0.8406
 2356SOL    HW218702   1.496   2.080   7.229  0.9751 -0.3490 -1.2247
 2357SOL     OW18703   0.270   0.195   6.216 -0.5310 -0.6973  0.4083
 2357SOL    HW118704   0.261   0.275   6.267 -0.3193 -1.2551  1.3185
 2357SOL    HW218705   0.313   0.227   6.137  0.0981 -0.2327  0.9367
 2358SOL     OW18706   2.562   2.954   2.563 -0.2280 -0.4439  0.0140
 2358SOL    HW118707   2.590   2.894   2.494 -0.7374 -0.4119 -0.2158
 2358SOL    HW218708   2.594   3.039   2.532  0.1521 -1.1311 -1.4507
 2359SOL     OW18709   0.394   0.805  10.229  0.0931 -0.3781 -0.3679
 2359SOL    HW118710   0.480   0.775  10.258 -1.0117  0.0043  3.2212
 2359SOL    HW218711   0.354   0.800  10.316  0.0015 -0.0735 -0.3941
 2360SOL     OW18712   1.298   2.406  12.362 -0.0452 -0.0773 -0.0739
 2360SOL    HW118713   1.293   2.311  12.348 -0.8587 -0.1440  0.6594
 2360SOL    HW218714   1.381   2.413  12.316  0.8749 -0.4626  1.5173
 2361SOL     OW18715   3.371   0.556   8.995  0.4591  0.4765  0.0949
 2361SOL    HW118716   3.403   0.501   9.067 -0.3683  0.5087  0.4815
 2361SOL    HW218717   3.300   0.605   9.036  0.1659 -1.2458  1.6333
 2362SOL     OW18718   4.623   0.064  13.726 -0.2656 -0.2873 -0.2928
 2362SOL    HW118719   4.559   4.736  13.755 -4.3208  4.3501  1.3183
 2362SOL    HW218720   4.592   0.148  13.761 -3.4519 -0.8211 -1.8623
 2363SOL     OW18721   1.515   0.542  11.688  0.3451 -0.1302 -0.2777
 2363SOL    HW118722   1.598   0.523  11.730 -1.0476 -0.7795  2.1615
 2363SOL    HW218723   1.537   0.526  11.596  1.8730  0.0317  0.0667
 2364SOL     OW18724   3.988   4.369  10.423 -0.4411 -0.5335  0.0172
 2364SOL    HW118725   4.023   4.384  10.335 -0.9968 -1.8897 -0.4263
 2364SOL    HW218726   4.043   4.297  10.454 -0.8008 -0.9271 -0.2659
 2365SOL     OW18727   2.613   3.005   4.082  0.4542  0.1821  0.8940
 2365SOL    HW118728   2.699   3.038   4.058  1.1620 -0.9139  1.9846
 2365SOL    HW218729   2.604   2.914   4.053  0.2934  1.0345 -1.7397
 2366SOL     OW18730   1.157   2.884   6.556  0.1478 -0.3790  0.1367
 2366SOL    HW118731   1.241   2.853   6.523 -0.8146 -2.0464 -0.7560
 2366SOL    HW218732   1.178   2.913   6.645 -0.0072  0.6571 -0.1629
 2367SOL     OW18733   0.755   2.570  17.445  0.4376  0.0483  0.8267
 2367SOL    HW118734   0.707   2.600  17.522 -2.6858 -0.3649 -0.9646
 2367SOL    HW218735   0.681   2.557  17.385 -0.6241  2.0873  1.7051
 2368SOL     OW18736   0.051   3.531  15.358 -0.0577  0.1637  0.1881
 2368SOL    HW118737   0.012   3.606  15.404 -1.7866 -0.0422 -0.9449
 2368SOL    HW218738   0.001   3.460  15.397 -0.4483  0.5095  0.3232
 2369SOL     OW18739   3.474   0.607  10.024  0.1622  0.0682  0.0172
 2369SOL    HW118740   3.468   0.561   9.940 -0.2962 -0.5023  0.3618
 2369SOL    HW218741   3.385   0.587  10.053  0.1431 -0.4729 -0.4179
 2370SOL     OW18742   1.576   3.397  13.763  0.4651  0.4958 -0.6840
 2370SOL    HW118743   1.514   3.429  13.830  0.9070  1.1568 -0.5883
 2370SOL    HW218744   1.521   3.371  13.690 -0.2384 -0.7096  0.2643
 2371SOL     OW18745   4.324   2.835  16.134  0.5350  0.1050  0.5305
 2371SOL    HW118746   4.341   2.759  16.077 -0.3933  1.1533 -1.1239
 2371SOL    HW218747   4.408   2.838  16.180  0.6605  0.5625  0.2724
 2372SOL     OW18748   1.296   3.685  12.324  0.4044 -0.1448  0.5416
 2372SOL    HW118749   1.332   3.769  12.294 -2.6311  0.2994 -1.8914
 2372SOL    HW218750   1.365   3.664  12.387  2.0410 -0.2139 -1.2766
 2373SOL     OW18751   2.774   1.915  15.618  0.3023  0.3628 -0.2244
 2373SOL    HW118752   2.857   1.913  15.666  0.7188  2.1770 -0.8550
 2373SOL    HW218753   2.741   2.001  15.644 -0.8871 -0.2212  0.1771
 2374SOL     OW18754   4.705   4.713   6.480  0.1359 -0.2259  0.7214
 2374SOL    HW118755   0.031   4.652   6.442  1.5377  0.5709  1.7796
 2374SOL    HW218756   4.701   4.687   6.572  0.8148 -0.5910  0.6476
 2375SOL     OW18757   1.895   4.383  12.474 -0.1984  0.6863  0.0265
 2375SOL    HW118758   1.958   4.311  12.476 -2.5735 -1.4360 -1.6857
 2375SOL    HW218759   1.921   4.425  12.556  1.1241 -1.7571  0.8754
 2376SOL     OW18760   3.843   4.194  14.458 -0.1622  0.2327 -0.4469
 2376SOL    HW118761   3.748   4.192  14.469 -0.1234 -2.2598 -0.4857
 2376SOL    HW218762   3.847   4.164  14.367  0.6283  1.1070 -0.7061
 2377SOL     OW18763   0.519   2.238   6.388  0.0656 -0.2795 -0.5735
 2377SOL    HW118764   0.574   2.186   6.446 -1.4267  0.4147  1.4627
 2377SOL    HW218765   0.510   2.311   6.449 -2.8242 -2.4930  1.6323
 2378SOL     OW18766   1.046   3.682  10.122  0.2167 -1.0489 -0.2498
 2378SOL    HW118767   1.005   3.596  10.108  0.2746 -1.1638  0.3210
 2378SOL    HW218768   0.967   3.737  10.118  0.6220 -0.3036  2.4354
 2379SOL     OW18769   4.156   0.251  16.317 -0.0047 -0.0579  0.4064
 2379SOL    HW118770   4.067   0.285  16.312 -0.0447 -0.1191  0.6959
 2379SOL    HW218771   4.146   0.208  16.401  1.3627 -0.3393  0.4294
 2380SOL     OW18772   1.329   2.127   7.459  0.1455 -0.1090 -0.2390
 2380SOL    HW118773   1.247   2.077   7.463  0.1032  0.0314  0.5754
 2380SOL    HW218774   1.381   2.075   7.521  0.0258 -1.2829 -1.1047
 2381SOL     OW18775   0.569   3.532   8.532  0.3880  0.5934  0.0697
 2381SOL    HW118776   0.546   3.621   8.559 -0.7511 -0.3771  2.2912
 2381SOL    HW218777   0.631   3.496   8.596 -1.1401  0.6758  1.5865
 2382SOL     OW18778   0.162   1.163   8.672  0.0027 -0.6366  0.6256
 2382SOL    HW118779   0.075   1.203   8.684 -0.2497 -1.1489  0.5221
 2382SOL    HW218780   0.188   1.210   8.594 -0.3853 -0.9008  0.3353
 2383SOL     OW18781   0.886   4.130   3.165 -0.7399 -0.3206  0.4606
 2383SOL    HW118782   0.812   4.163   3.115  0.8099  1.3281 -0.7267
 2383SOL    HW218783   0.836   4.081   3.231  0.7409 -0.2316  1.6584
 2384SOL     OW18784   3.113   1.556   8.114  0.2034 -0.0137  0.7004
 2384SOL    HW118785   3.177   1.617   8.150  0.6286  0.7264 -1.3620
 2384SOL    HW218786   3.099   1.494   8.187  1.0395  0.5403  1.3242
 2385SOL     OW18787   1.987   2.584   5.053  0.2092 -0.1774 -0.4198
 2385SOL    HW118788   2.040   2.601   5.131 -1.9304  1.5194  0.6668
 2385SOL    HW218789   1.902   2.608   5.089  0.2241  0.7668 -1.0194
 2386SOL     OW18790   4.625   0.711   8.756  0.1740 -0.2852  0.5732
 2386SOL    HW118791   4.561   0.749   8.816 -1.4601  0.0663 -1.4196
 2386SOL    HW218792   4.679   0.786   8.731 -0.2474 -0.0173  0.4726
 2387SOL     OW18793   2.670   0.271   2.018 -0.6272  0.3259 -0.2456
 2387SOL    HW118794   2.755   0.227   2.012 -0.5630  0.5131 -0.7321
 2387SOL    HW218795   2.633   0.234   1.938 -0.4154 -2.0895  0.7769
 2388SOL     OW18796   4.726   1.966   7.401  0.2254 -0.0267  0.4673
 2388SOL    HW118797   0.062   1.913   7.368  1.0688  0.0619  2.1411
 2388SOL    HW218798   4.699   1.915   7.478 -2.9914  0.3949 -0.3875
 2389SOL     OW18799   0.926   2.107   3.400 -0.0789 -0.6287 -0.1553
 2389SOL    HW118800   0.909   2.037   3.463 -0.9441 -0.4944 -0.2368
 2389SOL    HW218801   0.881   2.093   3.317 -1.4473  1.0668  0.3196
 2390SOL     OW18802   2.212   0.463   3.072 -0.1595  0.6511  0.3283
 2390SOL    HW118803   2.207   0.511   2.990  0.9910 -0.5482 -0.4378
 2390SOL    HW218804   2.270   0.526   3.116  1.1393 -1.5342  1.7624
 2391SOL     OW18805   0.284   3.059   7.317 -0.3998 -0.6209  0.2350
 2391SOL    HW118806   0.347   3.001   7.358 -0.5143  0.2122  1.5737
 2391SOL    HW218807   0.230   3.084   7.392  2.1932 -0.4651  2.0525
 2392SOL     OW18808   3.088   3.715   2.019  0.7350 -0.0354  0.0475
 2392SOL    HW118809   3.161   3.690   2.076  0.4438  0.3837  0.6083
 2392SOL    HW218810   3.122   3.672   1.941  2.0432 -0.6701  0.9592
 2393SOL     OW18811   0.446   1.113   7.618 -0.1205 -0.2938  0.0248
 2393SOL    HW118812   0.460   1.123   7.712  0.9117 -0.7440 -0.0757
 2393SOL    HW218813   0.532   1.124   7.577 -0.1496 -0.3459 -0.0501
 2394SOL     OW18814   4.314   3.970   3.661 -0.5316 -0.0329 -0.3130
 2394SOL    HW118815   4.406   3.949   3.674 -1.1940 -2.4594  0.6178
 2394SOL    HW218816   4.310   4.065   3.652  2.6537  0.1623  0.5160
 2395SOL     OW18817   1.957   4.296   8.509 -0.4860 -0.6971 -0.2332
 2395SOL    HW118818   1.933   4.363   8.573  0.4339  1.8415 -2.5219
 2395SOL    HW218819   1.955   4.218   8.564  1.2862 -0.6961 -0.1812
 2396SOL     OW18820   1.988   1.318   3.875 -0.2750 -0.6835  0.1088
 2396SOL    HW118821   1.906   1.367   3.879  0.5496  0.9517 -2.7644
 2396SOL    HW218822   2.053   1.370   3.921  0.2360 -0.1467 -1.2227
 2397SOL     OW18823   3.278   3.837   4.596  0.3966 -0.2704 -0.6124
 2397SOL    HW118824   3.255   3.864   4.507 -0.1675 -0.4678 -0.5216
 2397SOL    HW218825   3.237   3.909   4.643  0.9404 -0.3664  0.0109
 2398SOL     OW18826   2.287   3.871   3.654  0.1783 -0.0112 -0.7586
 2398SOL    HW118827   2.199   3.906   3.644  1.0035  2.4866  0.5684
 2398SOL    HW218828   2.285   3.845   3.746 -0.4773  0.8382 -0.5327
 2399SOL     OW18829   3.202   2.353   9.408 -0.2929 -0.5275  0.6683
 2399SOL    HW118830   3.251   2.421   9.454 -0.7492  1.1944 -1.4242
 2399SOL    HW218831   3.209   2.392   9.321 -0.9275 -0.5168  0.6207
 2400SOL     OW18832   0.010   0.855   9.421 -0.1137  0.1130 -0.3460
 2400SOL    HW118833   0.026   0.925   9.358  0.2116 -0.4526 -0.8941
 2400SOL    HW218834   0.102   0.851   9.449 -0.7202  1.0673  1.8011
 2401SOL     OW18835   1.705   3.194   0.624 -0.3998  0.3856 -0.1231
 2401SOL    HW118836   1.704   3.099   0.625 -1.3966  0.3754 -3.6541
 2401SOL    HW218837   1.617   3.227   0.643 -1.1973 -1.4277 -0.6630
 2402SOL     OW18838   3.683   2.104   7.919  0.0285 -0.1747  0.3379
 2402SOL    HW118839   3.590   2.088   7.937 -0.0911  0.2069  0.0657
 2402SOL    HW218840   3.694   2.194   7.951  1.6714 -0.3550  0.2799
 2403SOL     OW18841   1.821   1.919   3.107  0.5860  0.1252  0.4363
 2403SOL    HW118842   1.911   1.924   3.076  0.1029 -1.7048 -1.1856
 2403SOL    HW218843   1.828   1.913   3.202 -1.2152 -0.3188  0.5416
 2404SOL     OW18844   3.403   0.907   7.032  0.2147  0.4074 -0.4622
 2404SOL    HW118845   3.455   0.942   7.104 -0.0856  1.0430 -0.5530
 2404SOL    HW218846   3.397   0.992   6.987 -1.3109  1.2623  1.3574
 2405SOL     OW18847   0.621   2.886  11.725 -0.0022  0.4551  0.0376
 2405SOL    HW118848   0.663   2.967  11.697 -1.9844  1.1021 -0.9981
 2405SOL    HW218849   0.699   2.832  11.742  0.5827  2.1931  2.7633
 2406SOL     OW18850   4.654   1.104   3.159 -0.1889 -0.1379 -0.1970
 2406SOL    HW118851   4.655   1.050   3.238 -1.1826  0.5658  0.3129
 2406SOL    HW218852   4.731   1.077   3.110 -1.1741 -1.5409 -0.9989
 2407SOL     OW18853   4.110   0.085   8.992 -0.1835 -0.0811 -0.2301
 2407SOL    HW118854   4.150   0.021   8.933 -3.3244 -2.9713  0.7785
 2407SOL    HW218855   4.031   0.110   8.943 -1.2446  1.0698  2.0923
 2408SOL     OW18856   0.399   4.218   1.017  0.2882 -0.2483  0.3080
 2408SOL    HW118857   0.463   4.287   1.036  0.0683  0.1957 -0.5877
 2408SOL    HW218858   0.345   4.219   1.096  1.0733  1.3436  0.8411
 2409SOL     OW18859   0.344   3.706  11.580  0.3211 -0.2773 -0.1520
 2409SOL    HW118860   0.284   3.777  11.599  0.3199 -0.0758 -0.9192
 2409SOL    HW218861   0.343   3.706  11.484 -2.1606 -1.5503 -0.1062
 2410SOL     OW18862   1.514   0.469   1.636  0.1827 -0.1419  0.2135
 2410SOL    HW118863   1.593   0.430   1.599 -1.2908 -2.9928  0.1230
 2410SOL    HW218864   1.465   0.489   1.556  1.0297  0.1119 -0.2337
 2411SOL     OW18865   2.664   2.221   8.746  0.1914 -0.4611  0.5891
 2411SOL    HW118866   2.619   2.286   8.799  1.8241 -0.8208  2.4312
 2411SOL    HW218867   2.611   2.210   8.667 -0.6167 -0.1150  1.0790
 2412SOL     OW18868   2.957   1.533   6.788  0.1204 -0.6414 -0.6899
 2412SOL    HW118869   3.001   1.569   6.711  0.7890  1.9557  0.9010
 2412SOL    HW218870   2.884   1.593   6.798  1.4213  1.3449 -3.1701
 2413SOL     OW18871   4.323   1.323   0.657 -0.0578  0.5372 -0.3817
 2413SOL    HW118872   4.393   1.385   0.635  0.9813  0.3437  2.3330
 2413SOL    HW218873   4.307   1.270   0.578  0.9603 -1.2401  0.5938
 2414SOL     OW18874   2.815   3.382   9.017 -0.4321  0.2435 -0.2683
 2414SOL    HW118875   2.792   3.294   8.988  3.5748 -1.9056  2.9818
 2414SOL    HW218876   2.751   3.439   8.975 -1.8216 -1.1891 -0.0788
 2415SOL     OW18877   1.992   0.167   2.729 -0.0548  0.2320 -0.0865
 2415SOL    HW118878   1.911   0.199   2.770 -1.1004 -0.8363 -1.3262
 2415SOL    HW218879   2.029   0.243   2.685  1.2774 -0.8229 -0.7659
 2416SOL     OW18880   1.004   2.401   5.830  0.2408 -0.3612 -0.2273
 2416SOL    HW118881   0.918   2.370   5.860  0.8551 -1.9015 -0.0306
 2416SOL    HW218882   1.056   2.321   5.820  1.5965  0.4084  0.8319
 2417SOL     OW18883   1.956   1.453   2.487  0.9463 -0.0603 -0.1151
 2417SOL    HW118884   1.940   1.376   2.433 -0.0882 -0.3537  0.6180
 2417SOL    HW218885   2.007   1.507   2.427 -1.7627  0.9311 -1.5269
 2418SOL     OW18886   1.953   2.905   8.324 -0.6162  0.0301  0.0392
 2418SOL    HW118887   1.943   2.921   8.418  0.7236 -2.7117  0.6587
 2418SOL    HW218888   1.903   2.824   8.313 -1.3880  0.5633 -0.3336
 2419SOL     OW18889   3.139   3.667   2.788 -0.2685 -0.0085 -0.1967
 2419SOL    HW118890   3.112   3.631   2.872 -3.3747 -1.3368 -1.7428
 2419SOL    HW218891   3.216   3.618   2.759  1.0761  1.9340  0.1406
 2420SOL     OW18892   2.880   2.024  10.442 -0.2120  0.1229 -0.3521
 2420SOL    HW118893   2.820   2.084  10.398 -0.0014  0.9325  0.4685
 2420SOL    HW218894   2.815   1.982  10.498  1.2589  0.6587  1.7684
 2421SOL     OW18895   1.023   4.013   6.972 -0.1995  0.5039  0.0380
 2421SOL    HW118896   1.094   4.073   6.993  0.1187 -0.7629  2.5619
 2421SOL    HW218897   1.076   3.934   6.961  1.0203  0.8909  3.3415
 2422SOL     OW18898   4.056   0.927   2.721 -0.3541 -0.1740  0.3977
 2422SOL    HW118899   3.967   0.907   2.690  0.3277 -0.4582 -1.3740
 2422SOL    HW218900   4.050   0.879   2.803 -1.5008  0.6052  0.7615
 2423SOL     OW18901   0.048   0.415   9.408  0.1228  0.2567 -0.0375
 2423SOL    HW118902   0.077   0.451   9.492 -1.1483  0.2000  0.4256
 2423SOL    HW218903   0.084   0.478   9.346 -0.6299  0.5259 -0.2072
 2424SOL     OW18904   2.068   4.727   6.539  0.0523  0.0548 -0.2284
 2424SOL    HW118905   2.018   0.023   6.614  1.4340 -0.1988  0.8095
 2424SOL    HW218906   2.012   4.651   6.521 -0.9316  1.0755 -1.4761
 2425SOL     OW18907   3.614   3.467  17.574 -0.5586  0.2947  0.1285
 2425SOL    HW118908   3.558   3.479  17.497 -1.3032 -0.7736  0.5098
 2425SOL    HW218909   3.574   3.514  17.647  1.0725 -0.5708  1.5789
 2426SOL     OW18910   3.573   1.526   6.271 -0.0199  0.3645  0.5097
 2426SOL    HW118911   3.645   1.558   6.326  0.3638 -2.3852  1.6438
 2426SOL    HW218912   3.496   1.550   6.323 -0.3426  0.1718  0.1206
 2427SOL     OW18913   0.075   4.497   4.725 -0.0431 -0.5542  0.3956
 2427SOL    HW118914   0.084   4.585   4.689 -0.0121 -0.5456  0.4249
 2427SOL    HW218915   0.090   4.521   4.816  1.2232  1.4427 -0.3535
 2428SOL     OW18916   3.705   2.802  11.732 -1.1867 -0.5568  0.5287
 2428SOL    HW118917   3.685   2.709  11.718 -2.8419  0.4776 -3.9728
 2428SOL    HW218918   3.760   2.814  11.810 -1.7936  2.1267  0.5405
 2429SOL     OW18919   2.388   4.136  14.455 -0.7276 -0.0434  0.4047
 2429SOL    HW118920   2.315   4.148  14.516 -0.7471 -2.4926  0.8553
 2429SOL    HW218921   2.339   4.148  14.374  0.8243  0.7079 -0.4310
 2430SOL     OW18922   3.080   2.324   1.754  0.2686 -0.0186  0.2028
 2430SOL    HW118923   3.122   2.396   1.706  2.7478 -1.3749  0.3548
 2430SOL    HW218924   3.044   2.370   1.830  0.5012  1.2525 -0.4457
 2431SOL     OW18925   4.136   2.938   7.930 -0.5181 -0.2634 -0.5461
 2431SOL    HW118926   4.158   2.886   8.008 -2.9536  0.8771  0.8981
 2431SOL    HW218927   4.218   2.933   7.881  1.1444  0.5303  2.1461
 2432SOL     OW18928   1.064   1.324   6.098 -0.1464  0.1612 -0.2864
 2432SOL    HW118929   1.135   1.321   6.163  1.6501  1.0052 -2.1944
 2432SOL    HW218930   1.114   1.327   6.016  1.6813 -0.4497  0.8078
 2433SOL     OW18931   1.893   3.056   0.894 -0.0774  0.0583  0.0746
 2433SOL    HW118932   1.849   3.107   0.962  0.3610  0.6743 -0.0936
 2433SOL    HW218933   1.979   3.098   0.881  0.3756 -0.9650 -0.2177
 2434SOL     OW18934   0.713   3.182   5.177 -0.6491  0.0465 -0.1985
 2434SOL    HW118935   0.776   3.164   5.247 -0.4645  0.9492 -0.1375
 2434SOL    HW218936   0.758   3.246   5.124 -0.0246 -0.4491 -0.2622
 2435SOL     OW18937   4.015   2.242  14.773 -0.0718  0.4278 -0.2886
 2435SOL    HW118938   3.955   2.279  14.838 -1.6971 -0.8481 -1.0635
 2435SOL    HW218939   4.096   2.251  14.824 -0.0000  1.6879 -0.6189
 2436SOL     OW18940   4.592   3.239  12.511  0.1138 -0.0973  0.4600
 2436SOL    HW118941   4.627   3.153  12.533  0.3616  0.6113  2.8757
 2436SOL    HW218942   4.661   3.293  12.471  1.6752 -2.5427 -0.1288
 2437SOL     OW18943   1.748   2.107   4.118  0.6236 -0.0677 -0.2336
 2437SOL    HW118944   1.730   2.063   4.036 -0.9746  1.1489 -0.5286
 2437SOL    HW218945   1.769   2.033   4.175  1.7249  0.2656 -0.1881
 2438SOL     OW18946   2.641   1.473   1.452 -0.1769 -0.3303 -0.2489
 2438SOL    HW118947   2.667   1.383   1.470 -1.3976 -0.3635  1.3437
 2438SOL    HW218948   2.696   1.502   1.379  0.2693  1.6845  0.8734
 2439SOL     OW18949   1.623   1.286   4.203  0.0603 -0.3341  0.6032
 2439SOL    HW118950   1.554   1.269   4.267  0.5081  0.5992  1.3328
 2439SOL    HW218951   1.697   1.270   4.262  0.4156  0.7170  0.4478
 2440SOL     OW18952   1.012   2.939   5.473  0.1599 -0.4956  0.2128
 2440SOL    HW118953   1.101   2.961   5.502 -1.0895  1.4004  2.6544
 2440SOL    HW218954   1.031   2.886   5.395  1.7712 -0.1056  0.3367
 2441SOL     OW18955   2.266   2.796   6.910  0.0975 -0.3195 -0.2152
 2441SOL    HW118956   2.328   2.861   6.944  0.6219 -0.0093 -1.7836
 2441SOL    HW218957   2.315   2.761   6.836 -1.1913 -3.6439  0.5284
 2442SOL     OW18958   1.195   3.764  13.586 -0.5625  0.0907  0.1902
 2442SOL    HW118959   1.105   3.753  13.615 -1.2557  0.1040 -1.9616
 2442SOL    HW218960   1.240   3.704  13.647  0.1282  0.5941  0.1804
 2443SOL     OW18961   1.595   3.082   3.073 -0.0413  0.1491 -0.1356
 2443SOL    HW118962   1.611   3.046   3.160 -2.1599  1.3405  0.7314
 2443SOL    HW218963   1.623   3.172   3.090 -2.4017  0.9534 -0.6083
 2444SOL     OW18964   2.223   3.810  10.258 -0.3776  0.0575  0.4494
 2444SOL    HW118965   2.220   3.820  10.353 -0.6294 -1.5955  0.6236
 2444SOL    HW218966   2.151   3.865  10.228 -1.3717 -0.4551  1.8848
 2445SOL     OW18967   2.063   0.151  15.847  0.4009 -0.3499 -0.4163
 2445SOL    HW118968   2.098   0.114  15.766  4.2330  0.2615  0.9225
 2445SOL    HW218969   2.026   0.078  15.896 -1.7921  1.5239  0.6893
 2446SOL     OW18970   4.440   3.036   9.411 -0.2782 -0.7899 -0.0927
 2446SOL    HW118971   4.409   2.968   9.351  1.4696  0.1433 -2.0356
 2446SOL    HW218972   4.367   3.097   9.413  0.4206  0.0201  0.9539
 2447SOL     OW18973   2.417   2.567  17.421  0.0695 -0.8949 -0.0800
 2447SOL    HW118974   2.343   2.506  17.421  0.2450 -1.1075  0.2126
 2447SOL    HW218975   2.477   2.508  17.375  0.1129 -1.3086  0.5116
 2448SOL     OW18976   0.637   1.645  10.485  0.2035 -0.1727 -0.2410
 2448SOL    HW118977   0.673   1.557  10.473 -0.2614 -0.5942  1.5587
 2448SOL    HW218978   0.640   1.656  10.580 -0.7076 -1.4998 -0.0579
 2449SOL     OW18979   4.604   0.415   5.131 -0.2190  0.0576  0.7959
 2449SOL    HW118980   4.518   0.444   5.102  0.1926  2.5580  2.0551
 2449SOL    HW218981   4.593   0.321   5.145  3.9860 -0.2267  2.4448
 2450SOL     OW18982   0.334   0.930   4.245 -0.0264  0.5988 -0.4561
 2450SOL    HW118983   0.368   0.840   4.244  1.1115  1.0220  0.4938
 2450SOL    HW218984   0.380   0.957   4.325 -3.4029  0.1353  1.6595
 2451SOL     OW18985   3.414   2.063   7.949  0.0511 -0.6053  0.7910
 2451SOL    HW118986   3.434   2.026   8.034 -0.8628 -1.5570  0.5904
 2451SOL    HW218987   3.326   2.030   7.930  0.9222 -2.0682 -0.7225
 2452SOL     OW18988   2.116   2.927   6.489  0.8877 -0.0158 -0.0021
 2452SOL    HW118989   2.110   2.899   6.581  0.5306  2.6743  0.8274
 2452SOL    HW218990   2.052   2.999   6.485  1.1524  0.3492  2.0456
 2453SOL     OW18991   3.884   1.882  13.966 -0.0493  0.4367  0.1965
 2453SOL    HW118992   3.912   1.973  13.964  2.6445 -0.3892  0.4526
 2453SOL    HW218993   3.898   1.854  13.875 -2.5003 -2.2843  0.6403
 2454SOL     OW18994   3.994   1.867   6.300 -0.4765  0.4904  1.1005
 2454SOL    HW118995   3.907   1.904   6.317 -0.7664 -0.4656  1.6775
 2454SOL    HW218996   4.049   1.933   6.342  0.6037 -0.5959  1.3847
 2455SOL     OW18997   4.617   3.385   8.601 -0.0011  0.1955  0.1021
 2455SOL    HW118998   4.633   3.432   8.519  3.2490 -1.2454 -0.0917
 2455SOL    HW218999   4.584   3.302   8.567  1.3099  0.7612 -2.5894
 2456SOL     OW19000   3.678   3.827   7.533  0.4630 -0.0825 -0.0714
 2456SOL    HW119001   3.584   3.828   7.516 -0.0315  0.0685  2.6430
 2456SOL    HW219002   3.708   3.880   7.458 -0.1567  0.3335 -0.0254
 2457SOL     OW19003   0.649   3.302   7.778  0.0337  0.1431  0.0088
 2457SOL    HW119004   0.724   3.266   7.731 -1.0426  1.3031 -2.5451
 2457SOL    HW219005   0.669   3.395   7.780 -0.1387  0.1677  0.8670
 2458SOL     OW19006   1.181   3.342   8.060 -0.0520 -0.0200 -0.0540
 2458SOL    HW119007   1.253   3.281   8.044  0.2596  0.6565 -1.2946
 2458SOL    HW219008   1.169   3.347   8.154 -0.9926  0.3617 -0.1891
 2459SOL     OW19009   4.459   1.259   6.983 -0.3650  0.0024  0.0126
 2459SOL    HW119010   4.431   1.168   6.987 -0.7524  0.2373  2.5707
 2459SOL    HW219011   4.383   1.300   6.941 -1.0149 -1.3087 -0.0744
 2460SOL     OW19012   4.078   0.746  11.877 -0.7228 -0.3001 -0.6601
 2460SOL    HW119013   4.163   0.744  11.921 -1.8168 -0.1143  1.4165
 2460SOL    HW219014   4.024   0.678  11.915  0.0449 -0.6758 -0.2535
 2461SOL     OW19015   0.542   1.780   7.280  0.4323 -0.0289 -0.1334
 2461SOL    HW119016   0.461   1.793   7.231  0.3202 -0.3738 -0.0419
 2461SOL    HW219017   0.566   1.867   7.312  0.2499 -0.7031  1.8145
 2462SOL     OW19018   0.865   3.567  11.077 -0.4959  0.4097 -0.1839
 2462SOL    HW119019   0.895   3.623  11.148 -1.3076 -1.7764  1.8987
 2462SOL    HW219020   0.899   3.610  10.998  0.2170 -0.7050 -0.5035
 2463SOL     OW19021   4.275   3.740   5.269 -0.6727  0.1781  0.4797
 2463SOL    HW119022   4.227   3.784   5.339  0.1165 -1.0510  1.8197
 2463SOL    HW219023   4.248   3.793   5.195 -0.4223  0.7149  0.7751
 2464SOL     OW19024   4.432   2.662  11.384 -0.4543  0.0689 -0.0527
 2464SOL    HW119025   4.399   2.609  11.457  2.3388  1.3436  2.1418
 2464SOL    HW219026   4.527   2.669  11.387 -0.1836 -3.3080  0.0860
 2465SOL     OW19027   4.180   1.049  13.707  0.6058  0.5959  0.4686
 2465SOL    HW119028   4.157   1.120  13.646  1.2171 -1.4700 -2.1655
 2465SOL    HW219029   4.203   1.108  13.779  1.4986  0.9888 -0.1325
 2466SOL     OW19030   0.483   0.842   2.751 -0.3947  0.2637  0.8621
 2466SOL    HW119031   0.484   0.898   2.673 -0.4718  0.5873  1.0935
 2466SOL    HW219032   0.408   0.868   2.805 -0.3255  1.4315  0.3994
 2467SOL     OW19033   0.161   4.572   2.467  0.2398 -0.4231 -0.5528
 2467SOL    HW119034   0.090   4.533   2.417 -0.2612 -1.4643  0.9704
 2467SOL    HW219035   0.139   4.664   2.454  1.0106 -0.2515 -0.6589
 2468SOL     OW19036   0.823   2.483  11.934 -0.5084  0.0245  0.0775
 2468SOL    HW119037   0.869   2.412  11.889  0.0874  0.4035  0.0907
 2468SOL    HW219038   0.782   2.424  11.997 -0.0396 -0.8867 -0.4631
 2469SOL     OW19039   3.322   1.130   3.449 -0.8795  0.2552 -0.1961
 2469SOL    HW119040   3.279   1.076   3.516  0.8884 -1.5068 -0.4664
 2469SOL    HW219041   3.255   1.137   3.381  0.5462  0.6905 -1.5618
 2470SOL     OW19042   0.200   3.231  10.468 -0.1823 -0.1514 -0.1219
 2470SOL    HW119043   0.295   3.225  10.460  0.0705  1.3075  1.7467
 2470SOL    HW219044   0.196   3.318  10.429 -2.4119  0.4119  1.3387
 2471SOL     OW19045   1.467   1.749   2.856 -0.0499 -0.0358 -0.2161
 2471SOL    HW119046   1.500   1.660   2.840  0.9924  0.4912 -0.9445
 2471SOL    HW219047   1.547   1.789   2.888 -1.0511  0.0592  2.1842
 2472SOL     OW19048   2.425   2.237  16.032 -0.4904 -0.4276  0.1218
 2472SOL    HW119049   2.424   2.144  16.011 -1.3690 -0.4542  0.3040
 2472SOL    HW219050   2.390   2.272  15.950 -1.1478 -0.2332  0.4832
 2473SOL     OW19051   1.607   3.568   2.628 -0.6296 -0.4786  0.3239
 2473SOL    HW119052   1.535   3.631   2.634 -0.0998  0.3450 -1.8526
 2473SOL    HW219053   1.591   3.510   2.702 -0.4661 -2.0717 -0.8925
 2474SOL     OW19054   4.386   0.427   2.048 -0.3364 -0.5645  0.1092
 2474SOL    HW119055   4.295   0.429   2.020 -0.2107 -0.8276 -0.3089
 2474SOL    HW219056   4.430   0.403   1.967 -1.8191  0.4548 -0.9934
 2475SOL     OW19057   1.690   0.460   4.971 -0.1006 -0.6527 -0.3801
 2475SOL    HW119058   1.603   0.496   4.954  1.3756  2.5032 -1.3058
 2475SOL    HW219059   1.708   0.408   4.893 -0.0252 -0.2044 -0.6657
 2476SOL     OW19060   0.583   3.242   0.930 -0.5810  0.6055 -0.1281
 2476SOL    HW119061   0.547   3.156   0.952 -0.8599  1.0162  0.9846
 2476SOL    HW219062   0.580   3.286   1.015  2.2779  2.7530 -1.1376
 2477SOL     OW19063   0.881   0.613   4.584 -0.2555 -0.1238 -0.2339
 2477SOL    HW119064   0.955   0.623   4.643 -1.2214  2.8780  0.4594
 2477SOL    HW219065   0.813   0.663   4.630  0.3487 -0.6604  1.2583
 2478SOL     OW19066   1.986   4.164   9.397  0.7098 -0.0579  0.1106
 2478SOL    HW119067   1.985   4.099   9.466  1.4193  0.7140  0.8426
 2478SOL    HW219068   2.010   4.106   9.324 -0.4371 -1.0637  0.5282
 2479SOL     OW19069   4.325   0.140   1.894  0.0561  0.1935 -0.0332
 2479SOL    HW119070   4.258   0.098   1.840 -0.2028 -0.5637  0.8933
 2479SOL    HW219071   4.371   0.200   1.835  1.1933 -2.0274 -1.3921
 2480SOL     OW19072   2.192   2.844   3.255 -0.0060 -0.5680  0.3396
 2480SOL    HW119073   2.147   2.808   3.332  2.0197 -1.0290  1.2971
 2480SOL    HW219074   2.109   2.847   3.208  0.6488  0.6599 -0.7129
 2481SOL     OW19075   0.197   1.979   9.286 -0.2460  0.6699  0.0260
 2481SOL    HW119076   0.108   1.960   9.258  0.8235 -1.8999 -1.5452
 2481SOL    HW219077   0.188   2.047   9.353 -0.8522  0.3016  0.3178
 2482SOL     OW19078   1.877   1.259   0.231 -0.2978 -0.2435  0.1965
 2482SOL    HW119079   1.803   1.317   0.247 -1.0605 -1.4462  0.9817
 2482SOL    HW219080   1.915   1.243   0.317  1.5846  0.2822 -0.5133
 2483SOL     OW19081   2.955   0.563   5.564  0.5673  0.3514 -0.3288
 2483SOL    HW119082   3.022   0.552   5.632 -1.6758  0.6710  1.9406
 2483SOL    HW219083   3.000   0.599   5.487 -0.1841  1.3165 -0.3001
 2484SOL     OW19084   3.358   4.237   9.210 -0.4318 -0.4446  0.8767
 2484SOL    HW119085   3.440   4.192   9.233  0.6427  0.9494 -0.1757
 2484SOL    HW219086   3.299   4.186   9.265  0.1188 -2.6171 -0.5611
 2485SOL     OW19087   0.952   2.231   4.448  0.6064  0.1055  0.7047
 2485SOL    HW119088   1.015   2.161   4.465  0.3496 -0.1655  0.5531
 2485SOL    HW219089   0.949   2.242   4.353 -2.8657 -1.4074  0.6271
 2486SOL     OW19090   0.979   4.524   9.379  0.2607  0.4128 -0.7142
 2486SOL    HW119091   0.982   4.620   9.381  0.6402  0.3741  0.6503
 2486SOL    HW219092   0.951   4.513   9.288 -0.2891  1.6391 -0.6944
 2487SOL     OW19093   1.916   4.409   5.712  0.6319  0.3237  0.5185
 2487SOL    HW119094   1.998   4.455   5.727 -0.3794  2.2507  0.1851
 2487SOL    HW219095   1.936   4.335   5.655 -1.1777 -0.2737  0.6273
 2488SOL     OW19096   1.848   3.688   8.477 -0.4655  0.1208  0.4622
 2488SOL    HW119097   1.857   3.779   8.448 -0.0748 -0.4343 -1.1577
 2488SOL    HW219098   1.894   3.703   8.560 -0.2927  0.3856  0.3180
 2489SOL     OW19099   4.019   0.700   4.244  0.3681 -0.7172  0.3360
 2489SOL    HW119100   3.925   0.713   4.240  0.4917 -0.4413 -1.7160
 2489SOL    HW219101   4.043   0.730   4.156 -0.5807  0.0499  0.3376
 2490SOL     OW19102   2.159   2.119  17.286  0.5285 -0.0890  0.0477
 2490SOL    HW119103   2.131   2.065  17.360 -1.7565  2.1760  0.8260
 2490SOL    HW219104   2.187   2.045  17.232 -0.2131  1.5659 -2.6051
 2491SOL     OW19105   2.400   3.681  16.959 -0.4643  0.5337  0.3158
 2491SOL    HW119106   2.478   3.674  17.014 -0.8482 -0.3639  0.7417
 2491SOL    HW219107   2.401   3.771  16.926  3.5519  0.6241  0.6437
 2492SOL     OW19108   2.671   1.467  17.107  0.1996  0.3954 -0.2127
 2492SOL    HW119109   2.603   1.513  17.059 -0.1646  0.0597 -0.0217
 2492SOL    HW219110   2.629   1.384  17.131  1.4276 -0.1007  0.1996
 2493SOL     OW19111   3.091   0.728   6.504  0.3152 -0.3504  0.5305
 2493SOL    HW119112   3.165   0.727   6.566 -0.3757  1.3833  1.3649
 2493SOL    HW219113   3.037   0.653   6.530 -0.2796  0.6002  2.0379
 2494SOL     OW19114   2.228   1.860  17.203 -0.2983 -0.4253  0.5776
 2494SOL    HW119115   2.296   1.793  17.214  0.2998  0.3170  1.3759
 2494SOL    HW219116   2.182   1.824  17.127 -1.3910  1.9062  0.1493
 2495SOL     OW19117   4.411   4.031   9.654  0.2517  0.7030 -0.0766
 2495SOL    HW119118   4.321   4.063   9.649  0.3244  1.2782  2.3656
 2495SOL    HW219119   4.406   3.942   9.620  0.0698  1.1845 -1.3117
 2496SOL     OW19120   0.780   0.646   7.343  0.7173  0.1481  0.2512
 2496SOL    HW119121   0.782   0.695   7.425  1.9673 -1.3047  1.0841
 2496SOL    HW219122   0.748   0.710   7.279  3.7766  0.3500 -1.0880
 2497SOL     OW19123   3.440   2.376   6.370 -0.2777  0.3786  0.4746
 2497SOL    HW119124   3.485   2.358   6.453 -0.9148  1.2136  1.0079
 2497SOL    HW219125   3.469   2.463   6.342  3.1381 -1.8956 -2.9204
 2498SOL     OW19126   4.729   0.426   3.080 -0.4465 -0.3498  0.4989
 2498SOL    HW119127   4.707   0.475   3.001  2.8923 -0.1596 -0.3015
 2498SOL    HW219128   4.729   0.490   3.151 -0.2709  0.8927 -0.6237
 2499SOL     OW19129   3.157   1.148   5.108 -0.7623  0.2325 -0.6764
 2499SOL    HW119130   3.137   1.190   5.192 -2.4166  0.1871 -1.0397
 2499SOL    HW219131   3.075   1.102   5.087 -1.3958  1.3912 -0.7257
 2500SOL     OW19132   3.395   2.428   0.877  0.2281  0.0354  0.0246
 2500SOL    HW119133   3.417   2.336   0.861 -0.4608 -0.2280  0.5643
 2500SOL    HW219134   3.468   2.469   0.831 -1.2271  0.8798 -1.4844
 2501SOL     OW19135   0.727   1.003   6.523  1.1257  0.2887  0.1218
 2501SOL    HW119136   0.686   1.027   6.440  0.4691 -2.7766 -0.4433
 2501SOL    HW219137   0.797   1.068   6.530  1.9739 -0.4694 -1.3934
 2502SOL     OW19138   0.946   1.653   8.958 -0.1650  0.3048  0.1758
 2502SOL    HW119139   0.861   1.645   8.915 -1.4629  1.5324  2.5010
 2502SOL    HW219140   0.925   1.666   9.051 -2.5474  0.6674 -0.3989
 2503SOL     OW19141   2.476   2.053   3.247  0.1573 -0.0272 -0.1831
 2503SOL    HW119142   2.502   2.088   3.333  0.4573  0.4769 -0.4783
 2503SOL    HW219143   2.408   1.993   3.276 -0.5696  0.5985 -0.6013
 2504SOL     OW19144   2.671   0.251   9.127  0.2618 -0.8049  0.2698
 2504SOL    HW119145   2.576   0.253   9.139  0.1601  0.6120 -0.7831
 2504SOL    HW219146   2.681   0.208   9.042 -5.0088  0.4967 -1.0289
 2505SOL     OW19147   0.385   4.588   4.042 -0.8213 -0.2395  0.1704
 2505SOL    HW119148   0.352   4.535   4.115  0.0596  0.1590  0.8682
 2505SOL    HW219149   0.329   4.544   3.978 -0.9003 -2.7095  1.9228
 2506SOL     OW19150   3.951   1.119   0.874 -0.6895  0.4089 -0.5117
 2506SOL    HW119151   3.948   1.203   0.919  2.2338 -1.2398  2.6956
 2506SOL    HW219152   4.020   1.074   0.923  0.4111  1.0922 -1.4118
 2507SOL     OW19153   3.934   2.378  16.732 -0.3463  0.3819 -0.3690
 2507SOL    HW119154   3.884   2.308  16.774  0.8685  0.5612  1.3735
 2507SOL    HW219155   3.868   2.446  16.728 -0.3701  0.3912  0.3340
 2508SOL     OW19156   4.640   1.734   5.061  0.8814 -0.5750 -0.3267
 2508SOL    HW119157   4.576   1.665   5.043  1.2633 -0.9611 -0.2004
 2508SOL    HW219158   4.708   1.686   5.108 -1.5219 -1.1506  2.5050
 2509SOL     OW19159   3.657   2.084  11.779  0.6505  0.1338 -0.0093
 2509SOL    HW119160   3.616   1.997  11.775 -0.2499  0.5503  0.2815
 2509SOL    HW219161   3.595   2.143  11.821 -0.1155  0.1851 -1.1998
 2510SOL     OW19162   2.284   1.115   4.206 -0.1674 -0.0248 -0.0639
 2510SOL    HW119163   2.327   1.184   4.155 -1.4751  0.9096  0.0989
 2510SOL    HW219164   2.347   1.043   4.202 -0.6058 -0.4094 -0.0735
 2511SOL     OW19165   1.343   0.989  12.538 -0.3345  0.8479  0.0648
 2511SOL    HW119166   1.390   1.038  12.606  0.2134  1.5634 -0.8380
 2511SOL    HW219167   1.405   0.916  12.527  0.2663  1.0561  2.0642
 2512SOL     OW19168   4.692   2.708   7.040 -0.3026  0.2260  0.4463
 2512SOL    HW119169   4.608   2.663   7.036  0.6034 -1.3982 -0.0582
 2512SOL    HW219170   4.684   2.769   6.967  1.0570 -0.5417 -0.3481
 2513SOL     OW19171   0.918   3.324   7.945  0.0581  0.1688  0.2681
 2513SOL    HW119172   0.863   3.255   7.982  0.3159  0.2413  0.7830
 2513SOL    HW219173   1.004   3.310   7.986 -0.2911 -0.1492  0.8885
 2514SOL     OW19174   0.787   2.548   2.412  0.5117  0.3182  0.4724
 2514SOL    HW119175   0.869   2.596   2.419  0.5431  0.2964  0.2688
 2514SOL    HW219176   0.726   2.609   2.452  1.5786  1.5182  0.2534
 2515SOL     OW19177   3.924   3.787   6.918 -0.2872 -0.5885 -0.0821
 2515SOL    HW119178   3.980   3.737   6.859  0.3708 -0.1366  0.1591
 2515SOL    HW219179   3.842   3.785   6.867  0.1148 -1.0411 -0.7109
 2516SOL     OW19180   0.227   3.145   2.155  0.2417 -0.2779  0.0879
 2516SOL    HW119181   0.194   3.056   2.151 -0.7375  0.0517  0.8617
 2516SOL    HW219182   0.168   3.186   2.092  1.0354  0.2883 -0.2827
 2517SOL     OW19183   3.438   0.718  11.073 -0.4891  0.1532 -0.0189
 2517SOL    HW119184   3.361   0.680  11.033 -1.2013  1.3194  0.2423
 2517SOL    HW219185   3.504   0.649  11.081  1.6081  1.8764 -2.7206
 2518SOL     OW19186   3.496   3.089  15.657 -0.3079  0.5680  0.1207
 2518SOL    HW119187   3.548   3.139  15.593 -0.2992 -2.5477 -2.3090
 2518SOL    HW219188   3.408   3.097  15.622  0.0877  2.0948 -0.5256
 2519SOL     OW19189   1.127   2.374   4.597  0.5463  0.2128  0.1120
 2519SOL    HW119190   1.153   2.407   4.511 -1.2137  0.8709 -0.1613
 2519SOL    HW219191   1.055   2.318   4.570  2.1618 -2.4412  1.2588
 2520SOL     OW19192   4.550   1.331   2.445  0.1360  0.0309 -0.0868
 2520SOL    HW119193   4.599   1.249   2.449 -0.1276 -0.0709  0.8688
 2520SOL    HW219194   4.597   1.366   2.369 -0.2589  3.7852  1.3885
 2521SOL     OW19195   2.822   3.837  10.030  0.5255  0.2230 -0.3816
 2521SOL    HW119196   2.756   3.773  10.004 -0.1302  0.8359 -0.2222
 2521SOL    HW219197   2.826   3.895   9.954 -1.2483 -0.6459 -1.1508
 2522SOL     OW19198   4.613   2.783  14.656 -0.8045 -0.1632  0.0180
 2522SOL    HW119199   4.684   2.812  14.713 -0.8278 -0.1225  0.0259
 2522SOL    HW219200   4.659   2.701  14.638  0.3592  0.4160  0.3554
 2523SOL     OW19201   4.558   1.820   8.598 -0.2413 -0.6932  1.1391
 2523SOL    HW119202   4.554   1.916   8.592 -1.5846 -0.6615  2.5599
 2523SOL    HW219203   4.486   1.794   8.542 -0.5045  1.2968  0.5463
 2524SOL     OW19204   1.656   0.426   1.316 -0.0455  0.3399  0.4675
 2524SOL    HW119205   1.723   0.492   1.334  1.7967 -1.8175  1.4599
 2524SOL    HW219206   1.718   0.360   1.286 -2.6862 -1.6215 -0.6642
 2525SOL     OW19207   2.693   2.353   9.604  0.5736  0.4697  0.4788
 2525SOL    HW119208   2.731   2.265   9.615  2.5017  0.8655 -2.8712
 2525SOL    HW219209   2.645   2.363   9.685  0.4521 -0.7443  0.5677
 2526SOL     OW19210   4.251   0.971  17.475  0.4344 -0.1949  0.2365
 2526SOL    HW119211   4.272   1.053  17.429 -0.5868 -0.0588  0.0029
 2526SOL    HW219212   4.248   0.910  17.402 -4.3581  0.8261 -0.4020
 2527SOL     OW19213   4.401   0.284   5.349  0.1976  0.7538 -0.2449
 2527SOL    HW119214   4.467   0.266   5.416 -0.6801  1.2599  0.7592
 2527SOL    HW219215   4.386   0.378   5.359  0.0169  0.8177 -1.1310
 2528SOL     OW19216   0.145   0.046   5.487 -0.4599  0.0066  0.8075
 2528SOL    HW119217   0.218   0.033   5.547 -1.2635  1.5372  2.1212
 2528SOL    HW219218   0.079   0.035   5.555 -1.3189  1.0037  0.1283
 2529SOL     OW19219   3.172   2.165   8.131 -0.7672  0.1329 -0.7907
 2529SOL    HW119220   3.145   2.119   8.211  1.9843  2.0243  1.2463
 2529SOL    HW219221   3.193   2.093   8.072 -0.5744 -1.7186  1.5589
 2530SOL     OW19222   2.567   4.279   9.052 -0.2431 -0.5685  0.2463
 2530SOL    HW119223   2.585   4.373   9.055 -0.3224 -0.5074 -1.1406
 2530SOL    HW219224   2.574   4.254   8.960 -0.3570  0.8058 -0.1378
 2531SOL     OW19225   0.432   2.131  13.612 -0.3940  0.0113  0.4001
 2531SOL    HW119226   0.408   2.214  13.653 -1.9508  1.0103 -2.5060
 2531SOL    HW219227   0.521   2.121  13.644  0.2199  1.8615 -0.6958
 2532SOL     OW19228   2.842   2.942  14.156 -0.4709 -0.2061  0.4263
 2532SOL    HW119229   2.750   2.955  14.136 -0.7162  0.9625  2.3144
 2532SOL    HW219230   2.836   2.910  14.246  3.0926 -1.7746  0.1141
 2533SOL     OW19231   0.691   1.441   9.864  0.0485  0.0493  0.0373
 2533SOL    HW119232   0.766   1.382   9.853  0.7997  0.9101  0.6165
 2533SOL    HW219233   0.703   1.482   9.949 -0.6179  0.6973 -0.1825
 2534SOL     OW19234   3.174   0.484   8.461 -0.1395  0.2524 -0.0370
 2534SOL    HW119235   3.167   0.573   8.495  0.8448  1.4549 -2.9748
 2534SOL    HW219236   3.090   0.475   8.417  0.0438  0.7230 -0.4927
 2535SOL     OW19237   3.214   2.572   2.683 -0.0373 -0.4482 -0.2344
 2535SOL    HW119238   3.225   2.608   2.595 -0.6821  0.8146  0.2089
 2535SOL    HW219239   3.159   2.641   2.720 -0.9420 -1.4346  0.2336
 2536SOL     OW19240   3.509   1.364   5.249 -0.0893 -0.5622  0.1060
 2536SOL    HW119241   3.487   1.408   5.167  3.6908  0.7063 -0.2478
 2536SOL    HW219242   3.483   1.273   5.232 -0.5577 -0.2833 -0.6923
 2537SOL     OW19243   0.276   0.415   1.917  0.0890 -0.3576  0.7011
 2537SOL    HW119244   0.192   0.455   1.893  0.8770  0.6769 -0.3192
 2537SOL    HW219245   0.252   0.370   1.998 -0.9554 -3.3843 -1.3015
 2538SOL     OW19246   0.394   1.960   4.679  0.4261 -0.0673  0.2364
 2538SOL    HW119247   0.405   1.868   4.653 -0.2607 -0.6808  2.0591
 2538SOL    HW219248   0.404   1.998   4.593  2.7258 -0.4648  0.3250
 2539SOL     OW19249   4.714   2.169  17.499  0.2258 -0.1803 -0.4685
 2539SOL    HW119250   0.047   2.108  17.474 -0.0848 -0.1557 -1.4054
 2539SOL    HW219251   4.698   2.127  17.583  0.1858 -0.1092 -0.4411
 2540SOL     OW19252   3.612   1.199   0.532 -0.0328  0.8266  0.0607
 2540SOL    HW119253   3.617   1.196   0.627  1.5533  1.0649 -0.0243
 2540SOL    HW219254   3.571   1.284   0.517  0.2700  0.9643  0.0238
 2541SOL     OW19255   3.087   3.187  17.180  0.0558 -0.0483 -0.5888
 2541SOL    HW119256   3.019   3.193  17.246 -1.4358  3.1091 -2.3972
 2541SOL    HW219257   3.055   3.260  17.128 -0.0189  0.7664  0.6109
 2542SOL     OW19258   0.051   3.279   3.846 -0.6670 -0.0265 -0.3275
 2542SOL    HW119259   0.107   3.202   3.838  0.6144  1.0467 -1.5836
 2542SOL    HW219260   0.031   3.308   3.757 -0.7942 -0.4396 -0.4322
 2543SOL     OW19261   2.914   0.521   6.624 -0.1495  0.1625  0.1756
 2543SOL    HW119262   2.914   0.573   6.705  0.3969  1.0474 -0.3970
 2543SOL    HW219263   2.820   0.510   6.614 -0.0063  0.3358 -1.2702
 2544SOL     OW19264   1.671   1.103   1.818  0.5142 -0.7522 -0.7160
 2544SOL    HW119265   1.630   1.022   1.847  0.0431 -1.1758 -2.5760
 2544SOL    HW219266   1.601   1.137   1.762  1.2648  2.7614  0.4636
 2545SOL     OW19267   0.964   3.816   5.293  0.0064  0.0652 -0.5216
 2545SOL    HW119268   1.033   3.754   5.316 -0.1090  0.5669  1.1582
 2545SOL    HW219269   1.004   3.860   5.218 -0.2995  0.0330 -0.7007
 2546SOL     OW19270   0.242   1.267   9.375 -0.0561 -0.2005  0.0974
 2546SOL    HW119271   0.312   1.276   9.310  2.0677 -3.3025  1.9643
 2546SOL    HW219272   0.294   1.221   9.441  3.0536  4.9051  1.1993
 2547SOL     OW19273   4.094   1.629   5.589  0.0554 -0.0039 -0.1791
 2547SOL    HW119274   4.143   1.560   5.544  1.0519  0.3761  0.3095
 2547SOL    HW219275   4.089   1.692   5.517 -0.7486 -2.2271 -2.0709
 2548SOL     OW19276   1.753   1.275   8.906  0.2521 -0.2207 -0.4359
 2548SOL    HW119277   1.794   1.237   8.984  1.7265 -0.6870 -1.4446
 2548SOL    HW219278   1.706   1.352   8.940 -0.5522 -1.3911  1.0875
 2549SOL     OW19279   4.233   3.168   8.570 -0.5045 -0.2706  0.0010
 2549SOL    HW119280   4.325   3.143   8.581  0.1667  2.0494 -0.2245
 2549SOL    HW219281   4.232   3.222   8.649  1.6835  0.0553 -0.1941
 2550SOL     OW19282   0.257   1.080   7.292  0.2029 -0.1830 -0.6810
 2550SOL    HW119283   0.237   1.155   7.236  1.0376  0.1189 -0.5875
 2550SOL    HW219284   0.352   1.076   7.301  0.2813 -2.4965 -2.3903
 2551SOL     OW19285   4.406   1.311   5.729  0.6235  0.2673  0.1016
 2551SOL    HW119286   4.484   1.271   5.691 -0.0186  2.0659 -3.1629
 2551SOL    HW219287   4.435   1.402   5.741  0.4152  0.6148 -1.9355
 2552SOL     OW19288   4.693   0.322   2.279 -1.1459 -1.2094 -0.2550
 2552SOL    HW119289   4.706   0.229   2.297  0.8282 -1.0962 -1.1392
 2552SOL    HW219290   4.635   0.356   2.347 -1.2710 -1.6709 -0.1313
 2553SOL     OW19291   1.497   4.098   8.354 -0.1370  0.3684  0.0066
 2553SOL    HW119292   1.442   4.065   8.283  0.9503  1.4221 -1.3432
 2553SOL    HW219293   1.586   4.075   8.326  0.0911 -0.5583  1.5184
 2554SOL     OW19294   2.240   2.346  11.247 -0.3361 -0.2385 -0.6863
 2554SOL    HW119295   2.258   2.424  11.195 -1.2006 -0.9069 -1.9960
 2554SOL    HW219296   2.150   2.371  11.265 -0.1143 -1.0018  1.3899
 2555SOL     OW19297   4.648   1.012   3.896 -0.2583  0.8758 -0.0093
 2555SOL    HW119298   4.675   0.932   3.852 -1.9287 -0.1205  0.7696
 2555SOL    HW219299   4.596   1.043   3.822  0.8409 -2.1348 -2.0116
 2556SOL     OW19300   2.176   1.969   1.774 -0.6790 -0.3549 -0.1364
 2556SOL    HW119301   2.128   1.944   1.696  1.0913 -2.5903 -0.5039
 2556SOL    HW219302   2.249   1.908   1.767  0.5294  1.0031  0.6226
 2557SOL     OW19303   2.395   3.420   2.994 -0.0259  0.4924 -0.1888
 2557SOL    HW119304   2.414   3.404   3.086  1.2339 -0.0558 -0.5493
 2557SOL    HW219305   2.336   3.496   2.996 -0.9844 -0.2860  1.6455
 2558SOL     OW19306   2.056   2.743  16.687 -0.4370  0.6414 -0.1187
 2558SOL    HW119307   2.146   2.773  16.680 -0.0200 -0.5651  0.0805
 2558SOL    HW219308   2.016   2.822  16.649 -0.5697  0.5831 -0.0991
 2559SOL     OW19309   0.550   1.786  16.554  0.3680  0.1372 -0.5997
 2559SOL    HW119310   0.514   1.712  16.603  1.3816  0.9300  1.3478
 2559SOL    HW219311   0.536   1.855  16.619 -0.0711 -1.2420  0.7648
 2560SOL     OW19312   0.778   2.146   8.168 -0.2322  0.3398 -0.6101
 2560SOL    HW119313   0.715   2.163   8.238  0.1270  0.1227 -0.2326
 2560SOL    HW219314   0.716   2.126   8.097  0.0641  0.4825 -0.9107
 2561SOL     OW19315   1.948   0.764   8.815  0.1313 -0.1402  0.5533
 2561SOL    HW119316   1.946   0.742   8.722  3.3251 -0.4113  0.5392
 2561SOL    HW219317   2.037   0.798   8.827  0.5228 -0.1875 -2.3013
 2562SOL     OW19318   4.295   3.262   5.235  0.3679  0.3885 -0.0082
 2562SOL    HW119319   4.261   3.336   5.284 -0.9498 -0.5006  0.4314
 2562SOL    HW219320   4.257   3.270   5.147 -0.0372  3.3948  0.4633
 2563SOL     OW19321   0.373   3.716   8.854 -0.1239  0.3654  0.7175
 2563SOL    HW119322   0.325   3.796   8.876  0.1446  0.6748  0.1782
 2563SOL    HW219323   0.394   3.682   8.941  1.8980  1.7286  0.7622
 2564SOL     OW19324   3.032   0.797   9.326  0.4486 -0.0868  0.2799
 2564SOL    HW119325   2.950   0.796   9.375  1.7799 -1.8765  2.4517
 2564SOL    HW219326   3.069   0.879   9.360  1.0951 -1.2070  2.2500
 2565SOL     OW19327   4.093   4.123   8.695  0.3590  0.0077  0.2683
 2565SOL    HW119328   4.110   4.093   8.605  0.9510 -0.8007  0.6566
 2565SOL    HW219329   4.055   4.208   8.673  2.6889  1.1158  0.4717
 2566SOL     OW19330   2.070   3.268   2.256  0.7815  0.3524  0.0286
 2566SOL    HW119331   2.141   3.204   2.257  1.0944  0.7626  2.9623
 2566SOL    HW219332   2.069   3.293   2.163 -0.5471  0.2958  0.0231
 2567SOL     OW19333   0.211   1.903  13.287  0.1583 -0.0970  0.6698
 2567SOL    HW119334   0.300   1.906  13.252 -0.3388  1.1330 -0.4792
 2567SOL    HW219335   0.215   1.985  13.335  1.1281 -0.6888  1.6088
 2568SOL     OW19336   2.831   3.587  12.216 -0.1029  0.0683  0.0118
 2568SOL    HW119337   2.816   3.679  12.235  0.4531 -0.3220  2.3372
 2568SOL    HW219338   2.926   3.586  12.211 -0.1943 -1.5544 -1.5471
 2569SOL     OW19339   3.271   4.378   3.945  0.0475  0.3169  0.0669
 2569SOL    HW119340   3.300   4.315   3.879  0.5252  0.6532 -0.0403
 2569SOL    HW219341   3.224   4.320   4.005  1.9731 -0.5528  0.7309
 2570SOL     OW19342   0.702   2.295   3.779  0.1462 -0.4421  0.4310
 2570SOL    HW119343   0.791   2.263   3.786  0.5304 -0.1772 -3.1348
 2570SOL    HW219344   0.708   2.326   3.689 -1.8822 -1.2918 -0.0039
 2571SOL     OW19345   2.454   1.280   4.095  0.3001 -0.0236 -0.3982
 2571SOL    HW119346   2.534   1.235   4.067  1.3616  0.5283  1.7493
 2571SOL    HW219347   2.476   1.369   4.071 -0.3950 -0.0071 -0.9733
 2572SOL     OW19348   4.134   1.063   7.133 -0.3439  0.5218  0.7940
 2572SOL    HW119349   4.202   1.033   7.073 -1.1890 -2.1156  1.1448
 2572SOL    HW219350   4.098   0.979   7.163 -0.1811  0.3146  0.4106
 2573SOL     OW19351   1.058   1.461   8.490 -0.0228 -0.0897  0.0313
 2573SOL    HW119352   1.093   1.549   8.502  0.2205 -0.2746  0.6898
 2573SOL    HW219353   0.982   1.485   8.437 -0.2248 -0.7181  0.0319
 2574SOL     OW19354   0.442   1.507  16.991  0.0077  0.2190  1.1496
 2574SOL    HW119355   0.495   1.553  16.926  0.1469 -0.4936  0.7516
 2574SOL    HW219356   0.358   1.550  16.977 -0.1736 -0.0679  1.3683
 2575SOL     OW19357   4.225   1.326   3.989  0.1651 -0.9713  0.1615
 2575SOL    HW119358   4.131   1.339   3.984  0.2810 -0.0195  0.3947
 2575SOL    HW219359   4.234   1.311   4.084  0.2921 -2.2101 -0.0463
 2576SOL     OW19360   3.934   2.776   0.040 -0.4035  0.2146 -0.0587
 2576SOL    HW119361   3.898   2.864   0.042 -1.5648 -0.2444 -0.9268
 2576SOL    HW219362   3.975   2.773  17.700 -1.6857  0.0020 -0.6568
 2577SOL     OW19363   1.698   3.534   4.695  0.5591  0.0875  0.5624
 2577SOL    HW119364   1.714   3.623   4.727 -0.8384  0.1225  1.1313
 2577SOL    HW219365   1.696   3.556   4.602  1.0968  0.7827  0.7144
 2578SOL     OW19366   4.380   0.424   4.977  0.3432 -0.4635 -0.0589
 2578SOL    HW119367   4.302   0.372   4.998  0.2932 -0.9840 -1.5554
 2578SOL    HW219368   4.388   0.380   4.893  0.9483  1.7600 -1.1627
 2579SOL     OW19369   0.277   1.001   1.450 -0.9990  0.4523 -0.9935
 2579SOL    HW119370   0.325   0.927   1.413  0.5053  1.1593 -0.4398
 2579SOL    HW219371   0.318   1.073   1.401  2.2059 -1.8895 -1.7243
 2580SOL     OW19372   2.564   2.816   5.933 -0.0778 -0.3215 -0.1794
 2580SOL    HW119373   2.543   2.723   5.920  1.8072 -0.5403 -1.6097
 2580SOL    HW219374   2.654   2.802   5.903  0.0953  0.7943 -0.1949
 2581SOL     OW19375   1.223   1.275  10.505 -0.1520 -0.2746 -0.1906
 2581SOL    HW119376   1.310   1.307  10.527 -0.1836  0.1343 -0.6347
 2581SOL    HW219377   1.232   1.209  10.436  0.4260  0.2406 -0.6133
 2582SOL     OW19378   3.986   3.913   1.999  0.7175 -0.5557  0.1649
 2582SOL    HW119379   3.944   3.993   1.967 -0.3999 -0.7268  1.2281
 2582SOL    HW219380   3.969   3.922   2.093 -0.1397 -1.2446  0.0666
 2583SOL     OW19381   3.070   0.745   5.049  0.3948 -0.3801 -0.0851
 2583SOL    HW119382   3.073   0.737   5.144 -1.0024  4.0776  0.3569
 2583SOL    HW219383   3.016   0.824   5.050 -0.6196 -1.0816  0.7983
 2584SOL     OW19384   4.467   3.298   1.552 -0.2144 -0.2865  0.3734
 2584SOL    HW119385   4.520   3.319   1.629 -0.6132  1.2528  0.2295
 2584SOL    HW219386   4.380   3.312   1.591 -0.1315  1.5002 -0.0749
 2585SOL     OW19387   1.760   3.551   8.129 -0.2730 -0.1394 -0.3517
 2585SOL    HW119388   1.671   3.548   8.165  0.1328  1.0422  0.7295
 2585SOL    HW219389   1.741   3.577   8.038 -0.8180  1.2828  0.1632
 2586SOL     OW19390   0.670   0.917   2.301 -0.4495  0.1937 -0.5499
 2586SOL    HW119391   0.597   0.871   2.342  0.6870 -0.2189  1.0107
 2586SOL    HW219392   0.620   0.989   2.261  0.3888  0.5451 -0.9679
 2587SOL     OW19393   0.028   3.346   4.124 -0.0936 -0.2774 -0.0110
 2587SOL    HW119394   0.034   3.303   4.038 -1.7674  0.2796 -0.4114
 2587SOL    HW219395   4.672   3.369   4.113  0.4609  1.4530 -1.1813
 2588SOL     OW19396   4.294   3.762   8.842  0.1019 -0.0600 -0.2315
 2588SOL    HW119397   4.380   3.721   8.831 -0.2393 -0.3735 -1.8869
 2588SOL    HW219398   4.255   3.719   8.918 -1.9001  1.5515 -0.3552
 2589SOL     OW19399   1.566   1.821   3.574  0.1653  0.1423  0.0207
 2589SOL    HW119400   1.514   1.873   3.513  2.7200  1.0594 -1.3604
 2589SOL    HW219401   1.620   1.894   3.603  1.3457  0.9051 -4.0787
 2590SOL     OW19402   2.970   4.700   5.416  0.0094 -0.4686  0.1370
 2590SOL    HW119403   2.893   4.644   5.407  1.1503 -1.9894 -0.1529
 2590SOL    HW219404   3.026   4.664   5.348  1.3883  0.5775  0.7273
 2591SOL     OW19405   0.873   3.834   8.279  0.2196  0.3653 -0.3179
 2591SOL    HW119406   0.853   3.787   8.199  0.5460 -0.3213  0.0027
 2591SOL    HW219407   0.945   3.781   8.314  1.1322  1.8079  0.0036
 2592SOL     OW19408   2.980   1.311  14.272 -0.3027 -0.1767 -0.1832
 2592SOL    HW119409   3.053   1.301  14.211 -0.5114 -0.7193 -0.3391
 2592SOL    HW219410   2.926   1.371  14.220 -1.2193 -0.8727 -0.0436
 2593SOL     OW19411   1.987   1.162  12.949 -0.2673  0.2665 -0.1837
 2593SOL    HW119412   2.077   1.164  12.982 -0.3495  0.7183  0.0129
 2593SOL    HW219413   1.984   1.101  12.875  1.9262 -2.5074  2.0104
 2594SOL     OW19414   4.176   2.060   3.172  0.1724 -0.1271  0.1863
 2594SOL    HW119415   4.141   1.971   3.159 -1.8722  0.7613 -0.4351
 2594SOL    HW219416   4.100   2.111   3.144  0.2138 -0.0702  0.1791
 2595SOL     OW19417   0.861   2.116   7.331 -0.0964  0.1030 -0.1223
 2595SOL    HW119418   0.781   2.117   7.279 -1.5541 -0.3430  2.1325
 2595SOL    HW219419   0.926   2.144   7.266 -1.0893  0.0658 -1.1193
 2596SOL     OW19420   4.150   0.089   9.858 -0.4883  0.3852  0.2196
 2596SOL    HW119421   4.107   0.108   9.775  0.0161  0.5962  0.0089
 2596SOL    HW219422   4.182   0.177   9.879  1.3049 -0.1963 -0.1037
 2597SOL     OW19423   3.225   0.667   4.732 -0.4999  0.5285 -0.0029
 2597SOL    HW119424   3.249   0.757   4.755  1.8168  0.8870 -3.8882
 2597SOL    HW219425   3.174   0.684   4.652  1.0434  0.5098 -0.9925
 2598SOL     OW19426   0.968   2.462   3.273 -0.8740 -0.3603  0.2722
 2598SOL    HW119427   0.979   2.384   3.219  0.0621  0.3523 -0.5645
 2598SOL    HW219428   0.879   2.442   3.303 -0.2519 -1.6407  1.2718
 2599SOL     OW19429   0.867   2.236   9.012  0.0282 -0.0803  0.1104
 2599SOL    HW119430   0.836   2.185   8.938 -0.8013  0.7623 -0.1255
 2599SOL    HW219431   0.961   2.223   9.001  0.4522  2.2024  1.0682
 2600SOL     OW19432   4.073   0.355  10.600  0.6381  0.3411  0.6109
 2600SOL    HW119433   4.071   0.417  10.527  1.4999 -0.5620 -0.1925
 2600SOL    HW219434   4.064   0.272  10.553 -1.0285  1.1144 -0.4308
 2601SOL     OW19435   1.360   1.387   2.673 -0.3471  0.1168  0.2987
 2601SOL    HW119436   1.354   1.366   2.580 -0.2200 -2.5934  0.8848
 2601SOL    HW219437   1.394   1.305   2.709  0.1070  0.3533  0.4048
 2602SOL     OW19438   3.823   1.709   8.482 -0.3575 -0.2966  0.0962
 2602SOL    HW119439   3.789   1.767   8.414 -0.9425 -0.0903  0.5652
 2602SOL    HW219440   3.893   1.664   8.434 -0.6065  0.7740 -1.2732
 2603SOL     OW19441   1.835   4.256   4.430  0.1310 -0.0981 -0.2334
 2603SOL    HW119442   1.857   4.338   4.473  1.5927 -0.0389 -1.1026
 2603SOL    HW219443   1.889   4.268   4.351  0.5053  2.1431  0.3814
 2604SOL     OW19444   0.576   2.154   5.121  0.3513 -0.2455 -0.5385
 2604SOL    HW119445   0.551   2.136   5.030  0.4749  1.6052 -0.9406
 2604SOL    HW219446   0.668   2.127   5.117 -0.5227 -3.3039  0.0239
 2605SOL     OW19447   2.192   0.432   6.852 -0.2798  0.0157  0.6252
 2605SOL    HW119448   2.107   0.450   6.892 -0.2155  0.1611  0.6972
 2605SOL    HW219449   2.163   0.356   6.801 -2.8634  2.0745 -0.9634
 2606SOL     OW19450   4.223   4.720  10.118  0.7044  0.2101 -0.2363
 2606SOL    HW119451   4.188   0.070  10.137  0.2146 -0.3176  1.2343
 2606SOL    HW219452   4.222   4.718  10.022  1.6818 -0.7326 -0.2274
 2607SOL     OW19453   1.883   0.240  15.505  0.3450 -0.2229  0.3795
 2607SOL    HW119454   1.851   0.204  15.423 -0.6882  0.7623  0.3569
 2607SOL    HW219455   1.967   0.198  15.522  0.7840  0.2410 -0.6607
 2608SOL     OW19456   0.835   2.870   1.766 -0.5077  0.0640 -0.0579
 2608SOL    HW119457   0.858   2.781   1.792  1.3211  0.3934 -0.5872
 2608SOL    HW219458   0.848   2.910   1.852 -1.8151 -0.0465  0.1985
 2609SOL     OW19459   1.878   1.221   8.661 -0.1174  0.4270  0.1635
 2609SOL    HW119460   1.861   1.236   8.754 -2.1633 -0.9654  0.0129
 2609SOL    HW219461   1.795   1.246   8.621 -0.6772  0.8530  1.6298
 2610SOL     OW19462   4.560   1.180  17.576 -0.0271 -0.1219 -0.0924
 2610SOL    HW119463   4.476   1.199  17.534  0.0964  2.8219  0.9971
 2610SOL    HW219464   4.596   1.267  17.591 -0.1802  0.3226 -2.3174
 2611SOL     OW19465   3.876   2.415   3.085  0.3063 -0.3072  0.0958
 2611SOL    HW119466   3.923   2.453   3.159 -0.6451 -2.8394  1.9852
 2611SOL    HW219467   3.856   2.324   3.106 -1.4841 -0.2550 -1.3309
 2612SOL     OW19468   2.592   1.739   9.151 -0.0502  0.0361 -0.1342
 2612SOL    HW119469   2.511   1.734   9.201  0.2626  1.3585  0.5047
 2612SOL    HW219470   2.636   1.655   9.163 -0.4586 -0.1101  0.2996
 2613SOL     OW19471   0.574   2.224   3.430 -0.0464  0.2727  0.2337
 2613SOL    HW119472   0.514   2.149   3.439  1.7414 -1.2488 -0.4492
 2613SOL    HW219473   0.512   2.286   3.468  0.6013  0.7949  0.4204
 2614SOL     OW19474   4.152   4.356   6.646 -0.3958 -0.1225  0.3739
 2614SOL    HW119475   4.226   4.336   6.703  0.5459 -3.5073 -1.9809
 2614SOL    HW219476   4.177   4.325   6.558 -3.8599  1.7177 -1.2444
 2615SOL     OW19477   1.514   2.064   5.395 -0.0631 -0.2480 -0.3295
 2615SOL    HW119478   1.508   2.133   5.329  1.0860  0.6322  0.4671
 2615SOL    HW219479   1.431   2.080   5.439  0.3049 -1.4831  0.8114
 2616SOL     OW19480   2.369   3.189   3.268 -0.2247 -0.0036 -0.1465
 2616SOL    HW119481   2.283   3.222   3.243 -0.5657 -0.0552  0.9836
 2616SOL    HW219482   2.426   3.257   3.232 -0.6502 -0.5076 -1.7801
 2617SOL     OW19483   1.081   4.530   4.337 -0.2075 -0.6987  0.2955
 2617SOL    HW119484   1.176   4.520   4.338 -0.0739  0.5202 -0.7348
 2617SOL    HW219485   1.072   4.580   4.256 -3.4578  1.3200  1.8891
 2618SOL     OW19486   0.900   2.950   8.911 -0.0513  0.2826  0.9367
 2618SOL    HW119487   0.838   2.969   8.981 -1.6197  1.4473 -0.7736
 2618SOL    HW219488   0.828   2.953   8.848 -0.0727 -1.4607  0.8580
 2619SOL     OW19489   2.760   4.412   7.673  0.0057 -0.3325 -0.1018
 2619SOL    HW119490   2.837   4.469   7.678  1.1973 -1.9829  0.0992
 2619SOL    HW219491   2.776   4.348   7.742  1.5762 -0.6358 -0.7623
 2620SOL     OW19492   2.233   1.920   3.319  0.4056 -0.2658 -0.5377
 2620SOL    HW119493   2.163   1.911   3.255  1.4470 -0.5466 -1.6545
 2620SOL    HW219494   2.177   1.885   3.388  0.7263  4.8423  2.2814
 2621SOL     OW19495   1.110   1.539  10.077  0.1328 -0.3609  0.5490
 2621SOL    HW119496   1.112   1.445  10.095  0.6835 -1.0198 -2.8653
 2621SOL    HW219497   1.072   1.573  10.158 -0.2312  2.7839 -0.9688
 2622SOL     OW19498   3.715   4.336   3.059  0.0658  0.5263  0.6858
 2622SOL    HW119499   3.632   4.291   3.044 -0.4347  2.0161 -1.0907
 2622SOL    HW219500   3.685   4.427   3.059  1.7527  1.0743  0.7023
 2623SOL     OW19501   4.380   4.156   7.220 -0.2997 -0.5959  0.4356
 2623SOL    HW119502   4.289   4.145   7.192 -0.6177  1.0147  0.8239
 2623SOL    HW219503   4.423   4.112   7.146 -0.4238 -1.1798  0.7088
 2624SOL     OW19504   3.180   2.047   5.538 -0.2110 -0.1411  0.2469
 2624SOL    HW119505   3.231   2.013   5.612  0.0331  1.0958  0.6494
 2624SOL    HW219506   3.164   1.969   5.484 -0.2097 -0.2842  0.4549
 2625SOL     OW19507   2.952   0.235  15.623  0.2962  0.5260  0.7288
 2625SOL    HW119508   2.868   0.192  15.607 -0.4331  2.2810 -0.2048
 2625SOL    HW219509   2.997   0.170  15.678  0.5651  0.4373  0.4026
 2626SOL     OW19510   3.219   2.227   1.502  0.2701 -0.5803  0.7629
 2626SOL    HW119511   3.299   2.188   1.537  1.7177  0.2038 -1.6640
 2626SOL    HW219512   3.169   2.214   1.583  0.6560 -3.0779  0.6046
 2627SOL     OW19513   4.465   4.087  14.851  0.3004  0.0860 -0.1567
 2627SOL    HW119514   4.425   4.160  14.803 -0.4669 -0.7944 -0.8606
 2627SOL    HW219515   4.392   4.025  14.854  0.3920 -0.0458 -0.5767
 2628SOL     OW19516   4.582   1.160   5.615  0.8125  0.1342 -0.1988
 2628SOL    HW119517   4.613   1.087   5.669  0.0777  1.8252  2.5083
 2628SOL    HW219518   4.536   1.117   5.543  2.7687 -1.7372 -0.3109
 2629SOL     OW19519   4.252   4.029  16.703 -0.1480 -0.4561  0.1199
 2629SOL    HW119520   4.321   3.970  16.734 -0.1289 -0.4861  0.0228
 2629SOL    HW219521   4.240   3.987  16.617 -0.2759  0.2805 -0.2214
 2630SOL     OW19522   3.178   0.792   2.954  0.3246 -0.5117  0.0847
 2630SOL    HW119523   3.252   0.806   2.894 -1.0449  0.1770 -1.4559
 2630SOL    HW219524   3.207   0.853   3.021  0.2819 -0.1444 -0.2320
 2631SOL     OW19525   1.243   3.311   9.402  0.4935 -0.1384 -0.3485
 2631SOL    HW119526   1.214   3.399   9.379 -0.3281 -0.1253  0.7653
 2631SOL    HW219527   1.302   3.291   9.329  2.3413  0.8706  0.8823
 2632SOL     OW19528   0.393   1.966   8.072 -0.8550  0.0399  0.0263
 2632SOL    HW119529   0.424   1.931   8.156 -0.5086  0.1062 -0.0722
 2632SOL    HW219530   0.300   1.983   8.086 -1.0925 -1.5128  0.3558
 2633SOL     OW19531   2.014   3.279   4.840 -0.2943  0.2690 -0.1045
 2633SOL    HW119532   2.064   3.360   4.837 -2.4932  1.6317 -0.0704
 2633SOL    HW219533   2.042   3.253   4.927 -2.1250 -1.8234 -0.1198
 2634SOL     OW19534   0.177   1.828   3.133  0.6960  0.1922  0.3697
 2634SOL    HW119535   0.152   1.834   3.041  2.1873 -1.0623 -0.1108
 2634SOL    HW219536   0.172   1.734   3.150  0.5362  0.3806  1.3338
 2635SOL     OW19537   4.243   3.227   9.059 -0.4127 -0.2284  0.1214
 2635SOL    HW119538   4.226   3.227   8.965 -0.2291  2.4683  0.0904
 2635SOL    HW219539   4.297   3.305   9.073 -1.3541  0.6974 -1.3745
 2636SOL     OW19540   1.920   2.964   1.857  0.2203 -0.0929  0.2989
 2636SOL    HW119541   1.868   2.948   1.936  0.5973  0.6218  0.6852
 2636SOL    HW219542   2.008   2.933   1.879  0.5666  0.0228 -0.9640
 2637SOL     OW19543   1.928   1.103   5.244 -0.1356 -0.0978 -0.3367
 2637SOL    HW119544   1.973   1.187   5.237 -1.8861  0.6542 -2.4290
 2637SOL    HW219545   1.923   1.096   5.340 -4.4930  0.5875 -0.5024
 2638SOL     OW19546   3.608   4.523   1.639  0.2628 -0.1913 -0.0724
 2638SOL    HW119547   3.573   4.521   1.728 -2.5110 -0.0012 -1.1592
 2638SOL    HW219548   3.540   4.565   1.586  1.2158  1.9839  0.4056
 2639SOL     OW19549   0.726   3.972   8.458  0.0735 -0.2128 -0.1843
 2639SOL    HW119550   0.805   3.942   8.413 -0.5167 -2.3385  0.2024
 2639SOL    HW219551   0.688   4.014   8.381  0.5958  2.0486  0.7912
 2640SOL     OW19552   4.250   3.432   6.759  0.1020  0.7027  0.4487
 2640SOL    HW119553   4.257   3.388   6.674 -0.4597 -0.3642  0.9664
 2640SOL    HW219554   4.328   3.391   6.797  1.4691  1.4238 -1.5747
 2641SOL     OW19555   0.485   4.351   6.873  0.1600 -0.0747  0.2625
 2641SOL    HW119556   0.438   4.284   6.920 -0.1659 -1.2823 -1.7727
 2641SOL    HW219557   0.542   4.372   6.947 -1.2925  1.3707  0.9633
 2642SOL     OW19558   3.148   2.939   2.557  0.6494 -0.1300 -0.3571
 2642SOL    HW119559   3.171   2.933   2.650  0.3383  1.3794 -0.1783
 2642SOL    HW219560   3.139   2.850   2.523 -1.0460 -0.7025  1.5910
 2643SOL     OW19561   3.699   0.205   9.095  0.0228  0.0349 -0.2692
 2643SOL    HW119562   3.741   0.267   9.036  0.3236 -1.1986 -1.3540
 2643SOL    HW219563   3.770   0.181   9.156 -0.9699 -1.4076  0.3076
 2644SOL     OW19564   0.120   4.561   8.609  0.4258  0.2448 -0.2310
 2644SOL    HW119565   0.074   4.560   8.694  1.9848  0.9968  0.6222
 2644SOL    HW219566   0.103   4.652   8.582  0.5179  0.3543  0.0812
 2645SOL     OW19567   2.680   2.614   4.873  0.2908 -0.1765 -0.2664
 2645SOL    HW119568   2.717   2.700   4.895 -2.4495  0.9907 -0.1614
 2645SOL    HW219569   2.744   2.554   4.909  1.1431  1.3032  0.6724
 2646SOL     OW19570   2.030   4.291   8.133  0.2914 -0.0858 -0.4902
 2646SOL    HW119571   2.055   4.220   8.074 -1.3204  0.7484 -2.1904
 2646SOL    HW219572   1.955   4.334   8.091  0.6045  0.2462 -0.7110
 2647SOL     OW19573   0.157   1.125   1.680  0.0839 -0.1856  0.0791
 2647SOL    HW119574   0.129   1.216   1.680 -0.4263 -0.3479 -1.4258
 2647SOL    HW219575   0.159   1.096   1.589 -0.1607  1.3846 -0.4238
 2648SOL     OW19576   1.838   2.667   7.507  1.0311  0.3235 -0.4741
 2648SOL    HW119577   1.751   2.697   7.480  1.1824  1.7522  0.6345
 2648SOL    HW219578   1.889   2.733   7.461  1.0326  0.9536  0.4364
 2649SOL     OW19579   1.401   1.637   9.300  0.3428  0.2595 -0.2588
 2649SOL    HW119580   1.457   1.696   9.250  2.1365 -1.6693 -0.5533
 2649SOL    HW219581   1.415   1.547   9.271 -2.9135 -0.8328  1.4933
 2650SOL     OW19582   0.962   2.111   7.695 -0.0859  0.5277 -0.0966
 2650SOL    HW119583   1.024   2.067   7.752  2.1669  2.6667 -0.8806
 2650SOL    HW219584   0.926   2.171   7.759 -0.0396 -2.9893  3.2039
 2651SOL     OW19585   1.870   0.814   7.146  0.3289 -0.2224  0.0049
 2651SOL    HW119586   1.932   0.875   7.107  2.5718 -2.1652  0.4725
 2651SOL    HW219587   1.908   0.734   7.110 -1.0472 -1.0928  0.4898
 2652SOL     OW19588   3.351   4.675  10.744  0.1604  0.2090  0.0489
 2652SOL    HW119589   3.424   4.641  10.794 -1.4762 -2.6240  0.5066
 2652SOL    HW219590   3.384   4.677  10.654  1.2549 -1.4250  0.4364
 2653SOL     OW19591   3.343   3.145  14.278 -0.6110  0.2392  0.3617
 2653SOL    HW119592   3.411   3.209  14.300  0.2997 -0.0430 -1.6160
 2653SOL    HW219593   3.365   3.129  14.186 -0.4439  3.1525 -0.0988
 2654SOL     OW19594   2.238   3.586   7.406 -0.3691  0.0350 -0.3126
 2654SOL    HW119595   2.258   3.528   7.332 -0.2151 -1.0279  0.5517
 2654SOL    HW219596   2.253   3.543   7.490 -0.6707 -0.3970 -0.4798
 2655SOL     OW19597   1.998   2.747  16.200  0.0768  0.3866  0.4999
 2655SOL    HW119598   2.090   2.723  16.186 -0.5418  0.6576 -3.7502
 2655SOL    HW219599   2.008   2.829  16.248 -0.5024  0.8870 -0.2472
 2656SOL     OW19600   3.695   3.803  13.613  0.0178  0.2819  0.0264
 2656SOL    HW119601   3.640   3.879  13.628  0.0891  0.1604  0.8698
 2656SOL    HW219602   3.776   3.852  13.597  1.0424 -1.2177  0.5478
 2657SOL     OW19603   0.483   2.257  12.951 -0.3861  0.1134  0.2490
 2657SOL    HW119604   0.449   2.340  12.918 -0.3863 -0.6005 -1.5374
 2657SOL    HW219605   0.429   2.253  13.030  1.0850  1.3552  1.3207
 2658SOL     OW19606   2.418   0.375  14.764 -0.0768  0.2124 -0.5576
 2658SOL    HW119607   2.472   0.433  14.817 -0.4166 -3.0840  3.3624
 2658SOL    HW219608   2.346   0.436  14.743 -1.7560 -0.7681  2.4109
 2659SOL     OW19609   2.110   0.638   2.543  0.2157 -0.2552 -0.6924
 2659SOL    HW119610   2.123   0.710   2.604  0.8496 -2.6300  1.9756
 2659SOL    HW219611   2.052   0.686   2.484 -0.4584 -2.6025 -1.9100
 2660SOL     OW19612   0.530   4.144   2.855 -0.4915 -0.7165 -0.0246
 2660SOL    HW119613   0.603   4.115   2.799 -0.1766  0.9986 -0.5077
 2660SOL    HW219614   0.458   4.167   2.797 -1.5801 -1.5490  1.0171
 2661SOL     OW19615   2.925   3.881   6.540  0.2337 -0.5715 -0.1767
 2661SOL    HW119616   3.016   3.906   6.522 -0.3355  3.2221  2.2836
 2661SOL    HW219617   2.870   3.947   6.499 -0.3775 -1.3790 -0.6581
 2662SOL     OW19618   0.978   3.578   7.039 -0.2966  0.5768 -0.1136
 2662SOL    HW119619   1.055   3.634   7.042  0.4639 -0.5363  0.9558
 2662SOL    HW219620   1.015   3.501   7.082 -1.6208  0.7432  1.3529
 2663SOL     OW19621   4.514   2.253   5.978  0.0863 -0.3628  0.5108
 2663SOL    HW119622   4.529   2.205   5.897 -0.1581  0.2340  0.1089
 2663SOL    HW219623   4.599   2.289   6.006  0.5201 -1.0677  0.0905
 2664SOL     OW19624   1.840   0.253   4.158 -0.1230 -0.3974 -0.4990
 2664SOL    HW119625   1.811   0.212   4.076 -3.1541 -0.6549  0.7318
 2664SOL    HW219626   1.765   0.238   4.215  1.4869 -0.6258  1.5656
 2665SOL     OW19627   4.538   3.884   2.607  0.3615  0.5357  0.1783
 2665SOL    HW119628   4.500   3.966   2.575 -2.8562 -0.8432  0.4381
 2665SOL    HW219629   4.595   3.861   2.533  1.0766  0.4614  0.7559
 2666SOL     OW19630   0.826   2.303   3.085  0.2665  0.1340  0.0157
 2666SOL    HW119631   0.753   2.248   3.113 -0.0231  1.8722  2.7382
 2666SOL    HW219632   0.837   2.262   2.999  0.6225 -0.1810  0.2062
 2667SOL     OW19633   0.484   1.102   7.898  0.0877 -0.0435  0.3418
 2667SOL    HW119634   0.413   1.085   7.960  2.2089 -2.9553  1.9732
 2667SOL    HW219635   0.507   1.188   7.932  1.8905  0.7316 -2.8458
 2668SOL     OW19636   3.342   0.353   3.561  0.5160  0.0520 -0.4156
 2668SOL    HW119637   3.292   0.277   3.591  0.3480  0.2889 -0.0961
 2668SOL    HW219638   3.429   0.345   3.600  0.6452  0.0727 -0.6998
 2669SOL     OW19639   4.550   0.733   4.904  0.0571 -0.6326  0.8223
 2669SOL    HW119640   4.518   0.692   4.823  1.5177  1.6952 -0.9205
 2669SOL    HW219641   4.466   0.730   4.951  1.1298 -1.2356  2.6743
 2670SOL     OW19642   4.164   2.596  12.411 -0.0093  0.6923 -0.6144
 2670SOL    HW119643   4.242   2.592  12.356 -1.0421  0.6345 -2.0745
 2670SOL    HW219644   4.186   2.526  12.472  1.2829  1.2026 -0.5058
 2671SOL     OW19645   0.083   1.062  16.271  0.1039 -0.3587 -0.1663
 2671SOL    HW119646   0.055   0.982  16.317  0.8370 -1.0865 -0.9700
 2671SOL    HW219647   0.132   1.023  16.198  0.3119 -0.0639 -0.1820
 2672SOL     OW19648   2.503   0.527   5.030 -0.3175 -0.0501 -0.3470
 2672SOL    HW119649   2.568   0.589   5.063  0.1927 -0.4716 -0.5437
 2672SOL    HW219650   2.425   0.578   5.050  0.7392  1.6037 -0.4483
 2673SOL     OW19651   2.090   1.870  14.030 -0.2242 -0.2085  0.0730
 2673SOL    HW119652   2.180   1.887  14.060  0.2141 -1.4567 -0.5097
 2673SOL    HW219653   2.095   1.926  13.953 -0.1476  0.3296  0.4669
 2674SOL     OW19654   2.226   1.078   1.431 -0.3972  0.0672 -0.0326
 2674SOL    HW119655   2.253   1.059   1.341  0.0581 -0.0717  0.1331
 2674SOL    HW219656   2.304   1.109   1.477  0.2810 -0.3312 -0.9179
 2675SOL     OW19657   1.100   0.829  10.105 -0.4114  0.0150 -0.2012
 2675SOL    HW119658   1.096   0.838  10.010 -0.3271 -0.1505 -0.2197
 2675SOL    HW219659   1.175   0.770  10.109  1.4086  2.5042  3.1428
 2676SOL     OW19660   4.167   4.241  13.522  0.1596 -0.3970 -0.4175
 2676SOL    HW119661   4.105   4.243  13.449  0.1454 -1.8144 -0.4445
 2676SOL    HW219662   4.115   4.289  13.586 -1.0240 -1.1731 -0.7930
 2677SOL     OW19663   4.694   3.293   2.044 -0.7077  0.2085  0.4436
 2677SOL    HW119664   0.029   3.355   2.059 -0.9123  0.6849 -0.5134
 2677SOL    HW219665   4.653   3.295   2.130 -2.6495  0.0069 -0.4769
 2678SOL     OW19666   2.289   1.708   5.648 -0.3068 -0.0697 -0.6149
 2678SOL    HW119667   2.319   1.643   5.711 -1.5030 -1.3897 -1.3920
 2678SOL    HW219668   2.341   1.685   5.571 -0.1611 -0.2929 -0.4501
 2679SOL     OW19669   2.909   0.183  12.756 -0.5481 -0.2368 -0.0806
 2679SOL    HW119670   2.843   0.232  12.806 -0.9109 -1.2504  0.4262
 2679SOL    HW219671   2.918   0.104  12.809 -0.0664 -1.0874 -1.4458
 2680SOL     OW19672   0.661   1.398   1.308 -0.2112  0.2254 -0.0399
 2680SOL    HW119673   0.617   1.329   1.257  1.6709  1.1185 -2.8819
 2680SOL    HW219674   0.588   1.438   1.354  0.1067 -0.6917  1.2963
 2681SOL     OW19675   0.913   4.200   1.576  0.0495  0.3365 -0.5266
 2681SOL    HW119676   0.983   4.141   1.605 -1.8858 -0.6139  2.2268
 2681SOL    HW219677   0.860   4.199   1.656  1.0746  0.0048  0.1412
 2682SOL     OW19678   3.564   1.986  12.117  0.2779 -0.1015 -0.2186
 2682SOL    HW119679   3.548   2.077  12.141  0.0297 -0.1659 -0.1367
 2682SOL    HW219680   3.592   1.962  12.205  1.1342  1.6966 -0.0106
 2683SOL     OW19681   2.946   3.008  13.303 -0.2863 -1.1009  0.2255
 2683SOL    HW119682   2.867   2.954  13.313 -1.2274  0.2964  0.3879
 2683SOL    HW219683   3.013   2.946  13.330 -0.9264 -1.6728  0.4842
 2684SOL     OW19684   4.343   2.476   5.307 -0.0613 -0.4011 -0.6198
 2684SOL    HW119685   4.356   2.426   5.388 -0.9601 -2.4697 -1.7341
 2684SOL    HW219686   4.431   2.482   5.269  0.4636 -0.3359  0.6159
 2685SOL     OW19687   2.902   3.491   1.029 -0.3508  0.3721  0.6800
 2685SOL    HW119688   2.907   3.567   0.971  1.8580 -2.2319 -2.5294
 2685SOL    HW219689   2.927   3.421   0.969 -2.2700  0.2642 -0.0111
 2686SOL     OW19690   2.233   2.491   2.258 -0.3154 -0.4455  0.1174
 2686SOL    HW119691   2.221   2.424   2.190 -0.8020  1.1106 -1.3264
 2686SOL    HW219692   2.215   2.435   2.334  0.5746  0.5712  1.0668
 2687SOL     OW19693   0.967   3.645   1.751 -0.1806  0.1768 -0.2020
 2687SOL    HW119694   1.020   3.677   1.678 -2.2551  2.2046 -0.8038
 2687SOL    HW219695   0.964   3.549   1.743  1.2767  0.1132 -0.0502
 2688SOL     OW19696   2.229   4.212   5.076 -0.0932 -0.5159  0.3823
 2688SOL    HW119697   2.257   4.129   5.037  0.4384  0.7918 -1.9908
 2688SOL    HW219698   2.262   4.276   5.013 -2.5714  1.8846  1.4933
 2689SOL     OW19699   3.108   4.599  13.593  0.0771  0.2967  0.5186
 2689SOL    HW119700   3.051   4.567  13.663 -0.0230 -2.8847 -1.0037
 2689SOL    HW219701   3.088   4.553  13.512  1.5335 -0.1176  0.3819
 2690SOL     OW19702   0.017   4.558   6.717 -0.5566  0.0967  0.0791
 2690SOL    HW119703   0.064   4.527   6.640  1.7523 -0.0665  1.5808
 2690SOL    HW219704   0.008   4.482   6.774 -1.9135 -0.3572 -0.7277
 2691SOL     OW19705   3.056   1.172  10.193  0.4841 -0.5902 -0.2486
 2691SOL    HW119706   2.965   1.170  10.223  0.3022  0.3143 -0.7479
 2691SOL    HW219707   3.047   1.115  10.117 -2.3294 -0.0550 -0.3205
 2692SOL     OW19708   2.165   3.602   2.113 -0.0345  0.1209  0.3992
 2692SOL    HW119709   2.129   3.543   2.048 -0.0737  0.0197  0.5133
 2692SOL    HW219710   2.180   3.678   2.057  0.6203  0.6928  1.3464
 2693SOL     OW19711   2.329   4.313   5.797 -0.0838  0.4023 -0.0809
 2693SOL    HW119712   2.323   4.356   5.712 -2.4310 -1.8803 -1.0678
 2693SOL    HW219713   2.269   4.241   5.780 -0.9947  1.0035  0.6070
 2694SOL     OW19714   3.649   3.727   8.466 -0.0085 -0.7648 -0.0717
 2694SOL    HW119715   3.629   3.758   8.378 -1.6613 -0.3094  0.4651
 2694SOL    HW219716   3.742   3.749   8.474 -0.2404  0.4341 -0.8377
 2695SOL     OW19717   0.437   0.969  16.296 -0.2563 -0.2045  0.2839
 2695SOL    HW119718   0.522   0.926  16.298 -0.0275  0.2288 -0.2390
 2695SOL    HW219719   0.409   0.962  16.388  1.9106 -0.7281  0.8923
 2696SOL     OW19720   4.347   2.446  12.685  0.3083  0.5442 -0.6862
 2696SOL    HW119721   4.384   2.414  12.603  2.8169 -0.7805  0.9855
 2696SOL    HW219722   4.294   2.371  12.713  2.1128 -0.4157  0.1266
 2697SOL     OW19723   0.597   4.571  13.108 -0.2238 -0.3991  0.2009
 2697SOL    HW119724   0.545   4.500  13.072  1.2523 -1.3734 -0.0342
 2697SOL    HW219725   0.581   4.635  13.040 -2.8734 -0.2087  1.0243
 2698SOL     OW19726   3.393   3.165   4.102  0.3726  0.1559 -0.5901
 2698SOL    HW119727   3.449   3.225   4.151 -0.3898 -0.8555  1.5095
 2698SOL    HW219728   3.308   3.210   4.099 -0.0677 -0.6937 -0.6834
 2699SOL     OW19729   4.146   1.797   8.984  0.0416  0.1227  1.1486
 2699SOL    HW119730   4.239   1.806   9.006  0.3516 -0.7842  0.2536
 2699SOL    HW219731   4.134   1.703   8.995 -5.0469  0.3617 -2.3172
 2700SOL     OW19732   4.732   3.630   3.568 -0.1188 -0.3550 -0.0836
 2700SOL    HW119733   0.061   3.618   3.637 -0.8961 -0.2479  0.6793
 2700SOL    HW219734   0.057   3.632   3.496  0.0195 -0.0422  0.0455
 2701SOL     OW19735   0.667   0.328  10.035  0.3093 -0.0242 -0.2653
 2701SOL    HW119736   0.657   0.413   9.991  0.5586  0.5638  0.8135
 2701SOL    HW219737   0.574   0.308  10.037  0.1945  0.2660 -2.4640
 2702SOL     OW19738   0.883   1.234  15.553 -0.0067  0.2713 -0.0863
 2702SOL    HW119739   0.937   1.170  15.599 -1.0785  0.9688  2.1244
 2702SOL    HW219740   0.829   1.169  15.507 -1.9987  0.5782  1.8220
 2703SOL     OW19741   3.954   2.399  15.263  0.4890 -0.1384 -0.5167
 2703SOL    HW119742   3.952   2.364  15.352  0.9717  0.3480 -0.3082
 2703SOL    HW219743   3.978   2.490  15.285  0.3579 -0.4381  0.8589
 2704SOL     OW19744   1.842   4.713   8.520 -0.6108 -0.0514 -0.2035
 2704SOL    HW119745   1.905   4.673   8.460  0.1868 -0.2999  0.7973
 2704SOL    HW219746   1.903   0.001   8.590 -1.1358 -1.0443  0.5913
 2705SOL     OW19747   4.118   0.988   5.210 -0.4263 -0.9369  0.5784
 2705SOL    HW119748   4.069   0.908   5.190  0.5755 -1.2177 -0.7317
 2705SOL    HW219749   4.173   0.983   5.132  0.8476 -0.2824  1.4346
 2706SOL     OW19750   3.556   3.558   2.254  0.2987  0.1669  0.1520
 2706SOL    HW119751   3.563   3.646   2.218  2.6919  0.2411  0.8203
 2706SOL    HW219752   3.602   3.511   2.184 -1.0132  2.3858 -2.2131
 2707SOL     OW19753   0.992   0.583   0.992  0.3394  0.0357  0.9636
 2707SOL    HW119754   1.039   0.505   1.021  1.2538 -1.1367 -3.7578
 2707SOL    HW219755   1.034   0.602   0.908  0.6951  0.7152  1.2961
 2708SOL     OW19756   2.357   2.694   0.690  0.2493  0.4897 -0.2167
 2708SOL    HW119757   2.432   2.642   0.660  1.5029  2.4308 -0.4346
 2708SOL    HW219758   2.373   2.768   0.632  0.9715  0.5060  0.0078
 2709SOL     OW19759   1.344   1.180   5.518 -0.2231  0.5418  0.1858
 2709SOL    HW119760   1.323   1.268   5.549 -1.0931 -0.2020  1.6781
 2709SOL    HW219761   1.438   1.180   5.533 -0.1619  1.4515 -0.1969
 2710SOL     OW19762   2.122   3.751   6.659  0.2981  0.0692  0.0404
 2710SOL    HW119763   2.165   3.816   6.604 -2.0699  0.8338 -0.9044
 2710SOL    HW219764   2.034   3.750   6.622  0.2980  1.5483  0.0129
 2711SOL     OW19765   3.977   2.843   7.607  0.4271 -0.1072 -0.1498
 2711SOL    HW119766   3.947   2.858   7.518 -1.0390  1.4103  0.6112
 2711SOL    HW219767   4.037   2.770   7.590 -0.0630 -0.5217 -0.1147
 2712SOL     OW19768   0.567   1.147   9.971  0.0646 -0.3647 -0.5962
 2712SOL    HW119769   0.549   1.215  10.036  1.4840 -0.2460 -0.3261
 2712SOL    HW219770   0.637   1.099  10.015  1.2940  1.2698 -0.7821
 2713SOL     OW19771   0.037   4.271  15.033 -0.8592  0.1340  0.1757
 2713SOL    HW119772   0.110   4.217  15.000 -1.1339  0.2317 -0.6041
 2713SOL    HW219773   0.036   4.350  14.978  1.0067 -1.1383 -1.7093
 2714SOL     OW19774   3.878   3.608   3.814 -0.3313 -0.1739 -0.2445
 2714SOL    HW119775   3.972   3.625   3.827 -0.2819  0.0595 -0.8637
 2714SOL    HW219776   3.859   3.665   3.739 -0.1960 -1.6968 -1.4293
 2715SOL     OW19777   0.104   0.369   2.650  0.1014  0.3797  0.5342
 2715SOL    HW119778   0.158   0.424   2.707  0.4511  0.5472  0.0419
 2715SOL    HW219779   0.170   0.333   2.591 -1.4508 -3.1989  0.9887
 2716SOL     OW19780   2.200   4.068   7.000  0.5691 -0.1491  0.2452
 2716SOL    HW119781   2.195   3.973   6.994 -0.1058  0.0033 -1.5966
 2716SOL    HW219782   2.209   4.089   6.907 -1.0256 -1.9310 -0.3130
 2717SOL     OW19783   0.837   1.086   9.766 -0.6049  0.6145  0.2881
 2717SOL    HW119784   0.871   1.145   9.834  1.0329 -1.8631  1.6153
 2717SOL    HW219785   0.834   1.139   9.687 -2.3952  1.0998  0.6764
 2718SOL     OW19786   4.229   2.245   7.706  0.2471  0.2516  0.5044
 2718SOL    HW119787   4.158   2.288   7.657  0.6915 -0.1446 -0.4913
 2718SOL    HW219788   4.267   2.201   7.630 -2.5104  0.2259 -0.8650
 2719SOL     OW19789   4.459   3.356   6.895 -0.3157 -0.6147 -0.3591
 2719SOL    HW119790   4.445   3.379   6.987 -0.3147  0.0852 -0.5372
 2719SOL    HW219791   4.540   3.403   6.879  0.4581 -1.1777  1.8430
 2720SOL     OW19792   2.928   2.949  13.018 -0.0588 -0.0681  0.3972
 2720SOL    HW119793   2.910   2.951  13.112  0.5426  2.5690  0.4568
 2720SOL    HW219794   2.925   2.855  12.999 -1.0952  0.0178  0.1841
 2721SOL     OW19795   1.117   2.627   4.189  0.1913  0.0147  0.8389
 2721SOL    HW119796   1.099   2.637   4.096 -2.2184 -1.0459  1.1917
 2721SOL    HW219797   1.179   2.700   4.188 -1.0100  1.0477  0.2952
 2722SOL     OW19798   3.948   0.151   3.439  0.3033  0.5817 -0.1168
 2722SOL    HW119799   4.040   0.151   3.414  0.7334  1.0376  1.4238
 2722SOL    HW219800   3.961   0.144   3.534  1.5742 -0.4171 -0.3540
 2723SOL     OW19801   4.550   0.672   9.293  0.3027 -0.3233  0.1771
 2723SOL    HW119802   4.593   0.587   9.285 -2.0153 -1.3301 -1.4543
 2723SOL    HW219803   4.564   0.693   9.386 -0.0150 -0.5376  0.2704
 2724SOL     OW19804   1.655   0.653   7.275 -0.0747 -0.1141  0.1406
 2724SOL    HW119805   1.713   0.724   7.302  1.0408 -1.1473  0.4326
 2724SOL    HW219806   1.591   0.651   7.346  0.0752  0.4357  0.2876
 2725SOL     OW19807   2.193   0.390   1.908  0.3415  0.4185  0.6618
 2725SOL    HW119808   2.132   0.317   1.895  1.5216 -0.3369 -0.5732
 2725SOL    HW219809   2.269   0.338   1.933  0.2661  0.3233  0.6944
 2726SOL     OW19810   0.926   2.997  12.612  0.1059 -0.1978  0.1451
 2726SOL    HW119811   1.015   3.024  12.633 -0.6280  0.9835  1.7368
 2726SOL    HW219812   0.876   3.066  12.655  1.5627 -0.7565  2.7669
 2727SOL     OW19813   1.538   4.072   8.842  0.2492 -0.2013 -0.1490
 2727SOL    HW119814   1.529   4.168   8.839 -1.2453 -0.3922 -1.6058
 2727SOL    HW219815   1.467   4.049   8.782 -0.5602  0.8354  0.3905
 2728SOL     OW19816   0.414   1.216   3.459  0.0305 -0.1190 -0.4401
 2728SOL    HW119817   0.509   1.222   3.471  0.2099 -1.3967 -1.2211
 2728SOL    HW219818   0.393   1.189   3.549 -1.5120  1.2293 -0.4059
 2729SOL     OW19819   1.324   1.623   6.181  0.0820 -0.0329  0.6262
 2729SOL    HW119820   1.341   1.611   6.088 -1.7117 -0.6976  0.3932
 2729SOL    HW219821   1.411   1.637   6.218  1.0959 -1.3405 -1.2916
 2730SOL     OW19822   4.131   4.476   5.391  0.8210  0.7098 -0.1556
 2730SOL    HW119823   4.046   4.452   5.427  0.9507 -1.0559 -1.0681
 2730SOL    HW219824   4.094   4.544   5.334 -0.6571  0.1901  0.1905
 2731SOL     OW19825   3.615   3.731   1.654 -0.3503 -0.2903  0.1652
 2731SOL    HW119826   3.649   3.741   1.742 -1.0337  3.1906  0.0497
 2731SOL    HW219827   3.658   3.808   1.615 -0.2553 -0.0037  0.8353
 2732SOL     OW19828   2.372   1.097   5.942  0.0680  0.2803 -0.4140
 2732SOL    HW119829   2.395   1.087   5.849 -0.4878  2.2972 -0.7595
 2732SOL    HW219830   2.314   1.173   5.944 -0.7951 -0.3871 -0.4707
 2733SOL     OW19831   3.001   2.110   7.695 -0.4782 -0.2467 -0.1657
 2733SOL    HW119832   2.913   2.071   7.693 -0.1002 -1.3316  3.2819
 2733SOL    HW219833   2.988   2.198   7.660 -0.1409 -0.7337 -1.5188
 2734SOL     OW19834   0.533   0.106  15.107 -0.1431 -0.2775 -0.3717
 2734SOL    HW119835   0.440   0.125  15.119  0.9372  3.6338  1.9085
 2734SOL    HW219836   0.545   0.071  15.195  1.7614 -0.7399 -0.8168
 2735SOL     OW19837   3.287   4.061  13.603 -0.3178 -0.5605 -0.0335
 2735SOL    HW119838   3.234   4.051  13.682 -1.1183  2.1478 -0.2410
 2735SOL    HW219839   3.229   4.096  13.535  1.8654  0.0043 -1.6323
 2736SOL     OW19840   4.652   4.275   7.231  0.0629 -0.5638 -0.0166
 2736SOL    HW119841   4.613   4.361   7.218  2.8973  1.0086  1.9534
 2736SOL    HW219842   4.578   4.237   7.279 -0.9494  0.5070 -0.7320
 2737SOL     OW19843   2.413   3.653   2.473 -0.0880  0.3457  0.5764
 2737SOL    HW119844   2.348   3.584   2.480 -1.3164  1.3103 -1.3655
 2737SOL    HW219845   2.434   3.644   2.380 -0.1096 -0.5773  0.6613
 2738SOL     OW19846   1.418   3.227  16.425  0.3676 -0.2253 -0.0335
 2738SOL    HW119847   1.358   3.185  16.487  1.5422 -0.6600  0.7964
 2738SOL    HW219848   1.402   3.318  16.449 -1.1839 -0.0596 -1.6546
 2739SOL     OW19849   3.313   4.105   7.461 -0.5006 -0.0537  0.3517
 2739SOL    HW119850   3.380   4.151   7.512 -1.4942  0.9004  0.8023
 2739SOL    HW219851   3.284   4.048   7.532  0.6296  1.4546  2.0306
 2740SOL     OW19852   4.600   0.339   7.643 -0.2320  0.1757 -0.6983
 2740SOL    HW119853   4.664   0.390   7.594 -1.1090  2.6774  0.7840
 2740SOL    HW219854   4.659   0.278   7.688  0.5865 -1.2572 -3.7095
 2741SOL     OW19855   3.936   0.073   9.211  0.0388  0.6050 -0.1220
 2741SOL    HW119856   4.022   0.070   9.169  0.7216 -1.2612  1.4087
 2741SOL    HW219857   3.897   0.000   9.163 -0.1892  0.5268  0.1857
 2742SOL     OW19858   3.612   4.490   9.716 -0.4160  0.1376  0.3911
 2742SOL    HW119859   3.519   4.506   9.703 -0.6748 -0.1077  1.9834
 2742SOL    HW219860   3.608   4.433   9.792  1.7844 -1.6446 -0.8260
 2743SOL     OW19861   1.762   3.983  16.247  0.3167 -0.2473 -0.2093
 2743SOL    HW119862   1.857   3.979  16.256  0.1093 -1.7847  1.2634
 2743SOL    HW219863   1.754   3.907  16.190  3.2083 -0.8525  0.2116
 2744SOL     OW19864   2.668   1.557  11.514  0.1974  0.3198 -0.2189
 2744SOL    HW119865   2.671   1.646  11.550  0.2931  1.3133 -2.7076
 2744SOL    HW219866   2.758   1.542  11.485  0.5861  2.1977  0.0503
 2745SOL     OW19867   4.662   2.864   6.807 -0.5229  0.7493  0.1478
 2745SOL    HW119868   4.646   2.951   6.846 -2.3149  0.5879 -0.2157
 2745SOL    HW219869   4.734   2.875   6.745 -2.2751  1.7428 -1.6916
 2746SOL     OW19870   1.961   4.419  14.786  0.7402  0.3791 -0.4038
 2746SOL    HW119871   1.962   4.514  14.793  0.0616  0.5172 -2.1799
 2746SOL    HW219872   1.868   4.398  14.782  0.4740  0.6671  3.7921
 2747SOL     OW19873   0.955   1.347   2.227 -0.8168  0.2344 -0.2112
 2747SOL    HW119874   0.930   1.254   2.224  0.9924 -0.2132 -1.6053
 2747SOL    HW219875   0.908   1.377   2.304 -0.5312  1.0630 -0.3625
 2748SOL     OW19876   0.623   1.775   1.426 -0.2277  0.1197 -0.6473
 2748SOL    HW119877   0.648   1.853   1.477  1.7495 -0.0609 -1.3412
 2748SOL    HW219878   0.563   1.731   1.487 -0.4766 -0.1045 -1.0573
 2749SOL     OW19879   2.760   4.282   2.765 -0.0398 -0.6903 -0.3394
 2749SOL    HW119880   2.815   4.284   2.843 -0.7208 -1.6186  0.1538
 2749SOL    HW219881   2.798   4.212   2.713  0.6501 -0.3196 -0.3328
 2750SOL     OW19882   4.042   3.106   1.427  0.2992 -0.0921 -0.4714
 2750SOL    HW119883   4.080   3.029   1.470  3.3422  0.5459 -2.0509
 2750SOL    HW219884   3.962   3.101   1.480  0.1474  1.1903 -0.5804
 2751SOL     OW19885   0.397   0.078  11.517  0.0889 -0.3328  0.2426
 2751SOL    HW119886   0.454   0.002  11.506  0.3332  0.1006 -1.5118
 2751SOL    HW219887   0.416   0.118  11.432  1.4234 -0.2299  0.5934
 2752SOL     OW19888   3.698   1.758   6.651 -0.3285 -0.1344 -0.4350
 2752SOL    HW119889   3.635   1.715   6.710 -1.3163 -1.5823 -2.5474
 2752SOL    HW219890   3.643   1.759   6.573 -2.6944  0.0202  1.2181
 2753SOL     OW19891   2.393   2.214  13.644 -0.1327  0.2575  0.1373
 2753SOL    HW119892   2.357   2.229  13.557  0.1400 -0.7380 -0.1401
 2753SOL    HW219893   2.433   2.299  13.663  0.1326  0.8063 -2.9288
 2754SOL     OW19894   4.006   3.669   9.272  0.5846 -0.5462  0.3049
 2754SOL    HW119895   3.914   3.672   9.299  0.2053  1.0062 -1.1688
 2754SOL    HW219896   3.999   3.601   9.206  2.2122 -0.0859 -0.3358
 2755SOL     OW19897   2.561   1.398   0.347 -0.2837 -0.3003  0.4074
 2755SOL    HW119898   2.497   1.467   0.329  0.3912  0.2778  0.2195
 2755SOL    HW219899   2.549   1.346   0.268 -0.0238  1.3786 -0.7531
 2756SOL     OW19900   1.183   3.565   6.397 -0.4437  0.5563  0.2835
 2756SOL    HW119901   1.261   3.620   6.392 -1.3877  1.8437 -0.2949
 2756SOL    HW219902   1.175   3.546   6.303  0.6081 -4.2180  1.1797
 2757SOL     OW19903   0.258   0.352  15.188  0.6044  0.2867  0.0605
 2757SOL    HW119904   0.255   0.430  15.133 -0.9537  0.2284  0.0521
 2757SOL    HW219905   0.167   0.352  15.219  0.7288  1.3218  0.4156
 2758SOL     OW19906   3.641   1.696  11.563 -0.0545  0.1965  0.7476
 2758SOL    HW119907   3.584   1.639  11.511  1.9956  0.6467 -2.0149
 2758SOL    HW219908   3.710   1.703  11.497 -1.2824  0.6091 -0.4845
 2759SOL     OW19909   1.985   3.064  13.591 -0.5409  0.0595 -0.1521
 2759SOL    HW119910   1.951   3.153  13.603 -1.9591 -0.4074 -0.7108
 2759SOL    HW219911   1.916   3.037  13.531  3.8520 -2.9493 -3.8677
 2760SOL     OW19912   3.981   4.579  14.511 -0.0643 -0.2630 -0.4160
 2760SOL    HW119913   3.951   4.541  14.429  1.1729 -0.3004 -0.8585
 2760SOL    HW219914   4.021   4.658  14.475  1.2564  0.5201  2.7794
 2761SOL     OW19915   4.328   3.942  10.447 -0.3564  0.1981 -0.5887
 2761SOL    HW119916   4.245   3.922  10.490  0.7933 -0.7092  1.2444
 2761SOL    HW219917   4.393   3.908  10.510  0.2848 -1.4186 -2.1269
 2762SOL     OW19918   0.910   3.526  15.706  0.3901  0.4349 -0.1556
 2762SOL    HW119919   0.850   3.452  15.692 -0.9535  1.1501  1.7748
 2762SOL    HW219920   0.986   3.472  15.729 -1.0274 -2.0345 -1.2682
 2763SOL     OW19921   1.580   1.861   1.132  0.5472  0.3752 -0.3781
 2763SOL    HW119922   1.600   1.911   1.054  0.7184 -2.7530 -2.3504
 2763SOL    HW219923   1.489   1.890   1.135  0.8362  1.3476 -1.5239
 2764SOL     OW19924   1.034   1.888   7.213  0.3027 -0.4356  0.3877
 2764SOL    HW119925   1.061   1.972   7.176 -1.8250  0.1862  0.2857
 2764SOL    HW219926   1.119   1.850   7.237  0.4622 -0.0132  0.4840
 2765SOL     OW19927   1.096   3.000  15.866 -0.0375  0.0972  0.8316
 2765SOL    HW119928   1.038   2.938  15.911 -1.4149  1.2562  0.6702
 2765SOL    HW219929   1.044   3.075  15.836 -0.9492 -0.8667 -0.0508
 2766SOL     OW19930   0.105   0.209   7.764 -0.4604 -0.3021 -0.4288
 2766SOL    HW119931   0.061   0.127   7.785  1.1539 -0.3508  2.7446
 2766SOL    HW219932   0.194   0.201   7.798 -0.3780  2.3384  0.0070
 2767SOL     OW19933   4.353   4.265   4.860 -0.7942  0.1072  0.2579
 2767SOL    HW119934   4.369   4.176   4.831  2.4930  0.6002  0.5735
 2767SOL    HW219935   4.277   4.257   4.919 -0.3526 -2.7642  0.4152
 2768SOL     OW19936   1.633   4.125   1.387  0.8519  0.2670  1.0413
 2768SOL    HW119937   1.701   4.178   1.345 -0.4407  2.8739  2.2331
 2768SOL    HW219938   1.591   4.191   1.442 -2.9016 -0.9849 -0.3798
 2769SOL     OW19939   1.335   2.373   5.789 -0.1895 -0.2636  0.3886
 2769SOL    HW119940   1.318   2.448   5.732  2.2953  1.0251  1.3378
 2769SOL    HW219941   1.429   2.368   5.768 -0.4885  0.1361 -1.0837
 2770SOL     OW19942   0.049   3.423  12.417 -0.4393  0.5314 -0.4604
 2770SOL    HW119943   0.057   3.438  12.323 -0.9765  1.0029 -0.4394
 2770SOL    HW219944   0.140   3.400  12.433 -0.4069  1.7023  1.0396
 2771SOL     OW19945   1.386   3.285   6.621  0.2233 -0.3748  0.2266
 2771SOL    HW119946   1.440   3.213   6.654  1.0909 -0.1417 -0.6945
 2771SOL    HW219947   1.428   3.360   6.663 -1.2173  0.6503 -0.1838
 2772SOL     OW19948   1.304   0.415   4.561  0.1923 -0.5114  0.1567
 2772SOL    HW119949   1.263   0.357   4.497  3.8529 -1.3920 -1.4304
 2772SOL    HW219950   1.383   0.445   4.515  0.9553 -1.0955  1.1082
 2773SOL     OW19951   2.481   1.193   2.084 -0.1615  0.4311 -0.4462
 2773SOL    HW119952   2.484   1.276   2.036 -2.3734  1.6737  1.5995
 2773SOL    HW219953   2.389   1.170   2.082 -0.1336  0.3164 -0.3533
 2774SOL     OW19954   3.421   1.955  12.437  0.4469 -0.0490  0.3025
 2774SOL    HW119955   3.428   1.986  12.527 -3.2317 -0.0682  0.5862
 2774SOL    HW219956   3.505   1.909  12.439  1.1775  1.1546 -2.2912
 2775SOL     OW19957   3.606   0.621   9.229  0.4298 -0.4434 -0.2106
 2775SOL    HW119958   3.535   0.568   9.265  0.3764  0.2424  0.6940
 2775SOL    HW219959   3.679   0.559   9.228  1.3420  0.6184  0.2476
 2776SOL     OW19960   4.138   1.298   2.316 -0.0426 -0.1842  0.0325
 2776SOL    HW119961   4.162   1.277   2.406  0.9405 -2.9036 -0.8470
 2776SOL    HW219962   4.149   1.393   2.311  3.6295 -0.4854  2.4069
 2777SOL     OW19963   0.346   1.842  13.582  0.3267  0.3523  0.0830
 2777SOL    HW119964   0.415   1.865  13.519  1.9658 -0.5905  1.5463
 2777SOL    HW219965   0.343   1.925  13.630  0.7748  0.2168  0.3485
 2778SOL     OW19966   1.762   0.295   9.546 -0.5366  1.0791 -0.2713
 2778SOL    HW119967   1.745   0.354   9.472  2.2502  0.5863 -1.3110
 2778SOL    HW219968   1.858   0.301   9.548 -0.5852  2.0111 -0.3598
 2779SOL     OW19969   2.615   4.562   3.969  0.3491 -0.5263  0.2330
 2779SOL    HW119970   2.697   4.513   3.962  1.1003  0.9140 -1.0945
 2779SOL    HW219971   2.589   4.527   3.883  0.0694  1.5561 -0.5507
 2780SOL     OW19972   1.319   2.502  10.161  0.4009  0.1432 -0.0820
 2780SOL    HW119973   1.405   2.486  10.200 -0.2919 -2.5455  0.3435
 2780SOL    HW219974   1.282   2.549  10.235 -2.3764 -0.9584 -0.7715
 2781SOL     OW19975   2.774   4.493   8.919  0.4307 -0.6400  0.1254
 2781SOL    HW119976   2.812   4.580   8.933  0.9070 -1.0759  1.5629
 2781SOL    HW219977   2.858   4.451   8.902  1.6225  2.6530 -2.1975
 2782SOL     OW19978   2.314   1.464   5.376  0.4452 -0.3627  0.5749
 2782SOL    HW119979   2.243   1.436   5.434  0.4571 -2.6270 -0.5134
 2782SOL    HW219980   2.344   1.551   5.401  3.1457 -1.0916 -0.1990
 2783SOL     OW19981   2.366   3.290   1.845 -0.4912 -0.6310  0.1905
 2783SOL    HW119982   2.461   3.284   1.830 -0.8682 -0.9666 -2.0870
 2783SOL    HW219983   2.335   3.315   1.758 -1.0700  1.7083  1.0644
 2784SOL     OW19984   3.558   4.098  11.112  0.2710  0.0630 -0.4173
 2784SOL    HW119985   3.553   4.070  11.020 -2.5871 -3.7199  0.8653
 2784SOL    HW219986   3.478   4.067  11.155  0.5515 -2.6187 -1.8172
 2785SOL     OW19987   0.843   4.118   5.994 -0.2128  0.1512  0.2750
 2785SOL    HW119988   0.836   4.181   5.923  1.2989  0.0768  0.0433
 2785SOL    HW219989   0.847   4.189   6.059  0.5462  1.7958 -1.5793
 2786SOL     OW19990   3.781   1.698   7.996 -0.1922 -0.0869  0.2635
 2786SOL    HW119991   3.856   1.708   7.938 -0.3197 -0.3753  0.0519
 2786SOL    HW219992   3.818   1.622   8.041  1.9732  0.9045  0.2030
 2787SOL     OW19993   2.103   0.666   3.922 -0.6564  0.1785  0.3080
 2787SOL    HW119994   2.098   0.600   3.853 -1.7660  1.2407 -0.6368
 2787SOL    HW219995   2.164   0.627   3.985 -1.1439 -0.8317  0.1541
 2788SOL     OW19996   1.713   2.560   3.225  0.4787  0.0946  0.1244
 2788SOL    HW119997   1.766   2.537   3.150  2.9755  1.2417  1.5516
 2788SOL    HW219998   1.675   2.642   3.195  1.8876  1.1657  1.2894
 2789SOL     OW19999   0.643   0.312   4.298  0.1104  0.0436  0.3668
 2789SOL    HW120000   0.737   0.327   4.313 -0.3649 -0.0424  3.3521
 2789SOL    HW220001   0.629   0.223   4.328  0.2316 -0.9831 -2.6224
 2790SOL     OW20002   1.505   1.428   1.918  0.6449 -0.4676 -0.3274
 2790SOL    HW120003   1.547   1.497   1.969 -0.1908  0.7634 -1.2988
 2790SOL    HW220004   1.448   1.484   1.864  0.1406  0.5385  1.2373
 2791SOL     OW20005   2.445   2.916   5.187  0.2552  0.9974 -0.3547
 2791SOL    HW120006   2.459   2.926   5.093 -0.1848 -2.7517 -0.8224
 2791SOL    HW220007   2.536   2.938   5.208  0.6232  0.0154 -0.9173
 2792SOL     OW20008   2.045   0.602   5.465 -0.2488  0.3739 -0.5943
 2792SOL    HW120009   1.979   0.634   5.527 -0.9112  1.6513 -1.9711
 2792SOL    HW220010   2.018   0.510   5.465 -2.3372  0.9891  1.1720
 2793SOL     OW20011   2.375   4.045  13.034  0.1521 -0.0272  0.2886
 2793SOL    HW120012   2.306   4.026  13.098 -1.5139 -0.8722 -1.7424
 2793SOL    HW220013   2.435   3.970  13.040 -1.3526 -1.2624  0.0666
 2794SOL     OW20014   4.537   2.081   7.782 -0.2169  0.1844 -0.0443
 2794SOL    HW120015   4.553   2.003   7.835 -2.1774  0.4865  1.0252
 2794SOL    HW220016   4.561   2.156   7.837  2.9353  0.6071 -1.9946
 2795SOL     OW20017   2.227   0.727  15.952  0.4100 -0.1466 -0.3660
 2795SOL    HW120018   2.140   0.700  15.981 -0.4707  0.8250 -2.0658
 2795SOL    HW220019   2.285   0.675  16.007 -0.3357 -0.3698  0.2104
 2796SOL     OW20020   3.194   0.023  15.344  0.1835  0.0612 -0.0030
 2796SOL    HW120021   3.277   0.019  15.296 -0.8770 -0.2147 -1.8503
 2796SOL    HW220022   3.199   0.105  15.392 -2.6327  0.0959  0.2322
 2797SOL     OW20023   0.088   0.627   9.201 -0.2804 -0.2486 -0.0755
 2797SOL    HW120024   0.159   0.691   9.206 -0.5836  0.2547 -2.0232
 2797SOL    HW220025   0.089   0.610   9.107 -0.7337 -0.8628  0.0298
 2798SOL     OW20026   4.445   2.973   3.294 -0.1551 -0.1347 -0.0552
 2798SOL    HW120027   4.498   3.038   3.340  0.6784 -0.5092 -0.4749
 2798SOL    HW220028   4.494   2.891   3.300 -2.0382 -1.5153 -3.5281
 2799SOL     OW20029   1.672   4.538   7.972 -0.4042  0.1021  0.4792
 2799SOL    HW120030   1.747   4.503   7.924 -0.5562 -2.1072  1.8798
 2799SOL    HW220031   1.719   4.596   8.031 -1.3445  1.7664 -0.3805
 2800SOL     OW20032   4.125   4.110   9.663  0.2177  0.2444 -0.0108
 2800SOL    HW120033   4.115   4.185   9.605 -1.4206  1.0081  1.2599
 2800SOL    HW220034   4.035   4.078   9.654  0.4408 -0.4527  0.2217
 2801SOL     OW20035   1.078   1.077   9.366  0.2408 -0.1623 -0.0910
 2801SOL    HW120036   1.025   1.005   9.331  0.4090  0.8073 -2.3833
 2801SOL    HW220037   1.008   1.132   9.402  0.6427  0.7934 -0.7599
 2802SOL     OW20038   0.394   1.150   8.825  0.0490 -0.2401  0.6950
 2802SOL    HW120039   0.315   1.170   8.774  1.5656  2.0488 -0.7695
 2802SOL    HW220040   0.411   1.239   8.854 -2.1294  0.5142 -0.3433
 2803SOL     OW20041   4.088   0.344   5.671  0.4628  0.9852 -0.2359
 2803SOL    HW120042   3.993   0.337   5.677  0.4200  2.7173  1.1523
 2803SOL    HW220043   4.096   0.415   5.735  0.3409 -0.3962  1.2943
 2804SOL     OW20044   3.982   2.223   4.949 -0.5161 -0.4009 -0.0115
 2804SOL    HW120045   4.045   2.222   5.020 -0.1436  1.4365 -0.3162
 2804SOL    HW220046   3.958   2.316   4.942 -1.8540 -0.7761 -0.4914
 2805SOL     OW20047   3.377   1.318  16.564  0.3073 -0.5706  0.0541
 2805SOL    HW120048   3.373   1.285  16.654  0.1705  0.4192  0.4078
 2805SOL    HW220049   3.308   1.266  16.523 -1.4962  2.1491 -0.3723
 2806SOL     OW20050   1.280   4.115   2.270 -0.1980 -0.6750 -0.3951
 2806SOL    HW120051   1.316   4.174   2.336  1.0062  0.0954 -1.7515
 2806SOL    HW220052   1.187   4.138   2.278  0.1722  0.2377  1.2296
 2807SOL     OW20053   0.689   3.188   2.273 -0.0893 -0.1289 -0.7143
 2807SOL    HW120054   0.656   3.258   2.330 -1.7185 -1.4639 -0.0067
 2807SOL    HW220055   0.765   3.223   2.228  1.1779 -1.3095  0.4963
 2808SOL     OW20056   4.419   4.572   6.393  0.2679  0.0571 -0.0516
 2808SOL    HW120057   4.484   4.640   6.414  0.2527  0.7220 -2.1417
 2808SOL    HW220058   4.342   4.607   6.437  0.1977  1.1026 -1.0048
 2809SOL     OW20059   3.293   1.299   9.664 -0.2526  0.2560  0.4219
 2809SOL    HW120060   3.291   1.266   9.754  0.1183 -2.8409 -0.6977
 2809SOL    HW220061   3.386   1.292   9.644 -0.1616  1.0542  0.5812
 2810SOL     OW20062   2.874   1.809   1.276  0.4095 -0.0724  0.5972
 2810SOL    HW120063   2.885   1.898   1.309  2.3489 -0.1761  0.1992
 2810SOL    HW220064   2.784   1.814   1.244  0.0370  1.0551  1.7859
 2811SOL     OW20065   2.420   3.194  10.572  0.3877 -0.2872 -0.1290
 2811SOL    HW120066   2.392   3.174  10.661  2.8148 -0.7311  0.5266
 2811SOL    HW220067   2.462   3.280  10.578  1.9266 -1.0438  0.0263
 2812SOL     OW20068   0.157   2.855   5.997  0.3863 -0.4540 -0.3404
 2812SOL    HW120069   0.079   2.910   5.987  1.7632  1.2211 -1.8085
 2812SOL    HW220070   0.134   2.794   6.067 -1.1097  0.6117  0.0868
 2813SOL     OW20071   1.504   0.081   4.157 -0.3249  0.3033 -0.3761
 2813SOL    HW120072   1.523   0.070   4.064  1.2188  0.6127 -0.0959
 2813SOL    HW220073   1.514   0.175   4.168  2.6870 -0.0725  0.2383
 2814SOL     OW20074   3.592   3.881   9.311  0.0777  0.0360 -0.2429
 2814SOL    HW120075   3.512   3.917   9.350  0.5898  0.8365  0.0792
 2814SOL    HW220076   3.649   3.958   9.318  0.7034 -0.4776  0.3363
 2815SOL     OW20077   1.172   0.412   2.557 -0.1145 -0.6279 -0.3786
 2815SOL    HW120078   1.212   0.452   2.480  1.8465 -0.0131  0.9572
 2815SOL    HW220079   1.094   0.374   2.518 -0.6933  0.1990 -0.0036
 2816SOL     OW20080   0.281   1.055   0.090 -0.3580  0.2413 -0.1438
 2816SOL    HW120081   0.268   0.995   0.016  0.7417  1.8252 -1.6259
 2816SOL    HW220082   0.376   1.052   0.090 -0.3393  0.9610  2.7059
 2817SOL     OW20083   2.784   1.921  16.079 -0.7600  0.1067 -0.4494
 2817SOL    HW120084   2.842   1.935  16.004 -0.4879  1.2919 -0.0278
 2817SOL    HW220085   2.836   1.954  16.153 -0.0347 -1.4482 -0.2726
 2818SOL     OW20086   0.269   3.819   1.888 -0.2025 -0.1238 -0.0688
 2818SOL    HW120087   0.299   3.790   1.802  1.8104  0.2858  0.4923
 2818SOL    HW220088   0.176   3.799   1.886 -0.0226 -1.2956  2.8460
 2819SOL     OW20089   1.534   2.311  14.283 -0.4369 -0.0880  0.7868
 2819SOL    HW120090   1.442   2.284  14.287 -0.1371 -1.2197 -0.0122
 2819SOL    HW220091   1.532   2.366  14.361  0.3796  0.8706  0.1281
 2820SOL     OW20092   0.344   0.359  17.451  0.0430 -0.3402 -0.0500
 2820SOL    HW120093   0.410   0.310  17.500 -0.2821  1.0095  1.7452
 2820SOL    HW220094   0.280   0.350  17.521 -1.6146 -0.4109 -1.5717
 2821SOL     OW20095   4.139   4.697   3.687 -0.0160 -0.1756 -0.6544
 2821SOL    HW120096   4.173   4.708   3.598 -0.8843 -0.9890 -1.0879
 2821SOL    HW220097   4.214   4.672   3.742 -0.2957 -1.2280 -0.7561
 2822SOL     OW20098   2.636   4.051   2.263  0.1049 -0.2917 -0.0406
 2822SOL    HW120099   2.593   4.005   2.335 -0.4115  0.5012  0.1559
 2822SOL    HW220100   2.611   4.142   2.276  2.2407 -0.2645  3.8620
 2823SOL     OW20101   1.317   4.338   3.584  0.2694 -0.1618 -0.8246
 2823SOL    HW120102   1.387   4.328   3.649  0.3955  1.2924 -0.7419
 2823SOL    HW220103   1.375   4.329   3.509 -0.5178  0.4030 -1.5067
 2824SOL     OW20104   2.387   1.701   8.462  0.5590  0.1158 -0.1988
 2824SOL    HW120105   2.296   1.706   8.431 -0.1461 -3.5230  1.1932
 2824SOL    HW220106   2.414   1.788   8.490 -0.8095  0.4054  0.2301
 2825SOL     OW20107   2.487   1.536  13.840  0.5243 -0.3023 -0.1282
 2825SOL    HW120108   2.548   1.522  13.913 -0.5804  0.6579  0.9791
 2825SOL    HW220109   2.485   1.446  13.807 -0.6284  0.3279 -1.7571
 2826SOL     OW20110   0.702   3.033   9.518 -0.3460  0.3052  0.0895
 2826SOL    HW120111   0.782   3.024   9.467 -1.5187  0.5142 -1.7798
 2826SOL    HW220112   0.714   3.113   9.570 -2.7222  3.4618 -4.1919
 2827SOL     OW20113   3.360   4.010  14.960  0.0711 -0.1141  0.0436
 2827SOL    HW120114   3.265   4.023  14.958  0.0348 -0.2945  0.5593
 2827SOL    HW220115   3.388   4.023  14.869 -2.6312  0.8937 -0.6301
 2828SOL     OW20116   2.923   4.570  15.794 -0.1508  0.1514 -0.4325
 2828SOL    HW120117   3.004   4.602  15.753 -0.6847 -0.9279 -2.3434
 2828SOL    HW220118   2.948   4.513  15.865  0.7421 -0.2282 -1.0544
 2829SOL     OW20119   0.002   4.709   1.371 -0.0234  0.2028  0.4403
 2829SOL    HW120120   4.656   4.688   1.413 -0.3631 -1.0204 -0.8379
 2829SOL    HW220121   4.735   0.067   1.383  0.3659  0.1954  0.6134
 2830SOL     OW20122   0.263   0.784   8.120  0.6439  0.4660  0.0166
 2830SOL    HW120123   0.336   0.743   8.166  0.7605 -0.7669 -1.2840
 2830SOL    HW220124   0.267   0.735   8.038  0.3647 -0.8977  0.8113
 2831SOL     OW20125   4.408   0.114   7.304 -0.1215 -0.4479  0.3361
 2831SOL    HW120126   4.314   0.104   7.315  0.2567 -1.0595  3.2039
 2831SOL    HW220127   4.429   0.205   7.279  2.3737 -0.7850  1.1544
 2832SOL     OW20128   1.136   0.189  16.840 -0.3472 -0.0331 -0.7894
 2832SOL    HW120129   1.147   0.255  16.908  1.5115 -0.2761 -0.8741
 2832SOL    HW220130   1.111   0.251  16.772 -1.1705 -1.7194 -2.0345
 2833SOL     OW20131   3.167   3.378   9.298  0.0128 -0.1113  0.2353
 2833SOL    HW120132   3.073   3.360   9.296 -0.1528  0.8393 -0.4089
 2833SOL    HW220133   3.179   3.423   9.215  0.9521 -0.8737 -0.0518
 2834SOL     OW20134   2.606   2.281   5.625 -0.0728  0.0028  0.0457
 2834SOL    HW120135   2.669   2.212   5.605 -1.4238 -1.9008  2.3868
 2834SOL    HW220136   2.526   2.234   5.600  0.4191 -0.2126 -1.1496
 2835SOL     OW20137   0.809   0.536   9.783  0.6543  0.0654 -0.3463
 2835SOL    HW120138   0.830   0.595   9.711  0.9351  0.0842 -0.2501
 2835SOL    HW220139   0.714   0.541   9.772  0.4000 -0.8826  1.3873
 2836SOL     OW20140   3.318   0.292   6.921  0.2125  0.3875  0.2087
 2836SOL    HW120141   3.248   0.350   6.952  0.0966  0.4110 -0.0920
 2836SOL    HW220142   3.386   0.359   6.922 -0.8805  1.4713  2.2436
 2837SOL     OW20143   0.820   2.192   1.708  0.6117 -0.5232  0.2271
 2837SOL    HW120144   0.809   2.181   1.802 -0.8989 -1.9380 -0.1317
 2837SOL    HW220145   0.786   2.282   1.702  1.0694 -0.3400  0.3249
 2838SOL     OW20146   1.289   0.068   4.366 -0.3486 -1.1749  0.2672
 2838SOL    HW120147   1.210   0.110   4.332 -1.0130  0.2421  3.4926
 2838SOL    HW220148   1.351   0.090   4.297 -0.1277  0.4014  0.9579
 2839SOL     OW20149   0.267   1.191  15.285  0.1094  0.3848  0.2085
 2839SOL    HW120150   0.181   1.155  15.267  1.3182 -2.3221 -0.1173
 2839SOL    HW220151   0.252   1.281  15.254 -1.5479  0.3437  0.8798
 2840SOL     OW20152   2.070   3.229   9.969  0.0185 -0.1736  0.2417
 2840SOL    HW120153   2.005   3.194  10.030  0.1966  0.4593  0.7942
 2840SOL    HW220154   2.053   3.323   9.980 -0.9755 -0.0717 -2.1941
 2841SOL     OW20155   1.279   0.943   9.497  0.4463  0.6191  0.4723
 2841SOL    HW120156   1.287   0.872   9.433 -0.9702 -0.2807  1.2904
 2841SOL    HW220157   1.197   0.978   9.462 -0.2624 -0.3872  1.1274
 2842SOL     OW20158   3.087   3.838   2.582  0.5961  0.0649 -0.4021
 2842SOL    HW120159   3.014   3.781   2.559 -0.8654  1.3863  0.9673
 2842SOL    HW220160   3.113   3.789   2.660 -2.0471  1.1362  1.1465
 2843SOL     OW20161   3.425   3.720  14.391 -0.3145 -0.0705  0.6765
 2843SOL    HW120162   3.340   3.685  14.417 -1.7069  1.8082 -1.4036
 2843SOL    HW220163   3.446   3.766  14.472  0.6141  2.5951 -1.0901
 2844SOL     OW20164   1.337   2.226   3.890  0.4844  0.4617 -0.4750
 2844SOL    HW120165   1.242   2.241   3.895  0.8405  2.5955 -0.1611
 2844SOL    HW220166   1.357   2.139   3.924 -0.8609  0.2976 -0.1127
 2845SOL     OW20167   0.229   2.075  13.860 -0.2799  0.4957  0.3495
 2845SOL    HW120168   0.247   2.161  13.823 -0.8662 -0.2154 -1.5447
 2845SOL    HW220169   0.135   2.061  13.845 -0.2320 -1.8512  2.2352
 2846SOL     OW20170   2.585   3.319   8.100  0.3832 -0.0136  0.7742
 2846SOL    HW120171   2.524   3.366   8.157  2.5055  1.6787  1.6493
 2846SOL    HW220172   2.643   3.387   8.065  0.8213 -0.4824  0.5819
 2847SOL     OW20173   3.490   0.466   7.102  0.1463 -0.2666  0.0681
 2847SOL    HW120174   3.501   0.518   7.181  0.3812  0.7043 -0.6012
 2847SOL    HW220175   3.575   0.424   7.088  0.5920 -0.0628  2.1576
 2848SOL     OW20176   1.788   4.630  12.878 -0.2094 -0.5121  0.1472
 2848SOL    HW120177   1.796   4.693  12.806 -1.2394 -1.2314 -0.5868
 2848SOL    HW220178   1.862   4.571  12.861 -1.8908 -2.9454  1.3102
 2849SOL     OW20179   0.676   2.980  12.220 -0.2662 -0.1858  0.5087
 2849SOL    HW120180   0.715   3.043  12.159 -3.6184  2.0266  0.6839
 2849SOL    HW220181   0.717   2.898  12.191 -0.5742  0.5025 -1.8692
 2850SOL     OW20182   3.229   3.805   4.962  0.0295 -0.0235  0.2847
 2850SOL    HW120183   3.257   3.723   4.922  1.8010  1.6877 -2.0175
 2850SOL    HW220184   3.299   3.865   4.935 -0.2255 -0.8561 -2.3090
 2851SOL     OW20185   1.893   0.745   6.638  0.1309 -0.0129  0.0961
 2851SOL    HW120186   1.951   0.770   6.710 -2.0201 -3.1244  2.9141
 2851SOL    HW220187   1.873   0.659   6.675 -2.4642  0.1477 -0.9439
 2852SOL     OW20188   1.645   0.078   6.075 -0.0612  0.3040  0.0901
 2852SOL    HW120189   1.677   0.168   6.075  5.1944 -1.5895 -1.3245
 2852SOL    HW220190   1.731   0.035   6.076 -0.8394 -1.2407  0.3280
 2853SOL     OW20191   2.148   3.472   9.436  0.3356  0.1328 -0.1463
 2853SOL    HW120192   2.123   3.387   9.398  1.9534 -1.1099  1.5270
 2853SOL    HW220193   2.176   3.516   9.356 -0.3870  1.4843  0.3592
 2854SOL     OW20194   3.992   1.325   4.170 -0.2937  0.3464 -0.3563
 2854SOL    HW120195   4.070   1.289   4.212  0.3161  2.8693  0.6867
 2854SOL    HW220196   3.923   1.322   4.236 -1.5654  0.9132 -1.6647
 2855SOL     OW20197   2.715   4.393   1.902  0.4154  0.1779  0.1485
 2855SOL    HW120198   2.651   4.462   1.915 -0.5368 -0.6489 -0.1217
 2855SOL    HW220199   2.737   4.368   1.992  0.2556  1.6455  0.5808
 2856SOL     OW20200   4.405   1.542   7.205 -0.1903  0.0955  0.0978
 2856SOL    HW120201   4.480   1.537   7.263 -0.1220  2.6517  0.2338
 2856SOL    HW220202   4.441   1.532   7.117 -0.4437  2.1177 -0.2278
 2857SOL     OW20203   1.829   4.312   1.636  0.5950 -0.6557  0.1635
 2857SOL    HW120204   1.759   4.321   1.700  2.3543 -0.8079  2.1315
 2857SOL    HW220205   1.892   4.377   1.667  1.6304 -0.9803 -1.2296
 2858SOL     OW20206   2.638   0.891  17.236 -0.4991 -0.0708 -0.2827
 2858SOL    HW120207   2.721   0.937  17.225 -0.4005  0.2965  2.0944
 2858SOL    HW220208   2.641   0.877  17.331  2.4198  2.4440 -0.0102
 2859SOL     OW20209   3.922   2.765   5.906 -0.6170 -0.1512  0.0442
 2859SOL    HW120210   3.995   2.703   5.899  1.1712  2.0893 -1.4723
 2859SOL    HW220211   3.860   2.723   5.847  0.1301 -0.7632 -0.3089
 2860SOL     OW20212   2.097   4.391   7.522 -0.2311  0.3130  0.1465
 2860SOL    HW120213   2.061   4.452   7.458 -1.4965  0.1027  0.6619
 2860SOL    HW220214   2.023   4.340   7.555  0.3795 -2.0825 -2.1821
 2861SOL     OW20215   2.319   2.734   5.357 -0.6216  0.0611 -0.1045
 2861SOL    HW120216   2.318   2.787   5.436 -2.6095 -2.0475  1.2597
 2861SOL    HW220217   2.408   2.762   5.332 -2.5299  1.9535 -4.8756
 2862SOL     OW20218   0.704   3.616   1.690 -0.1370  0.2346  0.7072
 2862SOL    HW120219   0.711   3.522   1.676 -1.1047  0.0914  1.1619
 2862SOL    HW220220   0.793   3.641   1.712 -0.2266  1.4157 -0.2771
 2863SOL     OW20221   1.653   4.391   5.543 -0.5204 -0.7684 -0.2924
 2863SOL    HW120222   1.604   4.363   5.621  1.8871 -0.1374  1.4657
 2863SOL    HW220223   1.731   4.337   5.542  0.0504  0.0801 -1.5220
 2864SOL     OW20224   0.229   0.610  16.610  0.0177  0.3354  0.0634
 2864SOL    HW120225   0.226   0.541  16.675  0.1505 -0.3953 -0.7088
 2864SOL    HW220226   0.218   0.561  16.528  0.2178  1.7697 -0.8246
 2865SOL     OW20227   0.531   3.676   9.447 -0.2687 -0.3939  0.4235
 2865SOL    HW120228   0.500   3.586   9.452  2.2038 -1.2624  0.4997
 2865SOL    HW220229   0.448   3.718   9.469  1.1092  2.2552  0.6367
 2866SOL     OW20230   0.763   2.232  12.053 -0.2501 -0.6727 -0.1595
 2866SOL    HW120231   0.723   2.190  11.977  0.3253 -1.0373 -0.2590
 2866SOL    HW220232   0.691   2.244  12.115 -2.2279 -1.9435 -2.2562
 2867SOL     OW20233   2.847   4.302   9.237 -0.4522  0.1932 -0.4417
 2867SOL    HW120234   2.767   4.307   9.290  0.2856  2.1319  0.5032
 2867SOL    HW220235   2.879   4.392   9.230  3.0730 -1.0835 -0.7981
 2868SOL     OW20236   2.470   0.978   0.682  0.3713 -0.3025 -0.4285
 2868SOL    HW120237   2.562   0.957   0.698  0.7951  1.4817 -0.5778
 2868SOL    HW220238   2.479   0.972   0.587 -0.4979 -0.4114 -0.5000
 2869SOL     OW20239   1.294   0.333   6.436 -0.4710  0.5695 -0.3097
 2869SOL    HW120240   1.363   0.317   6.373  1.1684  1.9192  1.1220
 2869SOL    HW220241   1.337   0.403   6.487 -0.5036  0.5067 -0.1951
 2870SOL     OW20242   3.562   4.465   1.925  0.4594  0.5119  0.1326
 2870SOL    HW120243   3.567   4.369   1.927  1.4271  0.5562 -0.1767
 2870SOL    HW220244   3.470   4.478   1.950 -0.1303  0.3048 -1.8879
 2871SOL     OW20245   2.051   2.357   1.081  0.4719 -0.1139  0.0356
 2871SOL    HW120246   1.976   2.301   1.099  0.5679 -0.5405 -0.9129
 2871SOL    HW220247   2.016   2.396   1.000  1.3792  1.6314  0.4805
 2872SOL     OW20248   2.932   3.253  13.032 -0.0641  0.0222  0.2496
 2872SOL    HW120249   2.941   3.260  13.127 -2.0503 -1.5842  0.5672
 2872SOL    HW220250   2.906   3.160  13.032  0.0787 -0.0194 -0.1424
 2873SOL     OW20251   3.553   3.144   5.372 -0.5990 -0.4287 -0.1401
 2873SOL    HW120252   3.643   3.116   5.390 -0.7904  0.6132  2.5148
 2873SOL    HW220253   3.550   3.238   5.393 -0.1787 -0.7141  1.2281
 2874SOL     OW20254   3.149   1.393   6.923 -0.5141 -0.0173  0.1088
 2874SOL    HW120255   3.080   1.454   6.896  0.4869  0.4008 -1.5287
 2874SOL    HW220256   3.166   1.337   6.848 -1.9958  0.5275 -0.6319
 2875SOL     OW20257   1.700   1.680   1.300  0.2224  0.1463 -0.2304
 2875SOL    HW120258   1.785   1.654   1.264 -0.4321 -2.0307 -0.2453
 2875SOL    HW220259   1.678   1.758   1.249 -1.3724  1.0129  1.8009
 2876SOL     OW20260   0.153   3.421   7.772  0.5233  0.1710 -0.1679
 2876SOL    HW120261   0.134   3.514   7.784 -0.2926 -0.4873  3.6309
 2876SOL    HW220262   0.120   3.371   7.847 -0.5718  1.7550  0.3973
 2877SOL     OW20263   4.180   0.459   3.134  0.7146  0.3445 -0.6987
 2877SOL    HW120264   4.251   0.396   3.121 -2.1323 -3.3675  1.7690
 2877SOL    HW220265   4.099   0.408   3.130  1.6630 -1.1915 -0.3153
 2878SOL     OW20266   3.150   1.450   1.188 -0.6411  0.3552  0.1144
 2878SOL    HW120267   3.103   1.493   1.259 -0.4450  0.4990  0.1579
 2878SOL    HW220268   3.135   1.356   1.203 -2.8603  0.7853  0.5648
 2879SOL     OW20269   0.930   1.122   5.087  0.0306 -0.6068  0.2221
 2879SOL    HW120270   0.875   1.044   5.095  1.3431 -2.0331 -4.3903
 2879SOL    HW220271   0.867   1.185   5.122  2.2495  2.4960 -1.3023
 2880SOL     OW20272   0.101   0.702   2.301  0.1120  0.4410  0.2037
 2880SOL    HW120273   0.056   0.682   2.219  0.3603  1.7735 -0.2590
 2880SOL    HW220274   0.166   0.633   2.317 -0.7019 -0.9248 -2.4565
 2881SOL     OW20275   3.247   0.331   7.641 -0.0924 -0.0005 -0.4570
 2881SOL    HW120276   3.308   0.401   7.618  0.0754  0.1502  0.4481
 2881SOL    HW220277   3.213   0.310   7.554 -0.8938 -0.5545 -0.0087
 2882SOL     OW20278   0.973   3.808   2.609  0.4035 -0.0776 -0.2488
 2882SOL    HW120279   0.940   3.736   2.664  1.0502  1.5129  2.2270
 2882SOL    HW220280   1.066   3.788   2.603 -0.0751 -2.0553 -1.1101
 2883SOL     OW20281   2.948   0.885   2.247  0.3575  0.3836 -0.1884
 2883SOL    HW120282   2.913   0.911   2.162  1.4135  1.2839 -0.3511
 2883SOL    HW220283   2.875   0.832   2.279 -0.1371  1.7209  0.9019
 2884SOL     OW20284   4.393   2.918   7.800 -0.6328  0.0730 -0.0753
 2884SOL    HW120285   4.424   2.858   7.867 -0.5414  0.8487  0.5737
 2884SOL    HW220286   4.426   2.878   7.720  1.5666 -0.6964  1.2215
 2885SOL     OW20287   2.704   3.508   1.509  0.1670 -0.3443  0.0601
 2885SOL    HW120288   2.692   3.418   1.540 -0.7499 -0.2313  0.0553
 2885SOL    HW220289   2.765   3.491   1.438  0.2059 -1.9570  0.4883
 2886SOL     OW20290   0.577   0.365  15.081  0.3316  0.8419  0.2016
 2886SOL    HW120291   0.552   0.385  14.991 -0.7513  0.3642  0.3971
 2886SOL    HW220292   0.566   0.270  15.086  2.6328  0.5114 -0.8710
 2887SOL     OW20293   1.152   0.437   6.067  0.1436 -0.1973  0.6815
 2887SOL    HW120294   1.105   0.415   5.986 -1.3911  1.3657  1.1358
 2887SOL    HW220295   1.204   0.505   6.023 -1.6453  0.9077  0.2673
 2888SOL     OW20296   0.195   0.298   2.149 -1.1024  0.2466 -0.0618
 2888SOL    HW120297   0.211   0.205   2.164 -0.0145  0.3662 -0.4869
 2888SOL    HW220298   0.120   0.322   2.203 -0.8573 -2.0845  1.2933
 2889SOL     OW20299   3.344   0.759  16.013  0.0018  0.4251 -0.0627
 2889SOL    HW120300   3.269   0.815  16.035  0.1787  0.0240  1.5767
 2889SOL    HW220301   3.301   0.692  15.961  1.4213  0.5832 -1.4445
 2890SOL     OW20302   4.649   3.892  16.409 -0.7137 -0.2956  0.3268
 2890SOL    HW120303   4.652   3.800  16.434  1.7229  0.4749  2.8714
 2890SOL    HW220304   4.601   3.884  16.327  1.0061  0.4246 -0.7582
 2891SOL     OW20305   3.626   3.812   2.384  0.3945  0.3736 -0.2400
 2891SOL    HW120306   3.668   3.757   2.450 -1.4142 -1.9711 -1.0123
 2891SOL    HW220307   3.540   3.824   2.425  0.5047 -0.5315  0.2477
 2892SOL     OW20308   1.308   2.797  16.721 -0.1852  0.9207 -0.0440
 2892SOL    HW120309   1.339   2.713  16.686  1.9133  0.9391  1.7777
 2892SOL    HW220310   1.318   2.778  16.814 -0.1826  3.5298  0.4763
 2893SOL     OW20311   0.707   2.174   7.120  0.0826  0.3479  0.0630
 2893SOL    HW120312   0.679   2.086   7.096 -0.0794  0.5810 -0.5906
 2893SOL    HW220313   0.747   2.206   7.039  1.0378 -2.5652 -0.5840
 2894SOL     OW20314   1.151   1.325   4.471 -0.1513 -0.0616  0.4591
 2894SOL    HW120315   1.096   1.253   4.501  0.2339  0.2924  1.9886
 2894SOL    HW220316   1.129   1.324   4.378 -0.9526  1.9236  0.6348
 2895SOL     OW20317   3.028   0.413   7.949 -0.1188 -0.0542 -0.1300
 2895SOL    HW120318   3.049   0.320   7.957  2.4658  0.9971  5.5216
 2895SOL    HW220319   3.068   0.447   8.029  0.7007 -0.8657 -0.2079
 2896SOL     OW20320   4.376   0.559   4.360 -0.1690  1.1772  0.4724
 2896SOL    HW120321   4.309   0.628   4.369  0.1088  1.4351  0.5695
 2896SOL    HW220322   4.348   0.495   4.426 -1.0492  0.1877 -0.8531
 2897SOL     OW20323   3.349   0.630   3.594  0.4487 -0.5489  0.0495
 2897SOL    HW120324   3.353   0.535   3.594 -1.0561 -0.6119 -0.7950
 2897SOL    HW220325   3.312   0.651   3.508  0.3319  1.8578  0.6894
 2898SOL     OW20326   3.668   0.122   5.291 -0.3750  0.2239 -0.2472
 2898SOL    HW120327   3.673   0.053   5.226  1.7751 -0.1540  0.3270
 2898SOL    HW220328   3.707   0.079   5.368 -0.4409  0.6521  0.0283
 2899SOL     OW20329   2.918   2.013  16.662 -0.4845  0.3636 -0.0046
 2899SOL    HW120330   2.870   2.010  16.745  1.0645 -1.1285  0.8264
 2899SOL    HW220331   3.001   2.040  16.700  0.6253 -1.8343 -0.8899
 2900SOL     OW20332   2.810   2.689  15.685  0.4140  0.1278  0.1815
 2900SOL    HW120333   2.746   2.640  15.632  2.1013 -0.3057 -1.4448
 2900SOL    HW220334   2.845   2.625  15.746  2.1449 -0.2279 -1.1884
 2901SOL     OW20335   1.731   2.220   7.721 -0.3449  0.5366 -0.3912
 2901SOL    HW120336   1.776   2.303   7.702  1.6256 -0.1625  1.1915
 2901SOL    HW220337   1.692   2.207   7.635 -1.9102 -0.4591  0.4721
 2902SOL     OW20338   3.790   4.240   8.909 -0.6017  0.2761 -0.3627
 2902SOL    HW120339   3.800   4.148   8.935 -0.7257  0.5501  0.6356
 2902SOL    HW220340   3.773   4.230   8.815  0.2263 -1.2024 -0.3573
 2903SOL     OW20341   3.873   0.095  11.605 -0.1433 -0.5558  0.0127
 2903SOL    HW120342   3.881   0.001  11.621  0.8927 -0.6405 -0.9616
 2903SOL    HW220343   3.814   0.122  11.675 -0.8288 -0.8004 -0.4684
 2904SOL     OW20344   0.949   3.260   3.266 -0.6631 -0.3793  0.2466
 2904SOL    HW120345   0.904   3.201   3.206 -1.3063 -1.5238  1.8324
 2904SOL    HW220346   0.993   3.195   3.321 -0.8353 -0.8858 -0.2107
 2905SOL     OW20347   1.751   1.671   3.718 -0.6354  0.0912  0.2250
 2905SOL    HW120348   1.727   1.651   3.628  0.6105  2.0604 -0.5435
 2905SOL    HW220349   1.839   1.708   3.705 -0.2560 -0.9871 -0.3081
 2906SOL     OW20350   2.969   2.282   7.948  0.0000  0.0828 -0.0481
 2906SOL    HW120351   3.006   2.205   7.990 -0.4707 -0.9002 -1.4488
 2906SOL    HW220352   2.953   2.342   8.021 -1.6767  0.3216 -0.6006
 2907SOL     OW20353   1.353   3.401   2.137 -0.5073 -0.0205  0.1015
 2907SOL    HW120354   1.276   3.432   2.088 -0.6562  0.9181  0.9284
 2907SOL    HW220355   1.361   3.313   2.102 -0.5855 -0.0389  0.1296
 2908SOL     OW20356   1.131   0.888   1.565 -0.0225  0.5765 -0.0614
 2908SOL    HW120357   1.150   0.978   1.592 -0.5614  0.5669  0.3523
 2908SOL    HW220358   1.100   0.903   1.475  2.1146 -1.5121 -1.1444
 2909SOL     OW20359   3.084   4.639   7.506  0.5287 -0.4117 -0.0660
 2909SOL    HW120360   3.119   4.569   7.450  0.7784 -0.0784 -0.3276
 2909SOL    HW220361   2.993   4.647   7.477  0.8745  0.2603 -0.9685
 2910SOL     OW20362   1.704   0.637   4.513 -0.4643  0.1511  0.8167
 2910SOL    HW120363   1.615   0.626   4.481 -0.3336  2.1900 -0.1879
 2910SOL    HW220364   1.726   0.724   4.480  0.3574 -0.3295  0.0827
 2911SOL     OW20365   0.840   0.560   3.011  0.1451  0.0114  0.5333
 2911SOL    HW120366   0.773   0.628   3.006 -0.3425 -0.5380 -0.3757
 2911SOL    HW220367   0.848   0.531   3.102 -1.5790  0.4059  0.8037
 2912SOL     OW20368   0.245   2.816   7.888  0.9588 -0.3914  0.1488
 2912SOL    HW120369   0.287   2.875   7.950  1.7598 -0.5901 -0.2001
 2912SOL    HW220370   0.316   2.752   7.889  2.3685  1.1865  1.3593
 2913SOL     OW20371   2.994   0.545   2.194  0.6140  0.3812  0.1957
 2913SOL    HW120372   2.910   0.557   2.238  0.4198  1.4010 -0.4475
 2913SOL    HW220373   2.973   0.551   2.101 -1.3508 -1.0948  0.5701
 2914SOL     OW20374   2.276   0.065   6.359 -0.9642  0.2878  0.3758
 2914SOL    HW120375   2.337   0.116   6.412 -0.4319 -0.4594  0.4853
 2914SOL    HW220376   2.212   0.039   6.424 -1.3036 -1.8241 -0.8128
 2915SOL     OW20377   2.572   3.768   4.991  0.0507  0.0731 -0.1841
 2915SOL    HW120378   2.662   3.737   5.002 -0.4244 -1.1556  0.2201
 2915SOL    HW220379   2.587   3.826   4.916 -1.4733  0.5033 -0.1499
 2916SOL     OW20380   4.320   1.305   4.887  0.6616 -0.3057  0.0311
 2916SOL    HW120381   4.282   1.252   4.818 -0.7133  1.9856 -0.9712
 2916SOL    HW220382   4.298   1.255   4.966  1.9428 -3.5270 -1.6723
 2917SOL     OW20383   0.612   1.349  16.628 -0.0281 -0.5669 -0.0468
 2917SOL    HW120384   0.684   1.298  16.667  3.0223  2.4935 -1.7401
 2917SOL    HW220385   0.610   1.303  16.544  2.8543 -1.2849  0.2763
 2918SOL     OW20386   1.448   1.571  13.705 -0.2271  0.8894  0.4517
 2918SOL    HW120387   1.516   1.638  13.702  0.9743 -0.4143 -1.7290
 2918SOL    HW220388   1.384   1.614  13.762  1.0450 -0.2386  2.7235
 2919SOL     OW20389   4.367   1.820   3.069 -0.3358 -0.0581 -0.2446
 2919SOL    HW120390   4.408   1.880   3.131  0.4500 -2.6924  1.8321
 2919SOL    HW220391   4.407   1.839   2.984  2.1240 -0.0153  0.9063
 2920SOL     OW20392   0.126   0.982  12.342 -0.3456  0.5044  0.4011
 2920SOL    HW120393   0.183   1.023  12.407  1.3550 -0.4312 -0.4949
 2920SOL    HW220394   0.077   0.935  12.409 -1.5652  0.2810 -0.6378
 2921SOL     OW20395   0.932   2.482   1.269  0.2917 -0.0480 -0.2473
 2921SOL    HW120396   0.948   2.414   1.335 -0.2552  0.4500  0.3930
 2921SOL    HW220397   0.879   2.546   1.315  1.5008  0.9626 -0.2486
 2922SOL     OW20398   2.788   0.057  15.701  0.0464 -0.0309 -0.0853
 2922SOL    HW120399   2.695   0.037  15.709 -0.1515  0.2361 -1.6701
 2922SOL    HW220400   2.823   4.704  15.700  0.4554  0.1271  0.0362
 2923SOL     OW20401   4.596   0.730   3.569 -0.1399  0.1582  0.1859
 2923SOL    HW120402   4.638   0.682   3.639  1.5391 -0.6576 -1.3906
 2923SOL    HW220403   4.599   0.661   3.503 -0.4034 -0.7154  1.0862
 2924SOL     OW20404   4.409   4.020   4.721  0.1227 -0.4103 -0.2960
 2924SOL    HW120405   4.422   4.037   4.627  1.3425  0.7631  0.0805
 2924SOL    HW220406   4.482   3.959   4.731  0.0391 -0.3296  0.7583
 2925SOL     OW20407   1.087   4.223   2.926 -0.2562  0.1353 -0.3109
 2925SOL    HW120408   1.051   4.312   2.923  1.1209  0.7440  1.0657
 2925SOL    HW220409   1.042   4.188   3.003 -1.4896  0.7883 -0.7491
 2926SOL     OW20410   0.643   4.715  15.323  0.1327  0.0206  0.0223
 2926SOL    HW120411   0.692   4.635  15.302 -0.5070 -0.7624  1.5107
 2926SOL    HW220412   0.687   0.003  15.404 -0.6423 -1.9334  1.0551
 2927SOL     OW20413   4.091   0.351  12.314 -0.3915 -0.4493 -0.2960
 2927SOL    HW120414   4.140   0.287  12.365  0.6943  0.1593 -0.5804
 2927SOL    HW220415   4.050   0.407  12.380 -0.3359 -1.9991  1.0410
 2928SOL     OW20416   4.679   0.910  15.949  0.1413 -0.3172 -0.5058
 2928SOL    HW120417   0.033   0.929  15.927  0.0335  1.3956  0.4962
 2928SOL    HW220418   4.633   0.973  15.893 -1.0219  0.7446  1.6296
 2929SOL     OW20419   2.317   3.474   3.260  0.4501 -0.0420 -0.2492
 2929SOL    HW120420   2.270   3.557   3.250  0.7727 -0.1962 -3.1013
 2929SOL    HW220421   2.373   3.491   3.335  1.7260  0.0042 -1.2027
 2930SOL     OW20422   4.711   0.254   1.400  0.1683 -0.6620  0.0805
 2930SOL    HW120423   4.706   0.290   1.311 -1.5034  3.0703  1.6543
 2930SOL    HW220424   0.030   0.319   1.443  0.5759  1.0145 -2.9957
 2931SOL     OW20425   2.531   4.210  13.800  0.2009  0.1206  0.1945
 2931SOL    HW120426   2.494   4.148  13.737 -1.0211  0.0904  0.9612
 2931SOL    HW220427   2.497   4.286  13.752 -1.8045 -0.7559  0.2390
 2932SOL     OW20428   0.004   4.449   5.058  0.7708 -0.3315  0.0364
 2932SOL    HW120429   0.055   4.377   5.096  0.1131 -1.6471 -1.5919
 2932SOL    HW220430   4.721   4.499   5.137  0.2576  2.0233 -1.6065
 2933SOL     OW20431   2.550   0.967   6.107  0.0248  0.4248 -0.2177
 2933SOL    HW120432   2.551   0.885   6.057  1.3202  0.2909  0.0408
 2933SOL    HW220433   2.496   1.018   6.046  0.6187  0.2846 -0.8601
 2934SOL     OW20434   2.689   0.067   7.795  0.1488  0.2781  0.4675
 2934SOL    HW120435   2.749   0.007   7.838  0.9804 -0.9382 -2.3956
 2934SOL    HW220436   2.706   0.139   7.856 -1.5065  0.1018  1.1190
 2935SOL     OW20437   2.861   0.367   6.063  0.4653  0.1689 -0.0639
 2935SOL    HW120438   2.933   0.332   6.011  0.1269  0.2901 -0.6275
 2935SOL    HW220439   2.796   0.299   6.044 -0.4141  0.5759  1.4912
 2936SOL     OW20440   1.233   3.314   8.837  0.1117  1.3618  0.3870
 2936SOL    HW120441   1.299   3.381   8.849 -1.1607  2.5609  0.7204
 2936SOL    HW220442   1.218   3.280   8.925 -0.1232  0.6422  0.0760
 2937SOL     OW20443   0.863   0.027   7.021 -0.1224 -0.0512  0.2524
 2937SOL    HW120444   0.901   0.097   6.969 -0.6370  0.6786  0.8471
 2937SOL    HW220445   0.797   0.082   7.063  0.2389  0.0797  0.6468
 2938SOL     OW20446   4.653   3.536   9.436  0.5494 -0.7988  0.0388
 2938SOL    HW120447   4.717   3.548   9.507 -1.7414  1.5818  1.7047
 2938SOL    HW220448   4.602   3.474   9.487 -0.2521  1.9519  2.6295
 2939SOL     OW20449   2.984   1.484  15.087  0.1315 -0.0814  0.9376
 2939SOL    HW120450   2.956   1.401  15.049  1.3817 -1.4486  2.9689
 2939SOL    HW220451   2.965   1.475  15.180 -2.1497  2.3713  0.7037
 2940SOL     OW20452   4.644   4.365   6.054 -0.5185  0.4369 -0.3607
 2940SOL    HW120453   4.721   4.417   6.075 -0.9358 -0.0832  2.4944
 2940SOL    HW220454   4.675   4.313   5.980  3.1123  1.6679  0.3093
 2941SOL     OW20455   3.743   1.728  15.154 -0.2562 -0.0995 -0.4255
 2941SOL    HW120456   3.767   1.820  15.161 -0.2373  0.1504 -3.6723
 2941SOL    HW220457   3.711   1.719  15.244 -0.5427  0.8409 -0.4304
 2942SOL     OW20458   0.734   0.918   2.590  0.2276 -0.0144  0.0188
 2942SOL    HW120459   0.710   0.925   2.498  2.6640  1.8526 -0.4741
 2942SOL    HW220460   0.663   0.872   2.635 -0.5634 -0.4775 -1.7107
 2943SOL     OW20461   3.221   2.909   2.850 -0.2246 -0.1926 -0.6242
 2943SOL    HW120462   3.228   2.821   2.887  0.7304 -1.0948 -2.9331
 2943SOL    HW220463   3.196   2.956   2.929 -1.6154 -1.1054 -0.5261
 2944SOL     OW20464   4.097   3.522   7.572  0.2282  0.6850 -0.1221
 2944SOL    HW120465   4.037   3.448   7.564 -0.7663  1.2371  2.5784
 2944SOL    HW220466   4.038   3.591   7.542  1.2387  1.3502 -0.5872
 2945SOL     OW20467   2.559   2.591   2.654 -0.1730  0.6178 -0.6113
 2945SOL    HW120468   2.545   2.573   2.747  1.6643 -1.2394 -0.6865
 2945SOL    HW220469   2.469   2.610   2.628 -0.8422 -1.4638  0.2075
 2946SOL     OW20470   2.745   4.008   1.358 -0.1310 -0.8360 -0.0900
 2946SOL    HW120471   2.737   3.913   1.347  2.1338 -1.0584  0.2463
 2946SOL    HW220472   2.653   4.019   1.332 -0.1821  0.0820  0.4977
 2947SOL     OW20473   2.249   0.933   7.858  0.3043  0.4682  0.1673
 2947SOL    HW120474   2.188   0.916   7.930  0.8469 -0.7225  0.3353
 2947SOL    HW220475   2.303   0.996   7.905  0.4279  2.1960 -2.2546
 2948SOL     OW20476   1.789   1.724  15.705  0.4003  0.4917  0.4410
 2948SOL    HW120477   1.818   1.654  15.646  0.2469  0.6718  0.1504
 2948SOL    HW220478   1.785   1.801  15.648 -0.6130  0.1040 -0.0211
 2949SOL     OW20479   3.811   3.117   5.358 -0.3841 -0.1263 -0.0137
 2949SOL    HW120480   3.870   3.064   5.412 -2.6952 -0.6970  1.9608
 2949SOL    HW220481   3.867   3.193   5.346 -1.7648  0.9097  0.1092
 2950SOL     OW20482   2.172   0.143   5.078 -0.4222  0.1300  0.4155
 2950SOL    HW120483   2.216   0.059   5.067 -0.3743  0.3521 -0.9980
 2950SOL    HW220484   2.200   0.177   4.994  1.8949 -3.3791 -0.2612
 2951SOL     OW20485   2.397   3.241  10.085  0.5261 -0.1995 -0.4459
 2951SOL    HW120486   2.350   3.232  10.168  0.3621 -0.8447 -0.6007
 2951SOL    HW220487   2.329   3.237  10.017  0.2501  2.0693 -0.2811
 2952SOL     OW20488   1.510   2.087   3.144 -0.2415 -0.7212 -0.1513
 2952SOL    HW120489   1.581   2.149   3.165 -1.6069  0.3277  1.3674
 2952SOL    HW220490   1.553   2.004   3.164  3.4171  0.6769 -2.0755
 2953SOL     OW20491   1.622   4.327   4.005 -0.0456  0.0315  0.3686
 2953SOL    HW120492   1.655   4.407   4.047  0.8831 -1.0424  1.6757
 2953SOL    HW220493   1.704   4.279   4.005 -0.6442 -0.9916  0.9286
 2954SOL     OW20494   4.687   2.994   5.924  0.1608 -0.8666  0.2717
 2954SOL    HW120495   4.712   3.086   5.911 -0.8633 -0.5959  0.1953
 2954SOL    HW220496   4.602   3.008   5.967  0.2322 -2.8604  1.0360
 2955SOL     OW20497   3.978   0.659   4.552 -0.0955 -0.3641 -0.3283
 2955SOL    HW120498   4.030   0.591   4.596  2.3940  0.2854 -2.2232
 2955SOL    HW220499   3.989   0.628   4.462  0.8956 -1.0925  0.0367
 2956SOL     OW20500   1.480   1.855  17.457 -0.0544  0.0710  0.0732
 2956SOL    HW120501   1.437   1.795  17.517 -0.7863  0.3314 -0.1967
 2956SOL    HW220502   1.411   1.869  17.392  0.3524  0.3047 -0.3064
 2957SOL     OW20503   0.524   3.203   1.200  0.3670 -0.3748  0.2964
 2957SOL    HW120504   0.524   3.110   1.219  3.2303 -1.1823 -3.6335
 2957SOL    HW220505   0.468   3.244   1.265  0.3568  0.1655 -0.0481
 2958SOL     OW20506   0.812   2.584   4.267  0.0639 -0.1517 -0.1715
 2958SOL    HW120507   0.895   2.618   4.299  0.3616 -1.2436  0.2310
 2958SOL    HW220508   0.793   2.647   4.198  0.6390 -1.0159 -1.1217
 2959SOL     OW20509   0.457   2.851   8.588 -0.4490  0.1086  0.3370
 2959SOL    HW120510   0.466   2.903   8.508  1.5238 -1.0495 -0.2064
 2959SOL    HW220511   0.418   2.772   8.550  0.1934 -0.6442  1.2237
 2960SOL     OW20512   0.883   4.255  12.537 -0.3181  0.3484 -0.6610
 2960SOL    HW120513   0.977   4.247  12.553 -0.1501 -1.4374 -2.5800
 2960SOL    HW220514   0.876   4.350  12.541  2.0182  0.4439  1.3351
 2961SOL     OW20515   2.581   3.531  13.023  0.3073 -0.5086 -0.3961
 2961SOL    HW120516   2.638   3.456  13.009 -0.1035 -1.0473  0.8207
 2961SOL    HW220517   2.496   3.487  13.026  0.2445 -0.2788  1.7502
 2962SOL     OW20518   1.918   1.380   3.474 -0.1477  0.0877 -0.4588
 2962SOL    HW120519   1.934   1.468   3.440 -1.6672  0.6044  0.1528
 2962SOL    HW220520   1.994   1.371   3.532  0.8186 -1.6137 -1.9939
 2963SOL     OW20521   4.528   2.887   0.770 -0.0256  0.7113  0.1602
 2963SOL    HW120522   4.611   2.841   0.760 -0.4468 -1.1240  4.7085
 2963SOL    HW220523   4.515   2.864   0.862  0.0281 -1.4414 -0.3697
 2964SOL     OW20524   4.538   0.510   6.246  0.1096 -0.2163  0.3516
 2964SOL    HW120525   4.624   0.503   6.203 -0.0417 -0.4453  0.0865
 2964SOL    HW220526   4.513   0.601   6.231  0.4900 -0.3137 -0.8797
 2965SOL     OW20527   4.556   2.213  11.853 -0.1608 -0.4844  0.1418
 2965SOL    HW120528   4.478   2.171  11.888 -1.3323  1.2735 -0.3988
 2965SOL    HW220529   4.554   2.177  11.764  0.3833 -0.1598 -0.0036
 2966SOL     OW20530   4.476   0.168   8.749  0.3301 -0.3142  0.0573
 2966SOL    HW120531   4.474   0.072   8.752 -0.6989 -0.3469 -1.5896
 2966SOL    HW220532   4.522   0.194   8.829  0.2346 -1.7004  0.5732
 2967SOL     OW20533   1.397   0.609   8.426  0.3116  0.3594  0.0183
 2967SOL    HW120534   1.330   0.540   8.423  0.3013  0.3195  1.0792
 2967SOL    HW220535   1.470   0.550   8.444  0.3987  0.3765 -0.2866
 2968SOL     OW20536   2.811   4.041  14.193  0.3607  0.5941 -0.3477
 2968SOL    HW120537   2.757   4.108  14.149  1.2756  3.4177  2.7837
 2968SOL    HW220538   2.737   4.003  14.240  0.1281  0.0727 -1.1327
 2969SOL     OW20539   1.699   0.864   4.341 -0.4810 -0.0696  0.1676
 2969SOL    HW120540   1.745   0.929   4.394 -0.3160 -0.9775  1.1378
 2969SOL    HW220541   1.610   0.898   4.344 -1.0062 -1.4457  0.2387
 2970SOL     OW20542   0.846   0.821   7.523  0.1931 -0.6286 -0.3672
 2970SOL    HW120543   0.834   0.846   7.615  0.2454 -1.8374 -0.0327
 2970SOL    HW220544   0.926   0.866   7.497 -0.2244  0.2606 -0.1408
 2971SOL     OW20545   4.495   0.876   4.098 -0.1352 -0.2604  0.2763
 2971SOL    HW120546   4.551   0.860   4.174  0.5735  1.1632  0.0522
 2971SOL    HW220547   4.533   0.958   4.067 -0.1313 -0.1110  0.6658
 2972SOL     OW20548   3.226   1.214   6.488  0.1760 -0.4851 -0.2762
 2972SOL    HW120549   3.210   1.128   6.527 -0.0037 -0.0795  0.5436
 2972SOL    HW220550   3.143   1.244   6.452 -0.4670  1.8550  3.2346
 2973SOL     OW20551   1.549   3.305   2.522  0.8210  0.4935 -0.2560
 2973SOL    HW120552   1.548   3.390   2.565  3.4230 -0.0736  0.8994
 2973SOL    HW220553   1.613   3.311   2.451 -2.1502  1.3926 -2.9095
 2974SOL     OW20554   0.642   1.668   9.429 -0.2519 -0.2546  0.1973
 2974SOL    HW120555   0.618   1.670   9.336 -0.3588 -3.6929  0.1656
 2974SOL    HW220556   0.587   1.738   9.464  0.4299  1.6227 -2.4648
 2975SOL     OW20557   2.878   1.913   3.824  0.2072  0.1426 -0.3431
 2975SOL    HW120558   2.886   1.817   3.826  3.0413  0.4141  0.2614
 2975SOL    HW220559   2.817   1.926   3.751 -0.0580 -2.3059 -0.5801
 2976SOL     OW20560   4.690   2.614   4.899  0.2143 -0.6874  0.0391
 2976SOL    HW120561   0.045   2.632   4.915  0.7260 -3.5333  0.2864
 2976SOL    HW220562   4.701   2.545   4.833 -0.1109 -1.6888  1.0420
 2977SOL     OW20563   0.721   3.912  16.539 -0.0687 -0.2389  0.2557
 2977SOL    HW120564   0.653   3.885  16.477 -0.0563 -0.0286  0.1484
 2977SOL    HW220565   0.667   3.956  16.605 -2.3099  0.8329 -2.2887
 2978SOL     OW20566   0.962   0.353   2.376  0.0527 -0.4906  0.7937
 2978SOL    HW120567   0.973   0.309   2.292 -0.9184  0.2696  0.2707
 2978SOL    HW220568   0.869   0.344   2.396 -0.0550 -1.2382 -0.0371
 2979SOL     OW20569   2.600   3.905  17.149 -0.0038 -0.2454  0.3973
 2979SOL    HW120570   2.589   3.887  17.242  0.5152  0.2314  0.5568
 2979SOL    HW220571   2.602   3.815  17.116 -0.8737 -0.6339  1.4151
 2980SOL     OW20572   3.795   2.418   5.108 -0.5365 -0.6460 -0.4934
 2980SOL    HW120573   3.838   2.431   5.023 -0.1827  1.8919  0.0615
 2980SOL    HW220574   3.811   2.500   5.156 -1.1870 -1.6737  1.4676
 2981SOL     OW20575   3.434   0.233   9.129  0.1633  0.6762 -0.2214
 2981SOL    HW120576   3.411   0.169   9.062  1.2057 -0.5225  0.5515
 2981SOL    HW220577   3.528   0.214   9.125  0.1599  0.9743 -1.8414
 2982SOL     OW20578   3.081   1.560   1.454 -1.1077 -0.1457 -0.2766
 2982SOL    HW120579   2.992   1.573   1.420 -0.3257  0.3926 -2.1067
 2982SOL    HW220580   3.060   1.595   1.541  2.8049 -1.1915  1.0737
 2983SOL     OW20581   1.549   1.111  11.538  0.1523  0.4598 -0.1454
 2983SOL    HW120582   1.579   1.188  11.489 -2.7296  1.1792 -0.7503
 2983SOL    HW220583   1.457   1.132  11.549  0.0789 -0.4508  0.9364
 2984SOL     OW20584   0.948   4.486  10.359 -0.0015  0.2254  0.2656
 2984SOL    HW120585   0.984   4.505  10.446 -0.7488  1.4371  0.3004
 2984SOL    HW220586   1.012   4.440  10.304 -1.5892 -0.9412 -0.6300
 2985SOL     OW20587   0.034   1.430   9.461  0.0166 -0.6155 -0.3740
 2985SOL    HW120588   0.105   1.483   9.497 -0.6784 -0.8825  1.3841
 2985SOL    HW220589   0.090   1.364   9.420  0.2725 -0.2163 -0.6649
 2986SOL     OW20590   2.170   3.662   4.284 -0.0847  0.1045 -0.0363
 2986SOL    HW120591   2.149   3.591   4.345  0.8323  1.5672  1.9469
 2986SOL    HW220592   2.249   3.706   4.313  0.3776  1.0520 -2.7239
 2987SOL     OW20593   1.095   3.079   6.309  0.1764 -0.6142  0.2249
 2987SOL    HW120594   1.157   3.150   6.294  0.8362 -1.6056 -1.7795
 2987SOL    HW220595   1.118   3.044   6.395  2.1703  1.1261  0.3785
 2988SOL     OW20596   0.738   0.551   6.393 -0.1524 -0.1498 -0.1135
 2988SOL    HW120597   0.762   0.625   6.337 -1.2259 -0.2840 -0.7406
 2988SOL    HW220598   0.647   0.573   6.415 -0.3877 -2.0008  0.7633
 2989SOL     OW20599   2.726   1.580   1.048  0.1752 -0.3527  0.0210
 2989SOL    HW120600   2.647   1.545   1.090 -0.2532  1.4207  0.6794
 2989SOL    HW220601   2.699   1.667   1.017 -0.6186 -0.4426  0.4488
 2990SOL     OW20602   4.236   0.751   9.646 -0.4315  0.4085  0.5210
 2990SOL    HW120603   4.282   0.668   9.659 -1.8509 -0.1296  2.0670
 2990SOL    HW220604   4.272   0.789   9.566 -0.1682 -2.2317 -0.5849
 2991SOL     OW20605   1.754   2.214   1.076  0.5960  0.2853 -0.0931
 2991SOL    HW120606   1.745   2.171   1.161  2.0642  0.4947  0.1607
 2991SOL    HW220607   1.664   2.243   1.064  0.0328 -1.9137 -1.1229
 2992SOL     OW20608   3.821   2.201   5.359 -0.1086 -0.1128  0.3170
 2992SOL    HW120609   3.757   2.254   5.313 -0.9032 -0.0436  1.5120
 2992SOL    HW220610   3.771   2.148   5.421 -1.0795 -1.1359 -1.3363
 2993SOL     OW20611   0.318   0.280   9.559  0.8870 -0.0229 -0.3841
 2993SOL    HW120612   0.302   0.374   9.568  3.1299  0.1920  1.2467
 2993SOL    HW220613   0.329   0.252   9.650  3.5641  0.6908 -0.4804
 2994SOL     OW20614   2.348   0.019   1.234  0.1340  0.2762  0.3394
 2994SOL    HW120615   2.428   0.018   1.286 -1.4042 -1.3818  2.6664
 2994SOL    HW220616   2.332   0.113   1.228 -0.7939  0.1354  0.6769
 2995SOL     OW20617   4.484   0.612   7.700 -0.4408 -0.0530  0.2011
 2995SOL    HW120618   4.500   0.523   7.668 -3.9335 -1.1775  1.5648
 2995SOL    HW220619   4.570   0.625   7.739 -0.7483 -1.2730  1.2896
 2996SOL     OW20620   3.735   2.755   8.776  0.2770  0.2718 -0.5406
 2996SOL    HW120621   3.718   2.661   8.768 -1.3057  0.6883 -2.1811
 2996SOL    HW220622   3.653   2.781   8.818  1.4272  0.0377  1.8900
 2997SOL     OW20623   3.816   1.338   9.059 -0.0265 -0.4108  0.9935
 2997SOL    HW120624   3.826   1.277   8.986  0.3059 -0.6482  1.2415
 2997SOL    HW220625   3.784   1.284   9.131  1.5043 -4.1582 -1.1869
 2998SOL     OW20626   3.714   2.806   9.177  0.3235 -0.5384 -0.0659
 2998SOL    HW120627   3.769   2.865   9.125 -1.3213 -0.9006 -2.2134
 2998SOL    HW220628   3.690   2.867   9.246 -0.5690 -0.4366 -0.4629
 2999SOL     OW20629   1.159   0.012  15.424  0.1616  0.2078 -0.0082
 2999SOL    HW120630   1.154   4.721  15.515  0.6117  1.4974  0.4109
 2999SOL    HW220631   1.219   0.086  15.434  0.5794 -0.0682 -0.4748
 3000SOL     OW20632   4.399   0.213   2.632  0.4433  0.1403 -0.0302
 3000SOL    HW120633   4.430   0.123   2.640 -1.8574 -0.7168 -0.8226
 3000SOL    HW220634   4.468   0.257   2.582 -1.5374  1.1612 -1.8443
 3001SOL     OW20635   1.205   4.544   8.137 -0.2025 -0.2114  0.6271
 3001SOL    HW120636   1.186   4.484   8.210 -2.3473  0.5340  0.6846
 3001SOL    HW220637   1.282   4.592   8.168 -0.3397 -0.8784  1.9935
 3002SOL     OW20638   3.306   1.214   2.469 -0.8881  0.1682 -0.3324
 3002SOL    HW120639   3.244   1.168   2.412 -0.1976  1.4838 -2.1455
 3002SOL    HW220640   3.309   1.299   2.426  1.4613  1.6653  2.7776
 3003SOL     OW20641   2.062   0.084   6.820 -0.5144 -0.2449 -0.0466
 3003SOL    HW120642   2.089   0.161   6.770  1.1298 -1.0045 -0.3310
 3003SOL    HW220643   2.142   0.066   6.869 -1.7267 -1.6576  1.4364
 3004SOL     OW20644   0.575   0.251   7.849  0.3212 -0.2516  0.3831
 3004SOL    HW120645   0.614   0.303   7.919 -0.6826  1.3376 -0.2328
 3004SOL    HW220646   0.627   0.171   7.856  0.7794 -0.1481 -1.7409
 3005SOL     OW20647   1.957   1.465  10.071  0.3013  0.0718 -0.7309
 3005SOL    HW120648   1.923   1.514  10.146 -3.0744 -2.9017 -0.3696
 3005SOL    HW220649   2.029   1.417  10.113 -2.4870 -3.2024  0.2986
 3006SOL     OW20650   2.776   2.932   2.211 -0.1612 -0.0357 -0.0015
 3006SOL    HW120651   2.751   3.017   2.173  1.2277  0.9811  1.3689
 3006SOL    HW220652   2.814   2.963   2.293 -4.2920 -0.2762  2.0073
 3007SOL     OW20653   0.957   1.006   1.334 -0.1069 -0.3413 -0.0783
 3007SOL    HW120654   1.003   0.938   1.285 -2.6434 -1.4040 -0.9482
 3007SOL    HW220655   0.909   1.051   1.264 -0.2188  0.4130  0.4771
 3008SOL     OW20656   1.679   3.385  11.126  0.1875 -0.3797 -0.2780
 3008SOL    HW120657   1.749   3.382  11.062 -1.4587 -2.7220 -1.9698
 3008SOL    HW220658   1.701   3.315  11.187 -0.0365  1.0934  1.4981
 3009SOL     OW20659   3.647   1.116   8.150  0.0608 -0.1892  0.0580
 3009SOL    HW120660   3.592   1.040   8.129  1.5866 -0.9019 -1.3207
 3009SOL    HW220661   3.738   1.088   8.139  0.5372  0.3808  2.6175
 3010SOL     OW20662   1.486   4.298   9.065 -0.1698  0.9223 -0.0850
 3010SOL    HW120663   1.568   4.253   9.046  0.3489  2.0596 -0.5524
 3010SOL    HW220664   1.479   4.359   8.992  2.6480  2.0724  0.6368
 3011SOL     OW20665   1.755   1.253   2.024 -0.7045  0.1936  0.0327
 3011SOL    HW120666   1.672   1.213   2.050 -1.0548  1.1213  0.3046
 3011SOL    HW220667   1.760   1.224   1.932 -1.7932  0.2260 -0.0410
 3012SOL     OW20668   3.249   1.701   3.725 -0.3723 -0.1864 -0.2094
 3012SOL    HW120669   3.175   1.713   3.785  0.1263 -2.6764  0.9140
 3012SOL    HW220670   3.226   1.612   3.700  0.3179 -0.3065 -0.4033
 3013SOL     OW20671   2.909   3.229   4.524  0.1768  0.3706  0.1780
 3013SOL    HW120672   2.892   3.288   4.598 -0.6986  0.0742  0.2200
 3013SOL    HW220673   2.845   3.270   4.465 -0.4987  0.7256  1.1434
 3014SOL     OW20674   2.043   3.527  10.703  0.5836 -0.2049 -0.2531
 3014SOL    HW120675   2.093   3.471  10.644 -1.3316 -0.0197 -2.0459
 3014SOL    HW220676   2.100   3.529  10.780 -1.1141 -0.9299  1.0179
 3015SOL     OW20677   4.646   1.549   3.096 -0.5439  0.4295  0.7190
 3015SOL    HW120678   4.597   1.468   3.084 -0.7281  0.4076  1.5828
 3015SOL    HW220679   4.724   1.511   3.056 -0.4628 -0.2604  1.5325
 3016SOL     OW20680   2.957   2.673   3.681  0.1410  0.2640  0.4026
 3016SOL    HW120681   2.953   2.737   3.752  0.6834  0.5159  0.2073
 3016SOL    HW220682   2.905   2.601   3.716 -1.5477  0.9973 -0.6004
 3017SOL     OW20683   0.311   2.580   5.327  0.2437  0.2817 -0.4194
 3017SOL    HW120684   0.376   2.651   5.321  0.5797  0.0474  0.4540
 3017SOL    HW220685   0.374   2.518   5.362 -1.8630 -0.9226  1.2484
 3018SOL     OW20686   1.147   3.623   5.374  0.0898  0.2802  0.4312
 3018SOL    HW120687   1.241   3.616   5.387 -0.1086  0.4538  1.9545
 3018SOL    HW220688   1.131   3.539   5.331  1.9377  0.5474 -0.7818
 3019SOL     OW20689   2.312   0.775  16.969  0.0240 -0.3078  0.0516
 3019SOL    HW120690   2.391   0.830  16.959 -0.5571  0.4445 -0.4642
 3019SOL    HW220691   2.260   0.822  16.904  1.3210 -0.7307 -1.3047
 3020SOL     OW20692   1.427   4.726   1.116  0.5436 -0.0448 -0.1752
 3020SOL    HW120693   1.509   0.039   1.107  0.4318  0.3671  1.1416
 3020SOL    HW220694   1.404   4.729   1.023  1.1495 -2.0228 -0.3784
 3021SOL     OW20695   0.803   1.355   1.552  0.4561  0.2785  0.5449
 3021SOL    HW120696   0.764   1.340   1.466  0.7416 -0.8066  0.6026
 3021SOL    HW220697   0.892   1.371   1.519  0.8988  2.4031  2.7890
 3022SOL     OW20698   3.406   2.403  11.209 -0.1834 -0.0787  0.4465
 3022SOL    HW120699   3.486   2.454  11.219 -2.0317  2.7003  0.9821
 3022SOL    HW220700   3.354   2.466  11.159 -0.1346  0.5279  1.1717
 3023SOL     OW20701   4.653   1.369   8.684  0.2610  0.0033 -0.3115
 3023SOL    HW120702   4.668   1.399   8.773  3.1848  0.4716 -0.9490
 3023SOL    HW220703   4.558   1.373   8.685  0.2306 -1.1086  1.2698
 3024SOL     OW20704   2.075   1.004   4.819  0.3327  0.2774 -0.1327
 3024SOL    HW120705   2.054   0.967   4.905 -0.5862  0.3328 -0.3337
 3024SOL    HW220706   2.127   0.934   4.780  0.4210 -0.2236  0.9095
 3025SOL     OW20707   2.128   3.715  16.951  0.1615 -0.5120 -0.4102
 3025SOL    HW120708   2.109   3.750  16.864 -0.9649 -0.7896 -0.2643
 3025SOL    HW220709   2.224   3.707  16.953 -0.0093 -2.1486  0.8965
 3026SOL     OW20710   3.626   1.787   2.143 -0.0668  0.4234 -0.5914
 3026SOL    HW120711   3.596   1.759   2.056 -0.9842  0.4187 -0.2708
 3026SOL    HW220712   3.654   1.704   2.182  1.3438  1.7068  1.1209
 3027SOL     OW20713   1.281   1.167   1.079 -0.3294 -0.2375  0.1232
 3027SOL    HW120714   1.205   1.130   1.035 -0.4432  1.0977 -0.8108
 3027SOL    HW220715   1.305   1.245   1.028 -0.5759 -0.3018 -0.0862
 3028SOL     OW20716   0.415   4.493   1.490 -0.2054 -0.1487 -0.1714
 3028SOL    HW120717   0.371   4.427   1.543 -2.3881  1.1134 -0.4196
 3028SOL    HW220718   0.415   4.570   1.547 -0.5630 -0.3070  0.0385
 3029SOL     OW20719   1.703   0.461   8.784  0.0869  0.3677 -0.0332
 3029SOL    HW120720   1.679   0.460   8.691  2.5874  0.2754 -0.6744
 3029SOL    HW220721   1.796   0.443   8.769  0.3880 -1.0864  3.5119
 3030SOL     OW20722   4.497   1.438  15.455 -0.3989  0.3863  0.3220
 3030SOL    HW120723   4.498   1.533  15.472 -2.5062  0.6584 -1.0986
 3030SOL    HW220724   4.579   1.434  15.404 -1.3646 -1.9056 -1.0549
 3031SOL     OW20725   1.797   1.494  13.513  0.3239 -0.3027  0.4701
 3031SOL    HW120726   1.882   1.491  13.557 -0.3053 -0.0032  1.7048
 3031SOL    HW220727   1.765   1.584  13.503  0.8364 -0.0958  0.6833
 3032SOL     OW20728   0.174   0.027   5.910 -0.0716 -0.0504 -0.0209
 3032SOL    HW120729   0.195   0.042   6.002  0.0385 -0.9404  0.0936
 3032SOL    HW220730   0.078   0.025   5.911 -0.0861  1.0013  0.8409
 3033SOL     OW20731   0.255   2.302   5.116  0.0979  0.1695  0.0763
 3033SOL    HW120732   0.262   2.288   5.021  1.9281  0.0090  0.2356
 3033SOL    HW220733   0.332   2.358   5.122  1.3196 -1.2497 -2.1533
 3034SOL     OW20734   4.551   1.422   7.666 -0.3162  0.0877  0.5949
 3034SOL    HW120735   4.468   1.380   7.644  1.5175 -2.4407 -1.4631
 3034SOL    HW220736   4.615   1.368   7.620 -0.0335  1.2760 -0.4268
 3035SOL     OW20737   0.734   0.078   1.386  0.3446 -0.0636  0.5254
 3035SOL    HW120738   0.764   0.150   1.331 -3.1672  1.9637  1.2800
 3035SOL    HW220739   0.689   0.020   1.325  0.8117  0.1011  0.0195
 3036SOL     OW20740   1.205   2.723   5.679 -0.1108 -0.1557  0.2921
 3036SOL    HW120741   1.110   2.737   5.686  0.0564  0.9334  0.3471
 3036SOL    HW220742   1.240   2.728   5.768  0.5114  0.6869  0.0051
 3037SOL     OW20743   1.751   2.293  14.133  0.3545  0.4948 -0.3171
 3037SOL    HW120744   1.676   2.317  14.187 -0.9369  0.9547 -2.3089
 3037SOL    HW220745   1.702   2.266  14.056  3.2712  1.3715 -2.4939
 3038SOL     OW20746   1.358   0.859   8.315 -0.2339 -0.0627 -0.1694
 3038SOL    HW120747   1.359   0.768   8.345  0.1072 -0.0848 -0.2504
 3038SOL    HW220748   1.312   0.906   8.385 -1.6855 -1.2050 -0.3588
 3039SOL     OW20749   2.044   0.893   5.517 -0.3659 -0.4401  0.0962
 3039SOL    HW120750   2.112   0.959   5.504 -2.1979  1.3141 -0.5588
 3039SOL    HW220751   2.069   0.866   5.605  1.9514  0.2876 -0.3292
 3040SOL     OW20752   3.667   1.763  14.081  0.3306  0.0236 -0.4964
 3040SOL    HW120753   3.752   1.792  14.048  1.2325 -0.5615  1.2828
 3040SOL    HW220754   3.649   1.826  14.151 -0.1504  0.5790 -1.1243
 3041SOL     OW20755   0.000   2.684  17.511  0.0175  0.0569 -0.1251
 3041SOL    HW120756   0.034   2.594  17.512 -0.6066 -0.1850 -3.1013
 3041SOL    HW220757   0.075   2.740  17.532  0.2102 -0.0642 -0.4886
 3042SOL     OW20758   1.129   2.871  14.525 -0.1558 -0.7044 -0.2901
 3042SOL    HW120759   1.149   2.886  14.618  1.7559 -1.7601 -0.5206
 3042SOL    HW220760   1.189   2.935  14.486 -1.6852  2.0858  1.9488
 3043SOL     OW20761   0.658   4.200   2.592 -0.1287 -0.2000  0.0639
 3043SOL    HW120762   0.630   4.194   2.501 -2.2539 -0.6995  0.7434
 3043SOL    HW220763   0.648   4.295   2.599  0.4296 -0.3136  2.2251
 3044SOL     OW20764   2.725   4.174   3.678  0.4655 -0.4371 -0.3650
 3044SOL    HW120765   2.771   4.091   3.667  2.0198  0.2580  1.0566
 3044SOL    HW220766   2.634   4.145   3.688 -0.0324  1.2445 -0.0508
 3045SOL     OW20767   1.734   2.016   3.639 -0.2200  0.3040 -0.5865
 3045SOL    HW120768   1.707   2.108   3.644  3.1947  1.3410 -1.6890
 3045SOL    HW220769   1.768   1.999   3.552  2.0575  0.2598  0.3062
 3046SOL     OW20770   0.521   2.758   3.314  0.5347 -0.3075 -0.9759
 3046SOL    HW120771   0.576   2.719   3.245  0.0945 -0.6893 -1.1079
 3046SOL    HW220772   0.446   2.700   3.326  1.5248 -1.0479  1.6820
 3047SOL     OW20773   4.490   1.428   4.650  0.1318  0.6521  0.9680
 3047SOL    HW120774   4.493   1.390   4.738 -3.2705  2.3016  1.8265
 3047SOL    HW220775   4.510   1.358   4.587 -2.2658  0.1023  0.8059
 3048SOL     OW20776   1.144   4.179   3.784  0.2776  0.2773 -0.0802
 3048SOL    HW120777   1.233   4.161   3.756  0.1037 -0.4804 -0.1387
 3048SOL    HW220778   1.095   4.195   3.703  0.5622 -1.1445 -0.5283
 3049SOL     OW20779   0.778   2.471   5.216 -0.1711  0.1753  0.3265
 3049SOL    HW120780   0.791   2.509   5.303 -1.0762 -0.5588  0.7747
 3049SOL    HW220781   0.847   2.405   5.227  0.0978  0.0693 -1.9785
 3050SOL     OW20782   2.972   3.525  16.315  0.1406  0.2596 -0.0772
 3050SOL    HW120783   3.033   3.476  16.259 -0.3052  0.3550 -0.6514
 3050SOL    HW220784   2.899   3.516  16.253 -1.5193  0.7027  1.8225
 3051SOL     OW20785   0.328   0.209  16.586  0.0335 -0.2787  0.4149
 3051SOL    HW120786   0.301   0.271  16.654 -0.2879  0.5388 -0.4499
 3051SOL    HW220787   0.296   0.126  16.619  0.4988  0.0875  1.7784
 3052SOL     OW20788   4.733   3.909   5.675 -0.3548  0.5065  0.0520
 3052SOL    HW120789   0.053   3.883   5.603  0.2694 -0.8272  1.0284
 3052SOL    HW220790   0.041   3.863   5.746 -1.2598  0.7584  0.7811
 3053SOL     OW20791   4.293   4.186  10.301  0.4016 -0.1805  0.5488
 3053SOL    HW120792   4.319   4.126  10.370  1.7543  0.5398  0.6572
 3053SOL    HW220793   4.197   4.182  10.303  0.4702 -0.8320  2.7711
 3054SOL     OW20794   4.676   4.214   4.335  0.6107  1.0643 -0.2439
 3054SOL    HW120795   4.667   4.253   4.422  2.1921  1.2704 -0.1812
 3054SOL    HW220796   4.591   4.236   4.297  0.3675  0.3185 -0.1462
 3055SOL     OW20797   3.103   1.602   5.561  0.2196 -0.0820  0.0351
 3055SOL    HW120798   3.172   1.664   5.539 -0.0423  0.2660  0.1903
 3055SOL    HW220799   3.086   1.620   5.653  1.1846 -3.5263  0.9178
 3056SOL     OW20800   2.505   3.025   8.679 -0.1543  0.0355 -0.1452
 3056SOL    HW120801   2.450   2.988   8.611  0.8847 -0.3754 -0.7557
 3056SOL    HW220802   2.519   2.949   8.736 -0.1134 -0.8346 -1.3278
 3057SOL     OW20803   0.616   0.954  10.431 -0.6015  0.3434 -0.1759
 3057SOL    HW120804   0.602   0.878  10.487  0.1884 -0.9650 -1.7811
 3057SOL    HW220805   0.685   0.999  10.481  0.5318 -1.4724 -0.1196
 3058SOL     OW20806   3.792   1.752   2.399 -0.6429  0.2491  1.0858
 3058SOL    HW120807   3.861   1.817   2.390  0.3765 -0.9521  0.3020
 3058SOL    HW220808   3.810   1.696   2.324 -1.2473  1.5267 -0.0005
 3059SOL     OW20809   2.558   0.969  14.882 -0.9921  0.1120  0.4255
 3059SOL    HW120810   2.538   0.896  14.941 -2.0184 -0.0721 -0.1547
 3059SOL    HW220811   2.583   0.922  14.802 -1.5156  1.1473 -0.3383
 3060SOL     OW20812   1.658   2.680  16.824  0.0226  0.0019 -0.0796
 3060SOL    HW120813   1.681   2.764  16.862 -1.8486  0.8140 -0.7341
 3060SOL    HW220814   1.628   2.718  16.741  1.8963 -1.7053 -1.5434
 3061SOL     OW20815   1.946   2.636   1.772  0.6637 -0.2671 -0.0800
 3061SOL    HW120816   2.028   2.656   1.817 -0.2969  0.2344  1.4573
 3061SOL    HW220817   1.893   2.711   1.800  2.4558  1.0203 -0.1547
 3062SOL     OW20818   3.683   1.404   4.805  0.6666 -0.2332 -0.0923
 3062SOL    HW120819   3.746   1.340   4.773  1.2000  0.4976 -0.5027
 3062SOL    HW220820   3.741   1.479   4.821 -1.6685  2.0035 -2.0317
 3063SOL     OW20821   1.029   1.509   1.014  0.0292  0.6968  0.1543
 3063SOL    HW120822   1.118   1.475   1.010 -0.9753 -1.8849 -0.2056
 3063SOL    HW220823   0.987   1.457   1.082 -0.1371  0.5795 -0.0401
 3064SOL     OW20824   1.162   4.046   2.632  0.4276  0.1481  0.0532
 3064SOL    HW120825   1.152   3.987   2.557  0.1720  1.2511 -0.7917
 3064SOL    HW220826   1.251   4.080   2.627 -0.4053  1.9549 -2.6216
 3065SOL     OW20827   2.840   1.874  13.638  0.0206 -0.5539  0.6412
 3065SOL    HW120828   2.801   1.826  13.711  0.6634 -0.8180  0.8168
 3065SOL    HW220829   2.782   1.950  13.644  0.2998 -0.2188 -0.8475
 3066SOL     OW20830   0.138   1.777   4.563  0.7055  0.3257 -0.0567
 3066SOL    HW120831   0.215   1.724   4.586  0.9824  0.1440 -1.3674
 3066SOL    HW220832   0.071   1.736   4.617 -0.2385  1.2747 -0.5156
 3067SOL     OW20833   3.432   4.272   1.602 -0.4965  0.2534  0.1150
 3067SOL    HW120834   3.496   4.334   1.566  0.3884 -0.4442  0.4937
 3067SOL    HW220835   3.361   4.265   1.538 -0.2265  0.5467 -0.2242
 3068SOL     OW20836   1.616   2.635   5.879 -0.0328  0.8600  0.0250
 3068SOL    HW120837   1.639   2.669   5.965 -0.4645  0.8588  0.1395
 3068SOL    HW220838   1.668   2.555   5.880  0.5802  1.2600  0.2252
 3069SOL     OW20839   0.775   1.572  12.235 -0.1254  0.1029  0.1186
 3069SOL    HW120840   0.758   1.482  12.265 -0.2751 -0.3563 -1.3319
 3069SOL    HW220841   0.795   1.613  12.319 -1.4758  1.2128 -0.1036
 3070SOL     OW20842   2.568   4.717   5.365  0.2123 -0.8717  0.1054
 3070SOL    HW120843   2.600   0.031   5.291  0.8502 -1.8473 -0.2864
 3070SOL    HW220844   2.647   4.670   5.394  0.9134  1.4019  1.9146
 3071SOL     OW20845   2.947   4.359   5.234  0.5584 -0.2162  0.4990
 3071SOL    HW120846   2.880   4.340   5.169  1.3236  1.6458 -0.8052
 3071SOL    HW220847   3.009   4.414   5.188 -0.2145 -1.2693 -1.7946
 3072SOL     OW20848   0.441   1.272   1.609  0.0182  0.2554  0.1035
 3072SOL    HW120849   0.397   1.287   1.692 -0.2997 -0.9978  0.1665
 3072SOL    HW220850   0.495   1.351   1.609 -3.0151  2.3551  3.0383
 3073SOL     OW20851   0.493   2.912  11.154 -0.5431 -0.0181 -0.0354
 3073SOL    HW120852   0.463   3.002  11.169 -1.6882 -0.7905  2.2815
 3073SOL    HW220853   0.433   2.880  11.086  0.5912  0.7919 -1.4249
 3074SOL     OW20854   3.488   4.149   2.662  0.0996  0.8046 -0.1941
 3074SOL    HW120855   3.549   4.218   2.635 -0.7299  1.0814 -1.3700
 3074SOL    HW220856   3.551   4.081   2.686  0.9816  2.4245  2.0538
 3075SOL     OW20857   2.109   3.881   0.280 -0.3939  0.0151 -0.0075
 3075SOL    HW120858   2.093   3.952   0.342 -1.1347 -0.5835  0.4874
 3075SOL    HW220859   2.030   3.893   0.227 -0.8841  0.8077  0.9006
 3076SOL     OW20860   1.401   4.318  13.399  0.1284  0.0534  0.7505
 3076SOL    HW120861   1.425   4.410  13.405  0.8288  0.0109 -1.8167
 3076SOL    HW220862   1.318   4.323  13.351  0.4101 -2.5899 -0.0156
 3077SOL     OW20863   1.753   1.622   5.704 -0.1368  0.3902 -0.1409
 3077SOL    HW120864   1.701   1.553   5.745  1.4285  1.1597  3.1654
 3077SOL    HW220865   1.827   1.566   5.683  0.1039  0.1650  1.2973
 3078SOL     OW20866   0.325   0.556   7.950  0.1659 -0.1657 -0.2957
 3078SOL    HW120867   0.301   0.505   7.872  0.0493 -2.8549  1.5259
 3078SOL    HW220868   0.420   0.568   7.950 -0.2479  3.1738  0.2222
 3079SOL     OW20869   0.097   1.261  14.936  0.0285  0.7764  0.4660
 3079SOL    HW120870   0.150   1.243  14.858 -1.1212 -0.8023  0.0588
 3079SOL    HW220871   0.023   1.307  14.895 -0.1911  1.8538  2.0579
 3080SOL     OW20872   1.547   4.599   0.474  0.1476  0.0952 -0.1135
 3080SOL    HW120873   1.619   4.660   0.460 -0.3540 -0.1908 -3.9203
 3080SOL    HW220874   1.547   4.566   0.385 -1.2152  1.9668 -0.7918
 3081SOL     OW20875   3.898   4.074   8.050 -0.4406  0.2207  0.6941
 3081SOL    HW120876   3.812   4.094   8.014 -0.2283 -1.6659 -0.8544
 3081SOL    HW220877   3.941   4.052   7.967  0.5076  2.4321  0.5920
 3082SOL     OW20878   0.323   4.400  10.660  0.2118  0.0282  0.2602
 3082SOL    HW120879   0.359   4.420  10.574 -0.5495 -1.5710 -0.4379
 3082SOL    HW220880   0.401   4.364  10.702 -0.8894 -1.5483  0.9710
 3083SOL     OW20881   2.294   4.431  17.055  0.0001  0.4683 -0.1075
 3083SOL    HW120882   2.319   4.515  17.017 -2.1378  1.2257  0.0998
 3083SOL    HW220883   2.366   4.370  17.040  0.8330  1.4345  0.0025
 3084SOL     OW20884   4.551   0.177   6.643 -0.0355 -0.6995  0.3477
 3084SOL    HW120885   4.510   0.098   6.607  2.1854 -1.7046  0.0110
 3084SOL    HW220886   4.503   0.243   6.592  0.1302  0.1948  1.3708
 3085SOL     OW20887   2.041   3.718  16.015 -0.4280 -0.3430 -0.3110
 3085SOL    HW120888   2.028   3.629  15.981 -2.4727 -0.1118 -0.1331
 3085SOL    HW220889   2.083   3.701  16.099  1.5082  1.8945 -0.8305
 3086SOL     OW20890   0.009   0.559   1.855  0.1599 -0.2521  0.2100
 3086SOL    HW120891   4.695   0.482   1.881 -0.6267 -0.4773 -2.0571
 3086SOL    HW220892   4.682   0.599   1.797 -1.9292 -1.3959  1.7235
 3087SOL     OW20893   1.697   2.669   3.925 -0.1127 -0.0215  0.1673
 3087SOL    HW120894   1.649   2.586   3.919 -0.2632  0.1947 -1.7044
 3087SOL    HW220895   1.662   2.720   3.851  0.4665  0.8848  0.5230
 3088SOL     OW20896   3.613   1.469   0.359 -0.1074  0.1163 -0.0830
 3088SOL    HW120897   3.577   1.482   0.271 -0.9993  1.0702  0.4265
 3088SOL    HW220898   3.531   1.480   0.406 -0.5495  2.6525 -1.4334
 3089SOL     OW20899   2.494   0.771  15.037  0.3712  0.6383  0.4779
 3089SOL    HW120900   2.585   0.766  15.067  1.2674  0.2542 -2.3708
 3089SOL    HW220901   2.489   0.699  14.975  2.0266  0.6043  0.3774
 3090SOL     OW20902   4.447   1.531   6.463  0.1719  0.2648 -0.2928
 3090SOL    HW120903   4.513   1.582   6.416 -2.4612  2.0868 -1.9734
 3090SOL    HW220904   4.493   1.515   6.545 -0.0882  2.7353  0.3191
 3091SOL     OW20905   4.633   4.423   4.548  0.1494 -0.3028 -0.4394
 3091SOL    HW120906   4.625   4.503   4.496  1.9107 -1.0531 -1.8475
 3091SOL    HW220907   4.703   4.442   4.610  0.4295 -0.9499 -0.5573
 3092SOL     OW20908   4.110   3.398   5.762 -0.3143  0.1874  0.4420
 3092SOL    HW120909   4.100   3.390   5.857  0.9055 -2.3185  0.3654
 3092SOL    HW220910   4.174   3.469   5.758 -1.9981  1.6046 -1.2195
 3093SOL     OW20911   1.350   2.733   5.922 -0.3100  0.2993 -0.0130
 3093SOL    HW120912   1.437   2.695   5.909 -0.2673 -0.1204  1.4805
 3093SOL    HW220913   1.383   2.821   5.939 -0.8364  0.5347 -0.2259
 3094SOL     OW20914   3.651   1.175   1.960  0.3630 -0.0766 -0.3538
 3094SOL    HW120915   3.626   1.197   2.049  0.8102  0.3943 -0.3449
 3094SOL    HW220916   3.624   1.254   1.912  0.4373  0.9777  1.3515
 3095SOL     OW20917   4.069   3.921   6.540 -0.2927  0.1523 -0.1767
 3095SOL    HW120918   4.147   3.963   6.576 -1.1062  0.2671  1.4774
 3095SOL    HW220919   4.079   3.835   6.581 -0.2896 -0.8226 -2.2363
 3096SOL     OW20920   0.578   2.061   6.848 -0.0202  0.1944  0.0975
 3096SOL    HW120921   0.492   2.066   6.891 -0.1197  0.2627 -0.1065
 3096SOL    HW220922   0.616   1.999   6.910 -0.7530  0.1217  0.4739
 3097SOL     OW20923   4.690   0.964   5.759  0.4851 -0.3370 -0.4333
 3097SOL    HW120924   4.734   0.946   5.842 -0.1710  0.3652  0.0694
 3097SOL    HW220925   4.713   0.887   5.706 -0.9226 -1.2894  0.3501
 3098SOL     OW20926   1.286   3.509  13.402  0.2262 -0.7781 -0.1761
 3098SOL    HW120927   1.219   3.497  13.468 -0.0914 -0.2158 -0.3941
 3098SOL    HW220928   1.254   3.446  13.338 -1.4106 -1.4085  1.2986
 3099SOL     OW20929   0.903   2.181   6.581 -0.0387  0.2340  0.3285
 3099SOL    HW120930   0.951   2.264   6.582  1.4563 -0.6510  1.2785
 3099SOL    HW220931   0.966   2.125   6.536  1.1393  0.8287  1.2410
 3100SOL     OW20932   0.984   3.361   0.158 -1.0901  0.2864  0.0769
 3100SOL    HW120933   0.908   3.314   0.125 -0.6343  0.4977 -1.2765
 3100SOL    HW220934   1.052   3.295   0.139 -1.0202  0.6796 -1.0714
 3101SOL     OW20935   1.871   0.330   1.183  0.5229  0.2183  0.3192
 3101SOL    HW120936   1.883   0.393   1.111  1.5525  0.6737  0.8943
 3101SOL    HW220937   1.959   0.294   1.196 -0.1564 -1.2023  0.9359
 3102SOL     OW20938   1.589   1.891   8.834  0.0870 -0.0216  0.2045
 3102SOL    HW120939   1.663   1.951   8.840  0.0312  0.0070  0.5824
 3102SOL    HW220940   1.638   1.809   8.826  1.9727  1.1433 -0.2512
 3103SOL     OW20941   2.371   1.991   4.486  0.0525  0.3800 -0.0161
 3103SOL    HW120942   2.458   1.984   4.524 -0.2466  0.2169  0.6423
 3103SOL    HW220943   2.324   1.939   4.551 -0.4779  0.4816 -0.3185
 3104SOL     OW20944   3.747   3.652   2.611  0.2231 -0.6465 -0.2569
 3104SOL    HW120945   3.758   3.558   2.603  0.6056 -0.7698  1.7551
 3104SOL    HW220946   3.832   3.688   2.585  1.1767 -1.8955  1.1766
 3105SOL     OW20947   1.698   0.945   6.632 -0.1197 -0.2497  0.3002
 3105SOL    HW120948   1.623   0.947   6.573 -0.7468  0.8528  1.1428
 3105SOL    HW220949   1.711   0.850   6.633 -1.2575 -0.4195 -0.0896
 3106SOL     OW20950   3.722   1.101  12.113  0.8410  0.0176 -0.4810
 3106SOL    HW120951   3.699   1.042  12.040 -2.3551  0.8829 -0.1818
 3106SOL    HW220952   3.644   1.155  12.101 -0.8250 -1.6569  2.9985
 3107SOL     OW20953   1.019   1.456   1.988  0.3983  0.1707  0.1172
 3107SOL    HW120954   0.975   1.541   1.980  0.8240  0.1373 -2.4742
 3107SOL    HW220955   0.996   1.439   2.079  2.0958 -2.9215 -0.0439
 3108SOL     OW20956   4.574   0.482  16.138  0.2225 -1.0404 -0.4282
 3108SOL    HW120957   4.553   0.451  16.050 -0.6204  0.1216 -0.6367
 3108SOL    HW220958   4.532   0.415  16.193  1.3956 -1.1973  0.2758
 3109SOL     OW20959   3.245   2.732   7.300  0.5032 -0.3163  0.1488
 3109SOL    HW120960   3.332   2.740   7.261 -0.7168 -0.2232 -2.5436
 3109SOL    HW220961   3.279   2.750   7.388 -0.5046 -0.3724  0.5457
 3110SOL     OW20962   4.525   4.638   1.684 -0.2617 -0.2634  0.1004
 3110SOL    HW120963   4.599   4.577   1.686  0.1870  0.2914  0.8395
 3110SOL    HW220964   4.550   4.716   1.734 -0.6100 -0.4212  0.5163
 3111SOL     OW20965   1.845   4.602   9.215  0.0916 -0.1366  0.2265
 3111SOL    HW120966   1.775   4.592   9.150 -1.2101 -3.1222  2.0652
 3111SOL    HW220967   1.851   4.511   9.244 -1.2070  0.1805  1.5219
 3112SOL     OW20968   1.157   1.396   3.115 -0.7629  0.3575  0.3148
 3112SOL    HW120969   1.083   1.346   3.148 -0.4062  0.1626  0.8141
 3112SOL    HW220970   1.215   1.394   3.191 -0.5156  0.1789  0.1202
 3113SOL     OW20971   0.218   3.356   7.465 -0.1156  0.2344 -0.0872
 3113SOL    HW120972   0.194   3.394   7.380  1.9576  1.5157 -0.0939
 3113SOL    HW220973   0.137   3.380   7.511 -1.3259 -1.2214 -1.4821
 3114SOL     OW20974   2.053   3.978   5.021  0.1890 -0.1145  0.2324
 3114SOL    HW120975   2.034   4.054   4.966 -0.8376  0.3263  1.1886
 3114SOL    HW220976   1.973   3.930   5.042  0.4600 -0.4010  0.6004
 3115SOL     OW20977   3.317   3.292   2.068 -0.5317  0.7745  0.1481
 3115SOL    HW120978   3.265   3.317   1.991  1.6927 -1.3737 -2.0638
 3115SOL    HW220979   3.337   3.203   2.040 -1.6189  0.4888  0.2558
 3116SOL     OW20980   2.090   2.061   9.026 -0.3707 -0.0830  0.3630
 3116SOL    HW120981   2.059   2.036   9.112 -2.2555 -0.5244 -0.4557
 3116SOL    HW220982   2.108   1.970   8.999 -0.7630 -0.0422 -0.0275
 3117SOL     OW20983   3.523   1.899   1.507  0.3066 -0.5054  0.0650
 3117SOL    HW120984   3.436   1.909   1.468  1.2774  0.2949 -1.8682
 3117SOL    HW220985   3.545   1.814   1.468  0.9182  0.3404 -1.4260
 3118SOL     OW20986   0.571   4.376  12.227 -0.0834 -0.2034  0.4701
 3118SOL    HW120987   0.547   4.417  12.144 -0.9398 -1.5192  0.0769
 3118SOL    HW220988   0.659   4.413  12.231  0.4170 -1.3459  0.0083
 3119SOL     OW20989   0.522   2.310  16.566 -0.1113 -0.1637  0.2379
 3119SOL    HW120990   0.570   2.293  16.647  0.8539  2.9213  0.3065
 3119SOL    HW220991   0.459   2.239  16.578  0.4503 -0.6936  0.0288
 3120SOL     OW20992   2.595   4.240   6.469 -0.3783 -0.2296  0.0453
 3120SOL    HW120993   2.573   4.321   6.423 -0.5521  1.4149  3.0442
 3120SOL    HW220994   2.620   4.278   6.554  0.0761  1.9093 -1.0415
 3121SOL     OW20995   2.095   1.455   9.841  0.2045 -0.3009  0.3704
 3121SOL    HW120996   2.017   1.456   9.896 -0.3293 -2.0308 -0.3750
 3121SOL    HW220997   2.137   1.375   9.873 -1.6583 -1.6857 -0.7209
 3122SOL     OW20998   3.994   2.395   0.739 -0.6594 -0.0084  0.3948
 3122SOL    HW120999   3.924   2.331   0.755  0.7730 -0.9348  2.9205
 3122SOL    HW221000   3.942   2.469   0.709 -2.0636 -0.2708  2.1688
 3123SOL     OW21001   1.049   3.980   1.681 -0.2888 -0.1829  0.0268
 3123SOL    HW121002   0.978   3.929   1.643 -1.0449  0.4982  0.5115
 3123SOL    HW221003   1.118   3.925   1.644 -2.0712 -2.0124 -0.5805
 3124SOL     OW21004   1.991   3.634   8.244  0.8773  0.3784 -0.3746
 3124SOL    HW121005   1.950   3.663   8.326  0.4636 -0.0615 -0.4270
 3124SOL    HW221006   1.909   3.594   8.215  2.8772 -4.2086  0.4389
 3125SOL     OW21007   3.687   1.711   8.713 -0.5141 -0.0650  1.1176
 3125SOL    HW121008   3.726   1.685   8.629 -1.9592 -1.0573  0.7448
 3125SOL    HW221009   3.733   1.654   8.774  0.7139 -1.2641 -0.9082
 3126SOL     OW21010   1.566   3.138   3.547 -0.1170  0.4085 -0.0291
 3126SOL    HW121011   1.580   3.169   3.637 -0.2132 -1.4419  0.6107
 3126SOL    HW221012   1.478   3.106   3.564  0.6071 -1.6809 -0.2554
 3127SOL     OW21013   4.095   2.040   7.293 -0.1111 -0.4488  0.2062
 3127SOL    HW121014   4.140   1.968   7.337  1.1692  0.0626 -0.2622
 3127SOL    HW221015   4.168   2.102   7.299  0.9031 -1.8757  2.7856
 3128SOL     OW21016   3.553   0.980   3.812 -0.0800 -0.9454  0.1971
 3128SOL    HW121017   3.634   0.956   3.856  0.3411  0.1813  0.0272
 3128SOL    HW221018   3.570   1.028   3.731 -2.2228  0.1734  0.4041
 3129SOL     OW21019   3.601   0.439   8.677 -0.2553 -0.1191 -0.8917
 3129SOL    HW121020   3.682   0.408   8.635 -0.5904  1.7828 -2.9103
 3129SOL    HW221021   3.536   0.401   8.619 -1.2986 -1.3575  1.0860
 3130SOL     OW21022   0.937   3.484   6.088  0.1479  0.0120 -0.6597
 3130SOL    HW121023   0.856   3.452   6.048 -0.8454  1.4923  0.1559
 3130SOL    HW221024   0.973   3.553   6.032 -1.1673  1.3181  0.1026
 3131SOL     OW21025   0.557   3.830  13.065 -0.2001 -0.3250 -0.0766
 3131SOL    HW121026   0.535   3.852  12.975 -0.1493  4.6724  1.1209
 3131SOL    HW221027   0.519   3.743  13.070 -1.1059 -0.1192 -3.9243
 3132SOL     OW21028   2.667   0.336   1.602 -0.1326  1.1172 -0.2515
 3132SOL    HW121029   2.652   0.256   1.551  0.7779  0.1569  0.9680
 3132SOL    HW221030   2.758   0.326   1.630 -0.2242 -1.9327 -0.9608
 3133SOL     OW21031   0.132   0.767  16.370 -0.8058 -0.1040 -0.4665
 3133SOL    HW121032   0.053   0.753  16.319 -0.5481  0.1841 -0.9371
 3133SOL    HW221033   0.154   0.675  16.385  0.5637  0.1816 -0.7397
 3134SOL     OW21034   0.552   2.172   8.299 -0.0723  0.1366 -0.2576
 3134SOL    HW121035   0.587   2.212   8.378  1.7294 -0.2959 -0.8191
 3134SOL    HW221036   0.485   2.114   8.335  0.9545 -2.2824 -2.2236
 3135SOL     OW21037   3.440   4.631  11.335  0.7005  0.0861  0.4838
 3135SOL    HW121038   3.456   4.542  11.303  0.3896  0.4085 -0.5599
 3135SOL    HW221039   3.352   4.642  11.300  0.2312  1.8720  2.2562
 3136SOL     OW21040   0.131   0.951   2.416  0.3087 -0.0021 -0.0238
 3136SOL    HW121041   0.177   0.977   2.336  0.2247 -0.3428 -0.1838
 3136SOL    HW221042   0.115   0.860   2.393  3.6758 -0.2229 -1.5262
 3137SOL     OW21043   2.811   2.027  16.918  0.2314 -0.3800 -0.2090
 3137SOL    HW121044   2.781   2.117  16.933  1.4522 -0.1894  1.1055
 3137SOL    HW221045   2.894   2.038  16.965  0.3908  1.2186 -0.8590
 3138SOL     OW21046   4.009   0.194   3.703  0.0278 -0.2890 -0.5844
 3138SOL    HW121047   4.065   0.117   3.700  0.4010 -0.1214  1.9118
 3138SOL    HW221048   4.070   0.263   3.731 -1.3030 -0.1502  1.9711
 3139SOL     OW21049   1.083   3.591   0.233 -0.3863  0.6378  0.0161
 3139SOL    HW121050   1.026   3.515   0.224  1.4285 -0.7262  0.2199
 3139SOL    HW221051   1.151   3.560   0.292 -0.6052  1.7795  0.8745
 3140SOL     OW21052   3.630   1.448   9.451  0.2471  0.2827 -0.1510
 3140SOL    HW121053   3.649   1.538   9.475  0.2892 -0.1801  1.5732
 3140SOL    HW221054   3.716   1.419   9.422  1.1008  1.3703  1.2874
 3141SOL     OW21055   3.826   2.276   3.886 -0.1768 -0.0379 -0.0476
 3141SOL    HW121056   3.897   2.284   3.950  0.5707 -1.1457 -0.7405
 3141SOL    HW221057   3.854   2.266   3.795  0.0066  0.0883 -0.0063
 3142SOL     OW21058   0.828   3.842  10.110  0.5080 -1.0246  0.4641
 3142SOL    HW121059   0.902   3.891  10.072 -1.1693  0.9502 -0.2323
 3142SOL    HW221060   0.766   3.884  10.050 -0.7025 -0.7272  1.9339
 3143SOL     OW21061   3.561   3.517   4.610  0.1488  0.3412 -0.8490
 3143SOL    HW121062   3.535   3.577   4.680 -1.5493 -0.3904 -0.8507
 3143SOL    HW221063   3.629   3.562   4.562  1.7636  0.6566  1.7048
 3144SOL     OW21064   0.971   2.750  15.438 -0.6078 -0.6535  0.6350
 3144SOL    HW121065   0.958   2.788  15.351  0.7987 -1.6738 -0.0058
 3144SOL    HW221066   1.058   2.712  15.435  0.0546  0.7060  2.5618
 3145SOL     OW21067   1.225   0.004   3.122  0.3008  0.0893  0.4189
 3145SOL    HW121068   1.185   4.678   3.182  1.7823  0.9980  2.3661
 3145SOL    HW221069   1.181   0.085   3.149 -0.4358 -0.6342  1.3930
 3146SOL     OW21070   4.688   1.341   6.354 -0.0630 -0.3227  0.0779
 3146SOL    HW121071   4.691   1.416   6.294  0.4602  1.6946  2.6096
 3146SOL    HW221072   4.603   1.307   6.324 -0.3506 -0.8380  1.4788
 3147SOL     OW21073   3.320   3.249   6.615 -0.4688 -0.3758 -0.1907
 3147SOL    HW121074   3.308   3.274   6.706  1.3547  1.2103 -0.3910
 3147SOL    HW221075   3.264   3.171   6.609  0.7308 -1.1024 -1.8734
 3148SOL     OW21076   3.969   1.903   5.488  0.1218  0.6796  0.2624
 3148SOL    HW121077   3.880   1.933   5.471 -1.0078 -2.6790  0.1620
 3148SOL    HW221078   3.993   1.975   5.546 -2.8575  1.5780  0.3580
 3149SOL     OW21079   2.505   0.347  10.018  0.3427 -0.2301 -0.1542
 3149SOL    HW121080   2.503   0.272  10.078 -0.7957  1.2222  1.6303
 3149SOL    HW221081   2.583   0.328   9.966  1.2981 -2.0843  1.9772
 3150SOL     OW21082   2.741   3.189   0.524 -0.3575  0.8485  0.1979
 3150SOL    HW121083   2.709   3.112   0.572  0.0634  1.1700  0.9954
 3150SOL    HW221084   2.832   3.161   0.514 -0.3172  1.8555 -2.2271
 3151SOL     OW21085   3.250   0.247   0.343  0.4327 -0.1041 -0.5061
 3151SOL    HW121086   3.328   0.222   0.392 -0.5313 -0.0588  1.0762
 3151SOL    HW221087   3.219   0.163   0.308  0.9433  0.0587 -1.3446
 3152SOL     OW21088   1.977   3.662   2.938  0.1099  0.5734  0.3643
 3152SOL    HW121089   1.998   3.580   2.983  2.3450 -0.3481 -2.3805
 3152SOL    HW221090   1.943   3.632   2.854  0.5047  1.0784  0.0270
 3153SOL     OW21091   2.624   0.549  14.927 -0.1405  0.1236 -0.0926
 3153SOL    HW121092   2.599   0.475  14.983  3.0334 -0.8037  0.1139
 3153SOL    HW221093   2.720   0.541  14.926 -0.0103  1.8766 -1.8372
 3154SOL     OW21094   2.764   2.181  11.973  0.2238 -0.4652  0.2723
 3154SOL    HW121095   2.679   2.212  12.006 -0.7953 -0.6899 -2.0935
 3154SOL    HW221096   2.818   2.205  12.047  0.3498 -0.5936  0.2207
 3155SOL     OW21097   2.228   1.070  12.050 -0.0913 -0.8187  0.0749
 3155SOL    HW121098   2.226   1.165  12.061 -0.0197 -0.8416  0.2990
 3155SOL    HW221099   2.147   1.050  12.097  1.9755 -0.0967  4.0253
 3156SOL     OW21100   0.356   0.016   5.676 -0.2562  0.3595 -0.7723
 3156SOL    HW121101   0.313   0.026   5.761  0.8356  0.9062 -0.2824
 3156SOL    HW221102   0.408   0.096   5.671  0.6147 -0.0617  1.4863
 3157SOL     OW21103   0.474   2.992   1.385 -0.6856  0.0530  0.4548
 3157SOL    HW121104   0.518   2.992   1.470 -0.7254  1.1161  0.4791
 3157SOL    HW221105   0.382   2.979   1.407 -1.3254  0.7479 -1.8245
 3158SOL     OW21106   1.563   0.791  17.643  0.1326  0.0726  0.3346
 3158SOL    HW121107   1.548   0.740  17.723 -0.2829 -0.3167  0.0063
 3158SOL    HW221108   1.616   0.862  17.680 -0.3319  0.8462 -0.4857
 3159SOL     OW21109   2.456   1.210  14.832  0.4136 -0.0518  0.3154
 3159SOL    HW121110   2.503   1.131  14.858 -2.5988 -1.5216  1.3565
 3159SOL    HW221111   2.397   1.231  14.905 -0.5004 -0.9703 -0.1482
 3160SOL     OW21112   1.363   2.359   6.316  0.0283  0.0591 -0.4651
 3160SOL    HW121113   1.273   2.391   6.320 -0.1238 -0.4039 -0.1771
 3160SOL    HW221114   1.347   2.276   6.272 -0.0598  0.4023 -1.0722
 3161SOL     OW21115   3.820   2.661   6.153  0.2846 -0.4943 -0.0240
 3161SOL    HW121116   3.753   2.728   6.143 -1.3832 -2.3790 -1.4507
 3161SOL    HW221117   3.874   2.677   6.075 -0.3722  3.4019  0.3357
 3162SOL     OW21118   3.178   0.017  10.957  0.1062 -0.1483 -0.9004
 3162SOL    HW121119   3.230   4.737  10.878  0.6661 -2.4402 -0.0250
 3162SOL    HW221120   3.199   4.675  11.006  1.5254  1.2815  0.7976
 3163SOL     OW21121   0.762   3.351  12.236  0.0027 -0.3930  0.0103
 3163SOL    HW121122   0.776   3.326  12.328 -1.2551  1.9390  0.8249
 3163SOL    HW221123   0.796   3.280  12.182 -0.9105 -1.1699  0.4526
 3164SOL     OW21124   4.190   3.726   7.182 -0.1439 -0.0707  0.2829
 3164SOL    HW121125   4.177   3.632   7.171  0.0834 -0.1588  0.7561
 3164SOL    HW221126   4.286   3.732   7.177 -0.1735  0.5860  0.4897
 3165SOL     OW21127   2.173   3.437   8.194 -0.4756 -0.6510 -0.5785
 3165SOL    HW121128   2.119   3.513   8.214 -0.0354 -0.5313  0.1426
 3165SOL    HW221129   2.106   3.395   8.140 -2.6209 -0.4876  1.9813
 3166SOL     OW21130   2.679   3.791   7.175  0.1512 -0.0459  0.3914
 3166SOL    HW121131   2.619   3.716   7.182  1.0907 -0.9890 -1.4008
 3166SOL    HW221132   2.661   3.830   7.260  0.8932  2.1797 -0.4692
 3167SOL     OW21133   4.697   4.714   8.065  0.2545  0.0931  0.6504
 3167SOL    HW121134   4.708   4.619   8.075  0.2350 -0.1659 -1.7173
 3167SOL    HW221135   0.014   4.714   7.985 -1.6945 -0.6313 -0.6769
 3168SOL     OW21136   0.870   3.864   2.970 -0.2164  0.1455  0.0770
 3168SOL    HW121137   0.842   3.904   2.887  1.3297 -1.6777 -1.3184
 3168SOL    HW221138   0.793   3.857   3.026  0.3351 -1.8097  0.5803
 3169SOL     OW21139   3.225   1.705   2.153 -0.2797  0.3298 -0.0882
 3169SOL    HW121140   3.258   1.703   2.242 -0.1315 -1.1541 -0.1686
 3169SOL    HW221141   3.264   1.778   2.105  0.5918 -0.8129 -1.1070
 3170SOL     OW21142   2.866   1.795   7.629  0.0244  0.2677 -0.1945
 3170SOL    HW121143   2.814   1.745   7.566 -2.2621  1.4051  0.7649
 3170SOL    HW221144   2.950   1.798   7.584 -0.5358  0.5944 -1.2184
 3171SOL     OW21145   1.311   4.051   8.152 -0.4110 -0.1034  0.3250
 3171SOL    HW121146   1.220   4.071   8.177 -0.1924 -0.4521  1.3824
 3171SOL    HW221147   1.318   4.112   8.078 -1.9783 -0.8516 -0.4429
 3172SOL     OW21148   3.902   1.216   6.566 -0.4084 -0.2920 -0.0235
 3172SOL    HW121149   3.926   1.145   6.507 -0.5176  1.3245 -2.0227
 3172SOL    HW221150   3.982   1.267   6.572 -0.4835 -0.4764  2.8551
 3173SOL     OW21151   2.671   1.834   0.967 -0.0151 -0.3721 -0.1965
 3173SOL    HW121152   2.621   1.908   0.932 -0.6752 -1.3805 -1.3572
 3173SOL    HW221153   2.677   1.862   1.058  1.7914 -0.1502 -0.3795
 3174SOL     OW21154   4.463   1.100   7.834 -0.1887  0.7052  0.3360
 3174SOL    HW121155   4.539   1.112   7.890 -0.4008  0.8494  0.5954
 3174SOL    HW221156   4.435   1.016   7.870 -4.4186  1.4210 -1.1614
 3175SOL     OW21157   3.766   4.572   6.566  0.0937  0.2286 -0.2103
 3175SOL    HW121158   3.734   4.634   6.631  0.0504 -1.0317  0.9652
 3175SOL    HW221159   3.861   4.573   6.579 -0.1067  0.7631  1.1390
 3176SOL     OW21160   2.906   1.117   8.573 -0.5650 -0.2229 -0.3084
 3176SOL    HW121161   2.901   1.070   8.657 -2.1204  2.1324  0.9422
 3176SOL    HW221162   2.884   1.209   8.589  0.3231 -0.0132 -0.2744
 3177SOL     OW21163   2.823   2.402  16.700 -0.2446 -0.4531  0.7004
 3177SOL    HW121164   2.771   2.398  16.780  0.6152  0.8986  1.3397
 3177SOL    HW221165   2.765   2.443  16.636  0.2170 -0.2110  0.4318
 3178SOL     OW21166   0.664   2.599  10.362 -0.6597 -0.4700 -0.0037
 3178SOL    HW121167   0.740   2.558  10.320 -1.9426 -0.8072 -2.0178
 3178SOL    HW221168   0.613   2.616  10.283  0.3224  0.3230 -0.4648
 3179SOL     OW21169   1.189   3.593   2.517  0.2371  0.1026 -0.0219
 3179SOL    HW121170   1.228   3.516   2.475 -1.5154 -1.2503  0.8031
 3179SOL    HW221171   1.127   3.541   2.569 -2.0865  1.5053 -1.3739
 3180SOL     OW21172   4.637   4.475   3.366 -1.2304 -0.0292 -0.5337
 3180SOL    HW121173   4.717   4.527   3.364 -1.3105  0.1902  3.0590
 3180SOL    HW221174   4.669   4.391   3.396 -1.8824 -0.9873 -2.5029
 3181SOL     OW21175   1.414   2.093   2.888  0.3319 -0.3979 -0.5610
 3181SOL    HW121176   1.509   2.086   2.883  0.5596  3.8743 -1.8693
 3181SOL    HW221177   1.404   2.073   2.981  0.4348 -0.8437 -0.6472
 3182SOL     OW21178   2.425   3.995   5.579  0.4212  0.4529 -0.6284
 3182SOL    HW121179   2.422   3.958   5.491 -0.1349 -1.2051  0.0759
 3182SOL    HW221180   2.392   3.924   5.635  1.7048  0.0006 -0.4525
 3183SOL     OW21181   3.154   2.142   1.100  0.1321  0.0087  0.2152
 3183SOL    HW121182   3.089   2.082   1.064  1.0184  0.1005 -1.5207
 3183SOL    HW221183   3.142   2.204   1.029  1.1674 -0.4129 -0.3178
 3184SOL     OW21184   3.532   2.312   8.170 -0.3631 -0.5910  0.1823
 3184SOL    HW121185   3.505   2.345   8.084 -0.7903 -0.6183  0.3067
 3184SOL    HW221186   3.548   2.391   8.222  0.5974 -0.5458 -0.1769
 3185SOL     OW21187   2.986   1.586   3.380  0.3429  0.1077 -0.2823
 3185SOL    HW121188   2.956   1.668   3.419 -1.2258 -0.7763  0.3678
 3185SOL    HW221189   2.903   1.568   3.335 -0.5049 -0.0748  1.3399
 3186SOL     OW21190   0.842   3.597   4.698 -0.7320  0.1993  0.0620
 3186SOL    HW121191   0.751   3.621   4.716 -2.4728 -2.6022 -5.0365
 3186SOL    HW221192   0.837   3.502   4.711  1.3320  0.2742  1.4048
 3187SOL     OW21193   3.311   0.732   6.694 -0.2006  0.0156 -0.7640
 3187SOL    HW121194   3.327   0.649   6.650  1.5468 -1.0032  1.7827
 3187SOL    HW221195   3.346   0.703   6.778  1.4541  1.2433 -1.0318
 3188SOL     OW21196   1.802   0.844  13.957  0.1487 -0.0035 -0.2773
 3188SOL    HW121197   1.769   0.823  14.045 -0.2456 -0.3221 -0.5037
 3188SOL    HW221198   1.767   0.932  13.945 -0.0511 -0.1507 -0.7477
 3189SOL     OW21199   0.873   2.012  14.263 -0.0804 -0.0096 -0.5798
 3189SOL    HW121200   0.824   1.934  14.288  1.7427 -1.0669 -0.3293
 3189SOL    HW221201   0.914   1.980  14.183 -2.0475  0.3662 -1.7272
 3190SOL     OW21202   3.478   3.296   2.302 -0.0525 -0.1794 -0.4198
 3190SOL    HW121203   3.410   3.290   2.235 -1.0048 -1.7935  0.6922
 3190SOL    HW221204   3.509   3.386   2.298 -0.3729 -0.1782 -2.5234
 3191SOL     OW21205   4.464   2.906   7.182  0.4084  0.4299  0.1606
 3191SOL    HW121206   4.411   2.833   7.151 -0.2445  1.6009 -1.4275
 3191SOL    HW221207   4.486   2.960   7.106  2.5160  0.2411  0.6419
 3192SOL     OW21208   1.938   0.241   7.389  0.8091 -0.3014  0.6970
 3192SOL    HW121209   1.914   0.185   7.463  2.5165 -0.7971  0.8685
 3192SOL    HW221210   2.033   0.247   7.395  0.8552 -1.1384  0.8456
 3193SOL     OW21211   2.009   3.825   1.263  0.1854  0.2730  0.1325
 3193SOL    HW121212   2.033   3.795   1.350 -0.9874 -1.6806 -0.2331
 3193SOL    HW221213   2.046   3.913   1.271  0.6739  0.1507 -0.7826
 3194SOL     OW21214   3.706   4.688   4.207 -0.1792 -0.4367  0.7580
 3194SOL    HW121215   3.707   4.602   4.250  2.6622 -1.4241 -1.2384
 3194SOL    HW221216   3.772   0.001   4.255 -1.2111  0.7548  0.9008
 3195SOL     OW21217   0.994   0.012   2.889 -0.3026  0.2468  0.5860
 3195SOL    HW121218   1.025   0.071   2.957 -0.7882  0.3281  0.7394
 3195SOL    HW221219   0.962   0.079   2.829  2.9909  0.7966 -0.5357
 3196SOL     OW21220   2.414   1.893   2.978 -0.0326  0.2665 -0.1037
 3196SOL    HW121221   2.354   1.818   2.991 -0.7562  0.9893  0.7542
 3196SOL    HW221222   2.363   1.934   2.908  0.3128 -1.5543 -1.4238
 3197SOL     OW21223   0.500   1.856   8.279 -0.2367  0.4116  0.1951
 3197SOL    HW121224   0.544   1.916   8.338  1.1203 -1.6634  1.2947
 3197SOL    HW221225   0.473   1.793   8.346 -0.6284 -1.9681 -2.1791
 3198SOL     OW21226   1.608   3.284   3.285  0.1328 -0.1690 -0.2645
 3198SOL    HW121227   1.514   3.287   3.268 -0.2306  0.1209  1.8320
 3198SOL    HW221228   1.606   3.264   3.378 -2.0699 -1.2334 -0.5472
 3199SOL     OW21229   1.337   1.623   2.359  0.2611  0.2691 -0.0529
 3199SOL    HW121230   1.358   1.680   2.284  2.0535  1.1390  1.1091
 3199SOL    HW221231   1.391   1.545   2.349  1.7672  1.1758  0.9758
 3200SOL     OW21232   3.173   3.083   5.037 -0.0078  0.4618  0.4613
 3200SOL    HW121233   3.207   3.081   4.948 -1.7999  0.1677 -0.2070
 3200SOL    HW221234   3.113   3.009   5.039 -0.3354  0.6650 -1.6493
 3201SOL     OW21235   3.550   1.744  17.228 -0.1457  0.1737 -0.9651
 3201SOL    HW121236   3.560   1.788  17.312 -1.6712  0.8317 -1.1342
 3201SOL    HW221237   3.589   1.805  17.164  2.6067 -1.3122 -0.6935
 3202SOL     OW21238   0.161   0.728  12.192  0.5443 -0.3358  0.0732
 3202SOL    HW121239   0.158   0.791  12.264 -0.1350 -2.1716  1.6559
 3202SOL    HW221240   0.079   0.751  12.148  0.0347 -2.9994 -0.4070
 3203SOL     OW21241   3.201   0.076   8.219 -0.2736 -0.0990  0.2294
 3203SOL    HW121242   3.203   4.722   8.246 -0.0289  0.3144  1.6294
 3203SOL    HW221243   3.174   0.112   8.304 -0.2780 -1.8489  0.9652
 3204SOL     OW21244   1.332   3.218   6.362 -0.0162  0.1522  0.1682
 3204SOL    HW121245   1.372   3.293   6.319  0.0015 -0.1183 -0.2831
 3204SOL    HW221246   1.341   3.224   6.457  1.9339 -0.0518  0.0174
 3205SOL     OW21247   3.546   1.099   7.444  0.6292  0.7588 -0.2353
 3205SOL    HW121248   3.457   1.108   7.477  0.6570 -1.9398  0.6115
 3205SOL    HW221249   3.582   1.186   7.429 -0.1156  0.9950 -0.5963
 3206SOL     OW21250   0.773   2.462   6.223 -0.2060  0.2167  0.2149
 3206SOL    HW121251   0.711   2.455   6.296  0.6306 -0.6910  0.8359
 3206SOL    HW221252   0.844   2.405   6.252  1.5043  1.5603 -1.2708
 3207SOL     OW21253   3.936   0.652   1.418  0.0953 -0.1054  0.1508
 3207SOL    HW121254   3.842   0.649   1.404  0.1259  1.3185 -0.3349
 3207SOL    HW221255   3.968   0.561   1.414 -0.2111 -0.3071  2.4197
 3208SOL     OW21256   4.671   1.805  10.769 -0.2335  0.6796  0.1655
 3208SOL    HW121257   4.680   1.808  10.865  0.3238 -0.3247  0.1479
 3208SOL    HW221258   4.584   1.776  10.745  0.4357 -0.5066 -0.7834
 3209SOL     OW21259   2.552   3.180   5.736 -0.4253  0.0852  0.2097
 3209SOL    HW121260   2.562   3.090   5.705  1.7442 -0.1538  1.5740
 3209SOL    HW221261   2.567   3.165   5.829  0.0632  0.4703  0.1947
 3210SOL     OW21262   1.971   4.250   5.143  0.2864  0.7066  0.1741
 3210SOL    HW121263   1.974   4.327   5.086  0.0562 -0.2367 -1.1262
 3210SOL    HW221264   2.053   4.208   5.116  0.1807 -0.1457  1.1851
 3211SOL     OW21265   4.455   3.700   7.147 -0.1116  0.5774 -0.5401
 3211SOL    HW121266   4.472   3.727   7.057 -1.3843 -0.5514 -1.1236
 3211SOL    HW221267   4.505   3.618   7.142 -3.0472 -1.2634 -0.1177
 3212SOL     OW21268   4.029   3.784   9.555 -0.0084 -0.2537  0.1944
 3212SOL    HW121269   4.014   3.773   9.462  1.4047  2.2624 -0.3222
 3212SOL    HW221270   3.957   3.845   9.569 -0.0941 -0.1690 -0.6471
 3213SOL     OW21271   1.619   4.644   1.921  0.1242  0.3169  0.4196
 3213SOL    HW121272   1.545   4.658   1.861 -1.6452  1.4656  2.9078
 3213SOL    HW221273   1.577   4.589   1.988 -1.9566 -1.2523 -2.1067
 3214SOL     OW21274   4.578   2.202   7.358  0.0786  0.1356  0.2058
 3214SOL    HW121275   4.611   2.249   7.282 -0.7143 -0.7741 -0.6993
 3214SOL    HW221276   4.659   2.152   7.373 -0.0308 -0.4450 -1.1657
 3215SOL     OW21277   0.023   1.970   5.227 -0.2171 -0.6635 -0.8538
 3215SOL    HW121278   0.119   1.964   5.233 -0.4251 -3.1210  0.2004
 3215SOL    HW221279   4.727   1.890   5.187 -1.1325 -1.8516  2.2518
 3216SOL     OW21280   1.089   2.381   6.576  0.2800 -0.5193 -0.1165
 3216SOL    HW121281   1.169   2.333   6.597  1.4517  1.9135  0.9863
 3216SOL    HW221282   1.094   2.387   6.481 -0.4871 -0.0318 -0.1326
 3217SOL     OW21283   1.386   2.419  13.251  0.5493  0.0488 -0.3179
 3217SOL    HW121284   1.364   2.326  13.241 -0.9934  0.5432 -1.6274
 3217SOL    HW221285   1.437   2.402  13.330 -1.1975 -0.0883  0.7950
 3218SOL     OW21286   0.290   1.407  10.020 -0.0046 -0.1197  0.7551
 3218SOL    HW121287   0.299   1.370   9.933  1.1634 -2.5392  1.9171
 3218SOL    HW221288   0.365   1.368  10.064  1.6359 -1.6669 -3.4208
 3219SOL     OW21289   0.178   2.643   6.261 -0.3838 -0.3497 -0.1432
 3219SOL    HW121290   0.257   2.654   6.315  0.1334 -1.5324 -0.6565
 3219SOL    HW221291   0.214   2.590   6.190  0.7154  0.1119  0.0583
 3220SOL     OW21292   4.284   1.614   5.219  0.3322 -0.1775  0.0224
 3220SOL    HW121293   4.252   1.695   5.258 -0.4753 -0.2674 -0.4619
 3220SOL    HW221294   4.206   1.581   5.175  0.5374 -0.5048 -0.0909
 3221SOL     OW21295   3.814   4.515  17.437 -0.3712 -0.7323  0.7993
 3221SOL    HW121296   3.728   4.516  17.394  0.1218  1.0699 -0.1449
 3221SOL    HW221297   3.839   4.424  17.418 -0.8844 -0.9221  1.0310
 3222SOL     OW21298   2.686   1.083   5.528 -0.1643  0.3980 -0.2973
 3222SOL    HW121299   2.756   1.045   5.581 -0.7594  1.9052  1.5602
 3222SOL    HW221300   2.723   1.163   5.490  1.4426  0.7218  1.9663
 3223SOL     OW21301   2.448   0.540  10.450 -0.1450 -0.1820 -0.4304
 3223SOL    HW121302   2.523   0.546  10.391  0.2326  0.0929  0.0821
 3223SOL    HW221303   2.416   0.453  10.423  0.2573 -1.5166  3.3586
 3224SOL     OW21304   1.869   4.232   2.768 -0.3666 -0.5360  0.2648
 3224SOL    HW121305   1.925   4.289   2.715  0.6500 -0.2708  1.6126
 3224SOL    HW221306   1.783   4.242   2.728 -0.7706 -1.4130  0.8888
 3225SOL     OW21307   4.067   3.489   9.016  0.1205  0.0579  0.0384
 3225SOL    HW121308   4.067   3.441   9.099  1.7765  2.2336  1.3113
 3225SOL    HW221309   4.120   3.567   9.036  0.3169 -0.3456  1.0826
 3226SOL     OW21310   0.711   0.582  17.228 -1.0173 -0.0904 -0.6557
 3226SOL    HW121311   0.766   0.524  17.282  1.3575  1.5157 -1.3702
 3226SOL    HW221312   0.722   0.669  17.265  0.5416 -0.7886  0.5123
 3227SOL     OW21313   0.261   1.288   1.251  0.9575 -0.5485 -0.2172
 3227SOL    HW121314   0.193   1.284   1.318  0.5485  1.3787 -0.5240
 3227SOL    HW221315   0.321   1.355   1.286 -0.8958  0.6317  0.7024
 3228SOL     OW21316   0.105   1.357   3.011 -0.2638 -0.1217  0.0719
 3228SOL    HW121317   0.105   1.331   2.919  0.6343 -0.5253  0.1829
 3228SOL    HW221318   0.115   1.272   3.055  1.3535 -0.5773 -1.1433
 3229SOL     OW21319   1.069   0.940  17.727  0.3905  0.3231 -0.1510
 3229SOL    HW121320   1.154   0.906   0.010 -0.3295 -0.5243  0.9447
 3229SOL    HW221321   1.018   0.859  17.729  2.7378 -1.1815 -0.7745
 3230SOL     OW21322   2.948   4.182   6.536 -0.1164 -0.2783 -0.0530
 3230SOL    HW121323   2.935   4.215   6.447 -2.1088 -2.0023 -0.3954
 3230SOL    HW221324   3.022   4.122   6.526 -0.9079 -0.6956 -3.4737
 3231SOL     OW21325   2.847   4.534   1.121 -0.4269 -0.2520 -0.4309
 3231SOL    HW121326   2.865   4.460   1.064 -0.5749 -1.3991  1.0079
 3231SOL    HW221327   2.773   4.505   1.174 -2.0570  1.6733 -1.6518
 3232SOL     OW21328   0.757   0.836   7.139  0.1488  0.1002  0.0564
 3232SOL    HW121329   0.850   0.851   7.119 -0.0918  0.7420 -0.5723
 3232SOL    HW221330   0.714   0.864   7.059  1.6108  0.2677 -0.6736
 3233SOL     OW21331   1.954   2.246   5.866  0.7416  0.6195  0.5493
 3233SOL    HW121332   1.941   2.205   5.951  0.5268 -0.6696 -0.1123
 3233SOL    HW221333   1.965   2.338   5.891 -1.6960  1.9578 -3.3208
 3234SOL     OW21334   1.516   3.741   4.027  0.2726  0.4349  0.2582
 3234SOL    HW121335   1.600   3.705   3.997 -1.2997 -2.1067 -1.1608
 3234SOL    HW221336   1.450   3.679   3.994 -0.8933  0.3253  2.7926
 3235SOL     OW21337   2.037   1.062   5.810  0.1701 -0.0735 -0.1295
 3235SOL    HW121338   2.114   1.005   5.803 -0.0101 -0.1727 -1.3103
 3235SOL    HW221339   1.976   0.991   5.793 -0.4325  0.3982  0.0510
 3236SOL     OW21340   0.805   2.696   6.415 -0.3410  0.4481 -0.4770
 3236SOL    HW121341   0.841   2.711   6.327  1.2652  0.1265  0.1350
 3236SOL    HW221342   0.783   2.784   6.445 -2.0654 -0.0060 -0.4336
 3237SOL     OW21343   2.740   2.095   1.223  0.5002  0.2356 -0.2802
 3237SOL    HW121344   2.774   2.158   1.286 -0.3042 -0.1110  0.5042
 3237SOL    HW221345   2.713   2.149   1.150 -0.0349  0.6635  0.2387
 3238SOL     OW21346   3.960   2.138   1.982 -0.2644  0.5774 -0.1379
 3238SOL    HW121347   3.874   2.117   2.016  0.2019 -1.2798 -0.1355
 3238SOL    HW221348   4.015   2.074   2.027 -1.0682 -1.1416 -1.6001
 3239SOL     OW21349   1.650   0.340   6.799  0.1522  0.1728  0.4639
 3239SOL    HW121350   1.679   0.311   6.886 -0.3571 -1.6402  0.0402
 3239SOL    HW221351   1.593   0.267   6.774 -0.6292  1.1686 -0.6335
 3240SOL     OW21352   0.374   1.075   9.809  0.2857  0.1423  0.6653
 3240SOL    HW121353   0.362   0.982   9.828 -1.0195  0.3923  1.0523
 3240SOL    HW221354   0.441   1.090   9.876  0.5364 -0.5108  0.5624
 3241SOL     OW21355   2.130   2.757   3.648  0.5043 -0.6932 -0.4419
 3241SOL    HW121356   2.049   2.786   3.690  1.4434 -1.0669  1.6414
 3241SOL    HW221357   2.101   2.771   3.558 -0.7952  2.6565  0.5050
 3242SOL     OW21358   0.689   3.117   7.999  0.0026 -0.3647 -0.5524
 3242SOL    HW121359   0.636   3.087   7.924  0.3159 -2.0587 -0.1058
 3242SOL    HW221360   0.622   3.183   8.014  2.1991  2.0416 -1.3644
 3243SOL     OW21361   2.493   3.600   7.174 -1.1053  0.3881 -0.0519
 3243SOL    HW121362   2.421   3.553   7.133  0.4374 -1.7942 -0.2313
 3243SOL    HW221363   2.547   3.526   7.200 -0.6414  0.6061 -0.4072
 3244SOL     OW21364   1.193   2.271  10.036 -0.7703  0.6595 -0.7799
 3244SOL    HW121365   1.267   2.228   9.992 -0.3496  0.4762  0.1100
 3244SOL    HW221366   1.239   2.353  10.058 -0.0594  0.4842 -1.6156
 3245SOL     OW21367   2.462   4.522   3.172 -0.0215 -0.1000 -0.0632
 3245SOL    HW121368   2.496   4.489   3.256 -0.9682 -1.8324 -0.3541
 3245SOL    HW221369   2.518   4.457   3.129  0.8260  0.3748  0.3165
 3246SOL     OW21370   2.875   2.432   4.140 -0.1872  0.1024  0.4733
 3246SOL    HW121371   2.795   2.381   4.133  0.9112 -1.6120  0.3666
 3246SOL    HW221372   2.844   2.507   4.191  0.8130  0.2823  0.8339
 3247SOL     OW21373   2.423   3.012   6.494  0.1670  0.0291  0.4765
 3247SOL    HW121374   2.342   2.962   6.502  1.8880 -2.5581  1.6869
 3247SOL    HW221375   2.462   2.974   6.416 -2.7188  0.4397 -1.1499
 3248SOL     OW21376   1.700   1.186  13.411 -0.1096  0.0452 -0.1420
 3248SOL    HW121377   1.735   1.260  13.362 -1.9495  0.0204 -1.5093
 3248SOL    HW221378   1.698   1.113  13.349 -2.3604 -0.1944  0.1964
 3249SOL     OW21379   2.466   4.484  11.153 -0.1158  0.3773 -0.1739
 3249SOL    HW121380   2.405   4.516  11.219 -0.8758 -0.8049 -0.3054
 3249SOL    HW221381   2.483   4.394  11.178 -1.8535  0.1579  0.2183
 3250SOL     OW21382   4.185   4.556   3.218  0.0585 -0.0900  0.4068
 3250SOL    HW121383   4.196   4.646   3.186 -0.0442 -0.0498  0.4839
 3250SOL    HW221384   4.089   4.552   3.223  0.0462 -1.3687 -1.0031
 3251SOL     OW21385   1.530   3.575   4.998 -0.0168  0.1221 -0.3676
 3251SOL    HW121386   1.603   3.538   4.950  0.5285 -1.3415  1.6017
 3251SOL    HW221387   1.455   3.546   4.946 -0.3353 -2.0386  1.2845
 3252SOL     OW21388   1.864   4.218   3.049  0.2633 -0.1656  0.2777
 3252SOL    HW121389   1.858   4.197   2.956  2.0493 -0.8273  0.3183
 3252SOL    HW221390   1.959   4.208   3.057  0.4685  1.1761 -0.5029
 3253SOL     OW21391   0.651   0.420   5.331  0.6930  0.4514  0.5845
 3253SOL    HW121392   0.580   0.358   5.349 -1.0593  1.2480 -3.6735
 3253SOL    HW221393   0.715   0.351   5.313 -1.4846 -1.1353 -1.0662
 3254SOL     OW21394   1.740   3.623   3.937  0.3609 -0.4914 -0.7976
 3254SOL    HW121395   1.790   3.546   3.909  1.1564  0.7458 -2.8668
 3254SOL    HW221396   1.753   3.664   3.851  1.0604  0.8172 -0.0713
 3255SOL     OW21397   0.061   3.373   2.860  0.0026  0.4480  0.4007
 3255SOL    HW121398   0.067   3.444   2.796 -1.8913 -1.0886 -1.4208
 3255SOL    HW221399   4.708   3.341   2.859 -0.6623  2.1871  3.0814
 3256SOL     OW21400   0.227   2.720   9.761 -0.1371 -0.1486  0.3722
 3256SOL    HW121401   0.307   2.756   9.800 -0.1625 -1.7372  1.8381
 3256SOL    HW221402   0.195   2.791   9.705  0.4803 -0.1442  0.0158
 3257SOL     OW21403   3.336   4.034  11.280 -0.5404 -0.2133  0.7764
 3257SOL    HW121404   3.244   4.015  11.260 -1.4293 -0.1380  4.8231
 3257SOL    HW221405   3.319   4.061  11.370 -0.8344  3.4040 -0.3467
 3258SOL     OW21406   3.953   0.308   3.029  0.0675  1.0067 -0.2931
 3258SOL    HW121407   3.994   0.230   2.992 -1.2347  1.2297 -2.1468
 3258SOL    HW221408   3.887   0.265   3.083 -0.3619 -0.0555 -1.6666
 3259SOL     OW21409   2.997   2.374   1.985  0.1273 -0.2269  0.4220
 3259SOL    HW121410   2.915   2.420   1.969  0.3678 -0.7616 -2.4738
 3259SOL    HW221411   3.000   2.387   2.079  0.7155 -0.2307  0.4060
 3260SOL     OW21412   0.571   0.307   4.015  0.2413 -0.2809 -0.0977
 3260SOL    HW121413   0.643   0.244   4.024  2.3421  1.8992 -1.7029
 3260SOL    HW221414   0.579   0.365   4.091  0.2043 -2.1326  1.3431
 3261SOL     OW21415   4.559   3.082   3.894 -0.0139 -0.1946  0.2519
 3261SOL    HW121416   4.572   3.052   3.984  0.4791  0.4625  0.3992
 3261SOL    HW221417   4.599   3.168   3.898  0.0379 -0.1257 -1.7445
 3262SOL     OW21418   3.078   2.256   4.954 -0.3194  0.3413  0.1531
 3262SOL    HW121419   3.155   2.304   4.984  0.4172 -0.2132 -0.8410
 3262SOL    HW221420   3.067   2.185   5.016  0.8576 -0.1911 -0.2592
 3263SOL     OW21421   2.895   3.261   2.613  0.1020  0.5177  0.1072
 3263SOL    HW121422   2.852   3.291   2.693 -0.5000 -0.6494  0.2237
 3263SOL    HW221423   2.989   3.256   2.632 -0.0856 -0.5167  0.7298
 3264SOL     OW21424   0.360   4.169   7.007 -0.4800 -0.1690 -0.0327
 3264SOL    HW121425   0.366   4.106   7.079  2.8181  2.7639  2.2653
 3264SOL    HW221426   0.270   4.199   7.017 -0.6160 -0.3398 -0.8066
 3265SOL     OW21427   3.199   0.122   6.735 -0.1085 -0.0309  0.5725
 3265SOL    HW121428   3.265   0.087   6.675  0.3427  2.2226 -0.2120
 3265SOL    HW221429   3.237   0.180   6.800  1.1859 -1.1188  0.7796
 3266SOL     OW21430   3.447   1.238   4.412 -0.2380  0.5194 -0.7856
 3266SOL    HW121431   3.358   1.231   4.447 -0.1091  2.2794 -0.1221
 3266SOL    HW221432   3.492   1.175   4.469  3.4626  1.5222 -2.6479
 3267SOL     OW21433   3.226   3.197  15.483 -0.4536 -0.0820 -0.1953
 3267SOL    HW121434   3.152   3.248  15.515 -2.2736 -1.9245 -1.4615
 3267SOL    HW221435   3.287   3.270  15.471 -1.2526  0.3805 -1.4762
 3268SOL     OW21436   2.492   4.490   4.218 -0.0265 -0.2027  0.4296
 3268SOL    HW121437   2.424   4.438   4.176  1.5841 -1.6176 -0.4052
 3268SOL    HW221438   2.545   4.514   4.143 -1.2780  3.1523  0.6056
 3269SOL     OW21439   3.705   0.028   8.564  0.0148  0.3924  0.3965
 3269SOL    HW121440   3.620   0.060   8.595 -0.1869  0.0862  0.1679
 3269SOL    HW221441   3.712   0.051   8.471  1.1422 -1.7858 -0.0611
 3270SOL     OW21442   3.891   2.522   5.567 -0.0485  0.0893 -0.7604
 3270SOL    HW121443   3.800   2.506   5.540 -0.5689  0.0346  1.0000
 3270SOL    HW221444   3.882   2.616   5.580  0.4981 -0.2830  2.3458
 3271SOL     OW21445   2.623   3.230   7.520  0.7227 -0.4086  0.5161
 3271SOL    HW121446   2.708   3.197   7.493  0.9349  1.8048 -1.4884
 3271SOL    HW221447   2.586   3.150   7.559 -2.1730  1.3034  1.3355
 3272SOL     OW21448   2.908   3.909   0.071  0.1056 -0.2220 -0.2092
 3272SOL    HW121449   2.894   3.991   0.022 -0.4978 -0.8208 -1.0448
 3272SOL    HW221450   2.880   3.842   0.009 -1.4600  2.1450 -2.1112
 3273SOL     OW21451   1.506   1.716   3.886 -0.4834 -0.2705 -0.3725
 3273SOL    HW121452   1.523   1.640   3.829  2.1691  1.1875 -1.5696
 3273SOL    HW221453   1.541   1.685   3.970 -2.0519  0.0161  0.3652
 3274SOL     OW21454   3.173   1.228  14.083  0.3720 -0.2463  0.7266
 3274SOL    HW121455   3.229   1.168  14.033  0.3212  0.2720  0.0459
 3274SOL    HW221456   3.232   1.304  14.076  1.0354 -0.6206  2.3263
 3275SOL     OW21457   2.310   1.965   6.761 -0.3644  0.2293  0.4122
 3275SOL    HW121458   2.224   1.963   6.720 -0.1026  1.6996 -0.2192
 3275SOL    HW221459   2.365   1.898   6.721 -0.4163 -0.3847  1.3717
 3276SOL     OW21460   1.306   1.857   3.456  0.0401  0.0731 -0.2076
 3276SOL    HW121461   1.231   1.858   3.516  0.2532  0.5801  0.0450
 3276SOL    HW221462   1.320   1.763   3.446  0.1714  0.2742 -1.8655
 3277SOL     OW21463   0.343   2.644  11.639  0.3840 -0.5805 -0.1392
 3277SOL    HW121464   0.383   2.714  11.588 -0.2313 -0.9931 -1.1957
 3277SOL    HW221465   0.258   2.637  11.596  0.2278 -0.5419  0.1663
 3278SOL     OW21466   2.546   2.506   1.647  0.2380 -0.1190  0.2582
 3278SOL    HW121467   2.538   2.531   1.555  2.5632 -0.2612  0.0089
 3278SOL    HW221468   2.588   2.420   1.644  1.2305  0.3509  0.5102
 3279SOL     OW21469   4.109   2.966   5.809  0.3284 -0.3440  0.1828
 3279SOL    HW121470   4.079   2.951   5.719  0.7605 -2.4366  0.3829
 3279SOL    HW221471   4.047   2.912   5.858 -0.5307  0.9009  0.4537
 3280SOL     OW21472   0.213   3.304   6.216  0.2753 -0.2195 -0.0374
 3280SOL    HW121473   0.256   3.222   6.193 -0.3687 -0.5248 -0.1372
 3280SOL    HW221474   0.251   3.363   6.150  1.3530 -0.2011  0.5877
 3281SOL     OW21475   3.996   4.394   9.571  0.2249  0.2155  0.2756
 3281SOL    HW121476   4.008   4.392   9.666 -1.9943 -0.3074  0.5535
 3281SOL    HW221477   4.045   4.473   9.551 -0.5596  0.1724 -1.7655
 3282SOL     OW21478   3.706   3.237   6.428  0.6341 -0.2821 -0.6560
 3282SOL    HW121479   3.698   3.142   6.433 -0.4880 -0.0700  1.4813
 3282SOL    HW221480   3.780   3.255   6.485  0.4765  1.8835 -1.1263
 3283SOL     OW21481   4.027   2.940   5.032  0.5141 -0.5534  0.1633
 3283SOL    HW121482   4.038   2.951   5.127  0.8381 -1.2665  0.2071
 3283SOL    HW221483   4.093   2.873   5.018 -1.1095 -1.6351 -2.1562
 3284SOL     OW21484   1.655   2.662   2.311  0.4968  0.3433 -0.7962
 3284SOL    HW121485   1.741   2.684   2.349  1.1688 -0.0230 -2.1124
 3284SOL    HW221486   1.598   2.671   2.387  0.4855  0.6116 -0.8386
 3285SOL     OW21487   0.650   1.447   9.197  0.6036 -0.0665  0.0251
 3285SOL    HW121488   0.652   1.402   9.281 -2.1500 -0.5261 -0.1283
 3285SOL    HW221489   0.686   1.382   9.137  1.1674  2.7961 -2.7461
 3286SOL     OW21490   4.688   1.947  17.686  0.6334  0.3162  0.2631
 3286SOL    HW121491   4.614   1.888  17.675 -0.4784  1.5768  1.0367
 3286SOL    HW221492   0.002   1.914  17.612 -3.0185 -1.0650 -1.6418
 3287SOL     OW21493   0.191   2.145  15.956  0.2893  0.6813  0.3871
 3287SOL    HW121494   0.203   2.234  15.920 -0.3371  0.3509 -0.6407
 3287SOL    HW221495   0.135   2.105  15.889  3.2042  1.2450 -2.3701
 3288SOL     OW21496   3.681   1.922   2.656 -0.2839 -0.2315  0.0327
 3288SOL    HW121497   3.717   1.833   2.651  0.7269  0.2060 -0.5176
 3288SOL    HW221498   3.667   1.937   2.563  0.0467 -1.2718 -0.1940
 3289SOL     OW21499   2.168   2.574   4.664  0.2064 -0.1961  0.0973
 3289SOL    HW121500   2.231   2.549   4.731  0.2296 -1.9850 -0.5853
 3289SOL    HW221501   2.113   2.495   4.661 -1.4849  0.9936 -0.4674
 3290SOL     OW21502   1.093   0.016   4.616  0.1885  0.1500 -0.0402
 3290SOL    HW121503   1.136   4.711   4.542  0.3817  1.2524 -0.5537
 3290SOL    HW221504   1.047   4.680   4.656 -3.2010  1.0611 -2.2035
 3291SOL     OW21505   2.497   1.745   3.229 -0.4061 -0.2135  0.1476
 3291SOL    HW121506   2.466   1.813   3.169  1.1185 -1.4848 -2.0756
 3291SOL    HW221507   2.453   1.666   3.198 -0.5199  1.2584 -3.4471
 3292SOL     OW21508   1.132   2.491   6.307  0.3438 -0.1082  0.3257
 3292SOL    HW121509   1.175   2.576   6.304 -0.6520  0.3524 -1.1599
 3292SOL    HW221510   1.110   2.490   6.214 -0.9462 -0.2912  0.6358
 3293SOL     OW21511   0.070   1.784  16.224 -0.5071 -0.0709  0.1657
 3293SOL    HW121512   0.144   1.838  16.196 -0.5596 -0.6516 -1.1189
 3293SOL    HW221513   0.081   1.704  16.172 -0.5547  0.0015  0.0442
 3294SOL     OW21514   3.324   0.137   1.315  0.5817 -0.3513  0.0587
 3294SOL    HW121515   3.393   0.103   1.258 -0.3229 -1.0987 -0.5868
 3294SOL    HW221516   3.244   0.105   1.274 -0.2113  1.4953  0.1235
 3295SOL     OW21517   4.550   4.465  17.337  0.0656 -0.3382  0.2072
 3295SOL    HW121518   4.560   4.448  17.431 -0.0231  2.1451  0.6835
 3295SOL    HW221519   4.490   4.540  17.333  0.3893 -0.1555 -1.2481
 3296SOL     OW21520   4.275   0.586   7.396  0.8810  0.0475 -0.3022
 3296SOL    HW121521   4.213   0.658   7.410 -0.2300 -0.9278 -0.1325
 3296SOL    HW221522   4.359   0.626   7.375  1.6332 -1.0782  0.5590
 3297SOL     OW21523   3.823   0.742   5.445 -0.5246 -0.3652 -0.4619
 3297SOL    HW121524   3.890   0.792   5.491  0.0080 -1.4564 -0.0360
 3297SOL    HW221525   3.800   0.674   5.508  1.6113 -2.6348 -2.1223
 3298SOL     OW21526   4.664   0.125  14.022  0.1661  0.1507  0.6498
 3298SOL    HW121527   4.722   0.064  14.068  2.1666 -0.0521 -2.1690
 3298SOL    HW221528   4.613   0.064  13.967  0.5330  0.7781 -0.3876
 3299SOL     OW21529   0.138   2.008  16.740 -0.8739  0.3974 -0.4681
 3299SOL    HW121530   0.127   2.004  16.835  2.0349 -0.3930 -0.1833
 3299SOL    HW221531   0.097   1.924  16.718 -3.8154  2.1229 -1.5816
 3300SOL     OW21532   0.058   2.070  10.765  0.0223  0.1577 -0.3861
 3300SOL    HW121533   0.135   2.057  10.709  0.3928  0.6043  0.0149
 3300SOL    HW221534   0.026   1.979  10.765  0.8796 -0.1589  2.3195
 3301SOL     OW21535   4.218   3.096   4.366  0.5644 -0.6958  0.1047
 3301SOL    HW121536   4.182   3.156   4.300 -0.0179  0.1526  1.2054
 3301SOL    HW221537   4.130   3.067   4.386  0.5886 -0.9231 -0.1123
 3302SOL     OW21538   0.128   0.460   5.368  0.2723 -0.3759 -0.5649
 3302SOL    HW121539   0.052   0.420   5.411  0.8808 -2.2847 -1.2775
 3302SOL    HW221540   0.187   0.386   5.355  0.3128 -0.2839 -0.8881
 3303SOL     OW21541   1.613   0.225   4.403 -0.3797 -0.0989 -0.1630
 3303SOL    HW121542   1.684   0.283   4.431 -0.0007 -0.2793 -0.7373
 3303SOL    HW221543   1.566   0.290   4.352  0.5140 -0.1778 -1.1018
 3304SOL     OW21544   1.636   2.131   1.322 -0.0854 -0.6137 -0.1214
 3304SOL    HW121545   1.626   2.207   1.379 -2.7261 -1.8206  1.0608
 3304SOL    HW221546   1.545   2.101   1.330 -0.2223  0.2883  1.8638
 3305SOL     OW21547   3.233   2.489  10.541  0.0708 -0.0775 -0.3420
 3305SOL    HW121548   3.183   2.407  10.533  0.3280 -0.2832  0.1683
 3305SOL    HW221549   3.162   2.548  10.515  1.8380  1.3225 -1.9821
 3306SOL     OW21550   3.180   0.241   3.156 -0.0901  0.6877  0.8916
 3306SOL    HW121551   3.211   0.210   3.071  2.2568 -0.3778  2.1423
 3306SOL    HW221552   3.257   0.289   3.189  0.8338 -1.7060  2.1896
 3307SOL     OW21553   3.407   4.253  16.282 -0.1873  0.3521  0.1529
 3307SOL    HW121554   3.490   4.290  16.250  1.2368 -1.6441  1.5026
 3307SOL    HW221555   3.442   4.213  16.362 -1.2631 -1.1528 -0.1345
 3308SOL     OW21556   4.517   3.172   8.068  0.1803  0.3716  0.0377
 3308SOL    HW121557   4.503   3.231   8.142  2.1164  0.9734 -0.0784
 3308SOL    HW221558   4.491   3.086   8.103  2.3885  0.0597  0.8544
 3309SOL     OW21559   3.007   4.601  15.456 -0.2271 -0.0686  0.3272
 3309SOL    HW121560   3.057   4.610  15.537  0.7520  0.4756 -0.3488
 3309SOL    HW221561   3.065   4.651  15.399 -0.1275  0.8205  1.2216
 3310SOL     OW21562   1.430   1.648   8.646  0.2361 -0.0114  0.3593
 3310SOL    HW121563   1.514   1.620   8.609 -0.3073 -0.8163 -0.2667
 3310SOL    HW221564   1.410   1.584   8.715 -1.6947  1.2895  1.0317
 3311SOL     OW21565   2.340   0.781   1.526 -0.1432 -0.3113 -0.0793
 3311SOL    HW121566   2.320   0.765   1.434 -0.3326 -2.8119  0.3903
 3311SOL    HW221567   2.321   0.695   1.564 -0.4233 -0.3173 -0.2326
 3312SOL     OW21568   4.339   0.503   8.898 -0.2862 -0.0736  0.4152
 3312SOL    HW121569   4.407   0.535   8.957  0.3147  0.5019 -0.5746
 3312SOL    HW221570   4.306   0.430   8.950 -2.1584  0.7074  0.3135
 3313SOL     OW21571   1.771   4.361  17.541  0.0517  0.2197 -0.5896
 3313SOL    HW121572   1.741   4.290  17.485  0.5454  1.0289 -1.8803
 3313SOL    HW221573   1.802   4.417  17.470 -1.8320  0.2504 -1.3918
 3314SOL     OW21574   3.671   1.932  17.074  0.5299 -0.2219 -0.2920
 3314SOL    HW121575   3.692   1.915  16.982 -1.3411  1.5529 -1.0501
 3314SOL    HW221576   3.630   2.017  17.063  0.3818 -0.2656 -0.0746
 3315SOL     OW21577   0.995   1.749   5.406 -0.3354 -0.5296 -0.1239
 3315SOL    HW121578   1.059   1.781   5.342 -0.4854 -3.1198 -1.5596
 3315SOL    HW221579   0.951   1.681   5.355  0.1077 -1.2387  0.4490
 3316SOL     OW21580   1.715   3.751   1.299  0.0229 -0.0120  0.2932
 3316SOL    HW121581   1.724   3.771   1.392 -1.2830 -2.4908  0.9791
 3316SOL    HW221582   1.807   3.751   1.275  0.5777 -1.7717  2.3496
 3317SOL     OW21583   3.484   3.659   5.194  0.4598 -0.0383  0.1455
 3317SOL    HW121584   3.482   3.563   5.194 -0.1534 -0.0048 -3.2582
 3317SOL    HW221585   3.512   3.662   5.103 -1.6294  0.5069 -0.4698
 3318SOL     OW21586   0.191   3.684  10.571  0.3700  0.3193 -0.1517
 3318SOL    HW121587   0.266   3.720  10.617 -0.1469  0.3128  0.7076
 3318SOL    HW221588   0.124   3.751  10.587  0.3529 -0.3503  2.6490
 3319SOL     OW21589   2.454   1.352  16.850 -0.4685 -0.3323  0.0125
 3319SOL    HW121590   2.539   1.313  16.871 -0.4332 -0.9654 -1.2929
 3319SOL    HW221591   2.401   1.279  16.883  0.8321 -0.1567  2.4761
 3320SOL     OW21592   0.141   3.423   9.778  0.1408 -0.2778 -0.1608
 3320SOL    HW121593   0.164   3.450   9.867 -0.0943  0.9233 -0.4735
 3320SOL    HW221594   0.138   3.510   9.738  0.1984  0.2674  1.0179
 3321SOL     OW21595   1.388   3.899  15.390  0.1911  0.2365  0.5205
 3321SOL    HW121596   1.418   3.846  15.464  0.1925 -1.3381 -0.6083
 3321SOL    HW221597   1.344   3.967  15.440 -0.2509  0.4575 -0.1594
 3322SOL     OW21598   1.621   1.490   8.995 -0.0322  0.5303 -0.1747
 3322SOL    HW121599   1.561   1.485   8.921 -0.4202  0.6722  0.1284
 3322SOL    HW221600   1.553   1.518   9.057 -0.5167  1.9614 -1.3423
 3323SOL     OW21601   0.204   1.579   8.356 -0.6626 -0.5341 -0.1147
 3323SOL    HW121602   0.127   1.610   8.404  1.2586  1.0836  1.9806
 3323SOL    HW221603   0.201   1.626   8.272 -1.9346  1.1781  0.8834
 3324SOL     OW21604   3.600   1.072   4.580  0.2105  0.5998 -0.0480
 3324SOL    HW121605   3.563   1.041   4.663  2.5744 -1.7811  0.1288
 3324SOL    HW221606   3.563   1.008   4.519  0.9361 -0.2734  0.4185
 3325SOL     OW21607   3.691   3.797   6.789 -0.0115 -0.2465  0.3420
 3325SOL    HW121608   3.607   3.813   6.832  0.9799 -0.6834  2.4435
 3325SOL    HW221609   3.676   3.842   6.705  0.8758 -0.3510  0.1207
 3326SOL     OW21610   1.508   1.314  10.539  0.3052  0.4332 -0.7164
 3326SOL    HW121611   1.557   1.395  10.529  2.6352 -0.9374 -0.4959
 3326SOL    HW221612   1.506   1.307  10.635 -1.6411  0.9766 -0.7124
 3327SOL     OW21613   3.372   1.108   3.958  0.1946 -0.0749  0.3563
 3327SOL    HW121614   3.423   1.048   3.904  0.2325 -0.2970  0.6405
 3327SOL    HW221615   3.444   1.168   3.974  1.2533 -1.3188  0.2574
 3328SOL     OW21616   1.049   2.806   6.225  0.6809  0.3222  0.5199
 3328SOL    HW121617   1.057   2.891   6.267 -1.4748  0.5935  0.4071
 3328SOL    HW221618   1.141   2.781   6.223  0.7200  0.2795  3.1292
 3329SOL     OW21619   1.987   3.925   8.400 -0.1462  0.4084 -0.3235
 3329SOL    HW121620   2.001   3.982   8.476 -0.8969  1.3850 -0.9086
 3329SOL    HW221621   2.067   3.942   8.351  0.7747  0.9639  1.3769
 3330SOL     OW21622   2.414   1.115  16.317 -0.8836  0.5079  0.4837
 3330SOL    HW121623   2.474   1.165  16.371 -1.1139  0.3790  0.8581
 3330SOL    HW221624   2.383   1.190  16.265 -0.9925  0.0513 -0.1139
 3331SOL     OW21625   3.715   4.697   5.510 -0.4749 -0.4993 -0.0112
 3331SOL    HW121626   3.636   4.693   5.563  0.7440  0.7369  1.9149
 3331SOL    HW221627   3.707   4.605   5.487 -1.4726 -0.7695  1.4241
 3332SOL     OW21628   4.407   1.489  13.119  0.9083 -0.2223 -0.3449
 3332SOL    HW121629   4.356   1.448  13.049  0.5446  2.4810 -1.6569
 3332SOL    HW221630   4.495   1.451  13.108  0.8137 -0.1865 -1.2879
 3333SOL     OW21631   3.772   2.708   0.971 -0.0556 -0.4764  0.1548
 3333SOL    HW121632   3.724   2.668   0.899  0.2688 -0.9230  0.1849
 3333SOL    HW221633   3.699   2.711   1.033 -0.5308 -1.6609 -0.3286
 3334SOL     OW21634   1.648   2.473   3.578  0.5850  0.4698 -0.2186
 3334SOL    HW121635   1.587   2.400   3.567  0.1623  0.5289  1.7962
 3334SOL    HW221636   1.590   2.523   3.636 -0.2076 -0.3213 -0.3218
 3335SOL     OW21637   1.232   3.558   3.116  0.1850  0.1551 -0.0025
 3335SOL    HW121638   1.326   3.578   3.118  0.3394 -0.6879  0.8456
 3335SOL    HW221639   1.196   3.643   3.089  0.4844  0.2514 -0.1005
 3336SOL     OW21640   1.041   3.315   5.539 -0.2746  0.0350 -0.9231
 3336SOL    HW121641   1.020   3.296   5.630 -0.8543 -1.1271 -1.3040
 3336SOL    HW221642   1.118   3.373   5.542 -0.4607  0.3035 -1.3262
 3337SOL     OW21643   0.896   2.745  17.278 -0.2800  0.2261  0.1413
 3337SOL    HW121644   0.990   2.750  17.297 -1.3608  1.7723  5.0079
 3337SOL    HW221645   0.861   2.675  17.332 -1.4522  0.6693 -0.0468
 3338SOL     OW21646   0.740   2.542   4.537  0.3852 -0.1825 -0.3801
 3338SOL    HW121647   0.779   2.553   4.450 -2.1648 -1.1201 -1.6488
 3338SOL    HW221648   0.808   2.584   4.590 -0.6432 -1.3766  1.8947
 3339SOL     OW21649   4.504   1.976  10.991 -0.6284 -0.4216 -0.5394
 3339SOL    HW121650   4.542   2.052  11.035 -2.6724  0.6006 -0.5315
 3339SOL    HW221651   4.555   1.913  11.042 -5.4219 -1.0862  3.4904
 3340SOL     OW21652   0.429   2.981   0.159  0.4960  0.2121 -0.0733
 3340SOL    HW121653   0.412   2.907   0.101  1.4718 -1.6931  2.0948
 3340SOL    HW221654   0.421   3.056   0.100  0.8142  0.1752 -0.1653
 3341SOL     OW21655   0.526   1.110   4.968  0.2793 -0.3775 -0.3066
 3341SOL    HW121656   0.448   1.133   4.917  1.5834 -1.5457 -2.8540
 3341SOL    HW221657   0.493   1.093   5.056  1.6883 -3.0369 -0.2912
 3342SOL     OW21658   0.736   4.015   6.920  0.0285 -0.3896  0.4573
 3342SOL    HW121659   0.829   4.031   6.906 -0.4291  0.8656 -1.0489
 3342SOL    HW221660   0.707   4.085   6.862  2.1454  0.3289  0.2572
 3343SOL     OW21661   3.426   0.920   7.759 -0.0158  0.1981 -0.1022
 3343SOL    HW121662   3.509   0.877   7.780 -0.2144  1.0596  2.4197
 3343SOL    HW221663   3.446   1.008   7.791 -1.3012  0.1350  0.8977
 3344SOL     OW21664   4.220   2.025   6.347  0.0982 -0.2173 -0.3382
 3344SOL    HW121665   4.287   2.021   6.415 -1.6464 -1.0740  1.3491
 3344SOL    HW221666   4.271   2.041   6.268  0.0931  1.5273 -0.0063
 3345SOL     OW21667   0.294   3.518   6.080  0.4175 -0.2857 -0.1945
 3345SOL    HW121668   0.372   3.557   6.042  0.8097 -0.6945  0.1882
 3345SOL    HW221669   0.279   3.577   6.154 -0.2300  1.6022 -1.8423
 3346SOL     OW21670   3.420   4.705   5.354 -0.3038  0.0258 -0.2914
 3346SOL    HW121671   3.428   4.610   5.347  0.5456  0.0485  0.2676
 3346SOL    HW221672   3.488   0.004   5.297  0.6328 -0.3556  0.5638
 3347SOL     OW21673   0.244   2.115   1.844 -0.0090  0.4054  0.1635
 3347SOL    HW121674   0.228   2.208   1.861  0.8333  0.3150  1.4688
 3347SOL    HW221675   0.156   2.079   1.857  0.4230 -0.6916  0.0734
 3348SOL     OW21676   0.121   1.634   5.209  0.1607 -0.1926  0.2968
 3348SOL    HW121677   0.187   1.697   5.236 -0.3831  1.0338 -1.2573
 3348SOL    HW221678   0.087   1.598   5.291  0.1537 -1.2376 -0.1636
 3349SOL     OW21679   1.068   0.735   0.718 -0.3351  0.0190 -0.0385
 3349SOL    HW121680   0.988   0.772   0.754  0.4283  0.5918  1.0569
 3349SOL    HW221681   1.107   0.820   0.699 -0.0467 -0.1225 -0.0787
 3350SOL     OW21682   0.876   0.720   9.007  0.7082  0.0671  0.1143
 3350SOL    HW121683   0.893   0.693   8.916 -1.1341 -2.2525  0.4502
 3350SOL    HW221684   0.941   0.665   9.049  0.2624 -1.9591 -1.8345
 3351SOL     OW21685   2.486   0.390   8.302  0.1451  0.0219 -0.4490
 3351SOL    HW121686   2.438   0.389   8.219 -0.2412  1.1908 -0.2460
 3351SOL    HW221687   2.413   0.386   8.363  0.7329  0.9416  0.3061
 3352SOL     OW21688   1.775   4.051   5.402  0.0353 -0.0110 -0.3308
 3352SOL    HW121689   1.681   4.038   5.415 -0.0069  2.6956  1.8947
 3352SOL    HW221690   1.810   3.962   5.391  1.7207  0.9061 -2.4320
 3353SOL     OW21691   3.198   3.010   6.610  0.1534  0.1920 -0.2915
 3353SOL    HW121692   3.204   2.947   6.681 -0.6501 -1.9454 -2.1053
 3353SOL    HW221693   3.271   2.979   6.556 -0.3856 -0.6633 -0.5285
 3354SOL     OW21694   3.579   2.352   8.503  0.2304 -0.1993 -0.1937
 3354SOL    HW121695   3.663   2.308   8.494 -0.1838 -1.0807  0.2483
 3354SOL    HW221696   3.515   2.283   8.484  0.1602 -0.0598 -0.4579
 3355SOL     OW21697   2.239   2.287  15.797  0.2938  0.5218  0.1788
 3355SOL    HW121698   2.170   2.243  15.747  0.2049  0.4309  0.3803
 3355SOL    HW221699   2.195   2.348  15.856 -0.7196 -2.4282  2.4804
 3356SOL     OW21700   2.786   1.565  16.749 -0.3556  0.1309  0.5795
 3356SOL    HW121701   2.778   1.654  16.785 -2.2325  0.3898 -0.5207
 3356SOL    HW221702   2.694   1.565  16.724 -0.5133  1.6113  1.0984
 3357SOL     OW21703   1.807   4.428   7.603  0.0157  0.0353  0.5043
 3357SOL    HW121704   1.819   4.495   7.535 -0.9389 -1.1464 -0.8214
 3357SOL    HW221705   1.720   4.394   7.580  0.2953 -0.8434  0.7631
 3358SOL     OW21706   1.976   1.788   6.813 -0.4311  0.5938  0.5944
 3358SOL    HW121707   1.903   1.735   6.845 -0.1699 -0.1513 -0.0368
 3358SOL    HW221708   2.021   1.802   6.896  1.9956  1.6033 -0.8919
 3359SOL     OW21709   1.107   3.684   8.339  0.2705  0.9214  0.1446
 3359SOL    HW121710   1.191   3.703   8.381  1.2972  0.8014 -1.8337
 3359SOL    HW221711   1.124   3.710   8.248 -2.0059  1.0227 -0.2352
 3360SOL     OW21712   2.439   0.754  10.633  0.1851 -0.2416  0.1475
 3360SOL    HW121713   2.507   0.704  10.678 -0.3042 -0.0516  1.1163
 3360SOL    HW221714   2.418   0.691  10.564 -0.3726  0.4748 -0.3402
 3361SOL     OW21715   0.982   3.940   6.127 -0.1184 -0.7083  0.3909
 3361SOL    HW121716   1.001   3.886   6.050  1.2862  0.0239  0.2404
 3361SOL    HW221717   0.948   4.018   6.083  1.4628  0.3909  1.1509
 3362SOL     OW21718   0.148   3.655   1.438 -0.2683 -0.1375 -0.1785
 3362SOL    HW121719   0.195   3.691   1.363 -2.1312  0.8976 -0.8268
 3362SOL    HW221720   0.070   3.612   1.404  1.0118 -1.2647 -1.7220
 3363SOL     OW21721   3.196   0.108   4.504 -0.3205  0.1576 -0.0108
 3363SOL    HW121722   3.155   0.184   4.544  0.8134 -0.3331  2.0829
 3363SOL    HW221723   3.175   0.127   4.412 -1.9745 -0.5649  0.2198
 3364SOL     OW21724   1.354   3.856  15.671  0.4118 -0.2826  0.2767
 3364SOL    HW121725   1.390   3.772  15.698  1.8949  1.0926  2.6624
 3364SOL    HW221726   1.315   3.889  15.751  1.0163  0.3745  0.3022
 3365SOL     OW21727   2.217   3.003   1.895  0.0169  0.7753 -0.2496
 3365SOL    HW121728   2.271   3.050   1.831 -0.5579  0.2696 -1.1075
 3365SOL    HW221729   2.174   3.072   1.944 -0.6559  0.9145 -1.0396
 3366SOL     OW21730   1.000   0.657   1.693  0.0712  0.6349  0.6019
 3366SOL    HW121731   1.059   0.730   1.672  0.3795  1.0698  2.9964
 3366SOL    HW221732   0.956   0.643   1.609 -1.1497 -1.2200  1.5655
 3367SOL     OW21733   0.783   1.210   5.773 -0.8274 -0.2095 -0.0778
 3367SOL    HW121734   0.743   1.142   5.720 -0.0026  0.3655 -1.4521
 3367SOL    HW221735   0.712   1.209   5.837 -1.7039  0.2932 -1.0413
 3368SOL     OW21736   3.789   4.081   4.940 -0.5596 -0.1797 -0.0496
 3368SOL    HW121737   3.869   4.096   4.890 -1.5236 -2.5116 -2.3422
 3368SOL    HW221738   3.743   4.164   4.933 -1.8786 -1.1318 -2.7997
 3369SOL     OW21739   0.550   3.164   5.920 -0.4887 -0.0077 -0.4685
 3369SOL    HW121740   0.519   3.152   5.831 -0.1211  1.0185 -0.7252
 3369SOL    HW221741   0.639   3.128   5.925 -1.4625 -2.3450  0.2038
 3370SOL     OW21742   3.524   1.000   5.379 -0.2860 -0.4667  0.3205
 3370SOL    HW121743   3.527   1.075   5.439 -0.1447 -0.3697  0.1944
 3370SOL    HW221744   3.555   0.939   5.446  1.4324  1.6290  1.4551
 3371SOL     OW21745   1.419   1.565  10.973  0.2587 -0.2051 -0.1488
 3371SOL    HW121746   1.496   1.620  10.989  0.6551 -0.4909 -1.0408
 3371SOL    HW221747   1.398   1.541  11.063 -2.7143  0.6399 -0.6267
 3372SOL     OW21748   2.135   3.370   1.989 -0.6196  0.0548 -0.1769
 3372SOL    HW121749   2.210   3.322   1.955  0.1209  1.3581 -0.4054
 3372SOL    HW221750   2.076   3.334   1.923  1.9085 -1.2876 -1.7310
 3373SOL     OW21751   1.242   0.500   3.158 -0.5949 -0.1682  0.6521
 3373SOL    HW121752   1.278   0.416   3.187  0.4498 -0.2276 -0.8415
 3373SOL    HW221753   1.176   0.486   3.091  1.2856  2.0570 -1.6501
 3374SOL     OW21754   3.606   3.429   2.954 -0.2960  0.4550 -0.2486
 3374SOL    HW121755   3.619   3.436   3.048  0.2094  1.8872 -0.4203
 3374SOL    HW221756   3.690   3.448   2.912 -0.3068  0.6291 -0.1902
 3375SOL     OW21757   1.582   1.829   8.038  0.3620 -0.3357  0.1297
 3375SOL    HW121758   1.662   1.877   8.019 -1.7279  4.4040  3.2902
 3375SOL    HW221759   1.541   1.825   7.952  0.1128  2.0128  0.1532
 3376SOL     OW21760   4.058   2.720   3.781  0.0162  0.0058 -0.4269
 3376SOL    HW121761   3.982   2.685   3.733 -0.9805 -1.5420  2.3391
 3376SOL    HW221762   4.038   2.704   3.873 -0.6996  0.2307 -0.5433
 3377SOL     OW21763   2.071   0.932   6.995  0.5116  0.5502 -0.6978
 3377SOL    HW121764   2.116   0.865   6.944  0.2191  0.1803 -0.4691
 3377SOL    HW221765   2.010   0.964   6.928  0.4522  1.1943 -0.3370
 3378SOL     OW21766   1.853   1.239   5.004  0.0583 -0.2389  0.2234
 3378SOL    HW121767   1.947   1.257   5.001  0.0981 -0.7364 -1.0907
 3378SOL    HW221768   1.849   1.150   5.040 -0.2885  0.5633  2.1911
 3379SOL     OW21769   4.385   0.916   1.913 -0.6719 -0.1512 -0.3165
 3379SOL    HW121770   4.456   0.885   1.969  0.6692  0.1505 -1.8484
 3379SOL    HW221771   4.365   0.836   1.866 -0.9894 -0.9536  1.1962
 3380SOL     OW21772   3.461   2.560  10.866 -0.2870 -0.0443 -0.5888
 3380SOL    HW121773   3.526   2.498  10.834  0.8122  0.2142  1.1531
 3380SOL    HW221774   3.425   2.608  10.792  0.3609  2.1187  0.5090
 3381SOL     OW21775   2.586   2.427   3.673 -0.7371 -0.2084  0.0198
 3381SOL    HW121776   2.574   2.336   3.648 -1.1529  0.0330 -0.6762
 3381SOL    HW221777   2.504   2.456   3.713 -1.2092  0.3959 -1.3798
 3382SOL     OW21778   0.736   2.194   1.970  0.2041 -0.2165  0.4208
 3382SOL    HW121779   0.733   2.231   2.058 -0.6001  0.7553 -0.0108
 3382SOL    HW221780   0.657   2.140   1.969  0.7773 -1.0430 -0.5090
 3383SOL     OW21781   1.606   0.702   1.221 -0.2824 -0.6671  0.8577
 3383SOL    HW121782   1.597   0.608   1.237 -0.9157 -0.8178 -0.3933
 3383SOL    HW221783   1.647   0.725   1.304  0.8399  0.6569 -0.0575
 3384SOL     OW21784   0.617   1.435  17.744 -0.1278 -0.4913  0.4994
 3384SOL    HW121785   0.681   1.483  17.691 -0.7324 -0.3790 -0.1217
 3384SOL    HW221786   0.546   1.499   0.005  0.4961  0.3497 -0.8648
 3385SOL     OW21787   3.125   4.335  11.234 -0.5688 -0.3924  0.1994
 3385SOL    HW121788   3.085   4.257  11.272  1.4975  0.1864  3.5362
 3385SOL    HW221789   3.165   4.287  11.161 -0.8527 -0.0686 -0.1693
 3386SOL     OW21790   2.529   3.982   6.779  0.5540 -0.4902 -0.7153
 3386SOL    HW121791   2.485   3.909   6.821  0.0167 -0.7805 -1.7692
 3386SOL    HW221792   2.620   3.972   6.808  0.5676  3.9161  0.6832
 3387SOL     OW21793   4.054   1.834   3.111  0.1131 -0.5138  1.0974
 3387SOL    HW121794   4.026   1.836   3.202  0.2190 -0.2589  1.1231
 3387SOL    HW221795   3.991   1.774   3.071  0.9068  0.1850 -1.2028
 3388SOL     OW21796   0.748   4.143  12.086 -0.1591  0.5854  0.1611
 3388SOL    HW121797   0.669   4.144  12.141  0.9513 -0.8320  1.7848
 3388SOL    HW221798   0.762   4.054  12.055  1.1668  0.9395 -0.2305
 3389SOL     OW21799   0.107   2.306   2.966 -0.3414  0.0763  0.6898
 3389SOL    HW121800   0.017   2.290   2.994 -0.2187 -0.8883  0.5548
 3389SOL    HW221801   0.157   2.259   3.034 -3.1041 -2.3317  1.0383
 3390SOL     OW21802   1.401   4.672  10.358  0.3366  0.2297 -0.5280
 3390SOL    HW121803   1.351   4.676  10.276 -0.9022  0.5321  0.2415
 3390SOL    HW221804   1.462   4.604  10.330 -0.4125 -0.5423 -0.2970
 3391SOL     OW21805   1.026   1.638   5.813  0.3824 -0.2958 -0.2053
 3391SOL    HW121806   0.965   1.567   5.831  0.1153  0.1998  0.8439
 3391SOL    HW221807   0.978   1.678   5.741 -4.3904 -0.2683  3.0052
 3392SOL     OW21808   2.731   1.870   8.577  0.1883 -0.8026 -0.3865
 3392SOL    HW121809   2.762   1.800   8.635  1.4856  0.5205  0.4836
 3392SOL    HW221810   2.701   1.812   8.507 -2.6332 -0.2053  0.3497
 3393SOL     OW21811   2.964   4.386   5.614  0.1489  0.2955  0.3471
 3393SOL    HW121812   2.869   4.384   5.598  0.5181  1.3259 -1.9180
 3393SOL    HW221813   2.965   4.362   5.707  2.4913  2.5623  0.8904
 3394SOL     OW21814   3.117   1.326   5.790  0.8101  0.6700  0.0000
 3394SOL    HW121815   3.026   1.351   5.775  0.6609  0.2448  0.1753
 3394SOL    HW221816   3.109   1.299   5.882 -0.2774 -2.1217 -0.9096
 3395SOL     OW21817   3.894   4.415   4.240  0.2354 -0.1936 -0.5281
 3395SOL    HW121818   3.910   4.419   4.334 -0.2977 -0.0095 -0.4400
 3395SOL    HW221819   3.983   4.407   4.205  0.0771 -2.2067 -0.4569
 3396SOL     OW21820   0.853   3.912   9.163  0.1355  0.3791 -0.3228
 3396SOL    HW121821   0.833   3.858   9.087 -0.7871  1.6258 -0.9620
 3396SOL    HW221822   0.834   3.843   9.226 -1.5587  0.1992 -1.0321
 3397SOL     OW21823   0.179   3.838  16.561  0.0476  0.1926  0.3287
 3397SOL    HW121824   0.087   3.851  16.539  0.3083  0.9522 -0.2986
 3397SOL    HW221825   0.165   3.798  16.647 -0.7253  1.2290  0.6767
 3398SOL     OW21826   0.398   4.566   8.944 -0.1689 -0.1449  0.5372
 3398SOL    HW121827   0.353   4.513   9.010  1.2389 -0.3099  1.3587
 3398SOL    HW221828   0.464   4.608   8.999 -2.2105  2.5611  0.9346
 3399SOL     OW21829   1.226   3.244  17.555  0.4362  0.4875 -0.0547
 3399SOL    HW121830   1.177   3.264  17.475 -2.5571 -0.4818  1.5305
 3399SOL    HW221831   1.179   3.302  17.615 -0.4124  0.2542 -0.4897
 3400SOL     OW21832   4.144   1.116   9.613 -0.3382 -0.1074  0.0182
 3400SOL    HW121833   4.187   1.106   9.528 -0.1172 -1.5058  0.3024
 3400SOL    HW221834   4.181   1.196   9.650 -1.0279 -0.6422  1.8543
 3401SOL     OW21835   4.498   1.508   1.937 -0.4640 -0.1245  0.2033
 3401SOL    HW121836   4.486   1.420   1.973 -2.3541 -0.1532 -0.4846
 3401SOL    HW221837   4.496   1.498   1.842  0.9542 -0.4699  0.2103
 3402SOL     OW21838   1.403   2.776   1.866 -0.0197  0.3592  0.3120
 3402SOL    HW121839   1.381   2.868   1.851  1.7084  0.5399 -1.1357
 3402SOL    HW221840   1.471   2.759   1.801 -4.1047 -1.6929 -3.3873
 3403SOL     OW21841   2.308   4.596   8.445  0.1828 -0.3971  0.0008
 3403SOL    HW121842   2.309   4.504   8.472 -0.0143 -0.1567  0.8066
 3403SOL    HW221843   2.334   4.580   8.354  0.1447 -1.7485  0.2233
 3404SOL     OW21844   0.609   0.174   4.706  0.4192 -0.0137  0.4947
 3404SOL    HW121845   0.556   0.095   4.722 -0.2680  0.1997 -0.7124
 3404SOL    HW221846   0.691   0.141   4.669  0.0124  0.1455 -0.5559
 3405SOL     OW21847   2.965   2.666   2.762  0.1612  0.3390  0.0920
 3405SOL    HW121848   2.944   2.572   2.759 -3.0645  0.9727  3.2567
 3405SOL    HW221849   2.889   2.707   2.721  0.6539  1.1266 -0.0230
 3406SOL     OW21850   2.598   1.224   6.278  0.3734  0.1432 -0.2278
 3406SOL    HW121851   2.673   1.265   6.235 -0.6008  1.2245 -0.9114
 3406SOL    HW221852   2.568   1.158   6.216  0.3655 -1.1191  1.1223
 3407SOL     OW21853   0.014   1.529   5.434  0.1933  0.2962 -0.4068
 3407SOL    HW121854   4.730   1.465   5.502  1.2225 -0.2227 -0.5662
 3407SOL    HW221855   4.667   1.529   5.388 -0.4959 -0.5787  0.8341
 3408SOL     OW21856   3.831   2.969   8.993  0.2720 -0.2642 -0.0511
 3408SOL    HW121857   3.915   2.977   8.948  1.4740 -0.7658  2.0993
 3408SOL    HW221858   3.782   3.021   8.929  0.0865  0.1823  0.4426
 3409SOL     OW21859   0.357   4.619  15.942  0.0066 -0.2712  0.6543
 3409SOL    HW121860   0.342   4.562  15.867  0.2004 -0.5315  0.8150
 3409SOL    HW221861   0.395   4.697  15.902 -1.7949  0.6878  0.8033
 3410SOL     OW21862   0.359   2.461   7.726  0.4310 -0.1817 -0.1482
 3410SOL    HW121863   0.374   2.518   7.801  1.4662  0.1812 -0.6178
 3410SOL    HW221864   0.429   2.398   7.742  0.0651 -0.3288  0.7979
 3411SOL     OW21865   0.645   3.415   3.581 -0.0132  0.0524 -0.2918
 3411SOL    HW121866   0.595   3.335   3.568 -1.9171  1.5420 -2.1247
 3411SOL    HW221867   0.731   3.379   3.604  1.1143  0.9977 -3.0230
 3412SOL     OW21868   4.385   4.699   3.824 -0.4631 -0.0829  0.6762
 3412SOL    HW121869   4.468   4.707   3.776  0.1293  0.4216  1.7866
 3412SOL    HW221870   4.377   0.048   3.866  0.0504  0.6814 -0.7555
 3413SOL     OW21871   0.519   1.939   2.288 -0.1726 -0.2635  0.7993
 3413SOL    HW121872   0.436   1.951   2.243  0.6584 -0.6665 -0.8571
 3413SOL    HW221873   0.487   1.978   2.369  1.9388  1.7401  0.6768
 3414SOL     OW21874   0.681   0.150   5.084  0.0858  0.0619  0.3201
 3414SOL    HW121875   0.773   0.136   5.103 -0.0588 -0.8155  0.3511
 3414SOL    HW221876   0.644   0.140   5.172 -0.5181  0.1240  0.0788
 3415SOL     OW21877   0.538   1.685   6.210 -0.1629  0.2695  0.3023
 3415SOL    HW121878   0.586   1.723   6.284 -0.4992  0.6053  0.3439
 3415SOL    HW221879   0.473   1.636   6.260 -1.0222  0.2780 -0.8109
 3416SOL     OW21880   0.360   2.077   4.418  0.5710  0.5116 -0.0157
 3416SOL    HW121881   0.439   2.060   4.366  1.2322 -0.0544  1.1619
 3416SOL    HW221882   0.292   2.096   4.353  0.6653 -2.0959 -0.8809
 3417SOL     OW21883   4.202   3.046   6.158 -0.1580 -0.4484 -0.3193
 3417SOL    HW121884   4.148   3.125   6.147  0.0589 -0.2551  0.0059
 3417SOL    HW221885   4.163   3.004   6.234 -0.0193 -0.3417 -0.1897
 3418SOL     OW21886   3.875   1.240  12.724 -0.3081 -0.9469  0.0522
 3418SOL    HW121887   3.798   1.230  12.780 -1.5449  0.4379 -1.3841
 3418SOL    HW221888   3.888   1.147  12.707 -0.3631 -0.7067 -1.3497
 3419SOL     OW21889   4.541   2.166   5.194  0.2975 -0.0105 -0.3645
 3419SOL    HW121890   4.624   2.126   5.219  0.3157 -0.5886 -1.3660
 3419SOL    HW221891   4.572   2.254   5.176 -0.7300  0.8230  1.9265
 3420SOL     OW21892   2.734   1.511   9.212  0.2219  0.1183  0.0611
 3420SOL    HW121893   2.780   1.567   9.275 -2.1843 -0.6918  2.5279
 3420SOL    HW221894   2.792   1.435   9.218 -3.1807 -2.4266  0.9742
 3421SOL     OW21895   4.439   2.151   2.153  0.4232 -0.3018 -0.7362
 3421SOL    HW121896   4.389   2.160   2.235  0.2873 -2.3377 -0.6041
 3421SOL    HW221897   4.369   2.119   2.097  1.5826 -2.1944 -1.0895
 3422SOL     OW21898   1.624   1.698   9.997  0.1951 -0.0178 -0.3813
 3422SOL    HW121899   1.530   1.700  10.019  0.5175 -0.2447  1.0474
 3422SOL    HW221900   1.633   1.618   9.946  0.6206  0.0399 -0.3914
 3423SOL     OW21901   0.081   0.721   4.865 -0.2002  0.2034  0.2574
 3423SOL    HW121902   0.094   0.640   4.915 -2.2799 -0.1760  0.1921
 3423SOL    HW221903   4.723   0.728   4.879 -0.4048 -1.4048 -0.3193
 3424SOL     OW21904   1.158   2.667   8.022 -0.2127  0.0477 -0.5473
 3424SOL    HW121905   1.102   2.636   8.093  0.8795 -1.4797 -0.3490
 3424SOL    HW221906   1.200   2.583   8.003  0.2322  0.1606 -0.0726
 3425SOL     OW21907   3.350   1.637   9.010  0.5094 -0.0229  0.9018
 3425SOL    HW121908   3.398   1.582   9.071 -0.5425 -3.4492 -1.3211
 3425SOL    HW221909   3.303   1.699   9.065 -0.7242  0.4592 -0.6836
 3426SOL     OW21910   0.855   4.287   6.215  0.3170 -0.2142 -0.3620
 3426SOL    HW121911   0.882   4.223   6.282  1.2199  1.1233  0.5404
 3426SOL    HW221912   0.784   4.329   6.264  0.8545 -1.3313  1.3795
 3427SOL     OW21913   1.342   2.876   8.007  0.2487 -0.4009  0.7191
 3427SOL    HW121914   1.421   2.831   8.037  0.9361 -0.8568 -1.8375
 3427SOL    HW221915   1.294   2.799   7.978 -0.9376 -0.2263  2.2058
 3428SOL     OW21916   1.360   2.343  11.924 -0.2869 -0.1579 -0.0797
 3428SOL    HW121917   1.451   2.339  11.895 -0.0513  2.8442  0.1916
 3428SOL    HW221918   1.368   2.386  12.009  1.5641  1.7668 -1.2250
 3429SOL     OW21919   4.124   0.989   6.671 -0.1530  0.0508  0.7188
 3429SOL    HW121920   4.118   0.950   6.758  1.4355 -2.1815 -0.1629
 3429SOL    HW221921   4.051   0.934   6.641 -0.3059 -0.4403  1.9773
 3430SOL     OW21922   2.794   1.235  11.566 -0.2228  0.2344 -0.1722
 3430SOL    HW121923   2.835   1.298  11.507  2.9307  0.2123  1.9720
 3430SOL    HW221924   2.707   1.228  11.528 -0.7908  1.8541  0.8539
 3431SOL     OW21925   2.608   2.380   1.950  0.1409  0.1548 -0.1409
 3431SOL    HW121926   2.652   2.370   2.034 -0.3293  1.6072  0.2804
 3431SOL    HW221927   2.548   2.306   1.962 -0.5922  0.6593 -0.6513
 3432SOL     OW21928   2.458   4.306  15.764 -0.0740 -0.0291 -0.4879
 3432SOL    HW121929   2.516   4.347  15.701 -1.4980  2.1114 -0.4265
 3432SOL    HW221930   2.452   4.379  15.826 -0.7381  1.9925 -2.9493
 3433SOL     OW21931   3.748   3.871   3.078 -0.2157 -0.1266  0.4057
 3433SOL    HW121932   3.796   3.834   3.004 -1.9556  0.3716 -0.9712
 3433SOL    HW221933   3.659   3.876   3.042 -0.5077  0.8401  1.2351
 3434SOL     OW21934   2.093   4.045   3.746  0.0051  0.0425  0.0984
 3434SOL    HW121935   2.022   4.072   3.688  1.2982 -0.2422 -1.5938
 3434SOL    HW221936   2.054   3.971   3.793  0.3977  0.1281  0.5586
 3435SOL     OW21937   2.722   1.650   5.663  0.1300  0.2609  0.2695
 3435SOL    HW121938   2.647   1.637   5.604  1.5200  0.6303 -1.6018
 3435SOL    HW221939   2.700   1.727   5.715 -0.7423  0.6466 -0.6732
 3436SOL     OW21940   3.543   4.113  11.908 -0.4860 -0.2166 -0.0407
 3436SOL    HW121941   3.581   4.040  11.958  0.4669 -0.3709 -0.9761
 3436SOL    HW221942   3.598   4.104  11.830 -1.1445  0.8120 -0.6167
 3437SOL     OW21943   3.142   0.353   4.658  1.0645 -0.0967  0.4657
 3437SOL    HW121944   3.170   0.378   4.746  0.5600  1.8139  0.0941
 3437SOL    HW221945   3.213   0.377   4.599 -0.0240 -0.4577 -0.9894
 3438SOL     OW21946   3.768   0.976   0.463 -0.0949 -0.3981 -0.3880
 3438SOL    HW121947   3.854   1.017   0.470 -1.0488  1.3867  0.8282
 3438SOL    HW221948   3.712   1.052   0.478  4.1230  3.0739 -1.8305
 3439SOL     OW21949   2.863   2.115   8.909  0.2128 -0.0193  0.1326
 3439SOL    HW121950   2.828   2.043   8.962 -2.7219  0.7461 -0.7415
 3439SOL    HW221951   2.786   2.145   8.861 -0.8771 -2.1649  0.5451
 3440SOL     OW21952   2.039   0.483   7.632  0.3867 -0.2825  0.0196
 3440SOL    HW121953   2.107   0.416   7.636  1.1620  0.4257 -1.2819
 3440SOL    HW221954   2.093   0.555   7.599 -3.0311  2.0591 -0.5105
 3441SOL     OW21955   4.134   0.447   1.996 -0.0252  0.1858  0.1057
 3441SOL    HW121956   4.132   0.510   2.067 -1.5097  2.2711 -1.7865
 3441SOL    HW221957   4.050   0.455   1.950 -0.3300  0.6105  0.7380
 3442SOL     OW21958   0.073   1.656   2.366 -0.3797 -0.0838 -0.5060
 3442SOL    HW121959   0.138   1.705   2.416 -0.1083 -0.6978 -0.2626
 3442SOL    HW221960   0.117   1.571   2.370  1.1840  0.7294 -0.7302
 3443SOL     OW21961   1.748   1.171   6.466 -0.0375 -0.8024  0.0511
 3443SOL    HW121962   1.676   1.151   6.407  0.1936  1.3193 -0.9471
 3443SOL    HW221963   1.743   1.095   6.525  0.4966  0.5396  1.8265
 3444SOL     OW21964   0.204   3.003  13.469  0.3165 -0.8260  0.5456
 3444SOL    HW121965   0.245   2.954  13.397 -0.3080  1.4406 -1.3945
 3444SOL    HW221966   0.159   2.928  13.508 -0.4915 -1.2242 -1.1423
 3445SOL     OW21967   1.214   1.327   1.840  0.7596 -0.0984 -0.1059
 3445SOL    HW121968   1.163   1.268   1.784  3.0191 -0.5433 -1.7160
 3445SOL    HW221969   1.149   1.382   1.882  0.1165 -0.4038 -0.7115
 3446SOL     OW21970   3.531   0.117   9.574 -0.1924 -0.0206 -0.1035
 3446SOL    HW121971   3.604   0.147   9.519 -0.7969 -0.0342 -0.9158
 3446SOL    HW221972   3.480   0.088   9.499  2.6418 -2.2096 -1.1920
 3447SOL     OW21973   1.502   2.401  12.178  0.2608  0.4075 -0.1060
 3447SOL    HW121974   1.573   2.337  12.189  1.0848  1.4264  0.5586
 3447SOL    HW221975   1.548   2.481  12.205 -0.1204  0.2037  1.1341
 3448SOL     OW21976   4.025   3.383   9.278  0.1853 -0.2464  0.1033
 3448SOL    HW121977   4.077   3.403   9.355  0.0580  1.6673 -0.2942
 3448SOL    HW221978   3.951   3.332   9.310 -0.3936  0.7284  0.3098
 3449SOL     OW21979   0.649   2.105   6.592 -0.3327  0.2230 -0.1038
 3449SOL    HW121980   0.743   2.122   6.585 -0.0126 -0.4040  2.8261
 3449SOL    HW221981   0.641   2.099   6.687  0.5184  1.2020  0.0202
 3450SOL     OW21982   3.488   3.469   9.037  0.1902  0.2530  0.1636
 3450SOL    HW121983   3.578   3.437   9.031 -0.0958 -0.7555  1.1357
 3450SOL    HW221984   3.506   3.563   9.041  2.4199 -0.1747  0.2437
 3451SOL     OW21985   3.395   1.083   8.989 -0.0798 -0.2651 -1.0198
 3451SOL    HW121986   3.374   1.054   9.078  2.9148  0.6879  0.0172
 3451SOL    HW221987   3.412   1.005   8.938  1.9772 -0.9284  0.6859
 3452SOL     OW21988   0.323   0.847  11.082  0.0990 -0.2240  0.0460
 3452SOL    HW121989   0.237   0.821  11.113 -0.6910  0.6952 -1.3785
 3452SOL    HW221990   0.310   0.941  11.066  0.2728 -0.3349 -0.7126
 3453SOL     OW21991   1.949   0.582  14.248 -0.2230  0.4872  0.0787
 3453SOL    HW121992   1.870   0.571  14.195 -0.4057  1.5767  0.1278
 3453SOL    HW221993   1.933   0.667  14.289 -0.1810  0.4326  0.2114
 3454SOL     OW21994   3.884   1.400  12.493 -0.0800  0.3534 -1.1150
 3454SOL    HW121995   3.876   1.363  12.581 -3.1561 -0.0440 -1.5731
 3454SOL    HW221996   3.793   1.422  12.473 -0.0302  0.7046 -0.9580
 3455SOL     OW21997   1.227   4.134   3.297 -0.7111 -0.1172 -0.2301
 3455SOL    HW121998   1.152   4.148   3.356 -0.8709 -1.1188 -0.1854
 3455SOL    HW221999   1.302   4.160   3.350  0.8277 -0.8776 -2.0541
 3456SOL     OW22000   3.983   1.729   2.142 -0.6155 -0.1512  0.2255
 3456SOL    HW122001   3.914   1.664   2.148 -0.9643  0.2325  0.3267
 3456SOL    HW222002   3.987   1.755   2.049  2.5083 -0.9535  0.1280
 3457SOL     OW22003   1.869   0.495   6.745  0.1656  0.1479 -0.4059
 3457SOL    HW122004   1.788   0.445   6.740  1.3850 -1.8255 -0.4175
 3457SOL    HW222005   1.899   0.480   6.835 -2.0954  0.3378  0.3748
 3458SOL     OW22006   4.292   0.193  12.181  0.3662  0.7928 -0.2169
 3458SOL    HW122007   4.209   0.234  12.207 -0.3187 -1.0592  0.5200
 3458SOL    HW222008   4.266   0.148  12.101  1.4596  0.7041 -0.5189
 3459SOL     OW22009   2.870   0.971   5.669  0.2382 -0.2449 -0.1585
 3459SOL    HW122010   2.956   0.983   5.710 -0.5332  1.2388  1.0391
 3459SOL    HW222011   2.880   0.913   5.594  0.1736  0.1233 -0.4539
 3460SOL     OW22012   2.834   3.430  17.320  0.4505 -0.0741  0.4792
 3460SOL    HW122013   2.753   3.382  17.331  0.1278  0.0849 -1.3270
 3460SOL    HW222014   2.850   3.414  17.227  1.0251  3.6893 -0.0770
 3461SOL     OW22015   4.424   3.473   4.656 -0.6431 -0.1013  0.5559
 3461SOL    HW122016   4.444   3.439   4.744  2.5787 -2.3201 -1.0143
 3461SOL    HW222017   4.439   3.566   4.673 -3.0324  0.6109 -1.2272
 3462SOL     OW22018   1.264   0.674  13.280  0.5040 -0.2540 -0.3723
 3462SOL    HW122019   1.220   0.739  13.334 -2.2953 -1.7955 -0.7910
 3462SOL    HW222020   1.310   0.621  13.345  0.2758 -0.6652 -0.5478
 3463SOL     OW22021   0.267   1.956  16.143 -0.5950  0.0609 -0.1501
 3463SOL    HW122022   0.246   2.014  16.070 -0.8795 -1.0047 -0.9231
 3463SOL    HW222023   0.359   1.933  16.130 -1.3932 -1.0109 -3.9352
 3464SOL     OW22024   3.732   0.303  15.040  0.1093  0.8257  0.4487
 3464SOL    HW122025   3.663   0.237  15.042  1.7263 -0.8562  1.1649
 3464SOL    HW222026   3.680   0.382  15.058 -0.6487  0.7032 -1.2527
 3465SOL     OW22027   0.314   0.591  15.065 -0.6353  0.1637 -0.4805
 3465SOL    HW122028   0.271   0.677  15.063 -0.5588  0.2063 -0.2753
 3465SOL    HW222029   0.404   0.603  15.036  0.2442  0.9560  2.5581
 3466SOL     OW22030   3.525   3.380  14.296 -0.3380  0.4412  0.2149
 3466SOL    HW122031   3.528   3.463  14.248  0.1183  1.2719  1.7067
 3466SOL    HW222032   3.613   3.354  14.268  0.0218  3.3773 -1.4499
 3467SOL     OW22033   1.862   3.753   2.043 -0.4711 -0.5692  0.4257
 3467SOL    HW122034   1.899   3.744   2.131  2.5764 -0.3279 -0.8335
 3467SOL    HW222035   1.769   3.740   2.064 -1.0184  0.2940 -1.5390
 3468SOL     OW22036   3.623   2.214  16.661  0.1655 -0.2442  0.0198
 3468SOL    HW122037   3.644   2.273  16.589 -0.9739 -0.4794 -0.4994
 3468SOL    HW222038   3.545   2.256  16.699  1.2515 -0.0987  2.0755
 3469SOL     OW22039   0.551   3.723   5.799 -0.3185 -0.4239 -0.4660
 3469SOL    HW122040   0.490   3.672   5.852 -1.7869 -0.3860 -2.1284
 3469SOL    HW222041   0.562   3.788   5.869 -0.3111  0.1242 -0.9799
 3470SOL     OW22042   1.273   4.676   1.520 -0.3852 -0.1365 -0.2700
 3470SOL    HW122043   1.269   0.010   1.456  1.6060  0.9529  0.8216
 3470SOL    HW222044   1.179   4.669   1.539 -0.1238 -0.0087  1.0685
 3471SOL     OW22045   3.559   2.099   6.725 -0.7858  0.3202  0.1974
 3471SOL    HW122046   3.556   2.180   6.775 -2.6005  1.4718 -1.7947
 3471SOL    HW222047   3.650   2.077   6.743 -1.4221 -0.0686  2.9776
 3472SOL     OW22048   0.693   0.041   1.825 -0.3341 -0.2012  0.4006
 3472SOL    HW122049   0.736   4.698   1.856 -0.9482 -0.2570  1.0955
 3472SOL    HW222050   0.599   0.024   1.830  0.1117 -2.6949  0.6347
 3473SOL     OW22051   2.078   2.982  16.338 -0.1523  0.4490 -0.1379
 3473SOL    HW122052   1.987   2.976  16.365 -0.0485 -1.8633 -0.2931
 3473SOL    HW222053   2.110   3.010  16.424 -0.5444  0.7460 -0.0881
 3474SOL     OW22054   3.220   2.600   3.600 -0.5122  0.4731  0.0100
 3474SOL    HW122055   3.286   2.653   3.643  1.0547 -1.4579 -0.0016
 3474SOL    HW222056   3.134   2.636   3.621 -0.2950 -0.8897  3.1590
 3475SOL     OW22057   3.987   1.772   1.501  0.5116 -0.3270 -0.4831
 3475SOL    HW122058   3.982   1.866   1.520  0.5339 -0.4956  0.3289
 3475SOL    HW222059   4.043   1.781   1.423  0.8541  1.3903 -0.0331
 3476SOL     OW22060   4.654   0.464   4.401 -0.3479  0.7553  0.5741
 3476SOL    HW122061   4.686   0.461   4.492  3.0165 -1.1491 -0.6934
 3476SOL    HW222062   4.574   0.513   4.421 -0.6777  0.0660  0.9395
 3477SOL     OW22063   2.138   4.388   9.389  0.1133  0.0561  0.6919
 3477SOL    HW122064   2.070   4.446   9.424  0.8268 -0.4503  2.9145
 3477SOL    HW222065   2.090   4.305   9.389  1.1412 -0.5424  0.8727
 3478SOL     OW22066   2.595   3.204   2.439 -0.2757  0.0575 -0.1461
 3478SOL    HW122067   2.688   3.195   2.420 -0.3040  0.7172 -0.5892
 3478SOL    HW222068   2.570   3.254   2.361 -0.4655  0.4363  0.1608
 3479SOL     OW22069   2.592   2.745   6.504 -0.4677 -0.1172  0.8480
 3479SOL    HW122070   2.564   2.773   6.416  0.0302  0.9554  1.0227
 3479SOL    HW222071   2.627   2.657   6.490  2.0055  1.0038 -0.1226
 3480SOL     OW22072   3.591   1.692   4.090  0.0984  0.1224 -0.3385
 3480SOL    HW122073   3.529   1.619   4.095 -1.1254  1.2657  1.2913
 3480SOL    HW222074   3.545   1.751   4.030 -0.1909 -0.6641 -0.8861
 3481SOL     OW22075   1.176   4.149   5.122 -0.4204 -0.1153 -0.6178
 3481SOL    HW122076   1.169   4.211   5.050 -0.7711  1.5129  0.8199
 3481SOL    HW222077   1.136   4.071   5.085 -1.2845  0.7901 -1.6014
 3482SOL     OW22078   2.465   1.901  11.900 -0.1784  0.7001 -0.3563
 3482SOL    HW122079   2.478   1.965  11.831 -0.8156  2.7315  1.3866
 3482SOL    HW222080   2.553   1.902  11.939  0.6584  3.1716 -2.3363
 3483SOL     OW22081   0.336   3.012  15.241 -0.0177  0.0958 -0.1070
 3483SOL    HW122082   0.309   3.051  15.324 -0.3012 -0.6656  0.1566
 3483SOL    HW222083   0.298   3.074  15.179  1.0260 -0.4615 -1.2908
 3484SOL     OW22084   0.940   4.144   5.516  0.4181 -0.5912  0.3705
 3484SOL    HW122085   1.029   4.134   5.483  0.0387 -0.8615 -0.5771
 3484SOL    HW222086   0.894   4.150   5.433  0.2104 -0.9955  0.4541
 3485SOL     OW22087   3.134   1.344   2.723 -0.4444 -0.1348 -0.2106
 3485SOL    HW122088   3.164   1.334   2.633  1.4224 -2.2815  0.6428
 3485SOL    HW222089   3.155   1.255   2.751  2.8017  0.8705  0.5683
 3486SOL     OW22090   2.808   0.915   4.052  0.4696 -0.0460 -0.2225
 3486SOL    HW122091   2.781   0.859   4.124  1.3896 -3.2341 -2.3356
 3486SOL    HW222092   2.859   0.845   4.012 -0.0107 -1.0785  0.9631
 3487SOL     OW22093   3.890   3.307   6.207 -0.2355  0.1747 -0.0903
 3487SOL    HW122094   3.830   3.316   6.134 -1.4678  0.1973  0.9190
 3487SOL    HW222095   3.837   3.256   6.269  1.1752 -0.9144  0.2369
 3488SOL     OW22096   4.381   2.456  11.555 -0.1865  0.1734 -0.2312
 3488SOL    HW122097   4.348   2.371  11.526  0.0266 -1.0518  3.1727
 3488SOL    HW222098   4.433   2.430  11.631  0.1280  0.6073 -0.2945
 3489SOL     OW22099   0.932   2.592  16.464  0.4464 -0.0742  0.6637
 3489SOL    HW122100   0.845   2.555  16.476  1.2514 -2.4739 -1.1351
 3489SOL    HW222101   0.958   2.632  16.547  0.6038  1.5464 -0.1579
 3490SOL     OW22102   3.392   1.349   2.959 -0.3092 -0.3538 -0.0194
 3490SOL    HW122103   3.304   1.336   2.994 -1.3907  1.9577 -1.8507
 3490SOL    HW222104   3.445   1.349   3.039  1.8450  2.1576 -1.4233
 3491SOL     OW22105   2.505   1.505   1.186 -0.2648  0.3945  0.2943
 3491SOL    HW122106   2.420   1.528   1.149 -1.3874 -0.0934  2.5879
 3491SOL    HW222107   2.491   1.527   1.278 -3.8373  0.6986 -0.3109
 3492SOL     OW22108   2.977   3.893   4.912 -0.1714 -0.1065  0.5331
 3492SOL    HW122109   2.940   3.841   4.983 -0.6959 -0.0186  0.3211
 3492SOL    HW222110   3.066   3.857   4.907 -0.3609 -0.6868  1.3467
 3493SOL     OW22111   2.427   3.970   4.467 -0.1058  0.6848 -0.4511
 3493SOL    HW122112   2.354   3.986   4.407 -0.1509  2.7332  0.1422
 3493SOL    HW222113   2.496   4.023   4.427  1.2438 -0.6484  0.1264
 3494SOL     OW22114   3.703   0.911   7.587 -0.8828  0.2626 -1.1874
 3494SOL    HW122115   3.636   0.972   7.555  0.4611  1.7901 -1.0830
 3494SOL    HW222116   3.784   0.945   7.549 -0.3350 -0.6546 -0.8348
 3495SOL     OW22117   3.703   1.582  14.914 -0.0478 -0.2875 -0.1394
 3495SOL    HW122118   3.728   1.645  14.982  0.2871 -1.4515  0.8338
 3495SOL    HW222119   3.637   1.530  14.961 -0.1019 -2.2420 -2.3644
 3496SOL     OW22120   3.641   0.946   4.201  0.2760  0.2769 -0.4070
 3496SOL    HW122121   3.617   1.039   4.202 -2.9782 -0.5622 -0.9457
 3496SOL    HW222122   3.558   0.911   4.170  0.0796 -1.3674  1.9607
 3497SOL     OW22123   3.106   0.906  16.572  0.8088 -0.1593 -0.3710
 3497SOL    HW122124   3.144   0.887  16.658  1.4545 -0.2441 -0.6763
 3497SOL    HW222125   3.085   1.000  16.580 -1.6728 -0.6202 -1.3572
 3498SOL     OW22126   1.801   2.296  11.506 -0.2331  0.1916 -0.0867
 3498SOL    HW122127   1.873   2.256  11.555  1.5509  1.6526 -1.5217
 3498SOL    HW222128   1.730   2.267  11.564 -0.9109  1.0828 -0.4677
 3499SOL     OW22129   4.682   2.961  12.404  0.4697 -0.1825 -0.1501
 3499SOL    HW122130   0.035   2.938  12.427  0.4744 -0.9961 -0.9814
 3499SOL    HW222131   4.704   2.969  12.311  2.6574 -2.1848  0.1918
 3500SOL     OW22132   0.717   0.079  11.111 -0.3625 -0.2122 -0.5770
 3500SOL    HW122133   0.708   0.095  11.205  0.4300 -0.8982 -0.3887
 3500SOL    HW222134   0.812   0.090  11.107 -0.2370 -0.9987  0.0612
 3501SOL     OW22135   0.127   3.805   5.456  0.2590  0.0133 -0.3582
 3501SOL    HW122136   0.151   3.866   5.386 -0.2382  1.3329  0.6355
 3501SOL    HW222137   0.178   3.724   5.448 -1.3928 -0.9746 -0.8783
 3502SOL     OW22138   3.701   0.395  12.189 -0.0811 -0.3171  0.0055
 3502SOL    HW122139   3.726   0.391  12.097  3.1673 -1.4188  0.9065
 3502SOL    HW222140   3.743   0.312  12.214  1.2257  0.0220 -1.1098
 3503SOL     OW22141   3.839   1.545   8.877 -0.4284  0.2108 -0.1690
 3503SOL    HW122142   3.915   1.513   8.827 -1.3124 -1.3094 -0.5408
 3503SOL    HW222143   3.824   1.469   8.933  0.8443  0.5658  0.6617
 3504SOL     OW22144   3.298   0.976   4.214 -0.2626 -0.7739  0.7554
 3504SOL    HW122145   3.294   0.898   4.159  0.0460 -0.7684  0.7264
 3504SOL    HW222146   3.244   1.036   4.163 -1.2914 -3.1224 -0.9015
 3505SOL     OW22147   0.249   0.571  16.941  0.1364 -0.5029  0.1478
 3505SOL    HW122148   0.202   0.561  17.024 -3.5468  0.7721 -1.8142
 3505SOL    HW222149   0.293   0.655  16.952 -2.3876  0.8703 -0.3003
 3506SOL     OW22150   2.745   1.707   6.816 -0.1093  0.2189 -0.4438
 3506SOL    HW122151   2.653   1.707   6.792 -0.4362 -1.5568  0.7670
 3506SOL    HW222152   2.764   1.800   6.819  1.3288 -0.0981  0.5527
 3507SOL     OW22153   4.163   2.543  14.846 -0.6595 -0.0940 -0.0517
 3507SOL    HW122154   4.136   2.564  14.756 -0.3340 -0.2291 -0.1847
 3507SOL    HW222155   4.090   2.499  14.889  0.1627 -0.9173  0.4857
 3508SOL     OW22156   3.082   2.013  17.516 -0.2148  0.2376 -0.3811
 3508SOL    HW122157   3.030   1.978  17.589 -1.0831  1.9815 -0.1514
 3508SOL    HW222158   3.172   2.009  17.548 -0.5411  0.4542  0.5613
 3509SOL     OW22159   1.392   0.708   1.757  0.3107 -0.1105 -0.1414
 3509SOL    HW122160   1.423   0.652   1.686  0.4044  1.1526 -1.0987
 3509SOL    HW222161   1.298   0.703   1.738  0.1830 -0.3063  0.5375
 3510SOL     OW22162   0.629   0.596   3.621 -0.1637  0.1760  0.0852
 3510SOL    HW122163   0.623   0.591   3.526 -0.5381  1.6858  0.0203
 3510SOL    HW222164   0.686   0.669   3.645 -0.1816  0.3370 -0.3506
 3511SOL     OW22165   2.182   1.293   9.570 -0.0616  0.3084 -0.1206
 3511SOL    HW122166   2.153   1.299   9.661 -1.6923 -0.3185 -0.5833
 3511SOL    HW222167   2.259   1.241   9.591 -1.0317 -1.9460 -2.1067
 3512SOL     OW22168   3.627   3.187  17.570  0.0474  0.5810 -0.3692
 3512SOL    HW122169   3.606   3.152  17.483  1.5129  2.8592 -1.6143
 3512SOL    HW222170   3.604   3.279  17.565  1.5252  0.9435 -0.4906
 3513SOL     OW22171   2.898   3.631  12.618 -0.2991  0.4111  0.6112
 3513SOL    HW122172   2.887   3.595  12.530 -2.9657  0.1569  1.0475
 3513SOL    HW222173   2.942   3.558  12.661  0.6174  2.3963  3.0261
 3514SOL     OW22174   0.903   3.899   2.340 -0.1605  0.4701 -0.0906
 3514SOL    HW122175   0.926   3.894   2.433 -0.1392 -0.0607 -0.1234
 3514SOL    HW222176   0.882   3.806   2.329 -1.2624  0.6317  0.6078
 3515SOL     OW22177   1.742   0.050   3.399 -0.0804 -0.1972  0.2345
 3515SOL    HW122178   1.688   4.707   3.398 -2.5493  1.4279  2.0129
 3515SOL    HW222179   1.821   0.029   3.349 -1.3541 -0.8604 -1.5278
 3516SOL     OW22180   0.302   4.068   5.777  0.5836  0.3902  0.3585
 3516SOL    HW122181   0.355   4.076   5.698  2.7586 -1.0927  1.6865
 3516SOL    HW222182   0.218   4.102   5.743  1.4320  0.3202 -1.8275
 3517SOL     OW22183   2.983   4.233  16.895 -0.1562 -0.0831 -0.0446
 3517SOL    HW122184   2.933   4.184  16.961  0.2903 -0.8081 -0.2387
 3517SOL    HW222185   2.910   4.273  16.848 -1.0610 -0.6648  0.8549
 3518SOL     OW22186   3.620   2.412  16.447  0.2526  0.0084  0.0506
 3518SOL    HW122187   3.534   2.445  16.421 -0.0454 -0.5465  0.3204
 3518SOL    HW222188   3.626   2.331  16.398 -1.8770  0.1134 -0.3872
 3519SOL     OW22189   3.829   4.321  11.775 -0.1614 -0.7589 -0.6203
 3519SOL    HW122190   3.847   4.411  11.800  1.0391 -1.7065  1.9621
 3519SOL    HW222191   3.844   4.287  11.863 -0.7430 -0.4131 -0.3879
 3520SOL     OW22192   4.055   2.636  14.623 -0.2380  0.0162 -0.0660
 3520SOL    HW122193   3.969   2.608  14.591  0.7244 -3.6667  0.5903
 3520SOL    HW222194   4.085   2.696  14.554 -2.7871  0.5036 -0.7318
 3521SOL     OW22195   4.364   2.943   4.821 -0.4013 -0.4819 -0.4950
 3521SOL    HW122196   4.393   2.882   4.752  0.9355 -1.3342  0.8058
 3521SOL    HW222197   4.288   2.893   4.851 -1.5919  1.2140 -0.6812
 3522SOL     OW22198   1.513   1.142   3.626  0.2987 -0.3151 -0.2985
 3522SOL    HW122199   1.520   1.067   3.567  0.0879  1.4349 -2.5841
 3522SOL    HW222200   1.578   1.199   3.585 -0.8325  1.4511  0.3478
 3523SOL     OW22201   1.273   0.256  10.133 -0.1970  0.0123 -0.0306
 3523SOL    HW122202   1.271   0.283  10.042  0.7360 -5.4971 -1.7049
 3523SOL    HW222203   1.358   0.212  10.138  0.6491  1.5278 -1.1236
 3524SOL     OW22204   3.265   3.900  10.978 -0.4003  0.3985 -0.1891
 3524SOL    HW122205   3.314   3.839  11.032  0.5796  0.7539 -0.6766
 3524SOL    HW222206   3.342   3.917  10.924 -1.1619 -0.7885 -1.6640
 3525SOL     OW22207   0.968   1.348   3.975 -0.3969  0.5168  0.1812
 3525SOL    HW122208   1.023   1.273   3.954 -0.6393 -0.0768  1.6725
 3525SOL    HW222209   1.007   1.421   3.927  0.5132  0.4115  0.7537
 3526SOL     OW22210   0.082   2.802   3.108 -0.3204  0.0479  0.4527
 3526SOL    HW122211   0.063   2.895   3.113 -0.8446  0.2286 -5.1643
 3526SOL    HW222212   0.167   2.791   3.152  0.0970 -1.4330 -0.6956
 3527SOL     OW22213   4.606   3.925   2.099 -0.0756 -0.0736 -0.0052
 3527SOL    HW122214   4.518   3.888   2.107  0.4908 -0.9045  2.3789
 3527SOL    HW222215   4.595   4.001   2.043  2.0694  1.6036  1.8275
 3528SOL     OW22216   1.611   1.561  17.002  0.1642  0.1297 -0.1049
 3528SOL    HW122217   1.611   1.620  17.077  1.7400 -1.3136  1.0361
 3528SOL    HW222218   1.552   1.601  16.938 -0.4487  0.3077  0.5671
 3529SOL     OW22219   3.452   0.795   8.875  0.4464  0.0818 -0.7061
 3529SOL    HW122220   3.393   0.750   8.814 -1.2095  0.0522  0.9004
 3529SOL    HW222221   3.454   0.729   8.945 -1.0050  1.6100  0.7835
 3530SOL     OW22222   2.059   0.502   4.753 -0.3027  0.0441 -0.0544
 3530SOL    HW122223   2.060   0.558   4.830  2.1242  0.4939 -0.4291
 3530SOL    HW222224   2.053   0.571   4.687 -2.3411  1.4374  1.6179
 3531SOL     OW22225   3.207   2.769   6.747  0.1673 -0.7551 -0.2615
 3531SOL    HW122226   3.286   2.719   6.724  0.1012 -0.1691 -1.7514
 3531SOL    HW222227   3.140   2.732   6.689 -0.3291 -1.0549  0.5095
 3532SOL     OW22228   0.364   3.814   4.519 -0.7169 -0.4439  0.6272
 3532SOL    HW122229   0.322   3.875   4.457 -0.6539 -1.6965 -0.6457
 3532SOL    HW222230   0.318   3.733   4.497 -1.2649 -0.2404  1.0243
 3533SOL     OW22231   4.190   1.554   3.430  0.2426  0.2355  0.3862
 3533SOL    HW122232   4.248   1.547   3.354  0.6624 -1.4663  0.8659
 3533SOL    HW222233   4.122   1.603   3.382  1.0404  1.2840  0.3233
 3534SOL     OW22234   0.825   4.726   6.198 -0.0642  0.5534 -0.2721
 3534SOL    HW122235   0.763   0.020   6.132  0.7287 -0.1276 -1.3410
 3534SOL    HW222236   0.779   4.698   6.278 -1.0711  0.9263 -0.7140
 3535SOL     OW22237   4.639   3.644  16.487 -0.8895  0.0746 -0.1920
 3535SOL    HW122238   4.702   3.572  16.483 -0.2846  0.7533 -2.8168
 3535SOL    HW222239   4.574   3.606  16.545  1.1949  1.2589  2.9296
 3536SOL     OW22240   0.636   4.095   0.723 -0.1243 -0.4663 -0.2565
 3536SOL    HW122241   0.545   4.076   0.744  0.5612 -3.5884 -0.1669
 3536SOL    HW222242   0.654   4.184   0.756  0.3269 -0.0129 -1.7310
 3537SOL     OW22243   4.066   2.407   9.323  0.2882 -0.0057 -0.3023
 3537SOL    HW122244   4.032   2.334   9.270 -0.9838 -0.4602  1.1425
 3537SOL    HW222245   3.985   2.428   9.369  1.0351  0.5938  0.7301
 3538SOL     OW22246   0.519   0.067  16.443 -0.3614  0.7670  0.2508
 3538SOL    HW122247   0.446   0.120  16.474 -1.6161 -1.2793  0.7981
 3538SOL    HW222248   0.536   0.022  16.526  1.0817  0.3708 -0.2493
 3539SOL     OW22249   3.950   2.263   3.602  0.2522  0.1256  0.5968
 3539SOL    HW122250   3.881   2.318   3.565  2.4722  1.3136 -1.7507
 3539SOL    HW222251   4.025   2.318   3.580 -0.1235 -0.2272 -1.6152
 3540SOL     OW22252   0.342   4.004   9.338  0.0500 -0.0028 -0.0620
 3540SOL    HW122253   0.286   3.933   9.370  0.3606 -0.7049 -1.0831
 3540SOL    HW222254   0.405   3.968   9.276  0.4534  2.2943 -0.9719
 3541SOL     OW22255   3.835   0.241  14.305 -0.2548 -0.0113 -0.0405
 3541SOL    HW122256   3.873   0.154  14.300 -2.4478 -1.0501  1.0158
 3541SOL    HW222257   3.917   0.290  14.314  1.0391 -2.1921 -0.0681
 3542SOL     OW22258   1.959   1.641   4.305  0.6541 -0.2874  0.1608
 3542SOL    HW122259   2.038   1.679   4.344  0.7848 -2.8144  2.3983
 3542SOL    HW222260   1.952   1.691   4.224 -0.0036  0.4255  0.6710
 3543SOL     OW22261   2.241   1.003  11.162  0.5039 -0.1733 -0.1319
 3543SOL    HW122262   2.284   1.000  11.077  4.5892 -3.0333  2.0383
 3543SOL    HW222263   2.227   0.909  11.162  0.3800 -0.1543 -0.6841
 3544SOL     OW22264   1.710   3.932   3.283  1.1975 -0.8383 -0.1480
 3544SOL    HW122265   1.676   3.940   3.193 -2.4136 -3.0779  1.0342
 3544SOL    HW222266   1.684   3.840   3.291 -1.7789 -0.0016  0.0159
 3545SOL     OW22267   0.956   4.324  14.632  0.3508  0.0881  0.0222
 3545SOL    HW122268   0.998   4.394  14.581  2.0039 -1.0195 -0.1116
 3545SOL    HW222269   1.013   4.249  14.615  1.5522  0.7589  1.1043
 3546SOL     OW22270   1.068   2.409   5.561 -0.2168  0.3119 -0.2170
 3546SOL    HW122271   1.003   2.475   5.538  2.0784  2.1933 -1.3453
 3546SOL    HW222272   1.048   2.397   5.654  1.3908  0.9982  0.2287
 3547SOL     OW22273   0.303   2.384   8.352 -0.2222 -0.0057 -0.4710
 3547SOL    HW122274   0.317   2.437   8.274 -0.9533 -0.7049 -1.0831
 3547SOL    HW222275   0.389   2.387   8.396  0.1789 -1.0486 -1.1774
 3548SOL     OW22276   0.780   1.252  14.452  0.0250 -0.3419  0.0229
 3548SOL    HW122277   0.733   1.180  14.493 -0.9607  0.1269 -0.2952
 3548SOL    HW222278   0.848   1.265  14.518 -3.0397  0.9068  2.9086
 3549SOL     OW22279   3.804   2.042  13.722 -0.4127  0.4529  0.6416
 3549SOL    HW122280   3.766   2.111  13.667 -0.0832 -2.7141 -3.5454
 3549SOL    HW222281   3.873   2.083  13.773 -0.8040  0.7076  0.9686
 3550SOL     OW22282   4.511   1.989   6.445  0.1019 -0.2645  0.2407
 3550SOL    HW122283   4.507   2.084   6.443 -1.7403 -0.3566 -0.0402
 3550SOL    HW222284   4.575   1.968   6.377  0.0120  0.8387 -0.1841
 3551SOL     OW22285   0.937   3.080  11.830 -0.1893  0.4092 -0.0386
 3551SOL    HW122286   1.017   3.104  11.783 -0.1051 -1.3989 -0.8210
 3551SOL    HW222287   0.876   3.077  11.756  0.7586 -0.7219 -0.7781
 3552SOL     OW22288   1.962   2.770   0.202 -0.0234  0.5817  0.3159
 3552SOL    HW122289   2.007   2.704   0.256  0.1478 -1.4065 -2.2605
 3552SOL    HW222290   2.023   2.843   0.189 -1.3762  1.5513 -0.5434
 3553SOL     OW22291   1.843   0.897   8.516 -0.6852  0.2882  0.4232
 3553SOL    HW122292   1.885   0.983   8.512 -1.0578  0.4807  0.6484
 3553SOL    HW222293   1.771   0.933   8.568 -1.5357  0.2733 -0.7478
 3554SOL     OW22294   3.104   1.417   9.898  0.2792 -0.7875 -0.1178
 3554SOL    HW122295   3.173   1.351   9.906  0.0687 -1.4791 -4.0811
 3554SOL    HW222296   3.074   1.423   9.989  0.9979  1.1768 -0.0094
 3555SOL     OW22297   3.978   0.672  12.146  0.1261 -0.8080  0.0714
 3555SOL    HW122298   3.984   0.584  12.108  2.4281 -1.7872  2.6850
 3555SOL    HW222299   3.908   0.716  12.099  0.1156 -0.9666 -0.0609
 3556SOL     OW22300   0.293   4.278   2.262 -0.3131 -0.4474  0.3341
 3556SOL    HW122301   0.327   4.203   2.213  0.0878 -0.7320  1.0507
 3556SOL    HW222302   0.218   4.231   2.298 -0.0693  1.8150  3.8095
 3557SOL     OW22303   3.870   1.482   8.123  0.2153  0.3074 -0.3666
 3557SOL    HW122304   3.897   1.483   8.215 -0.4243  0.1197 -0.1760
 3557SOL    HW222305   3.928   1.416   8.086 -0.9447 -0.1719 -1.3251
 3558SOL     OW22306   1.791   1.954  13.137 -0.1606  0.2425  0.3064
 3558SOL    HW122307   1.834   1.873  13.167  1.1587  0.2686 -1.4965
 3558SOL    HW222308   1.778   1.937  13.044 -1.1120 -0.2920  0.5397
 3559SOL     OW22309   2.727   3.693   6.587  0.4839  0.2140 -0.9305
 3559SOL    HW122310   2.798   3.753   6.562  1.8408 -0.9749  0.0873
 3559SOL    HW222311   2.769   3.608   6.598  0.6128  0.2949 -0.8028
 3560SOL     OW22312   1.249   1.705   3.854  0.0011 -0.0138  0.4307
 3560SOL    HW122313   1.343   1.713   3.840  0.0583  0.0276  0.8533
 3560SOL    HW222314   1.240   1.726   3.947 -0.8702 -0.4155  0.4431
 3561SOL     OW22315   1.259   0.546   0.759 -0.2688  0.0596 -0.9650
 3561SOL    HW122316   1.186   0.597   0.724 -0.1196  1.6405  1.0268
 3561SOL    HW222317   1.247   0.466   0.708 -1.3199  0.1504 -0.8491
 3562SOL     OW22318   1.742   0.526  11.830  0.1084 -0.0500 -0.2194
 3562SOL    HW122319   1.784   0.442  11.813  0.3214  0.7603 -3.7815
 3562SOL    HW222320   1.736   0.534  11.925  0.8968 -1.6257 -0.0441
 3563SOL     OW22321   1.272   3.582  13.802  0.6017  0.0743 -0.5503
 3563SOL    HW122322   1.344   3.590  13.864  0.3271 -0.1380 -0.2085
 3563SOL    HW222323   1.219   3.519  13.850  0.4200 -1.0840 -2.2896
 3564SOL     OW22324   0.791   4.504   3.000  0.4444  0.5067  0.8302
 3564SOL    HW122325   0.754   4.576   3.051  0.0630  1.1226 -0.3034
 3564SOL    HW222326   0.840   4.555   2.936 -0.0179 -0.5300 -0.3398
 3565SOL     OW22327   0.752   1.321   7.701 -0.3210  0.1411  0.0801
 3565SOL    HW122328   0.696   1.384   7.656 -1.1472 -0.5930  0.0884
 3565SOL    HW222329   0.836   1.363   7.682 -0.4273  0.3368  0.0512
 3566SOL     OW22330   2.075   4.526   5.074 -0.3613 -0.2327 -0.3436
 3566SOL    HW122331   2.096   4.578   5.152  1.1956  0.4511 -1.2079
 3566SOL    HW222332   2.155   4.566   5.040  0.6872 -1.6733  0.3806
 3567SOL     OW22333   1.172   1.069  16.692  0.1321 -0.2553  0.1220
 3567SOL    HW122334   1.221   1.145  16.660  1.6972 -0.4382  2.1005
 3567SOL    HW222335   1.178   1.010  16.617 -0.8759 -0.2021 -0.0082
 3568SOL     OW22336   2.924   3.862  14.636 -0.2039 -0.6836  0.2505
 3568SOL    HW122337   2.918   3.901  14.549  3.4604  0.9053  0.6985
 3568SOL    HW222338   3.001   3.808  14.615  1.4050  2.9737 -3.2425
 3569SOL     OW22339   3.515   3.354   6.226 -0.6265  0.2313  0.0261
 3569SOL    HW122340   3.456   3.405   6.281  1.9725  2.2827  0.9414
 3569SOL    HW222341   3.595   3.389   6.266  0.5163 -1.5126 -0.7166
 3570SOL     OW22342   3.562   1.377   3.268 -0.1602 -1.0762 -0.0116
 3570SOL    HW122343   3.559   1.363   3.362 -0.8397 -0.4757  0.0520
 3570SOL    HW222344   3.618   1.454   3.267  0.3497 -1.4611 -1.0242
 3571SOL     OW22345   0.052   1.586  15.751  1.2946 -0.1587  0.1420
 3571SOL    HW122346   0.128   1.629  15.712  0.9777  0.4199  0.1691
 3571SOL    HW222347   0.037   1.512  15.692  2.0409  1.3230 -1.8997
 3572SOL     OW22348   1.268   0.397   7.010  0.1183  0.1500  0.0480
 3572SOL    HW122349   1.214   0.446   7.071 -1.5106  0.4338 -1.6020
 3572SOL    HW222350   1.355   0.436   7.025  0.0100  0.8883 -1.2332
 3573SOL     OW22351   0.607   1.711   9.160  0.3536 -0.0356 -0.0333
 3573SOL    HW122352   0.644   1.633   9.119 -1.8853 -1.1644  0.0691
 3573SOL    HW222353   0.626   1.774   9.091 -0.5152 -2.5594 -2.5772
 3574SOL     OW22354   4.440   3.411   7.185  0.2316 -0.1657  0.0841
 3574SOL    HW122355   4.401   3.470   7.250 -1.1353  0.9312 -1.7323
 3574SOL    HW222356   4.472   3.344   7.246  0.5290 -0.5692 -0.5089
 3575SOL     OW22357   1.780   2.456   2.958 -0.0382  0.3387 -0.0971
 3575SOL    HW122358   1.870   2.435   2.934 -0.0317 -0.0353  0.2396
 3575SOL    HW222359   1.736   2.373   2.940  0.6984  0.4047 -2.2260
 3576SOL     OW22360   3.310   2.322   2.778 -0.5299  0.1230  0.2206
 3576SOL    HW122361   3.296   2.408   2.740  2.0057  1.1377  1.5968
 3576SOL    HW222362   3.222   2.288   2.791 -0.9252  1.2213  0.3709
 3577SOL     OW22363   2.410   3.332  12.956  0.2220 -0.0549  0.3098
 3577SOL    HW122364   2.347   3.279  13.005 -1.3568  1.8281  0.2952
 3577SOL    HW222365   2.354   3.356  12.882  0.9263  1.0366  0.1370
 3578SOL     OW22366   3.594   3.898  12.119  0.6965 -0.5324 -0.1294
 3578SOL    HW122367   3.675   3.901  12.171 -0.4334 -0.2255  1.6169
 3578SOL    HW222368   3.535   3.944  12.179 -1.8866 -2.7419 -0.9727
 3579SOL     OW22369   0.092   3.583   2.673 -0.0710 -0.3956  0.0161
 3579SOL    HW122370   0.031   3.655   2.688 -1.8213 -1.7029 -0.8479
 3579SOL    HW222371   0.131   3.610   2.590 -0.3301 -0.1022 -0.0122
 3580SOL     OW22372   1.124   1.733  15.169 -0.2464 -0.1947  0.3143
 3580SOL    HW122373   1.054   1.668  15.164 -1.0016  0.6296  0.3736
 3580SOL    HW222374   1.071   1.808  15.143 -0.5715  0.2447  2.2621
 3581SOL     OW22375   0.888   0.410   7.076 -0.2195  0.5933 -0.5583
 3581SOL    HW122376   0.795   0.426   7.094 -0.5757 -0.0607 -1.7792
 3581SOL    HW222377   0.932   0.470   7.135  0.7935 -0.2594 -0.4376
 3582SOL     OW22378   4.346   1.842   2.230  0.5600 -0.7978 -0.0918
 3582SOL    HW122379   4.425   1.797   2.197  1.0725  0.0859 -0.0697
 3582SOL    HW222380   4.300   1.853   2.147  0.1499 -1.1601  0.0914
 3583SOL     OW22381   3.298   1.329   4.155 -0.5071 -0.1993 -0.2072
 3583SOL    HW122382   3.336   1.338   4.243 -0.4042 -2.6936  0.0079
 3583SOL    HW222383   3.327   1.243   4.124 -1.0244  0.1450 -1.6483
 3584SOL     OW22384   2.059   1.761   3.481 -0.2618  0.1322  0.8741
 3584SOL    HW122385   1.968   1.756   3.452 -0.9141  3.8356  2.3300
 3584SOL    HW222386   2.045   1.732   3.571 -1.2285  0.7084  0.8986
 3585SOL     OW22387   3.517   2.772   7.110  0.1963  0.2285 -0.6158
 3585SOL    HW122388   3.444   2.812   7.062  0.1596  1.1475  0.2036
 3585SOL    HW222389   3.594   2.800   7.062  0.3555  1.6829  0.4696
 3586SOL     OW22390   0.624   3.953   3.151  0.1077  0.0034  0.5894
 3586SOL    HW122391   0.629   3.862   3.181 -1.2647  0.6261  2.6733
 3586SOL    HW222392   0.545   3.963   3.097 -0.5601 -0.6001  1.4483
 3587SOL     OW22393   1.541   1.850   0.045 -0.7570  0.3472 -0.9794
 3587SOL    HW122394   1.626   1.836   0.005 -0.3328 -1.1653  0.4287
 3587SOL    HW222395   1.506   1.761   0.039  0.0353 -0.1492  1.5660
 3588SOL     OW22396   3.356   2.477  14.162  0.1795 -0.1617  0.2991
 3588SOL    HW122397   3.378   2.487  14.070  2.6957 -1.0329  0.8122
 3588SOL    HW222398   3.351   2.383  14.179 -1.3816  0.2133  1.9695
 3589SOL     OW22399   4.178   2.992   2.731  0.1185 -0.2805  0.0968
 3589SOL    HW122400   4.135   2.984   2.646  0.4973  0.6164 -0.1740
 3589SOL    HW222401   4.131   2.920   2.772  0.5031 -0.3311  0.4454
 3590SOL     OW22402   3.060   2.742   2.151 -0.5573  0.4287 -0.3353
 3590SOL    HW122403   3.133   2.699   2.108 -1.3562  2.2189 -3.5343
 3590SOL    HW222404   3.001   2.769   2.080 -0.9442 -0.7654 -0.4704
 3591SOL     OW22405   3.161   0.283   6.294  0.4700  0.1112  0.3582
 3591SOL    HW122406   3.077   0.317   6.324  0.1829 -0.6232  0.3732
 3591SOL    HW222407   3.215   0.362   6.288  2.1383 -0.8189  3.2826
 3592SOL     OW22408   1.037   1.141  10.660  0.3679  0.5328  0.0741
 3592SOL    HW122409   1.099   1.187  10.603  2.5580 -2.4913 -0.0100
 3592SOL    HW222410   1.069   1.051  10.657  2.6763  1.3475  0.6169
 3593SOL     OW22411   1.705   0.193   9.812  0.0136  0.1727 -0.0641
 3593SOL    HW122412   1.715   0.257   9.741  0.2831 -1.4898 -1.5240
 3593SOL    HW222413   1.652   0.239   9.876  1.2389  0.4528  0.7569
 3594SOL     OW22414   3.861   1.086   5.986  0.2783 -0.2745 -0.4881
 3594SOL    HW122415   3.946   1.062   5.949  0.8194 -1.1235  1.3153
 3594SOL    HW222416   3.845   1.173   5.949 -0.7373 -0.4557 -0.4649
 3595SOL     OW22417   2.989   0.828   3.736  0.5776 -0.0530  0.2791
 3595SOL    HW122418   3.072   0.782   3.751  0.5900  0.0992  0.6858
 3595SOL    HW222419   2.930   0.758   3.707  0.0994  0.5862 -0.2934
 3596SOL     OW22420   1.233   0.330  10.393 -0.2173 -0.1411 -0.0459
 3596SOL    HW122421   1.232   0.285  10.308 -1.9841 -1.7886  0.8372
 3596SOL    HW222422   1.306   0.387  10.371 -0.4344  0.7454  1.6106
 3597SOL     OW22423   3.861   3.456   4.087  0.6530  0.3862  0.1337
 3597SOL    HW122424   3.896   3.382   4.038 -0.6968 -1.1363  1.5086
 3597SOL    HW222425   3.845   3.518   4.015 -1.7538  2.2232  2.2253
 3598SOL     OW22426   2.178   1.287   7.479 -0.2292  0.4095  0.5516
 3598SOL    HW122427   2.272   1.303   7.487 -0.3242  0.3301  1.8939
 3598SOL    HW222428   2.149   1.279   7.570  1.0027 -0.7973  0.8382
 3599SOL     OW22429   3.002   2.060   7.270  0.0807  0.5032  0.2026
 3599SOL    HW122430   2.909   2.038   7.267  0.5097 -1.2369  0.0609
 3599SOL    HW222431   3.026   2.009   7.347 -0.4539 -0.8468 -0.5367
 3600SOL     OW22432   3.048   2.419   8.829  0.1538  0.0568  0.5815
 3600SOL    HW122433   3.049   2.513   8.842  2.2953 -0.0005  0.8264
 3600SOL    HW222434   3.040   2.389   8.920  2.5796  0.7613  1.0179
 3601SOL     OW22435   1.767   0.032   0.469  0.2246 -0.7564 -0.6989
 3601SOL    HW122436   1.808   0.117   0.449 -1.1134  0.1086  0.2423
 3601SOL    HW222437   1.840   4.708   0.477 -0.9395 -2.2054 -1.2823
 3602SOL     OW22438   2.191   2.393  14.388  0.4789 -0.4681 -0.3824
 3602SOL    HW122439   2.259   2.441  14.434  1.2144 -0.6815 -1.2543
 3602SOL    HW222440   2.124   2.376  14.455  1.4818  0.3024  0.8216
 3603SOL     OW22441   2.581   0.281   6.356 -0.0057 -0.5164  0.0029
 3603SOL    HW122442   2.586   0.216   6.286  0.5597 -0.1906 -0.2590
 3603SOL    HW222443   2.654   0.248   6.407  0.8943  0.7164 -0.5014
 3604SOL     OW22444   0.284   0.280   6.940 -0.5573 -0.5223 -0.3454
 3604SOL    HW122445   0.284   0.206   6.880 -1.1114 -3.3985  3.1298
 3604SOL    HW222446   0.249   0.233   7.016 -0.1077 -0.7220 -0.2662
 3605SOL     OW22447   0.288   1.366   5.368  0.1204 -0.2558 -0.0764
 3605SOL    HW122448   0.324   1.454   5.376  3.7575 -1.7271 -0.5596
 3605SOL    HW222449   0.211   1.382   5.313  1.3644 -1.1612 -2.0837
 3606SOL     OW22450   0.485   3.871   6.943 -0.2517 -0.0856  0.0261
 3606SOL    HW122451   0.569   3.912   6.961  0.7385 -1.5042 -1.4719
 3606SOL    HW222452   0.447   3.911   6.864  0.3577 -1.9122 -1.1864
 3607SOL     OW22453   3.180   1.359   4.930  0.4796  0.8900 -0.0475
 3607SOL    HW122454   3.274   1.362   4.918  0.5147 -3.0821 -0.6559
 3607SOL    HW222455   3.169   1.279   4.980  0.6613  1.8398  1.5046
 3608SOL     OW22456   0.484   0.142   1.552 -0.5259 -0.0192  0.1860
 3608SOL    HW122457   0.404   0.142   1.500 -0.9725  0.7671  0.8601
 3608SOL    HW222458   0.552   0.095   1.505  0.7453  1.9065  0.0997
 3609SOL     OW22459   0.072   0.518   8.948 -0.4957  0.0464 -0.1641
 3609SOL    HW122460   0.148   0.527   8.890 -0.9276  0.7024 -0.6263
 3609SOL    HW222461   0.075   0.426   8.976 -2.5519  0.3651  1.0603
 3610SOL     OW22462   4.243   0.669   8.156 -0.1941  0.5316  0.2009
 3610SOL    HW122463   4.211   0.664   8.247  1.7304 -2.4457  0.7151
 3610SOL    HW222464   4.293   0.588   8.143 -0.4950  0.5044 -0.7428
 3611SOL     OW22465   4.392   1.588   3.229  0.1287 -0.7275 -0.1676
 3611SOL    HW122466   4.372   1.672   3.187 -0.0043  0.7804  2.8719
 3611SOL    HW222467   4.486   1.584   3.209  0.4018 -0.6744  1.0785
 3612SOL     OW22468   2.477   1.065   5.696 -0.3298  0.1130 -0.2152
 3612SOL    HW122469   2.554   1.071   5.640 -0.8157  1.4987 -0.7307
 3612SOL    HW222470   2.470   0.969   5.693 -2.7354  0.3003 -0.9802
 3613SOL     OW22471   1.392   4.619  10.037  0.1801  0.0163 -0.4714
 3613SOL    HW122472   1.442   4.542  10.061  1.6222  0.4603 -2.0722
 3613SOL    HW222473   1.401   4.627   9.942  0.4043 -2.7926 -0.6974
 3614SOL     OW22474   2.719   1.100   2.152  0.0276 -0.5526  0.2947
 3614SOL    HW122475   2.711   1.105   2.247 -2.0137  0.8841  0.0387
 3614SOL    HW222476   2.635   1.142   2.132 -0.0079 -0.2385  1.0862
 3615SOL     OW22477   0.313   0.287   2.506 -0.0765 -0.2385 -0.6512
 3615SOL    HW122478   0.374   0.342   2.555 -0.7609 -0.6621  0.6713
 3615SOL    HW222479   0.354   0.203   2.528  0.6293  1.3442  4.1187
 3616SOL     OW22480   3.182   2.632   1.950 -0.1885 -0.1376  0.5184
 3616SOL    HW122481   3.205   2.575   1.877  3.5928  3.0064 -0.7421
 3616SOL    HW222482   3.100   2.674   1.925 -0.2698 -1.5502 -1.5099
 3617SOL     OW22483   3.582   0.402   5.385  0.4975 -0.3918 -0.4221
 3617SOL    HW122484   3.567   0.310   5.366 -3.9859  0.1693  0.4770
 3617SOL    HW222485   3.492   0.432   5.371  0.6153  0.8976  1.5848
 3618SOL     OW22486   0.726   1.256   3.472  0.3599  0.2984  0.6775
 3618SOL    HW122487   0.751   1.309   3.396 -2.2293  1.1671  0.4226
 3618SOL    HW222488   0.806   1.237   3.520  1.1149  0.3698 -0.5514
 3619SOL     OW22489   4.198   3.939   2.591  0.2309 -0.2217  0.7906
 3619SOL    HW122490   4.285   3.951   2.554 -0.4864 -2.2503 -1.5379
 3619SOL    HW222491   4.187   4.020   2.642 -2.7023 -1.0103  1.4406
 3620SOL     OW22492   3.111   2.776  13.721  0.3143 -0.1599 -0.2073
 3620SOL    HW122493   3.124   2.686  13.751  2.6373  0.0296 -0.6657
 3620SOL    HW222494   3.062   2.814  13.793  1.4631  1.7658 -0.4459
 3621SOL     OW22495   2.368   0.085  11.791 -1.0098 -0.3749 -0.1004
 3621SOL    HW122496   2.383   0.006  11.843 -1.3638 -1.9896 -2.4318
 3621SOL    HW222497   2.345   0.150  11.858 -0.7183  1.1722 -1.5001
 3622SOL     OW22498   1.832   1.110   7.301  0.0874  0.5694 -0.1647
 3622SOL    HW122499   1.839   1.188   7.246 -0.0108 -0.6813 -1.9305
 3622SOL    HW222500   1.755   1.067   7.264  0.7258 -1.2555  0.6167
 3623SOL     OW22501   0.694   0.422   8.304 -0.0081 -0.3018 -0.0590
 3623SOL    HW122502   0.659   0.348   8.353 -0.5709 -0.9009 -1.3818
 3623SOL    HW222503   0.714   0.381   8.220 -2.8580  1.4014 -1.5535
 3624SOL     OW22504   0.041   0.868   1.406  0.3548 -0.1163  0.3503
 3624SOL    HW122505   4.707   0.903   1.459 -1.5839 -0.0603 -2.3000
 3624SOL    HW222506   0.095   0.945   1.422 -1.0719  0.7454  0.9346
 3625SOL     OW22507   0.532   0.976   7.331  0.5525  0.4791  0.6416
 3625SOL    HW122508   0.605   0.938   7.282 -1.2094 -0.7159 -1.0877
 3625SOL    HW222509   0.557   1.068   7.322  0.8630  0.2616 -0.7739
 3626SOL     OW22510   3.395   0.409  11.279  0.2719  0.0487  0.0631
 3626SOL    HW122511   3.467   0.352  11.254  0.0439 -0.2110  0.0014
 3626SOL    HW222512   3.437   0.495  11.272 -0.1669  0.3792  1.5124
 3627SOL     OW22513   2.967   4.728  12.927 -0.0225  0.4384 -0.4656
 3627SOL    HW122514   3.056   4.700  12.904  0.3216  1.9344 -0.8890
 3627SOL    HW222515   2.940   4.665  12.994 -0.0088  0.4441 -0.4547
 3628SOL     OW22516   1.495   0.323   7.231 -0.1076 -0.4289  0.0886
 3628SOL    HW122517   1.512   0.359   7.318 -0.5162 -0.1307  0.0421
 3628SOL    HW222518   1.562   0.256   7.214 -0.5504 -1.9573  4.3161
 3629SOL     OW22519   1.986   3.911   3.264  0.2433  0.4952 -1.0099
 3629SOL    HW122520   1.994   3.916   3.169 -1.2905 -0.8001 -1.2148
 3629SOL    HW222521   1.899   3.870   3.272  1.0717 -1.3338 -1.4301
 3630SOL     OW22522   0.185   0.648   5.685  0.3598 -0.1575  0.3614
 3630SOL    HW122523   0.201   0.688   5.599 -1.3193 -0.1907  0.0441
 3630SOL    HW222524   0.094   0.624   5.670  0.2072  0.5101  0.2209
 3631SOL     OW22525   0.448   0.319  10.497 -0.3097 -0.6009  0.0686
 3631SOL    HW122526   0.516   0.285  10.439 -0.5146 -1.3728  0.2788
 3631SOL    HW222527   0.424   0.400  10.452  0.7300 -0.1429  0.3299
 3632SOL     OW22528   0.235   2.630  10.695 -0.0438  0.1321 -0.4144
 3632SOL    HW122529   0.312   2.623  10.639 -0.1520  2.0466 -0.7914
 3632SOL    HW222530   0.217   2.538  10.717 -1.8245 -0.1941 -3.1799
 3633SOL     OW22531   0.680   1.226   2.090 -0.0445  0.1241 -0.3012
 3633SOL    HW122532   0.775   1.221   2.100 -0.1827 -0.1193  0.9543
 3633SOL    HW222533   0.663   1.133   2.078  0.5417 -0.3755  2.7296
 3634SOL     OW22534   3.826   1.663   4.798  0.2204  0.0041 -0.0801
 3634SOL    HW122535   3.888   1.687   4.728  4.0398 -0.5712  3.1272
 3634SOL    HW222536   3.877   1.666   4.879 -0.7041  0.2222  0.4850
 3635SOL     OW22537   1.683   3.599  12.137 -0.3119 -0.1224  0.3325
 3635SOL    HW122538   1.595   3.602  12.100 -0.4801 -1.8961  0.6190
 3635SOL    HW222539   1.687   3.682  12.185  3.2475 -0.0844 -0.0257
 3636SOL     OW22540   4.012   1.498   6.936 -0.0143 -0.1494  0.2384
 3636SOL    HW122541   3.937   1.557   6.942 -0.8731 -1.3591  1.3096
 3636SOL    HW222542   3.971   1.414   6.914 -1.2255 -0.3055  3.0833
 3637SOL     OW22543   0.525   1.233  17.587 -1.0353 -0.1190  0.0869
 3637SOL    HW122544   0.586   1.291  17.631  0.6288 -0.4907 -1.7147
 3637SOL    HW222545   0.534   1.160  17.647 -0.2095 -0.8885 -0.9598
 3638SOL     OW22546   3.033   4.546   2.561 -0.3543  0.4306  0.0181
 3638SOL    HW122547   3.015   4.452   2.563 -2.4879  0.8338 -0.5778
 3638SOL    HW222548   3.129   4.548   2.561 -0.3183 -0.9769 -1.7860
 3639SOL     OW22549   4.561   2.027   6.872 -0.1608 -0.1169  0.2112
 3639SOL    HW122550   4.617   2.104   6.865 -1.0295  0.8028  3.1946
 3639SOL    HW222551   4.606   1.992   6.949  1.6538  0.7490 -0.4536
 3640SOL     OW22552   1.515   2.561   6.185 -0.8410 -0.1171  0.2692
 3640SOL    HW122553   1.468   2.494   6.234  0.6271 -1.9161 -0.7760
 3640SOL    HW222554   1.533   2.508   6.107  1.4794  0.6792  0.2457
 3641SOL     OW22555   1.217   2.572   1.307  0.1034 -0.0262 -0.0583
 3641SOL    HW122556   1.123   2.593   1.311 -0.3811 -1.8370 -1.8198
 3641SOL    HW222557   1.250   2.643   1.252  1.9767 -2.2734 -1.8184
 3642SOL     OW22558   0.959   2.601   8.716  0.6863  0.4433 -0.7887
 3642SOL    HW122559   0.937   2.655   8.792  0.7868  0.4472 -0.7626
 3642SOL    HW222560   0.902   2.527   8.736 -0.2936  1.7350  1.1998
 3643SOL     OW22561   2.510   2.396  12.643 -0.0167  0.3151  0.5852
 3643SOL    HW122562   2.441   2.452  12.605  0.6203  0.2100 -0.7116
 3643SOL    HW222563   2.496   2.314  12.596  2.5437 -0.0045  0.3958
 3644SOL     OW22564   1.309   2.416   7.436 -0.1246  0.1183  0.4216
 3644SOL    HW122565   1.253   2.428   7.513 -2.2162 -0.5013 -1.0060
 3644SOL    HW222566   1.332   2.323   7.444 -4.2784 -0.8546  1.0887
 3645SOL     OW22567   0.727   0.778   5.636 -0.2317  0.5710  0.4688
 3645SOL    HW122568   0.714   0.857   5.583 -2.5498 -0.0183  0.1740
 3645SOL    HW222569   0.661   0.727   5.589 -0.8127  3.0277 -1.4225
 3646SOL     OW22570   3.701   4.336  10.714 -0.5698  0.4653 -0.5622
 3646SOL    HW122571   3.646   4.261  10.740 -2.0753  1.5919 -0.4807
 3646SOL    HW222572   3.632   4.400  10.695 -0.1016  1.4609  1.1297
 3647SOL     OW22573   0.993   0.188   1.728 -0.3933 -0.1376 -0.0305
 3647SOL    HW122574   0.992   0.120   1.796 -0.3162 -0.6499 -0.5396
 3647SOL    HW222575   1.086   0.213   1.727 -0.2144 -0.8196 -0.9729
 3648SOL     OW22576   3.952   2.517   4.224 -0.1650  0.3246 -0.2196
 3648SOL    HW122577   4.012   2.463   4.173 -1.7622 -1.3469 -0.3018
 3648SOL    HW222578   3.893   2.455   4.267 -0.5688 -0.1111 -1.4208
 3649SOL     OW22579   0.071   4.394  11.872  0.6674  0.4676  0.5486
 3649SOL    HW122580   0.136   4.334  11.908 -0.2160 -0.4794  0.5600
 3649SOL    HW222581   0.007   4.392  11.944  0.7192 -1.2319  0.5339
 3650SOL     OW22582   2.871   0.261   4.117 -0.4964 -0.0555 -0.1424
 3650SOL    HW122583   2.907   0.177   4.144  0.1015  0.0281 -0.6889
 3650SOL    HW222584   2.779   0.233   4.121 -0.2295 -0.7295  1.1444
 3651SOL     OW22585   4.076   0.574  14.539 -0.0268  0.1365 -0.6929
 3651SOL    HW122586   4.088   0.592  14.633  2.5471 -0.3778 -0.9223
 3651SOL    HW222587   4.113   0.655  14.503 -2.8451  2.6152  1.9480
 3652SOL     OW22588   0.569   3.837   1.980 -0.4226  0.4546 -0.7934
 3652SOL    HW122589   0.583   3.756   2.029  3.6411  2.2581  0.9810
 3652SOL    HW222590   0.499   3.813   1.919 -0.4406 -0.3154 -0.4714
 3653SOL     OW22591   2.389   3.311   2.600 -0.4839 -0.4152  0.7178
 3653SOL    HW122592   2.329   3.356   2.540 -0.8368 -3.0743 -0.9361
 3653SOL    HW222593   2.453   3.288   2.533 -1.2441  2.1853 -0.9177
 3654SOL     OW22594   0.600   2.305   7.676  0.0039  0.0134 -0.2052
 3654SOL    HW122595   0.620   2.212   7.669 -1.3708 -0.5537  3.4329
 3654SOL    HW222596   0.678   2.345   7.714  0.0808 -1.6675  1.4184
 3655SOL     OW22597   0.674   1.996   7.661  0.0825 -0.5164 -0.6281
 3655SOL    HW122598   0.766   1.989   7.686  0.4353  0.2656 -1.7150
 3655SOL    HW222599   0.644   1.905   7.659 -2.9177  0.4966 -1.2380
 3656SOL     OW22600   3.605   3.948   4.818 -0.0060  0.0586 -0.1488
 3656SOL    HW122601   3.688   3.983   4.850 -0.4102 -0.4235  1.4172
 3656SOL    HW222602   3.559   3.949   4.902 -1.6813  1.1446 -1.0800
 3657SOL     OW22603   1.773   4.654   8.228  0.3125  0.2953  0.0277
 3657SOL    HW122604   1.778   4.562   8.252 -0.0748 -0.1784 -1.7372
 3657SOL    HW222605   1.829   4.691   8.297  0.0888  0.9617 -0.1482
 3658SOL     OW22606   2.547   0.788   8.928 -0.5785  0.3633 -0.4991
 3658SOL    HW122607   2.552   0.883   8.914  0.0173  0.3969 -0.0837
 3658SOL    HW222608   2.587   0.748   8.850 -0.1144  3.0259 -1.6444
 3659SOL     OW22609   0.307   1.898   5.165  0.0426 -0.1755  0.0488
 3659SOL    HW122610   0.300   1.950   5.085  2.0720 -3.3906 -2.2196
 3659SOL    HW222611   0.397   1.866   5.154  1.1849  2.3462  2.1338
 3660SOL     OW22612   4.565   3.231   2.616 -0.2657  0.1185  0.4107
 3660SOL    HW122613   4.521   3.296   2.671 -0.1825  2.7086 -2.5988
 3660SOL    HW222614   4.499   3.216   2.548  0.4254  2.1818 -0.7141
 3661SOL     OW22615   2.967   2.895   4.220  0.3925 -0.7670  1.3442
 3661SOL    HW122616   2.986   2.989   4.216  0.8453 -1.0377 -2.1685
 3661SOL    HW222617   2.913   2.889   4.299 -1.8364  1.3777 -0.0007
 3662SOL     OW22618   0.511   0.743   3.971 -0.7420 -0.8527 -0.3170
 3662SOL    HW122619   0.602   0.730   3.995 -1.3396 -1.4318  1.6886
 3662SOL    HW222620   0.485   0.792   4.049  1.2730 -0.7383  0.2644
 3663SOL     OW22621   2.177   1.121   8.236  0.1767  0.3612  0.5761
 3663SOL    HW122622   2.208   1.206   8.264 -0.3200  0.7967 -0.1943
 3663SOL    HW222623   2.098   1.110   8.289  0.6130 -2.3413  0.7045
 3664SOL     OW22624   4.227   2.637   4.307 -0.9279 -0.2695  0.1213
 3664SOL    HW122625   4.131   2.635   4.305 -0.9367  0.0246  0.3093
 3664SOL    HW222626   4.240   2.580   4.383  0.0075 -2.7873 -1.9134
 3665SOL     OW22627   0.838   3.276  12.473  0.5377 -0.4356 -0.0592
 3665SOL    HW122628   0.777   3.205  12.495  1.9483 -0.8913  2.3948
 3665SOL    HW222629   0.900   3.231  12.416 -0.0769 -0.9814 -0.2880
 3666SOL     OW22630   0.626   1.475   6.057  0.1634 -0.0429  0.3062
 3666SOL    HW122631   0.605   1.561   6.095  2.3601 -0.1552  1.7926
 3666SOL    HW222632   0.554   1.423   6.093  0.2684 -0.6434 -0.3590
 3667SOL     OW22633   4.030   2.668   6.420  0.1307  0.6626  0.3465
 3667SOL    HW122634   3.946   2.683   6.464 -0.1740 -0.5074  0.1545
 3667SOL    HW222635   4.002   2.595   6.364  0.4175  1.2073 -0.5116
 3668SOL     OW22636   3.852   3.141  15.456  0.2758  0.1472 -0.3155
 3668SOL    HW122637   3.898   3.069  15.413  2.6312  2.6844 -2.0478
 3668SOL    HW222638   3.921   3.200  15.487  1.2573 -0.1817 -1.8834
 3669SOL     OW22639   0.452   1.973  13.974  0.2125  0.1703  0.2169
 3669SOL    HW122640   0.365   1.999  13.944  0.4875 -0.2184 -0.9084
 3669SOL    HW222641   0.423   1.938  14.059  0.9147 -0.7336  0.0856
 3670SOL     OW22642   4.427   0.124   3.273 -0.0578  0.0580 -0.6681
 3670SOL    HW122643   4.507   0.161   3.310 -1.0022  1.6242 -0.1927
 3670SOL    HW222644   4.440   0.030   3.285  1.4594  0.2102 -1.2004
 3671SOL     OW22645   3.412   1.211   0.850  0.0553  0.4191 -0.1088
 3671SOL    HW122646   3.413   1.277   0.920 -0.8952  0.4232 -0.1053
 3671SOL    HW222647   3.505   1.190   0.855 -0.4823 -1.6696  1.1719
 3672SOL     OW22648   2.135   2.166   2.887  0.0405 -0.1296  0.0766
 3672SOL    HW122649   2.204   2.128   2.833  0.7349  2.1291 -0.6214
 3672SOL    HW222650   2.187   2.212   2.953 -0.9243  2.4411 -0.9280
 3673SOL     OW22651   3.634   0.541  11.027  0.0517  0.1934 -0.1128
 3673SOL    HW122652   3.583   0.464  11.002 -1.0648  1.8756 -2.9690
 3673SOL    HW222653   3.723   0.506  11.026 -0.6906 -1.7504  2.7668
 3674SOL     OW22654   1.810   3.110   9.257  0.6764  0.0749  0.1214
 3674SOL    HW122655   1.795   3.058   9.336 -2.9840 -2.1325 -1.9889
 3674SOL    HW222656   1.757   3.057   9.197  0.7630  0.7559 -0.5546
 3675SOL     OW22657   3.644   3.358   6.916  0.4690 -0.0524 -0.1285
 3675SOL    HW122658   3.639   3.419   6.844 -2.7826  1.1029  1.1031
 3675SOL    HW222659   3.561   3.377   6.959  0.3316 -0.4277 -0.2285
 3676SOL     OW22660   1.374   1.149   6.528  0.8215  0.4139  0.7093
 3676SOL    HW122661   1.286   1.114   6.532  0.6377  0.9222  1.0811
 3676SOL    HW222662   1.408   1.076   6.476 -1.8280  0.4570 -1.0634
 3677SOL     OW22663   1.434   0.764   8.907 -0.6279 -0.2541  0.1710
 3677SOL    HW122664   1.502   0.814   8.952 -1.5607  2.9241 -1.9466
 3677SOL    HW222665   1.453   0.777   8.814  1.5095  2.9384  1.0621
 3678SOL     OW22666   0.030   1.028   7.019 -0.3638 -0.2622  0.1470
 3678SOL    HW122667   4.712   1.084   7.075  1.1291  0.8986  0.4635
 3678SOL    HW222668   0.006   0.941   7.049  1.3783 -0.4018  1.1610
 3679SOL     OW22669   1.887   0.740   7.438  0.6017 -1.1335  0.4219
 3679SOL    HW122670   1.886   0.809   7.372 -0.6093  1.1741  2.8736
 3679SOL    HW222671   1.935   0.669   7.395  0.3060  0.6157 -2.7879
 3680SOL     OW22672   0.253   0.383   4.202  0.0731 -0.5248  0.3309
 3680SOL    HW122673   0.287   0.310   4.149 -1.4312 -2.1369  1.5833
 3680SOL    HW222674   0.253   0.342   4.288 -0.7854 -0.4849  0.3548
 3681SOL     OW22675   2.305   0.929  14.822  0.4427  0.1403 -0.6582
 3681SOL    HW122676   2.246   0.997  14.855 -0.4738 -0.0028 -2.0096
 3681SOL    HW222677   2.392   0.968  14.828  0.3749  0.2641 -0.4833
 3682SOL     OW22678   2.120   2.965   7.829  0.0248  0.4141  0.2216
 3682SOL    HW122679   2.097   3.049   7.869  0.3626 -0.3615  2.0442
 3682SOL    HW222680   2.033   2.943   7.798  0.7197  1.9802 -2.7484
 3683SOL     OW22681   3.901   1.146   3.772 -0.3336 -0.4371  0.0284
 3683SOL    HW122682   3.862   1.187   3.849 -1.3439 -1.4288  0.0425
 3683SOL    HW222683   3.955   1.220   3.744  3.6103 -3.7099 -0.9342
 3684SOL     OW22684   0.297   3.840   3.704 -0.1979  0.4213  0.1868
 3684SOL    HW122685   0.261   3.752   3.712 -1.8894  0.9992 -1.1602
 3684SOL    HW222686   0.349   3.832   3.785 -1.3723  0.3749  0.9353
 3685SOL     OW22687   0.269   4.026   7.246 -0.6829 -0.2289  0.2263
 3685SOL    HW122688   0.248   3.999   7.336  0.4319  0.3935  0.6779
 3685SOL    HW222689   0.248   3.948   7.195  0.2434 -0.1349 -0.2904
 3686SOL     OW22690   3.990   4.368   9.045 -0.0963  0.2152  0.6727
 3686SOL    HW122691   3.969   4.322   9.126  1.0121  0.4132  1.0815
 3686SOL    HW222692   3.937   4.318   8.983  0.2845 -2.5833  2.6065
 3687SOL     OW22693   0.928   0.700  17.572  0.1235 -0.3626 -0.1027
 3687SOL    HW122694   0.968   0.751  17.502  1.2227 -1.6204 -0.4044
 3687SOL    HW222695   0.906   0.616  17.530  0.2989  0.6864 -2.2654
 3688SOL     OW22696   1.258   1.666   3.062 -0.2009  0.3052 -0.3231
 3688SOL    HW122697   1.251   1.574   3.038  0.9734  0.0857  0.1977
 3688SOL    HW222698   1.304   1.692   2.983 -0.7583 -2.7230 -1.6308
 3689SOL     OW22699   1.823   2.796   4.122  0.6416  0.3001  0.1593
 3689SOL    HW122700   1.868   2.723   4.164  0.8080  0.5810  0.4715
 3689SOL    HW222701   1.770   2.741   4.064  0.6353  1.1318 -0.6243
 3690SOL     OW22702   3.073   1.331  17.259 -0.3386  0.2252  0.1329
 3690SOL    HW122703   3.088   1.426  17.257 -0.5713  0.2980  1.5181
 3690SOL    HW222704   3.086   1.302  17.169  1.8888  0.5030  0.3735
 3691SOL     OW22705   0.452   1.465   4.816  0.1629 -0.8065 -0.2326
 3691SOL    HW122706   0.384   1.471   4.883  0.4332  0.5591 -0.0828
 3691SOL    HW222707   0.527   1.434   4.867  1.0790  0.1028 -1.0355
 3692SOL     OW22708   0.409   2.560   8.944 -0.5035 -0.2851  0.5628
 3692SOL    HW122709   0.401   2.643   8.990  0.5103  1.0901 -1.7420
 3692SOL    HW222710   0.489   2.531   8.989 -0.3748 -0.0569  0.4784
 3693SOL     OW22711   1.292   3.031  16.042 -0.3721  0.3219 -0.0226
 3693SOL    HW122712   1.346   2.953  16.029  0.0240  0.8133 -1.3272
 3693SOL    HW222713   1.221   3.016  15.979 -1.6699 -0.7693  1.7040
 3694SOL     OW22714   1.924   3.808   2.525 -0.2858  0.2110 -0.3391
 3694SOL    HW122715   1.853   3.845   2.471 -0.5360 -0.8974 -0.7771
 3694SOL    HW222716   1.960   3.737   2.472  0.0336  1.7996 -2.2641
 3695SOL     OW22717   3.451   1.166   5.585 -0.3680 -0.0533 -0.5742
 3695SOL    HW122718   3.396   1.235   5.549 -0.8420 -0.9804 -1.6105
 3695SOL    HW222719   3.385   1.098   5.592 -0.0163 -0.4093 -0.6729
 3696SOL     OW22720   3.186   1.708   7.169 -0.5535  0.4749  0.3690
 3696SOL    HW122721   3.272   1.669   7.185  0.6838  2.8424 -0.5494
 3696SOL    HW222722   3.203   1.800   7.191 -2.2974  0.8157  0.2686
 3697SOL     OW22723   0.458   4.245   8.331 -0.9120  1.0235  0.0691
 3697SOL    HW122724   0.395   4.179   8.359 -0.5891  1.2925  1.4257
 3697SOL    HW222725   0.433   4.320   8.386  0.4721  1.8256 -0.3865
 3698SOL     OW22726   2.184   4.383   7.889 -0.1428  0.3449 -0.0756
 3698SOL    HW122727   2.252   4.375   7.821  1.0731 -0.5394  1.2357
 3698SOL    HW222728   2.162   4.291   7.901 -1.9486  0.6832 -0.7781
 3699SOL     OW22729   0.575   2.654   7.135 -0.3374 -0.3098  0.2108
 3699SOL    HW122730   0.659   2.687   7.166 -0.6091  0.4654  0.1368
 3699SOL    HW222731   0.577   2.566   7.172 -2.0336 -0.0520  0.9247
 3700SOL     OW22732   0.661   0.049  13.291 -0.1886 -0.1488 -0.1387
 3700SOL    HW122733   0.595   0.022  13.227  1.3607 -0.1545 -1.7531
 3700SOL    HW222734   0.635   4.716  13.350 -0.1195 -0.4293 -0.4379
 3701SOL     OW22735   0.276   3.618  15.049  0.0759 -0.1907  0.0798
 3701SOL    HW122736   0.196   3.565  15.046  0.0240 -0.1479  0.9799
 3701SOL    HW222737   0.247   3.703  15.017 -1.1094 -0.6109  0.0235
 3702SOL     OW22738   2.816   1.836   4.380  0.4251  0.2334  0.0266
 3702SOL    HW122739   2.903   1.840   4.341 -0.1324  1.0769 -1.0932
 3702SOL    HW222740   2.814   1.915   4.434 -1.2962  0.8564 -0.9652
 3703SOL     OW22741   3.813   2.254   5.797  0.4685 -0.4154  0.3014
 3703SOL    HW122742   3.875   2.212   5.856  0.4575  0.7049  1.1164
 3703SOL    HW222743   3.762   2.179   5.766 -2.1096  1.0333  1.0369
 3704SOL     OW22744   4.127   2.556  11.674 -0.1573  0.0415 -0.9379
 3704SOL    HW122745   4.208   2.553  11.622  0.4189  1.1156 -0.1099
 3704SOL    HW222746   4.134   2.476  11.725  0.6861 -0.2459 -1.4890
 3705SOL     OW22747   4.525   2.556  17.412  0.4778 -0.4144 -0.2772
 3705SOL    HW122748   4.533   2.584  17.321  0.3645 -1.1161 -0.5063
 3705SOL    HW222749   4.573   2.629  17.449  0.9763 -0.7711 -0.2173
 3706SOL     OW22750   3.754   3.699   3.301  0.1331  0.0430  0.1359
 3706SOL    HW122751   3.847   3.686   3.281  0.1126  0.6760 -0.3707
 3706SOL    HW222752   3.729   3.746   3.221  1.7088  0.8488  0.1011
 3707SOL     OW22753   0.241   1.231   7.037 -0.1725 -0.2195  0.0477
 3707SOL    HW122754   0.149   1.206   7.030 -0.6557  1.8047 -0.6208
 3707SOL    HW222755   0.242   1.289   6.961  1.0649  3.2546  2.7041
 3708SOL     OW22756   0.065   3.771  13.162  0.3009  0.3165 -0.1281
 3708SOL    HW122757   0.145   3.798  13.206 -0.2002  1.5617 -0.0038
 3708SOL    HW222758   0.025   3.857  13.163 -0.0689  0.1193  2.1443
 3709SOL     OW22759   1.780   3.516   5.297  0.1311  0.5715 -0.2529
 3709SOL    HW122760   1.684   3.517   5.292 -0.0725 -3.1598  3.0291
 3709SOL    HW222761   1.783   3.431   5.341 -1.1381 -0.1683 -1.6128
 3710SOL     OW22762   1.173   1.486   8.947  0.8550  0.1446  0.1154
 3710SOL    HW122763   1.185   1.448   9.033  1.1626  0.7000  0.3174
 3710SOL    HW222764   1.107   1.555   8.955 -1.2103 -1.6034 -1.7858
 3711SOL     OW22765   2.735   0.753   4.247 -0.2986  0.7482 -0.1268
 3711SOL    HW122766   2.755   0.675   4.195  0.6214  1.0342 -0.2047
 3711SOL    HW222767   2.778   0.728   4.329 -0.5455  0.3017 -0.1302
 3712SOL     OW22768   1.728   3.941   8.276  0.1434  0.1772  0.0869
 3712SOL    HW122769   1.750   3.934   8.183  3.2886 -1.8605  0.9840
 3712SOL    HW222770   1.812   3.960   8.317  0.7940  0.5673 -1.4215
 3713SOL     OW22771   0.830   0.611   4.961 -0.1565 -0.0164 -0.1510
 3713SOL    HW122772   0.774   0.537   4.937 -1.8770  1.1596  0.2732
 3713SOL    HW222773   0.823   0.664   4.881  0.3919 -1.0286 -0.8810
 3714SOL     OW22774   1.244   1.708   1.302 -0.0181 -0.5711 -0.2682
 3714SOL    HW122775   1.191   1.730   1.378 -0.1332  1.8645 -1.0729
 3714SOL    HW222776   1.201   1.756   1.231 -1.0533 -0.8882  0.1440
 3715SOL     OW22777   2.190   2.021   0.189  0.3140 -0.7173 -0.2724
 3715SOL    HW122778   2.277   2.055   0.165 -0.0587 -0.4504 -1.2121
 3715SOL    HW222779   2.177   2.062   0.275  4.5251  1.3431 -0.6027
 3716SOL     OW22780   4.415   2.777   9.219 -0.0809  0.1317 -0.0849
 3716SOL    HW122781   4.365   2.856   9.194 -4.1980 -2.8323 -1.2556
 3716SOL    HW222782   4.456   2.756   9.135  1.8094  1.0490  0.6191
 3717SOL     OW22783   3.751   4.565   2.633  0.4870  0.2267 -0.6189
 3717SOL    HW122784   3.838   4.593   2.661  0.6080  0.0051 -0.7665
 3717SOL    HW222785   3.760   4.572   2.538 -2.1264 -2.6006 -1.0930
 3718SOL     OW22786   1.353   3.963  11.353 -0.1414 -0.4575  0.2963
 3718SOL    HW122787   1.342   4.022  11.427  1.6952  0.1719  0.0505
 3718SOL    HW222788   1.365   3.874  11.387  1.3320 -0.5321 -0.4529
 3719SOL     OW22789   3.537   3.944  13.893 -0.1830 -0.2269 -0.3063
 3719SOL    HW122790   3.448   3.911  13.886 -0.6710  0.8579  0.7402
 3719SOL    HW222791   3.551   3.965  13.801 -0.4291 -2.8129 -0.9431
 3720SOL     OW22792   4.515   2.856   8.658 -0.5618  0.2182 -0.0637
 3720SOL    HW122793   4.465   2.776   8.640  0.4929 -0.3959 -0.2544
 3720SOL    HW222794   4.468   2.916   8.599  0.4409  1.5628  0.5134
 3721SOL     OW22795   4.506   4.702  11.856 -0.4119  0.1133 -0.1260
 3721SOL    HW122796   4.587   4.677  11.811 -0.0013  0.5315  0.3814
 3721SOL    HW222797   4.530   4.688  11.947 -2.9755 -1.3683  0.3349
 3722SOL     OW22798   2.051   0.946   1.592 -0.2708 -0.1485  0.1863
 3722SOL    HW122799   2.009   1.014   1.644 -1.1785  0.7156 -1.6834
 3722SOL    HW222800   2.112   0.992   1.534 -1.0529 -0.7956 -1.1311
 3723SOL     OW22801   2.605   1.865  14.326  0.8652 -0.2661 -0.0152
 3723SOL    HW122802   2.655   1.784  14.334  0.2906 -0.4615  1.5300
 3723SOL    HW222803   2.581   1.881  14.417  1.3675 -2.3516  0.4972
 3724SOL     OW22804   2.180   0.259   5.775  0.4002  0.0892  0.3200
 3724SOL    HW122805   2.199   0.168   5.796 -1.7695  0.0761  2.1666
 3724SOL    HW222806   2.088   0.247   5.753  0.6672  0.0083 -0.7490
 3725SOL     OW22807   2.493   3.317   2.222  0.1504 -0.2684 -0.4743
 3725SOL    HW122808   2.447   3.392   2.185  2.4419  0.8500 -1.0966
 3725SOL    HW222809   2.440   3.245   2.187  1.0058 -0.4456 -1.4102
 3726SOL     OW22810   1.949   0.353  11.156  0.0224  0.7163 -0.3882
 3726SOL    HW122811   1.865   0.384  11.189  0.3044  0.1482  0.8424
 3726SOL    HW222812   1.970   0.430  11.104 -0.2132  0.2337 -1.2038
 3727SOL     OW22813   1.176   0.902   5.910 -0.3748 -0.1938  0.4028
 3727SOL    HW122814   1.194   0.868   5.823 -0.3451  0.9874 -0.0527
 3727SOL    HW222815   1.148   0.992   5.891  2.3310  0.3391 -1.0545
 3728SOL     OW22816   2.897   0.996   7.808 -0.1472  0.4272 -0.3343
 3728SOL    HW122817   2.904   1.079   7.761 -0.0623  0.9711  0.6472
 3728SOL    HW222818   2.889   1.030   7.896  0.2552 -1.0838  0.2891
 3729SOL     OW22819   4.049   2.234   4.107 -0.1776 -0.1997  0.2765
 3729SOL    HW122820   4.083   2.190   4.029  0.3806 -0.1409  0.4877
 3729SOL    HW222821   3.977   2.175   4.130  0.5325 -0.5944  1.4744
 3730SOL     OW22822   1.883   3.207   1.138 -0.2634  0.2485 -0.1658
 3730SOL    HW122823   1.875   3.301   1.122 -2.1577  0.3558  1.3394
 3730SOL    HW222824   1.955   3.205   1.202 -1.4120  2.3544  1.1959
 3731SOL     OW22825   1.217   2.114   8.479  0.3185  0.0157 -0.0764
 3731SOL    HW122826   1.277   2.048   8.513 -1.4048 -0.8289  1.3472
 3731SOL    HW222827   1.257   2.134   8.394  2.7880  0.8353  1.2847
 3732SOL     OW22828   4.153   1.200   2.594 -0.4736 -0.1293 -0.5413
 3732SOL    HW122829   4.237   1.209   2.638 -1.6515  0.4171  1.6231
 3732SOL    HW222830   4.124   1.120   2.639  0.3983  0.9854  2.0394
 3733SOL     OW22831   4.130   3.065   7.643 -0.2060  0.3398 -0.2790
 3733SOL    HW122832   4.217   3.026   7.650 -0.9356 -1.5461 -1.9076
 3733SOL    HW222833   4.076   2.993   7.611  0.4006 -0.4553  0.4874
 3734SOL     OW22834   0.883   0.015   8.735  0.2890  0.1189  0.4741
 3734SOL    HW122835   0.925   4.725   8.817  0.2334 -1.1089  0.0949
 3734SOL    HW222836   0.812   0.074   8.761  1.3842  0.9519  1.5820
 3735SOL     OW22837   3.362   4.577   8.527  0.3773  0.9097 -0.1180
 3735SOL    HW122838   3.349   4.601   8.619  0.5275 -2.7440  0.8662
 3735SOL    HW222839   3.401   4.657   8.490  2.0083 -0.3936 -1.2096
 3736SOL     OW22840   3.301   0.063   6.321  0.1251  0.2253 -0.0709
 3736SOL    HW122841   3.237   0.026   6.382 -0.7592 -1.7434 -2.2222
 3736SOL    HW222842   3.264   0.150   6.306 -0.4323  0.0197  0.1059
 3737SOL     OW22843   2.333   4.588   6.605 -0.8880  0.2092 -0.1356
 3737SOL    HW122844   2.259   4.649   6.599 -1.9148 -1.1267 -0.9980
 3737SOL    HW222845   2.375   4.608   6.689  1.0822  2.1060 -1.5815
 3738SOL     OW22846   0.784   1.320   3.018  0.0590  0.3079 -0.5563
 3738SOL    HW122847   0.705   1.323   2.965  0.0282 -0.1740 -0.5314
 3738SOL    HW222848   0.817   1.241   2.975  0.1916 -0.9963  1.9674
 3739SOL     OW22849   2.777   1.296  14.026  0.3702 -0.3757 -0.1660
 3739SOL    HW122850   2.700   1.352  14.027  1.1872  0.7730 -0.6020
 3739SOL    HW222851   2.843   1.366  14.021  0.0825 -0.0342  0.7682
 3740SOL     OW22852   3.691   0.170   2.326 -0.0197  0.7505 -0.3644
 3740SOL    HW122853   3.763   0.196   2.384 -0.4362  1.7190 -0.2860
 3740SOL    HW222854   3.726   0.154   2.238  1.4233  1.1064  0.1502
 3741SOL     OW22855   3.391   3.744  10.377  0.6535  0.9002  0.5875
 3741SOL    HW122856   3.420   3.660  10.413 -0.7027  0.3825  0.4752
 3741SOL    HW222857   3.382   3.724  10.284 -0.3098 -1.3145  1.1819
 3742SOL     OW22858   4.399   0.440   8.143  0.2284 -0.0663  0.2498
 3742SOL    HW122859   4.494   0.434   8.134  0.4885 -0.2874  3.1374
 3742SOL    HW222860   4.376   0.358   8.187 -0.5495 -0.1653 -0.3376
 3743SOL     OW22861   2.847   3.764  14.223  0.4666  0.2287  0.4419
 3743SOL    HW122862   2.807   3.704  14.160  0.4904 -1.8240  2.3898
 3743SOL    HW222863   2.811   3.728  14.304  0.3110 -0.7030 -0.0475
 3744SOL     OW22864   3.535   3.551  10.007  0.1437 -0.1040 -0.0952
 3744SOL    HW122865   3.610   3.603   9.977 -0.8334  3.1440  3.2058
 3744SOL    HW222866   3.472   3.621  10.020 -0.1847 -0.5435  0.7046
 3745SOL     OW22867   2.852   0.348   2.465 -0.8538 -0.1475  0.7767
 3745SOL    HW122868   2.894   0.428   2.497 -3.2083  1.2670  0.2840
 3745SOL    HW222869   2.758   0.368   2.463 -0.8222  0.0820  1.4978
 3746SOL     OW22870   2.397   2.212   5.851  1.0714 -0.3800 -0.6253
 3746SOL    HW122871   2.434   2.143   5.796  2.2530 -0.7276  0.6085
 3746SOL    HW222872   2.331   2.165   5.902  3.0867 -1.1804  1.2744
 3747SOL     OW22873   4.305   1.798   7.152  0.0163 -0.1942  0.1267
 3747SOL    HW122874   4.353   1.717   7.166  0.5690  0.1031 -0.0396
 3747SOL    HW222875   4.323   1.812   7.059  0.0037  0.1746  0.1771
 3748SOL     OW22876   2.138   2.350   3.814 -0.0959  0.3686 -0.0556
 3748SOL    HW122877   2.165   2.335   3.904  0.5266 -0.2948 -0.3568
 3748SOL    HW222878   2.045   2.373   3.814 -0.5801 -1.5857  2.4808
 3749SOL     OW22879   3.146   0.916  12.865  0.2638 -0.5644 -0.1935
 3749SOL    HW122880   3.137   0.930  12.959  0.0063 -0.0277 -0.2992
 3749SOL    HW222881   3.054   0.911  12.837 -0.7933 -1.9891  3.5501
 3750SOL     OW22882   2.006   4.467   7.087  0.3222  0.1352 -0.0522
 3750SOL    HW122883   2.010   4.419   7.005  2.2707  0.4161 -0.1215
 3750SOL    HW222884   2.070   4.410   7.130 -0.4047 -0.4866  0.2283
 3751SOL     OW22885   4.408   2.069  16.231  0.0757 -0.2589 -0.0321
 3751SOL    HW122886   4.370   2.151  16.200  1.3361  0.6417  0.7751
 3751SOL    HW222887   4.327   2.020  16.243 -1.0370  1.8179  1.0202
 3752SOL     OW22888   1.652   2.760   5.407  0.5374  0.7758  0.4667
 3752SOL    HW122889   1.622   2.671   5.392 -0.8928  1.2835  0.3059
 3752SOL    HW222890   1.610   2.779   5.490  0.7001 -0.0248  0.7304
 3753SOL     OW22891   2.815   0.198  14.942 -0.5156  0.1078 -0.1226
 3753SOL    HW122892   2.861   0.115  14.931  0.9664  0.7091  1.6710
 3753SOL    HW222893   2.771   0.186  14.857 -0.7065 -2.1729  0.2993
 3754SOL     OW22894   1.253   1.817   4.111  0.4627  0.2046  0.1786
 3754SOL    HW122895   1.339   1.792   4.147  2.5319  3.9763 -2.1013
 3754SOL    HW222896   1.204   1.825   4.193  0.5891 -0.0502  0.2808
 3755SOL     OW22897   1.672   2.621  13.658 -0.0042  0.3773  0.4125
 3755SOL    HW122898   1.705   2.691  13.714 -0.8283  0.9020  0.2635
 3755SOL    HW222899   1.648   2.670  13.579  0.0742 -2.6340 -1.4604
 3756SOL     OW22900   4.610   1.978   3.457  0.1117 -0.3727  0.7103
 3756SOL    HW122901   4.637   1.898   3.412 -2.0735 -0.0986 -1.1122
 3756SOL    HW222902   4.565   2.019   3.383  1.1984 -0.7493 -0.1544
 3757SOL     OW22903   3.410   3.326   4.494 -0.4321  0.2059  0.0712
 3757SOL    HW122904   3.469   3.392   4.531  2.9648 -1.9671 -1.4822
 3757SOL    HW222905   3.427   3.249   4.550  0.4285 -0.6008 -1.3015
 3758SOL     OW22906   2.117   1.627   2.348  0.1069 -0.1327 -0.3414
 3758SOL    HW122907   2.073   1.664   2.271 -0.6610  2.4918  1.3386
 3758SOL    HW222908   2.206   1.660   2.338  0.7122 -1.9814 -1.0767
 3759SOL     OW22909   0.601   1.842   3.239  0.2225  0.0667  0.5098
 3759SOL    HW122910   0.687   1.884   3.244  0.6695 -0.9043  0.9135
 3759SOL    HW222911   0.555   1.885   3.311 -0.4896 -0.8573  0.6113
 3760SOL     OW22912   3.928   4.106   4.685 -1.2401  0.1907 -0.0101
 3760SOL    HW122913   4.010   4.117   4.636 -0.2841 -0.5425  1.4386
 3760SOL    HW222914   3.888   4.192   4.673  4.4400  2.2596 -4.1956
 3761SOL     OW22915   2.258   3.566   8.957 -0.0065  0.4705 -0.0413
 3761SOL    HW122916   2.329   3.605   8.906  2.6823 -1.2532  2.3627
 3761SOL    HW222917   2.228   3.508   8.887 -0.1620  0.1984  0.2510
 3762SOL     OW22918   2.343   2.753  16.660 -0.2179 -0.2148  0.0578
 3762SOL    HW122919   2.335   2.761  16.564 -0.1135 -0.6760  0.0096
 3762SOL    HW222920   2.351   2.658  16.662 -2.2815 -0.4060 -0.2710
 3763SOL     OW22921   1.718   1.125   0.609  0.1479 -0.3779 -0.1902
 3763SOL    HW122922   1.741   1.210   0.647  0.6305 -0.5957  0.0007
 3763SOL    HW222923   1.692   1.073   0.685  2.1039 -1.4643 -0.2719
 3764SOL     OW22924   2.632   2.502  16.964 -0.0278 -0.1915  0.3317
 3764SOL    HW122925   2.639   2.576  16.904 -0.0710  1.9197  2.9682
 3764SOL    HW222926   2.536   2.495  16.964  0.0491 -1.2252  1.3852
 3765SOL     OW22927   0.344   2.114  16.617  0.2008 -0.4980 -0.3192
 3765SOL    HW122928   0.285   2.090  16.688 -0.7144  1.9127 -0.2656
 3765SOL    HW222929   0.285   2.100  16.544 -0.6410  0.1257  0.2385
 3766SOL     OW22930   3.421   0.372  13.399  0.3497 -0.0812  0.2645
 3766SOL    HW122931   3.359   0.420  13.344  1.1730  0.7064  0.0186
 3766SOL    HW222932   3.481   0.337  13.332  0.2614 -0.3162  0.3079
 3767SOL     OW22933   0.700   3.836   0.652  0.7306  0.2024  0.6346
 3767SOL    HW122934   0.610   3.805   0.644  1.4000 -0.6840 -3.2818
 3767SOL    HW222935   0.691   3.921   0.696 -0.4545  1.4905 -2.0775
 3768SOL     OW22936   0.210   2.499   4.027 -0.9198  0.2121 -0.1386
 3768SOL    HW122937   0.206   2.529   4.118  1.1673 -2.0973  0.6792
 3768SOL    HW222938   0.288   2.539   3.988 -0.3228 -0.2641  0.5729
 3769SOL     OW22939   4.337   4.160   6.747 -0.1400 -0.3680 -0.3792
 3769SOL    HW122940   4.339   4.076   6.701  2.1689  0.3644 -1.5750
 3769SOL    HW222941   4.431   4.175   6.747 -0.1550 -0.2737 -0.2975
 3770SOL     OW22942   2.449   4.384   1.784  0.2277  0.0021 -0.3859
 3770SOL    HW122943   2.458   4.417   1.873 -0.2989  1.0338 -0.7205
 3770SOL    HW222944   2.525   4.333   1.754  0.4899  0.8877 -1.2331
 3771SOL     OW22945   3.933   2.205   7.868 -0.1231 -0.4814 -0.9838
 3771SOL    HW122946   3.864   2.141   7.852 -0.2075 -0.8484  0.8529
 3771SOL    HW222947   3.926   2.206   7.964  1.0684  0.2528 -0.8947
 3772SOL     OW22948   1.005   2.882   7.253 -0.1591 -0.3745 -0.3733
 3772SOL    HW122949   1.057   2.955   7.220 -0.0969  0.5187  1.6972
 3772SOL    HW222950   1.072   2.814   7.262  1.5678  1.0665 -2.2247
 3773SOL     OW22951   1.273   4.664   6.326 -0.3311 -0.6479  0.0459
 3773SOL    HW122952   1.263   4.727   6.254 -1.3117  1.4617  2.0588
 3773SOL    HW222953   1.303   4.589   6.275 -0.1227 -0.0576 -0.7085
 3774SOL     OW22954   1.044   0.955   5.617 -0.4639 -0.0810 -0.4405
 3774SOL    HW122955   1.026   0.960   5.523 -3.0057 -0.0675  0.0620
 3774SOL    HW222956   1.036   0.862   5.640  0.8696  0.6083  2.8877
 3775SOL     OW22957   3.604   3.408   1.649 -0.4906  0.0831  0.6634
 3775SOL    HW122958   3.667   3.476   1.625 -0.1400 -0.4685  0.0277
 3775SOL    HW222959   3.636   3.331   1.602  0.0191  0.9295 -0.3961
 3776SOL     OW22960   4.713   4.425   8.071  0.1261 -0.0838 -0.2039
 3776SOL    HW122961   4.640   4.390   8.021  0.4662 -0.6670 -0.2848
 3776SOL    HW222962   0.014   4.343   8.103  0.0782  0.6904  1.8879
 3777SOL     OW22963   0.171   0.860   2.701 -0.2473  0.2271 -0.3468
 3777SOL    HW122964   0.157   0.906   2.619 -2.4519 -1.3635 -0.8506
 3777SOL    HW222965   0.165   0.936   2.759 -1.7852  0.5711 -0.9677
 3778SOL     OW22966   2.778   3.519   8.086  0.6061 -0.1904  0.1357
 3778SOL    HW122967   2.859   3.523   8.138  0.2140  1.5818  0.6302
 3778SOL    HW222968   2.808   3.515   7.995 -0.6928 -0.4067 -0.2767
 3779SOL     OW22969   3.041   1.339   3.495 -0.0765  0.5376  0.1963
 3779SOL    HW122970   3.038   1.274   3.425 -2.4084 -0.6205  1.3720
 3779SOL    HW222971   3.015   1.420   3.450 -0.7904  0.4283  0.4217
 3780SOL     OW22972   0.144   4.466   4.047 -0.5848 -0.0438  0.0938
 3780SOL    HW122973   0.054   4.496   4.031 -0.9245 -1.7738 -1.1570
 3780SOL    HW222974   0.163   4.424   3.963  1.0611 -1.2243  1.0742
 3781SOL     OW22975   1.699   3.234   6.275 -0.2148  0.4005 -0.2567
 3781SOL    HW122976   1.744   3.205   6.355  0.4909  0.6515 -0.5655
 3781SOL    HW222977   1.605   3.237   6.292 -0.1305  2.9702 -0.2308
 3782SOL     OW22978   1.372   3.768   6.370 -0.1271 -0.5936 -0.2574
 3782SOL    HW122979   1.414   3.845   6.332  0.7931 -1.4439 -0.9751
 3782SOL    HW222980   1.331   3.812   6.445  1.0365 -0.0442  0.0587
 3783SOL     OW22981   3.861   2.756   3.175  0.3812 -0.8990  0.4530
 3783SOL    HW122982   3.826   2.845   3.168 -1.7150 -1.5466  2.5885
 3783SOL    HW222983   3.792   2.709   3.223  0.5307 -2.5382 -0.9396
 3784SOL     OW22984   3.825   2.548   9.147  0.7422 -0.1791 -0.7044
 3784SOL    HW122985   3.902   2.583   9.193 -0.2145  1.9437 -0.7217
 3784SOL    HW222986   3.755   2.613   9.155  1.1264 -0.1570  2.2541
 3785SOL     OW22987   3.031   2.628   7.003 -0.1367 -0.0806  0.2429
 3785SOL    HW122988   2.986   2.579   6.934  0.2962  3.6440 -2.6903
 3785SOL    HW222989   3.105   2.663   6.952  1.5587 -0.2894  2.5708
 3786SOL     OW22990   0.824   4.189   9.157  0.1995 -0.3568  0.2844
 3786SOL    HW122991   0.788   4.222   9.074 -0.6914  0.7560  1.0993
 3786SOL    HW222992   0.835   4.095   9.146 -0.5664 -0.4340  0.1859
 3787SOL     OW22993   2.688   4.593   2.305  0.1600 -0.2345  0.0870
 3787SOL    HW122994   2.708   4.684   2.283 -1.3808 -0.1650 -1.0407
 3787SOL    HW222995   2.704   4.590   2.399  1.1891 -0.7863 -0.1050
 3788SOL     OW22996   0.312   4.202   8.021 -0.4656 -0.1239 -0.2931
 3788SOL    HW122997   0.362   4.283   8.013 -0.7493 -0.1560 -2.4225
 3788SOL    HW222998   0.236   4.212   8.079 -1.5149 -3.2852 -1.1331
 3789SOL     OW22999   0.165   3.577   3.294  0.2880 -0.3203  0.2211
 3789SOL    HW123000   0.194   3.667   3.284  0.1081 -0.2752  0.1118
 3789SOL    HW223001   0.246   3.526   3.290  1.9023  2.3298 -0.4115
 3790SOL     OW23002   0.764   2.022   9.481 -0.0438 -0.2828 -0.2152
 3790SOL    HW123003   0.723   2.041   9.397  1.4588 -1.5261 -1.2325
 3790SOL    HW223004   0.681   2.014   9.529  0.0994  1.1066  0.2759
 3791SOL     OW23005   4.043   4.704   2.357  0.4802 -0.3192  0.3872
 3791SOL    HW123006   3.960   0.010   2.335 -1.2528 -4.4438 -1.2509
 3791SOL    HW223007   4.097   0.033   2.400 -1.4742  2.8593 -2.0156
 3792SOL     OW23008   0.587   4.294   1.680  0.2457  0.2781 -0.0152
 3792SOL    HW123009   0.640   4.234   1.732  0.7921 -0.3693 -1.3092
 3792SOL    HW223010   0.646   4.368   1.673 -1.2687  1.4763 -0.1246
 3793SOL     OW23011   3.746   3.765   0.308  0.0227 -0.1643 -0.0932
 3793SOL    HW123012   3.769   3.694   0.369 -1.0710  0.0727  0.6076
 3793SOL    HW223013   3.712   3.705   0.242  1.1474 -1.6406  0.6614
 3794SOL     OW23014   0.392   1.776   2.029 -0.2027  0.0626  0.6666
 3794SOL    HW123015   0.390   1.872   2.027 -0.1407  0.0587  0.4261
 3794SOL    HW223016   0.370   1.757   1.938  1.5472 -1.2434  0.5188
 3795SOL     OW23017   4.317   4.508   9.212 -0.5536  0.0923 -0.5013
 3795SOL    HW123018   4.355   4.422   9.227 -0.5686 -0.0267 -1.1254
 3795SOL    HW223019   4.402   4.551   9.205 -0.2144 -0.5232 -0.0550
 3796SOL     OW23020   2.622   1.078   8.986  0.0701 -0.0600 -1.1200
 3796SOL    HW123021   2.603   1.155   9.040  1.0898 -0.0629 -0.7681
 3796SOL    HW223022   2.586   1.120   8.908  0.9239 -0.6216 -1.8155
 3797SOL     OW23023   4.675   0.346   5.858 -0.5637  0.3998 -0.0184
 3797SOL    HW123024   4.704   0.344   5.767 -0.5120 -0.4530  0.0143
 3797SOL    HW223025   4.581   0.334   5.848 -0.6468  0.1355  1.0569
 3798SOL     OW23026   2.281   2.670  17.211  0.5899 -0.2390  0.1237
 3798SOL    HW123027   2.223   2.692  17.284  0.5053 -0.5934  0.1649
 3798SOL    HW223028   2.327   2.606  17.265 -1.4190 -1.5544  0.2837
 3799SOL     OW23029   2.560   2.796   1.680 -0.3775  0.0698 -0.0550
 3799SOL    HW123030   2.550   2.705   1.653 -0.3288 -0.7509  2.6925
 3799SOL    HW223031   2.499   2.838   1.620 -0.3824 -0.0515 -0.1355
 3800SOL     OW23032   1.550   1.024   5.864 -0.3958 -0.1232 -0.4456
 3800SOL    HW123033   1.462   0.986   5.868 -0.6936  0.6948  0.7077
 3800SOL    HW223034   1.573   0.996   5.775  1.1025  0.4820 -0.2449
 3801SOL     OW23035   0.951   2.304   9.954  0.4698 -0.1365  0.7434
 3801SOL    HW123036   0.921   2.371  10.016 -1.1058 -0.8177  0.7333
 3801SOL    HW223037   1.042   2.283   9.974  0.6272 -0.9371 -0.8351
 3802SOL     OW23038   3.552   2.855   5.879 -0.0778  0.2441 -0.0143
 3802SOL    HW123039   3.480   2.801   5.848 -0.2558  2.6292 -3.6753
 3802SOL    HW223040   3.619   2.817   5.823  0.5034 -2.6726  2.7011
 3803SOL     OW23041   3.422   4.439   5.823 -0.5421 -0.3871 -0.0099
 3803SOL    HW123042   3.354   4.487   5.776  1.6739  1.8328 -1.0038
 3803SOL    HW223043   3.371   4.375   5.873 -0.9905 -1.5487 -1.9370
 3804SOL     OW23044   1.418   0.364   5.733 -0.1284 -0.1040 -0.2195
 3804SOL    HW123045   1.392   0.339   5.644 -0.2653 -1.7034  0.2812
 3804SOL    HW223046   1.483   0.297   5.751  1.0964  0.8277 -1.1434
 3805SOL     OW23047   3.644   4.158   4.025  0.0099 -0.1611 -0.0348
 3805SOL    HW123048   3.643   4.164   3.929 -0.8433  0.6743  0.0287
 3805SOL    HW223049   3.665   4.249   4.044 -0.1223 -0.3812  1.1207
 3806SOL     OW23050   2.821   3.918   3.687  0.1121 -0.0917  0.0256
 3806SOL    HW123051   2.901   3.877   3.656  0.0006 -0.2569 -0.0419
 3806SOL    HW223052   2.754   3.850   3.682 -0.1013  0.2340 -1.3440
 3807SOL     OW23053   2.963   4.219  13.282 -0.0917 -0.1448 -0.4246
 3807SOL    HW123054   2.879   4.176  13.272 -0.6048 -0.0706  3.3747
 3807SOL    HW223055   3.020   4.195  13.209 -0.2155  1.2023 -0.9611
 3808SOL     OW23056   2.949   4.556   3.404  0.2190  0.5358  0.2303
 3808SOL    HW123057   2.945   4.464   3.428  0.4366  0.6002  0.5189
 3808SOL    HW223058   2.983   4.596   3.484  0.6272  0.5393  0.0551
 3809SOL     OW23059   3.331   4.462   6.904 -0.0749 -0.9475 -0.4144
 3809SOL    HW123060   3.335   4.511   6.822 -0.8122 -0.8767 -0.4124
 3809SOL    HW223061   3.241   4.430   6.897 -0.2095 -0.6667  0.0402
 3810SOL     OW23062   0.555   3.980  17.683 -0.1651 -0.1309 -0.3102
 3810SOL    HW123063   0.630   4.034  17.707  0.7529 -2.2070  1.5130
 3810SOL    HW223064   0.570   3.963  17.590  2.3874 -1.4660  0.3226
 3811SOL     OW23065   3.686   2.682   2.796 -0.5581  0.1363  0.2476
 3811SOL    HW123066   3.751   2.611   2.797  1.7490  2.2386  1.1511
 3811SOL    HW223067   3.725   2.748   2.739  1.7313 -0.2061  1.4295
 3812SOL     OW23068   4.135   2.059   3.892 -0.0961 -0.4325  0.0262
 3812SOL    HW123069   4.209   2.014   3.850  2.1973 -1.0358  4.6310
 3812SOL    HW223070   4.079   1.982   3.905 -1.5223  0.8883  1.5087
 3813SOL     OW23071   2.213   4.613   8.867  0.1179 -0.0084 -0.3612
 3813SOL    HW123072   2.178   4.524   8.863  1.0819 -0.3005 -2.1413
 3813SOL    HW223073   2.159   4.639   8.942  1.3971  2.2964 -0.2125
 3814SOL     OW23074   3.605   0.098   0.718 -0.0810  0.6331 -0.6615
 3814SOL    HW123075   3.616   0.148   0.799  1.2229 -0.1623 -0.3470
 3814SOL    HW223076   3.692   0.090   0.679  0.3002 -0.9065  0.5081
 3815SOL     OW23077   3.435   1.812   0.114 -0.0583 -0.3020  0.6166
 3815SOL    HW123078   3.500   1.777   0.175 -0.8678  1.8857  2.6975
 3815SOL    HW223079   3.405   1.729   0.075 -0.4013 -0.6660  1.6411
 3816SOL     OW23080   1.611   2.789   7.453  0.2637 -0.2540  0.2892
 3816SOL    HW123081   1.565   2.860   7.496 -2.6769 -1.8736 -0.1506
 3816SOL    HW223082   1.539   2.746   7.406  0.5596 -0.5878  0.1412
 3817SOL     OW23083   4.307   2.600   3.260 -0.3557  0.2006  0.3475
 3817SOL    HW123084   4.260   2.678   3.229 -0.0549  0.9905  1.8848
 3817SOL    HW223085   4.397   2.625   3.239 -0.1904 -0.1972  0.5766
 3818SOL     OW23086   1.643   3.166   7.391  0.1392 -0.6661 -1.1460
 3818SOL    HW123087   1.717   3.159   7.451 -0.4252  1.5030 -0.2141
 3818SOL    HW223088   1.689   3.157   7.308  0.1502  0.0916 -1.2252
 3819SOL     OW23089   2.557   1.735   8.082  0.0678 -0.4280  0.1666
 3819SOL    HW123090   2.572   1.826   8.108  0.7884 -0.6415  0.4966
 3819SOL    HW223091   2.486   1.707   8.140  0.4803  0.1028  0.9330
 3820SOL     OW23092   0.689   1.926   8.548 -0.2235 -0.0375  0.1524
 3820SOL    HW123093   0.649   1.851   8.592 -0.7577  1.4199  2.1747
 3820SOL    HW223094   0.783   1.905   8.548 -0.8879 -2.9403 -0.8689
 3821SOL     OW23095   4.607   4.388   6.920 -0.3058 -0.3537 -0.7765
 3821SOL    HW123096   4.540   4.384   6.987  1.1683 -0.6198  0.6817
 3821SOL    HW223097   4.585   4.310   6.869 -3.2629 -1.5477  2.3191
 3822SOL     OW23098   4.084   0.943   4.669 -0.3127  0.8141  0.7781
 3822SOL    HW123099   4.052   0.873   4.613  0.6063  0.8121  0.2680
 3822SOL    HW223100   4.021   0.933   4.741 -0.3809 -0.2984  0.5584
 3823SOL     OW23101   2.144   3.034   5.548  0.1149  0.5538 -0.4767
 3823SOL    HW123102   2.111   3.050   5.459 -0.8302  2.2156  0.1759
 3823SOL    HW223103   2.211   2.966   5.543  0.5897  0.9212  1.0232
 3824SOL     OW23104   3.486   1.671   2.966  0.8557  0.5114 -0.0360
 3824SOL    HW123105   3.506   1.747   3.021  2.5769 -0.9839  1.4162
 3824SOL    HW223106   3.556   1.609   2.987 -0.2032 -0.7260 -0.1801
 3825SOL     OW23107   0.115   2.522  13.814  0.1393  0.1714 -0.0118
 3825SOL    HW123108   0.050   2.558  13.753 -0.2668  0.8144  0.7866
 3825SOL    HW223109   0.048   2.489  13.875  0.5787 -0.5507  0.0771
 3826SOL     OW23110   4.571   1.004   5.014  0.3069  0.3906 -0.4595
 3826SOL    HW123111   4.590   0.913   4.992  0.4625  0.3509 -0.1580
 3826SOL    HW223112   4.579   1.044   4.928  1.5528 -0.5894 -0.7995
 3827SOL     OW23113   2.536   0.605   5.400  0.1508 -0.1502 -0.4659
 3827SOL    HW123114   2.550   0.522   5.445 -0.3117  0.2844  0.4714
 3827SOL    HW223115   2.442   0.598   5.385  0.1537 -3.3573  1.0122
 3828SOL     OW23116   1.734   1.794   7.601 -0.1921 -0.3038 -0.1582
 3828SOL    HW123117   1.809   1.850   7.579 -1.6769  1.2170 -1.3768
 3828SOL    HW223118   1.782   1.711   7.603 -0.2286 -0.3256 -0.1940
 3829SOL     OW23119   0.168   2.395   6.575  0.4202 -0.1821 -0.2665
 3829SOL    HW123120   0.212   2.469   6.618 -2.8722  2.5587 -1.6176
 3829SOL    HW223121   0.156   2.325   6.640 -0.3362  0.1650 -0.0344
 3830SOL     OW23122   2.507   4.347   2.786  0.0080 -0.1832  0.1660
 3830SOL    HW123123   2.599   4.334   2.762  0.1970 -0.8888  1.2550
 3830SOL    HW223124   2.479   4.370   2.698 -0.1172 -0.0305  0.2454
 3831SOL     OW23125   2.582   4.244   3.975  0.7077 -0.2512  0.0876
 3831SOL    HW123126   2.635   4.166   3.958 -1.5973 -1.2333 -2.6740
 3831SOL    HW223127   2.562   4.281   3.889 -3.1852  0.3448  1.2474
 3832SOL     OW23128   0.255   3.779   2.159  0.6376 -0.0324 -0.0418
 3832SOL    HW123129   0.176   3.819   2.121 -0.4103  0.0673  2.2257
 3832SOL    HW223130   0.315   3.769   2.086  0.9864 -0.1966  0.2671
 3833SOL     OW23131   0.407   1.568  17.597 -0.2887  0.0057  0.1789
 3833SOL    HW123132   0.416   1.596  17.506  0.3433 -1.8863 -0.3246
 3833SOL    HW223133   0.367   1.644  17.639  0.3059 -0.5472  1.7602
 3834SOL     OW23134   1.298   3.792   3.730 -1.0699  0.5672  0.3092
 3834SOL    HW123135   1.318   3.838   3.811  0.6978 -0.6904  0.5899
 3834SOL    HW223136   1.202   3.796   3.735 -1.0002  0.5028  1.7537
 3835SOL     OW23137   0.242   0.082   8.904 -0.3792 -0.8105  0.0968
 3835SOL    HW123138   0.276   4.732   8.925  0.9958 -0.2562  0.1842
 3835SOL    HW223139   0.312   0.133   8.945 -0.4757 -1.6441  1.3006
 3836SOL     OW23140   2.261   3.784  17.221  0.0323  0.3877 -0.1364
 3836SOL    HW123141   2.305   3.865  17.196 -3.4462  1.7464 -1.8523
 3836SOL    HW223142   2.302   3.720  17.163 -0.1910 -0.5990  0.7753
 3837SOL     OW23143   1.091   2.778   9.458  0.5580  0.2785 -0.4856
 3837SOL    HW123144   1.139   2.827   9.524 -1.4328 -0.2837  1.3970
 3837SOL    HW223145   1.090   2.693   9.503  0.2079  0.4369 -0.1950
 3838SOL     OW23146   3.810   2.714   4.665 -0.8332 -0.2200  0.8552
 3838SOL    HW123147   3.876   2.646   4.656 -1.0341 -0.3852  0.6665
 3838SOL    HW223148   3.736   2.669   4.707  1.2421 -2.9879  1.5263
 3839SOL     OW23149   0.228   0.273  12.748 -0.3941  0.4554  0.4740
 3839SOL    HW123150   0.256   0.202  12.805 -0.4883  0.9411  1.1315
 3839SOL    HW223151   0.169   0.227  12.689  0.0515 -0.3191  0.6378
 3840SOL     OW23152   0.725   3.637   1.327 -0.5072 -0.2330  0.7823
 3840SOL    HW123153   0.732   3.632   1.231  2.6605  1.1201  0.9543
 3840SOL    HW223154   0.807   3.682   1.347 -0.0139 -1.2098  0.9873
 3841SOL     OW23155   3.957   2.797   2.859 -0.1516 -1.0076  0.3407
 3841SOL    HW123156   3.983   2.719   2.810  0.9159 -0.1539 -0.4519
 3841SOL    HW223157   3.894   2.753   2.916  0.3284  1.5781  2.8943
 3842SOL     OW23158   4.377   4.488  10.384 -0.2063 -0.4334 -0.7048
 3842SOL    HW123159   4.338   4.489  10.297 -0.9659 -1.2284 -0.3685
 3842SOL    HW223160   4.375   4.582  10.403 -1.2924 -0.7768  0.8754
 3843SOL     OW23161   1.463   0.281  13.860  0.3489 -0.1575 -0.0226
 3843SOL    HW123162   1.552   0.287  13.826  1.0410 -1.0718  1.5999
 3843SOL    HW223163   1.473   0.309  13.951 -0.8046  0.1539  0.0122
 3844SOL     OW23164   4.015   4.572   4.461  0.6725 -0.4829 -0.1904
 3844SOL    HW123165   3.968   4.489   4.466 -0.7282  0.3910  1.0300
 3844SOL    HW223166   4.044   4.579   4.552 -2.3969  0.9272  0.6838
 3845SOL     OW23167   4.109   4.380  17.108 -0.7362 -0.3973 -0.3875
 3845SOL    HW123168   4.172   4.357  17.040 -2.5367 -1.2342 -1.7691
 3845SOL    HW223169   4.161   4.365  17.188  1.3212 -0.4568 -1.7374
 3846SOL     OW23170   4.609   0.995   3.603 -0.3605 -0.0027  0.2418
 3846SOL    HW123171   4.587   0.905   3.579 -0.7548  0.0618  0.3515
 3846SOL    HW223172   4.533   1.033   3.559  0.0081 -0.7870 -1.0735
 3847SOL     OW23173   3.629   0.763   3.509  0.2380 -0.1429  0.0462
 3847SOL    HW123174   3.566   0.738   3.577 -1.9007  0.2142 -1.8031
 3847SOL    HW223175   3.583   0.713   3.442  1.6537  1.4533 -2.1012
 3848SOL     OW23176   2.045   4.221   6.171  0.0286 -0.3104  0.0923
 3848SOL    HW123177   2.131   4.264   6.172 -0.3913  0.5676 -1.7729
 3848SOL    HW223178   2.028   4.187   6.258 -1.3196 -0.7342 -0.3436
 3849SOL     OW23179   0.596   1.857  12.440  0.3747 -0.3837  0.0640
 3849SOL    HW123180   0.580   1.889  12.352  1.1207 -1.9307 -0.6272
 3849SOL    HW223181   0.687   1.828  12.431  0.8769  1.3331 -0.5172
 3850SOL     OW23182   3.976   0.878  13.970 -0.7901  0.0970 -0.6365
 3850SOL    HW123183   4.027   0.959  13.968  1.6837 -1.3823  1.3353
 3850SOL    HW223184   3.924   0.893  13.891 -0.6210 -0.5897 -0.8771
 3851SOL     OW23185   2.692   0.917  17.502  0.4581  0.1375 -0.2175
 3851SOL    HW123186   2.733   1.002  17.521  0.2765  0.1789 -0.0092
 3851SOL    HW223187   2.746   0.853  17.548  0.8293  0.1052 -0.6973
 3852SOL     OW23188   0.062   0.310   3.957  0.4080  0.2281  0.1567
 3852SOL    HW123189   0.038   0.333   4.047 -0.8067 -0.6714  0.0659
 3852SOL    HW223190   0.149   0.345   3.938 -0.2189  2.2149  0.9205
 3853SOL     OW23191   3.654   1.987   7.353 -0.2036 -0.4723 -0.0466
 3853SOL    HW123192   3.600   2.056   7.389 -2.8677 -1.4637 -2.1723
 3853SOL    HW223193   3.716   2.038   7.301  0.3521 -0.5394  0.5540
 3854SOL     OW23194   4.024   4.693   2.775  0.2384  0.0316  0.4195
 3854SOL    HW123195   3.951   0.017   2.768  0.7791  1.0323  3.4607
 3854SOL    HW223196   4.080   4.714   2.701  1.3233 -0.7672  1.0092
 3855SOL     OW23197   4.255   4.334   6.404 -0.6187  0.6369 -0.4096
 3855SOL    HW123198   4.334   4.389   6.402 -1.1569  1.3806 -1.4991
 3855SOL    HW223199   4.194   4.387   6.353 -0.2009  0.6426 -0.9059
 3856SOL     OW23200   3.893   1.634   6.142 -0.7001  0.3811 -0.2332
 3856SOL    HW123201   3.932   1.712   6.182  0.4124 -0.0939 -0.3950
 3856SOL    HW223202   3.877   1.675   6.057  4.1530 -0.7102 -1.6687
 3857SOL     OW23203   3.159   3.523   1.213  0.1696  0.0153 -0.3350
 3857SOL    HW123204   3.065   3.518   1.199  0.1952 -1.5157  0.0720
 3857SOL    HW223205   3.169   3.429   1.227 -2.7837 -0.0231  1.4863
 3858SOL     OW23206   1.746   0.059  13.872  0.8827  0.0385  0.2653
 3858SOL    HW123207   1.737   0.144  13.829 -1.9202 -2.0055 -3.1781
 3858SOL    HW223208   1.733   0.009  13.791 -1.7394  0.3625  0.4832
 3859SOL     OW23209   3.601   4.045  14.386 -0.2350 -0.1606 -0.9512
 3859SOL    HW123210   3.600   3.963  14.336 -1.6977 -0.6771 -0.0970
 3859SOL    HW223211   3.575   4.109  14.320 -0.3232  1.5756  0.7870
 3860SOL     OW23212   3.973   2.448   8.903 -0.3936 -0.4633 -0.2713
 3860SOL    HW123213   3.986   2.529   8.853 -3.5292  0.6468  0.7236
 3860SOL    HW223214   3.939   2.494   8.980 -2.7156 -0.7093 -1.1531
 3861SOL     OW23215   4.715   2.644   2.906  0.0868 -0.3927  0.2743
 3861SOL    HW123216   4.677   2.579   2.964 -3.1823  0.5601 -0.8389
 3861SOL    HW223217   0.032   2.701   2.961 -0.8001 -1.2459  2.0178
 3862SOL     OW23218   4.308   4.114   9.928 -0.4355  0.8757  0.0391
 3862SOL    HW123219   4.254   4.098   9.851 -0.8354 -4.1841  1.4025
 3862SOL    HW223220   4.399   4.113   9.902 -2.0866  0.8370 -5.6488
 3863SOL     OW23221   1.625   1.965   3.925 -0.0173 -0.1350 -0.1340
 3863SOL    HW123222   1.624   2.011   3.840  0.4865  2.0257  1.0281
 3863SOL    HW223223   1.572   1.889   3.903 -0.4358  0.8302 -2.5269
 3864SOL     OW23224   3.821   0.013   3.022  0.7002 -0.5203  0.1008
 3864SOL    HW123225   3.739   4.701   3.021  0.4359 -0.0822  0.1217
 3864SOL    HW223226   3.824   0.054   2.936 -0.7737 -1.6683 -0.4965
 3865SOL     OW23227   1.342   3.008   7.220  0.2296  0.4698 -0.7290
 3865SOL    HW123228   1.326   2.923   7.178  4.6695 -1.0010  0.5332
 3865SOL    HW223229   1.369   3.058   7.143 -0.3237 -1.2215 -2.0256
 3866SOL     OW23230   1.502   0.886   3.472  0.2518 -0.2800 -0.0758
 3866SOL    HW123231   1.592   0.875   3.438  0.0597 -0.8334 -0.4183
 3866SOL    HW223232   1.452   0.835   3.409  2.5743 -2.4170 -0.2079
 3867SOL     OW23233   1.303   4.594   5.919 -0.4679  0.7475 -0.0816
 3867SOL    HW123234   1.255   4.520   5.883 -2.2427  1.2955  1.0985
 3867SOL    HW223235   1.220   4.626   5.956 -0.2013  1.6770 -0.2858
 3868SOL     OW23236   1.205   0.967   0.701  0.0871  0.1838  0.1815
 3868SOL    HW123237   1.232   1.050   0.664 -0.1981  1.0725  1.9326
 3868SOL    HW223238   1.145   0.994   0.771  1.8508 -0.4080  1.9504
 3869SOL     OW23239   0.909   0.581   5.590  0.0684  0.2183  0.5431
 3869SOL    HW123240   0.857   0.654   5.624 -0.5851  0.4006 -0.8502
 3869SOL    HW223241   0.901   0.601   5.496 -0.3978  0.6167  0.6692
 3870SOL     OW23242   3.582   1.971  17.695 -0.2661 -0.0942  0.0581
 3870SOL    HW123243   3.511   1.923  17.738  0.4868  0.1645  1.5667
 3870SOL    HW223244   3.652   1.961   0.013 -0.4905 -1.7296  0.0666
 3871SOL     OW23245   1.650   0.152   1.070  0.1818  0.4537 -0.2403
 3871SOL    HW123246   1.679   0.179   0.983  1.1881  1.2256  0.3212
 3871SOL    HW223247   1.691   0.216   1.128 -1.7437  0.6089  0.9297
 3872SOL     OW23248   1.967   1.060  16.987 -0.3628 -0.1215 -0.1419
 3872SOL    HW123249   1.937   1.029  17.072 -0.4876  1.3789  0.3745
 3872SOL    HW223250   2.061   1.067  17.000 -0.5835  0.9400  0.8582
 3873SOL     OW23251   0.556   4.005   7.776 -0.1070 -0.2725 -0.2767
 3873SOL    HW123252   0.611   3.953   7.717  0.8852  0.4518  0.0095
 3873SOL    HW223253   0.597   3.990   7.861 -3.5455 -0.1192  1.3975
 3874SOL     OW23254   0.696   4.185   0.468  0.0308  0.2516 -0.0413
 3874SOL    HW123255   0.776   4.135   0.483 -0.1020  0.5127  1.5156
 3874SOL    HW223256   0.658   4.179   0.555  0.6572  1.3993  0.3091
 3875SOL     OW23257   1.375   4.548  15.262 -0.0961  0.4462 -0.4421
 3875SOL    HW123258   1.305   4.607  15.289  0.1850  0.2921  0.6089
 3875SOL    HW223259   1.450   4.576  15.314 -0.2762 -0.2791  0.2063
 3876SOL     OW23260   3.154   4.532   8.314  0.0872 -0.1405 -0.2701
 3876SOL    HW123261   3.181   4.552   8.404  0.0262 -1.0600 -0.0420
 3876SOL    HW223262   3.199   4.452   8.288  2.0005  0.5435  0.9340
 3877SOL     OW23263   0.948   0.588  13.320  0.2692 -0.0039  0.2298
 3877SOL    HW123264   0.994   0.669  13.343  1.6792 -0.7247 -0.0630
 3877SOL    HW223265   0.978   0.582  13.229  0.4148 -1.8664  0.4056
 3878SOL     OW23266   0.513   2.118   8.727  0.5441 -0.0944 -0.2037
 3878SOL    HW123267   0.447   2.156   8.786  0.9281 -1.2751  0.9781
 3878SOL    HW223268   0.493   2.159   8.643 -0.8871 -2.0130 -0.7978
 3879SOL     OW23269   0.629   3.329   1.632  0.0666 -0.3155  0.2570
 3879SOL    HW123270   0.634   3.279   1.714  1.8115 -0.7388 -0.1185
 3879SOL    HW223271   0.541   3.362   1.648 -0.0450 -1.3057  1.7274
 3880SOL     OW23272   2.148   2.257   4.074 -0.7936  0.4064  0.9198
 3880SOL    HW123273   2.109   2.211   4.148  0.3468  0.8160  1.7790
 3880SOL    HW223274   2.166   2.335   4.127  3.2764 -0.7073  1.1661
 3881SOL     OW23275   0.603   1.139   3.130 -0.0843  0.3564 -0.1567
 3881SOL    HW123276   0.692   1.175   3.136  0.0227 -0.3100  2.3921
 3881SOL    HW223277   0.578   1.168   3.043 -0.6600  0.2789 -0.0172
 3882SOL     OW23278   3.380   2.148   4.959 -0.1668  0.5131 -0.6206
 3882SOL    HW123279   3.432   2.100   5.024  1.4026  1.2524 -1.3352
 3882SOL    HW223280   3.338   2.080   4.907 -3.6433  0.9189  1.6076
 3883SOL     OW23281   3.731   3.183   5.101  0.1040 -0.1582 -0.0330
 3883SOL    HW123282   3.766   3.139   5.178 -1.6153 -1.0799  0.2371
 3883SOL    HW223283   3.666   3.245   5.136 -0.2347  0.2630 -1.3845
 3884SOL     OW23284   3.072   3.027   4.562  0.0265 -0.2648 -0.1616
 3884SOL    HW123285   3.123   3.004   4.484  0.0730  1.0626 -0.5299
 3884SOL    HW223286   3.017   3.099   4.531  2.9095  0.8765 -2.7049
 3885SOL     OW23287   0.803   2.058   0.437 -0.4030  0.0359  0.3146
 3885SOL    HW123288   0.719   2.103   0.440 -0.5295 -0.2636  1.4750
 3885SOL    HW223289   0.845   2.100   0.362 -4.1042 -0.1867 -1.8601
 3886SOL     OW23290   2.127   2.176   0.416 -0.0746  0.8876  0.1260
 3886SOL    HW123291   2.068   2.250   0.433 -1.8918 -0.1094 -1.9824
 3886SOL    HW223292   2.074   2.115   0.467 -0.7662  0.1466 -1.4993
 3887SOL     OW23293   0.844   0.527   3.303  0.3985  0.3878 -0.6767
 3887SOL    HW123294   0.779   0.592   3.327 -0.8000  0.2487 -3.6381
 3887SOL    HW223295   0.836   0.458   3.369  0.7078  1.8527  0.9051
 3888SOL     OW23296   1.533   4.017   7.456 -0.6367 -0.1039  0.6373
 3888SOL    HW123297   1.532   4.107   7.487 -2.2281  0.3553 -0.7684
 3888SOL    HW223298   1.597   3.980   7.518  1.2612 -0.3095 -1.4292
 3889SOL     OW23299   1.827   4.728   0.756 -0.1299 -0.0052  1.2608
 3889SOL    HW123300   1.880   4.675   0.698  0.0482  2.5099 -0.8839
 3889SOL    HW223301   1.837   4.690   0.843 -0.3554  0.2827  1.4159
 3890SOL     OW23302   3.364   3.569   8.233 -0.4050 -0.2342 -0.3218
 3890SOL    HW123303   3.395   3.507   8.298  1.3939 -0.1286 -1.0759
 3890SOL    HW223304   3.397   3.534   8.150  0.0346  1.7149 -0.9762
 3891SOL     OW23305   3.629   4.475  15.970  0.3777  0.4709  0.2546
 3891SOL    HW123306   3.628   4.481  16.065  0.9671 -0.4533  0.3119
 3891SOL    HW223307   3.723   4.483  15.960  0.4566  1.1456  1.5027
 3892SOL     OW23308   3.921   2.948  16.984 -0.0143 -0.0738 -0.5644
 3892SOL    HW123309   3.935   2.947  16.889  2.8072  2.1097 -0.1813
 3892SOL    HW223310   3.866   3.025  16.996 -1.3497 -0.9500 -1.1196
 3893SOL     OW23311   1.262   0.900   8.062  0.0162 -0.2545  0.2946
 3893SOL    HW123312   1.259   0.995   8.075 -0.2311 -0.4592  1.7032
 3893SOL    HW223313   1.306   0.869   8.140 -0.2482  0.0699  0.5739
 3894SOL     OW23314   4.467   4.513   4.138  0.2736 -0.5651 -0.2334
 3894SOL    HW123315   4.536   4.566   4.098  0.5450  0.2138  1.3153
 3894SOL    HW223316   4.401   4.525   4.070 -0.6415 -1.7216  0.4551
 3895SOL     OW23317   0.291   1.515   6.300 -0.3632  0.1448  0.0954
 3895SOL    HW123318   0.237   1.495   6.224 -0.2692 -0.2100  0.1215
 3895SOL    HW223319   0.335   1.431   6.308  0.0210  0.1484 -2.1726
 3896SOL     OW23320   4.406   1.799   9.044 -0.4138 -0.2675  0.1940
 3896SOL    HW123321   4.410   1.712   9.083  2.9869 -0.8830 -1.5697
 3896SOL    HW223322   4.413   1.858   9.119  1.7702 -1.5028  0.9369
 3897SOL     OW23323   2.916   0.450  14.960 -0.6625  0.3517 -0.1542
 3897SOL    HW123324   2.874   0.364  14.957 -0.4089  0.1393  1.8464
 3897SOL    HW223325   3.008   0.423  14.969 -0.6694  0.4487  0.2465
 3898SOL     OW23326   3.362   0.344   7.959 -0.3642  0.1977 -0.6209
 3898SOL    HW123327   3.363   0.389   8.043 -1.4311  0.3303 -0.6842
 3898SOL    HW223328   3.369   0.417   7.897  0.5018  0.1853 -0.5486
 3899SOL     OW23329   1.419   2.999   7.479 -0.3425 -0.0901  0.0280
 3899SOL    HW123330   1.418   2.986   7.384 -0.4107 -3.2704  0.4880
 3899SOL    HW223331   1.483   3.070   7.484 -1.0293  0.6039 -0.9690
 3900SOL     OW23332   1.688   3.343   9.136  0.3371 -0.1279  0.3853
 3900SOL    HW123333   1.711   3.415   9.195 -1.7181 -1.1117  2.3788
 3900SOL    HW223334   1.735   3.267   9.169  1.6927  0.5903  0.1226
 3901SOL     OW23335   3.574   1.752   7.443  0.1076 -0.0164  0.4845
 3901SOL    HW123336   3.597   1.841   7.417  2.6634 -0.8364 -0.1611
 3901SOL    HW223337   3.655   1.710   7.412 -1.0088 -0.9659 -1.1625
 3902SOL     OW23338   3.694   4.476   7.119  0.4042  0.1420  0.6207
 3902SOL    HW123339   3.625   4.526   7.161  0.3802  0.1259  0.6006
 3902SOL    HW223340   3.642   4.418   7.063  0.3985 -0.2945  1.0765
 3903SOL     OW23341   0.250   2.692   7.562 -0.1071  0.6394  0.4528
 3903SOL    HW123342   0.278   2.612   7.607  1.4767  1.1867  0.4412
 3903SOL    HW223343   0.167   2.713   7.606 -0.3376 -1.4825  1.0252
 3904SOL     OW23344   3.259   3.069   7.648 -0.5758  0.1201  0.4387
 3904SOL    HW123345   3.170   3.035   7.639 -0.3135  0.3734 -3.0334
 3904SOL    HW223346   3.310   3.010   7.702  0.4569  0.7193  0.1186
 3905SOL     OW23347   3.475   3.927   6.895 -0.6632 -0.2273  0.3763
 3905SOL    HW123348   3.433   4.013   6.900 -1.0362 -0.4864  1.5352
 3905SOL    HW223349   3.433   3.880   6.967  0.9757 -0.0997  1.4218
 3906SOL     OW23350   4.592   3.693  11.916 -0.2576  0.0310 -0.0429
 3906SOL    HW123351   4.533   3.662  11.985 -2.2861  0.9980 -1.3352
 3906SOL    HW223352   4.631   3.767  11.961  2.6788 -0.7026 -1.3748
 3907SOL     OW23353   4.301   3.541   7.391  0.1992  0.0635  0.2573
 3907SOL    HW123354   4.322   3.633   7.377  2.4895 -0.8605 -2.3754
 3907SOL    HW223355   4.241   3.551   7.465  3.5352 -0.2669  2.9837
 3908SOL     OW23356   2.308   3.704   4.649  0.2607  0.0033 -0.8693
 3908SOL    HW123357   2.318   3.741   4.736 -1.0950 -0.1955 -0.6245
 3908SOL    HW223358   2.366   3.764   4.602  0.7472 -0.3520 -0.7219
 3909SOL     OW23359   3.005   3.695   1.383  0.0924  0.4799  0.2608
 3909SOL    HW123360   3.047   3.689   1.469  2.0560  0.4002 -0.6943
 3909SOL    HW223361   3.078   3.670   1.326 -0.2838 -0.9020  0.3907
 3910SOL     OW23362   3.853   3.994   9.595  0.4247 -0.8108  0.1134
 3910SOL    HW123363   3.820   4.034   9.515  0.1322 -0.8371  0.2194
 3910SOL    HW223364   3.776   3.990   9.653  0.9824 -0.7025  0.8667
 3911SOL     OW23365   0.231   2.995   6.783 -0.4317  0.2581  0.2759
 3911SOL    HW123366   0.229   3.018   6.875  2.0077  1.4048  0.0431
 3911SOL    HW223367   0.325   2.993   6.764 -0.5342 -1.8656 -0.0289
 3912SOL     OW23368   3.058   1.533   9.093  0.2090  0.3066  0.3076
 3912SOL    HW123369   3.111   1.455   9.104  0.1135 -0.2577 -3.3106
 3912SOL    HW223370   2.968   1.502   9.081  0.6510 -1.2899  1.1621
 3913SOL     OW23371   0.943   3.008   9.386  0.8521 -0.0874 -0.5381
 3913SOL    HW123372   0.988   2.924   9.396  0.9420 -0.1611 -1.5930
 3913SOL    HW223373   0.984   3.067   9.449  0.9500  0.9596 -1.5717
 3914SOL     OW23374   3.946   1.796   1.887  0.1880 -0.1036  0.0442
 3914SOL    HW123375   3.931   1.723   1.828 -0.6580 -0.6587  0.9344
 3914SOL    HW223376   3.883   1.860   1.854  0.5215  0.9311  1.4257
 3915SOL     OW23377   2.252   1.178  10.874  0.4850 -0.0890  0.1922
 3915SOL    HW123378   2.174   1.147  10.830 -0.5193 -1.4049  2.8683
 3915SOL    HW223379   2.290   1.091  10.887 -1.5869 -0.8412  1.2360
 3916SOL     OW23380   1.882   2.271   0.229 -0.2537  0.0561 -0.0637
 3916SOL    HW123381   1.885   2.225   0.145 -0.0330  1.9865 -1.1007
 3916SOL    HW223382   1.965   2.316   0.218 -0.3483  0.6655  1.6238
 3917SOL     OW23383   1.894   2.945   5.634 -0.5328 -0.3993  0.5212
 3917SOL    HW123384   1.977   2.978   5.601  0.1161  0.3139  2.8998
 3917SOL    HW223385   1.879   2.861   5.589 -1.7416  0.9124 -1.5310
 3918SOL     OW23386   4.097   3.328  15.299 -0.4466  0.3258  0.0669
 3918SOL    HW123387   4.105   3.323  15.394 -0.0106 -0.1770  0.0006
 3918SOL    HW223388   4.030   3.395  15.282 -1.5097 -0.7277  0.0667
 3919SOL     OW23389   1.976   0.142   9.332  0.4019 -0.3380 -0.0450
 3919SOL    HW123390   1.953   0.066   9.385  0.8567 -0.0352  0.5909
 3919SOL    HW223391   1.999   0.207   9.399 -2.2599 -0.8134  1.3109
 3920SOL     OW23392   2.405   2.227  17.118  0.2033 -0.3532 -0.4145
 3920SOL    HW123393   2.349   2.262  17.188 -0.4611 -2.3666  0.0602
 3920SOL    HW223394   2.350   2.241  17.041 -1.9830 -0.8486  1.0703
 3921SOL     OW23395   2.446   1.137   3.738 -0.3999 -0.5702  0.3741
 3921SOL    HW123396   2.429   1.052   3.779  0.0180  0.3606  2.4689
 3921SOL    HW223397   2.520   1.170   3.788 -0.6351 -1.6833  1.4490
 3922SOL     OW23398   1.598   2.460  11.381 -0.6624  0.1532 -0.3938
 3922SOL    HW123399   1.659   2.511  11.328 -2.4646  1.8047 -0.9166
 3922SOL    HW223400   1.656   2.402  11.430 -1.8697 -0.7125  0.0257
 3923SOL     OW23401   1.217   0.536   2.079 -0.4582  0.0305 -0.3359
 3923SOL    HW123402   1.161   0.568   2.150  1.9468 -0.5380  1.8415
 3923SOL    HW223403   1.141   0.504   2.029 -0.6513  0.4152 -0.2880
 3924SOL     OW23404   1.515   4.537   6.083 -0.0925 -0.1555  0.0804
 3924SOL    HW123405   1.565   4.617   6.098  1.6672 -0.7230 -2.6199
 3924SOL    HW223406   1.463   4.571   6.009 -2.3215  0.1460  1.7776
 3925SOL     OW23407   1.032   4.614   9.660  0.0556  0.1803  0.0173
 3925SOL    HW123408   1.105   4.653   9.709  0.5593 -0.1413 -0.4648
 3925SOL    HW223409   1.009   4.541   9.718  0.0273 -0.1438 -0.4036
 3926SOL     OW23410   2.736   3.232   1.581  0.3404 -0.3018 -0.3282
 3926SOL    HW123411   2.706   3.167   1.517 -1.8985  1.4520 -1.0597
 3926SOL    HW223412   2.706   3.198   1.666 -0.4440 -0.6226 -0.7359
 3927SOL     OW23413   4.603   2.321   1.812 -0.5918 -0.3029  0.0095
 3927SOL    HW123414   4.599   2.349   1.903 -0.6543  1.9313 -0.6835
 3927SOL    HW223415   4.657   2.243   1.824 -1.3124 -1.3019 -3.1923
 3928SOL     OW23416   2.908   1.248   3.102 -0.2949 -0.0235  0.0459
 3928SOL    HW123417   2.827   1.217   3.062  0.1133  1.4922 -1.9321
 3928SOL    HW223418   2.926   1.320   3.042 -2.4183 -0.3448 -1.0014
 3929SOL     OW23419   2.787   3.346  12.079  0.0902 -0.0064  0.0102
 3929SOL    HW123420   2.877   3.368  12.055 -0.2645  0.7799 -0.6163
 3929SOL    HW223421   2.774   3.411  12.149  0.2840  1.4312 -1.2844
 3930SOL     OW23422   0.512   2.781   5.319 -0.1836  0.0443  0.0809
 3930SOL    HW123423   0.511   2.858   5.375  0.4801  0.2367 -0.1683
 3930SOL    HW223424   0.602   2.767   5.289  0.3582  0.2214  1.6470
 3931SOL     OW23425   4.170   3.945   5.113 -0.1433  0.0755  0.3047
 3931SOL    HW123426   4.083   3.913   5.090  0.1721  0.1103 -0.9800
 3931SOL    HW223427   4.149   4.006   5.183 -2.3986 -0.8093  0.3871
 3932SOL     OW23428   3.501   2.978   4.971  0.2205  0.0128  0.0776
 3932SOL    HW123429   3.542   2.980   4.885 -0.5311 -2.9402 -0.3346
 3932SOL    HW223430   3.536   3.054   5.018  1.5463 -2.2381  2.7759
 3933SOL     OW23431   1.136   3.165   2.226 -0.5603  0.2771 -0.1900
 3933SOL    HW123432   1.186   3.202   2.299  2.1371  0.7165 -2.2779
 3933SOL    HW223433   1.204   3.143   2.162 -0.3213 -1.9782  0.8374
 3934SOL     OW23434   2.777   2.963   6.348  0.1472  0.3057  0.3807
 3934SOL    HW123435   2.841   2.970   6.419 -0.0767 -2.0873  0.8243
 3934SOL    HW223436   2.799   2.871   6.331 -2.5277 -0.5255  1.4481
 3935SOL     OW23437   3.732   2.455   7.456  0.3616 -0.5016 -0.5898
 3935SOL    HW123438   3.758   2.538   7.417 -0.3933 -1.1370 -2.4264
 3935SOL    HW223439   3.752   2.389   7.389 -0.4714 -1.3867  0.0246
 3936SOL     OW23440   3.780   3.136   8.380 -0.3437  0.2179 -0.7054
 3936SOL    HW123441   3.829   3.086   8.445 -1.1537  1.1881  0.6503
 3936SOL    HW223442   3.850   3.165   8.321  0.7912 -2.6674 -0.7616
 3937SOL     OW23443   4.575   3.025   4.173 -0.2721 -0.2868  0.0829
 3937SOL    HW123444   4.656   2.977   4.193  0.8436  1.0062 -1.3065
 3937SOL    HW223445   4.502   2.977   4.211  1.0558 -1.6319  0.9151
 3938SOL     OW23446   0.413   2.579   1.891 -0.1082 -0.3072 -0.1634
 3938SOL    HW123447   0.432   2.666   1.924  0.8177 -0.0360 -1.3865
 3938SOL    HW223448   0.417   2.529   1.972 -0.1429  2.1933  1.3595
 3939SOL     OW23449   4.170   3.452   2.478  0.3923 -0.2790  0.0880
 3939SOL    HW123450   4.086   3.413   2.500  1.4455 -3.4946 -1.5322
 3939SOL    HW223451   4.144   3.533   2.435  0.8767  0.9718  2.1429
 3940SOL     OW23452   3.626   3.449   3.225  0.2411 -0.2857  0.0749
 3940SOL    HW123453   3.694   3.395   3.266 -1.0030 -0.7986  1.4988
 3940SOL    HW223454   3.639   3.533   3.270  1.4502 -0.3013 -0.2444
 3941SOL     OW23455   2.236   2.056   6.005  0.7379 -0.4753 -0.2881
 3941SOL    HW123456   2.273   1.986   6.059 -1.5863 -1.8950 -0.5301
 3941SOL    HW223457   2.143   2.039   6.016  0.9694 -1.1773  0.5525
 3942SOL     OW23458   3.649   3.819  16.462  0.5617 -0.6244  0.3947
 3942SOL    HW123459   3.644   3.738  16.412 -1.8217 -1.4211  1.9120
 3942SOL    HW223460   3.574   3.812  16.521  0.6419 -1.5085  0.3871
 3943SOL     OW23461   3.164   3.222   3.407  0.6342  0.1815 -0.1775
 3943SOL    HW123462   3.200   3.139   3.376 -0.2081  0.3256 -1.5585
 3943SOL    HW223463   3.071   3.200   3.395  1.5133 -2.3173 -2.3459
 3944SOL     OW23464   0.246   0.219   7.500  0.2293 -0.6081 -0.3833
 3944SOL    HW123465   0.289   0.266   7.428  2.0856 -0.5587  0.7733
 3944SOL    HW223466   0.268   0.269   7.579 -1.8380 -0.5439  0.1370
 3945SOL     OW23467   1.008   0.577   8.243  0.3649  0.0811  0.0651
 3945SOL    HW123468   1.031   0.630   8.167  0.9906 -3.0312 -1.8960
 3945SOL    HW223469   1.009   0.492   8.200 -1.3108  0.7579 -1.3444
 3946SOL     OW23470   0.248   0.566   2.743 -0.6700 -0.3060  0.1605
 3946SOL    HW123471   0.301   0.623   2.799  1.0352 -1.3819 -0.3349
 3946SOL    HW223472   0.224   0.630   2.677  0.2191  1.6813  1.7668
 3947SOL     OW23473   4.693   0.370   9.998 -0.0242 -0.0124 -0.0534
 3947SOL    HW123474   0.020   0.313  10.041 -0.0594  0.6292  0.8373
 3947SOL    HW223475   4.728   0.457  10.016 -0.9852 -0.0340  1.8499
 3948SOL     OW23476   1.897   3.168  15.463  0.5795  0.4426 -0.6010
 3948SOL    HW123477   1.815   3.196  15.420 -0.6895  0.2860  1.7230
 3948SOL    HW223478   1.867   3.088  15.506 -0.6509 -0.0186 -2.2881
 3949SOL     OW23479   2.242   2.385  17.389 -0.6573 -0.2405  0.1496
 3949SOL    HW123480   2.188   2.323  17.340 -1.3258 -0.3978  1.0730
 3949SOL    HW223481   2.189   2.404  17.467  1.0173 -1.3878  1.5679
 3950SOL     OW23482   2.651   4.150   5.155  0.1104 -0.0549  0.0429
 3950SOL    HW123483   2.709   4.199   5.097  0.0679 -1.0696 -0.8664
 3950SOL    HW223484   2.710   4.143   5.230 -1.0843  1.3656  1.0896
 3951SOL     OW23485   4.130   0.219  14.714  0.1493 -0.6670  0.0830
 3951SOL    HW123486   4.072   0.184  14.647  0.3335 -0.1449 -0.3516
 3951SOL    HW223487   4.071   0.280  14.758 -0.9122 -0.5645 -1.4885
 3952SOL     OW23488   2.678   4.362   5.595  0.5594  0.1437 -0.4018
 3952SOL    HW123489   2.589   4.395   5.584  0.3764 -1.0475 -2.4119
 3952SOL    HW223490   2.662   4.269   5.614 -1.0078  1.0028  2.5008
 3953SOL     OW23491   0.478   0.557   7.552  0.1693  0.4697 -0.2068
 3953SOL    HW123492   0.568   0.529   7.566  0.5181  0.8352 -1.7123
 3953SOL    HW223493   0.496   0.648   7.574  1.9060 -0.0813  0.6583
 3954SOL     OW23494   2.377   3.666  10.085  0.2242 -0.8040 -0.2483
 3954SOL    HW123495   2.353   3.751  10.122 -1.0654 -0.7629 -1.1817
 3954SOL    HW223496   2.320   3.608  10.135 -0.0747  0.6640  1.1061
 3955SOL     OW23497   1.683   0.700   2.699 -0.3698 -0.2657 -0.4223
 3955SOL    HW123498   1.637   0.639   2.757 -0.2042  2.0137  2.1058
 3955SOL    HW223499   1.671   0.782   2.746 -0.6083 -0.4266 -0.2036
 3956SOL     OW23500   1.520   2.549   7.787 -0.1651  0.6357  0.4899
 3956SOL    HW123501   1.539   2.642   7.797  1.7546  0.3876 -0.8279
 3956SOL    HW223502   1.446   2.550   7.726  0.9369 -0.4901 -0.8570
 3957SOL     OW23503   2.128   1.877   4.138 -0.2668 -0.1825 -0.8308
 3957SOL    HW123504   2.121   1.926   4.056 -1.1580  0.5374 -0.3211
 3957SOL    HW223505   2.076   1.804   4.102  0.1040 -0.7992 -0.0974
 3958SOL     OW23506   4.305   4.622   0.548 -0.3371 -0.4651  0.3347
 3958SOL    HW123507   4.335   4.608   0.638 -1.5654  1.1447  0.9921
 3958SOL    HW223508   4.284   4.539   0.504 -1.2068  0.1747 -0.4500
 3959SOL     OW23509   3.557   1.986   5.078  0.1676  0.2808  0.0919
 3959SOL    HW123510   3.553   1.906   5.026  0.4883 -0.6673  1.5194
 3959SOL    HW223511   3.636   1.976   5.132  1.0997  0.0004 -1.3324
 3960SOL     OW23512   4.729   3.739   1.910  0.5710 -0.0199  0.4331
 3960SOL    HW123513   4.681   3.716   1.830 -0.1603 -0.5224  1.0170
 3960SOL    HW223514   4.673   3.799   1.960  0.3634 -1.3179  1.7553
 3961SOL     OW23515   1.928   2.081   6.077  0.3122  0.0987 -0.0820
 3961SOL    HW123516   1.951   2.134   6.153  1.5529 -1.5186  0.6682
 3961SOL    HW223517   1.891   2.003   6.119  1.3276  0.3981  1.3375
 3962SOL     OW23518   4.130   3.608  17.069  0.4952  0.1653  0.0737
 3962SOL    HW123519   4.145   3.632  17.160  2.0035 -0.6719  0.0479
 3962SOL    HW223520   4.215   3.646  17.045  1.1320 -0.3156  1.6138
 3963SOL     OW23521   1.679   0.896   6.066 -0.3106 -0.0769 -0.4129
 3963SOL    HW123522   1.661   0.969   6.006  1.3086  0.4665 -0.2221
 3963SOL    HW223523   1.589   0.866   6.081 -0.4076  0.1335 -0.5586
 3964SOL     OW23524   0.604   3.896  15.813 -0.0860 -0.1056 -0.1179
 3964SOL    HW123525   0.691   3.871  15.782  0.5411  0.1383  1.4591
 3964SOL    HW223526   0.580   3.947  15.735 -0.9465 -0.4335 -0.0678
 3965SOL     OW23527   1.313   1.841   8.895  0.7177  0.4144 -0.1000
 3965SOL    HW123528   1.405   1.858   8.872  1.1792  1.6808  2.6953
 3965SOL    HW223529   1.332   1.805   8.982 -1.4322 -1.1966 -0.2831
 3966SOL     OW23530   1.851   1.961   7.050  0.6103 -0.1637 -0.2864
 3966SOL    HW123531   1.905   1.886   7.078 -0.8884 -1.0457  0.2493
 3966SOL    HW223532   1.808   1.928   6.971 -0.3812  2.5926 -0.8871
 3967SOL     OW23533   0.098   0.303   8.114  0.6229 -0.0554  0.2183
 3967SOL    HW123534   0.092   0.327   8.022 -0.6261  0.9040  0.5489
 3967SOL    HW223535   0.186   0.313   8.150  0.5258  0.0233  0.4377
 3968SOL     OW23536   4.076   0.950   0.233  0.0401 -0.2060 -0.4181
 3968SOL    HW123537   4.092   0.975   0.142 -1.1486  0.8598 -0.3439
 3968SOL    HW223538   4.151   0.893   0.248 -0.7000 -1.0817 -0.0253
 3969SOL     OW23539   2.476   0.775   4.095  0.0868 -0.0624  0.4929
 3969SOL    HW123540   2.551   0.723   4.068  1.8529  2.5215  0.4795
 3969SOL    HW223541   2.452   0.712   4.163  2.5008  0.2325  1.6022
 3970SOL     OW23542   3.382   3.308   6.004  1.0537  0.1286  0.4157
 3970SOL    HW123543   3.392   3.323   6.098 -2.8565 -2.5863  1.2540
 3970SOL    HW223544   3.357   3.216   5.993  1.5807 -0.0101  0.3561
 3971SOL     OW23545   0.636   4.399   4.406 -0.9738 -0.2669 -0.0188
 3971SOL    HW123546   0.632   4.401   4.502 -0.0657 -0.6636  0.0216
 3971SOL    HW223547   0.730   4.394   4.389 -1.2771  0.0356 -1.7176
 3972SOL     OW23548   4.060   2.319   6.517  0.3804  0.2851 -0.1981
 3972SOL    HW123549   3.993   2.251   6.512 -0.5621  0.9986  2.6567
 3972SOL    HW223550   4.024   2.368   6.443  0.8026  0.5029 -0.2581
 3973SOL     OW23551   0.152   2.068   6.845 -0.7280  0.3412  0.0862
 3973SOL    HW123552   0.116   1.987   6.882 -1.0479  0.9118  1.0125
 3973SOL    HW223553   0.159   2.057   6.750 -1.9328  1.1686 -0.1038
 3974SOL     OW23554   4.129   2.899   4.651  0.7048 -0.2322  0.0603
 3974SOL    HW123555   4.044   2.942   4.642  0.8570  0.3718  1.5260
 3974SOL    HW223556   4.184   2.976   4.662 -1.2876  1.1089  0.7360
 3975SOL     OW23557   2.626   3.670   9.967 -0.1199 -0.4851 -0.1671
 3975SOL    HW123558   2.542   3.651  10.008  0.0496  1.2415  0.9546
 3975SOL    HW223559   2.603   3.639   9.879  1.4663 -0.8650 -0.4603
 3976SOL     OW23560   2.599   3.200  14.216  0.1651 -0.3276 -0.2981
 3976SOL    HW123561   2.689   3.229  14.198  0.3534 -0.6868  0.0708
 3976SOL    HW223562   2.600   3.120  14.163 -0.5167  0.7286 -1.9194
 3977SOL     OW23563   0.742   0.526   1.008  0.1886 -0.2605  0.2647
 3977SOL    HW123564   0.837   0.524   0.992  0.1363 -2.5355  0.2556
 3977SOL    HW223565   0.724   0.616   1.037 -0.5693 -0.9602  1.9626
 3978SOL     OW23566   3.453   0.670   5.017  0.4728  0.2201 -0.0987
 3978SOL    HW123567   3.440   0.577   5.035 -1.5293  1.0419  2.6838
 3978SOL    HW223568   3.517   0.700   5.082  0.4661 -1.2519  0.5892
 3979SOL     OW23569   0.264   0.785   5.898 -0.4791  0.0455  0.2390
 3979SOL    HW123570   0.251   0.710   5.841 -1.5911  0.5372 -0.1500
 3979SOL    HW223571   0.292   0.849   5.832  1.2779  0.4181  1.3470
 3980SOL     OW23572   1.686   2.191   1.803  0.4340  0.4084 -0.2094
 3980SOL    HW123573   1.591   2.199   1.799  0.1747 -2.2971  0.3696
 3980SOL    HW223574   1.700   2.284   1.821 -0.1058  0.3683  0.4220
 3981SOL     OW23575   4.062   0.227   6.725  0.4495 -0.2890 -0.4307
 3981SOL    HW123576   4.093   0.305   6.769 -0.1132 -0.2771 -0.0516
 3981SOL    HW223577   3.996   0.266   6.668 -0.7301 -1.5500  0.0492
 3982SOL     OW23578   0.608   2.111  11.223  0.1904  0.0509  0.0768
 3982SOL    HW123579   0.526   2.110  11.272  0.5054  0.7856  0.6232
 3982SOL    HW223580   0.667   2.102  11.298  0.4654 -0.2148 -0.1748
 3983SOL     OW23581   1.391   2.804  17.179 -0.0063  0.0739 -0.8981
 3983SOL    HW123582   1.407   2.897  17.193  1.9335 -0.6068  1.4707
 3983SOL    HW223583   1.465   2.764  17.225  0.1973 -0.5542 -1.7866
 3984SOL     OW23584   0.443   4.505   7.238 -0.0383 -0.0714  0.2219
 3984SOL    HW123585   0.351   4.483   7.256 -0.4553  1.7010  0.2739
 3984SOL    HW223586   0.436   4.600   7.233  1.5440 -0.0938 -2.3235
 3985SOL     OW23587   1.821   2.457   0.931  0.4222  0.1667  0.1511
 3985SOL    HW123588   1.775   2.373   0.941  0.5592  0.3093  2.0258
 3985SOL    HW223589   1.751   2.521   0.944 -0.5830 -1.2550  1.8279
 3986SOL     OW23590   0.723   1.180  10.815  0.1502 -0.1811  0.5382
 3986SOL    HW123591   0.672   1.134  10.881 -0.8660  1.0409  0.5977
 3986SOL    HW223592   0.774   1.216  10.887  2.6378 -0.3955 -1.0955
 3987SOL     OW23593   0.950   2.426  12.477  0.1550 -0.2919  0.1217
 3987SOL    HW123594   0.935   2.332  12.487 -1.7811  0.0077  0.0372
 3987SOL    HW223595   0.896   2.434  12.398 -1.1031  0.0948  1.0198
 3988SOL     OW23596   3.583   4.416  17.346  0.2551  0.0947 -0.0452
 3988SOL    HW123597   3.523   4.432  17.273 -1.6565 -1.7614  1.1417
 3988SOL    HW223598   3.555   4.331  17.378  1.2723 -0.3253 -0.2630
 3989SOL     OW23599   0.119   3.170  13.642 -0.6879 -0.4087 -0.0134
 3989SOL    HW123600   0.156   3.111  13.575  1.1228 -0.9985  1.5135
 3989SOL    HW223601   0.045   3.211  13.598 -1.6372  0.0807  2.0850
 3990SOL     OW23602   4.437   4.148   6.050 -0.2556  0.0880  0.0524
 3990SOL    HW123603   4.400   4.080   6.106  2.2757 -0.3547  1.2106
 3990SOL    HW223604   4.472   4.203   6.120  1.0455 -1.3021  0.5075
 3991SOL     OW23605   3.893   3.624   5.164 -0.0407 -0.1904  0.1541
 3991SOL    HW123606   3.850   3.624   5.079  0.1813 -2.2479  0.0479
 3991SOL    HW223607   3.909   3.718   5.167 -0.7527 -0.0570 -0.0172
 3992SOL     OW23608   1.658   3.054   2.623  0.4642  0.3612  0.3704
 3992SOL    HW123609   1.715   3.093   2.689 -2.1294 -1.7666  3.9388
 3992SOL    HW223610   1.592   3.123   2.618 -0.1786 -0.3671 -1.1990
 3993SOL     OW23611   2.487   1.972   7.685  0.1404  0.0739 -0.3497
 3993SOL    HW123612   2.463   2.063   7.705 -1.9727 -0.9947  1.9354
 3993SOL    HW223613   2.498   1.985   7.590 -1.5317  0.4977 -0.4916
 3994SOL     OW23614   1.858   0.307   3.853 -0.3015  0.6451 -0.2466
 3994SOL    HW123615   1.912   0.231   3.873 -0.5141  0.4349 -0.4838
 3994SOL    HW223616   1.912   0.381   3.882  0.1854  0.0862  0.2703
 3995SOL     OW23617   0.347   3.132   7.661  0.3560  0.0744  0.2617
 3995SOL    HW123618   0.384   3.193   7.597 -0.2357 -3.5248 -3.4530
 3995SOL    HW223619   0.271   3.101   7.612  0.0032  1.6629 -0.2176
 3996SOL     OW23620   3.466   1.870  11.687 -0.2947  0.2182 -0.1138
 3996SOL    HW123621   3.467   1.824  11.771  0.4832 -0.3188 -0.4104
 3996SOL    HW223622   3.529   1.814  11.641  0.0996 -1.1140  2.0267
 3997SOL     OW23623   3.650   1.802  12.352  0.3050 -0.3222  0.0501
 3997SOL    HW123624   3.745   1.809  12.358 -0.0575  4.7869  0.2367
 3997SOL    HW223625   3.653   1.707  12.340 -2.2065 -0.5715  1.4798
 3998SOL     OW23626   2.056   4.644   5.352 -0.2264 -0.0812  0.2384
 3998SOL    HW123627   2.075   4.636   5.446 -0.0634  1.7050  0.3481
 3998SOL    HW223628   2.063   0.001   5.335  0.8632 -0.5845 -2.0785
 3999SOL     OW23629   0.557   4.175  12.429  0.3428 -0.0217  0.0442
 3999SOL    HW123630   0.608   4.170  12.510  1.7250  1.2129 -0.7492
 3999SOL    HW223631   0.588   4.251  12.380  1.9565 -0.5914  0.1785
 4000SOL     OW23632   1.725   4.422   1.418  0.1999  0.6847 -0.1571
 4000SOL    HW123633   1.779   4.494   1.386  1.5183  0.2374  1.0737
 4000SOL    HW223634   1.773   4.382   1.490  1.3872 -0.4029 -1.5521
 4001SOL     OW23635   3.766   2.315   4.291  0.4099 -0.1396  0.4630
 4001SOL    HW123636   3.736   2.351   4.374 -1.7880 -1.3005  0.1664
 4001SOL    HW223637   3.811   2.238   4.327  2.0089  0.2651 -0.6709
 4002SOL     OW23638   1.951   3.816   9.257 -0.1254 -0.1092  0.0203
 4002SOL    HW123639   2.005   3.875   9.310 -0.1069 -1.0487  1.0282
 4002SOL    HW223640   1.945   3.870   9.178 -3.7002 -1.0720 -0.3380
 4003SOL     OW23641   2.926   2.798   4.696  0.7034 -0.2077  0.8136
 4003SOL    HW123642   2.901   2.836   4.780  0.5571 -2.4976  1.8076
 4003SOL    HW223643   2.948   2.875   4.644 -2.1604 -0.5630 -0.8897
 4004SOL     OW23644   0.799   4.471   1.692  0.0690  0.3025  0.1023
 4004SOL    HW123645   0.890   4.441   1.690 -0.3083 -0.8592 -0.2285
 4004SOL    HW223646   0.802   4.539   1.625  1.7617 -1.3301 -1.4996
 4005SOL     OW23647   0.193   2.428  12.521  0.1156 -0.2206 -0.6844
 4005SOL    HW123648   0.132   2.355  12.511  1.9752 -1.8324 -0.2819
 4005SOL    HW223649   0.131   2.494  12.550  0.6114  1.2564 -2.9603
 4006SOL     OW23650   4.168   1.872   2.869 -0.3276 -1.0927  0.1187
 4006SOL    HW123651   4.151   1.863   2.963  0.3809 -2.6997  0.0907
 4006SOL    HW223652   4.201   1.784   2.851  0.8924 -0.8371  1.1143
 4007SOL     OW23653   0.850   2.959   8.427 -0.4567 -0.2209 -0.4848
 4007SOL    HW123654   0.827   2.872   8.459  0.1503 -0.1054  0.2502
 4007SOL    HW223655   0.875   2.936   8.337 -1.6399  3.9183 -1.8570
 4008SOL     OW23656   4.239   2.669   5.886  0.2028  0.0931 -0.1435
 4008SOL    HW123657   4.272   2.736   5.946 -0.5919 -2.1767  2.8191
 4008SOL    HW223658   4.269   2.709   5.804 -0.3783 -0.9168 -0.8489
 4009SOL     OW23659   3.802   0.193   3.936 -0.6093 -0.1108  0.0581
 4009SOL    HW123660   3.859   0.182   3.860 -0.2289  1.1379  0.1500
 4009SOL    HW223661   3.762   0.107   3.924  0.0952 -0.4807  0.4041
 4010SOL     OW23662   2.538   4.415   8.235 -0.0796  0.3501 -1.1121
 4010SOL    HW123663   2.585   4.442   8.314 -1.3216  3.3374 -1.4051
 4010SOL    HW223664   2.584   4.332   8.221  1.6286  0.7676  1.8214
 4011SOL     OW23665   0.693   1.952  10.813 -0.5944  0.2707 -0.0414
 4011SOL    HW123666   0.604   1.988  10.808 -0.1951  0.9938 -1.9369
 4011SOL    HW223667   0.731   1.967  10.727  1.1691  0.3187  0.7411
 4012SOL     OW23668   4.691   2.881   4.916  0.0016  0.4874 -0.0707
 4012SOL    HW123669   4.726   2.932   4.843 -1.7852 -0.6224 -1.6919
 4012SOL    HW223670   4.663   2.799   4.876  2.2901  0.5046 -1.7249
 4013SOL     OW23671   3.277   1.907   4.446  0.0065 -0.3933  0.0181
 4013SOL    HW123672   3.349   1.880   4.502 -0.3517  0.3619  0.8328
 4013SOL    HW223673   3.306   1.997   4.436  0.1965 -0.3895  0.6624
 4014SOL     OW23674   1.569   2.828   5.656 -0.1974  0.1964  0.2372
 4014SOL    HW123675   1.597   2.914   5.689  0.2908 -0.6139  1.9071
 4014SOL    HW223676   1.604   2.774   5.727 -1.7414 -0.9193  0.1395
 4015SOL     OW23677   4.648   0.724   2.709 -0.3713 -0.2935 -0.3063
 4015SOL    HW123678   4.639   0.653   2.772  0.0201 -0.0780 -0.0076
 4015SOL    HW223679   4.726   0.774   2.733  0.5458 -1.9093  0.0343
 4016SOL     OW23680   3.857   2.910   7.861  0.0087 -0.0414 -0.2353
 4016SOL    HW123681   3.903   2.891   7.779  1.7159  3.6288 -0.1066
 4016SOL    HW223682   3.935   2.930   7.914  0.2746 -0.4176 -0.4781
 4017SOL     OW23683   0.648   1.785   3.879 -0.3200  0.5070 -0.1131
 4017SOL    HW123684   0.664   1.848   3.950  2.2593  0.3953 -0.5996
 4017SOL    HW223685   0.622   1.710   3.933 -0.9131  0.0161 -1.0884
 4018SOL     OW23686   2.402   4.062   7.367 -0.0146  0.5088 -0.4651
 4018SOL    HW123687   2.365   3.979   7.335 -2.4454  0.6972  1.8660
 4018SOL    HW223688   2.449   4.086   7.287  0.3604 -2.2312 -1.0845
 4019SOL     OW23689   0.659   1.650   8.160 -0.2703  0.1627 -0.3316
 4019SOL    HW123690   0.617   1.722   8.207 -1.5252  0.4091 -1.8073
 4019SOL    HW223691   0.576   1.607   8.139  0.5695 -0.6832 -1.9311
 4020SOL     OW23692   1.693   0.980  15.293 -0.4957 -0.5293  0.0354
 4020SOL    HW123693   1.672   0.986  15.200  3.7029  1.3183 -0.8030
 4020SOL    HW223694   1.644   1.059  15.318  2.1902  2.0725 -2.8750
 4021SOL     OW23695   0.081   1.073   9.272  0.4377  0.5300 -0.4261
 4021SOL    HW123696   0.111   1.143   9.330  0.5309 -0.2836  0.4988
 4021SOL    HW223697   0.153   1.068   9.209 -1.0359  0.1826 -2.0999
 4022SOL     OW23698   0.940   2.985   9.876  0.1621  0.2853  0.1644
 4022SOL    HW123699   0.869   2.933   9.839  1.1588  0.1710 -1.6032
 4022SOL    HW223700   1.015   2.926   9.879 -0.4665 -0.4748  0.7508
 4023SOL     OW23701   1.583   3.651   7.388 -0.5076  0.1759  0.3950
 4023SOL    HW123702   1.509   3.604   7.427 -1.7014  1.7486  0.0418
 4023SOL    HW223703   1.550   3.678   7.302 -2.5758 -2.7468  0.2649
 4024SOL     OW23704   2.478   1.252  15.870  0.0950  0.7625 -0.1158
 4024SOL    HW123705   2.449   1.184  15.931  1.2834  0.8213  0.5218
 4024SOL    HW223706   2.391   1.288  15.855 -0.7308 -0.3317  2.0865
 4025SOL     OW23707   2.151   2.983   0.043  0.0981  0.4846  0.2797
 4025SOL    HW123708   2.154   3.064  17.737 -0.7980  0.5530  0.3323
 4025SOL    HW223709   2.233   2.941   0.019  0.2767  0.1681  1.4886
 4026SOL     OW23710   3.754   3.424   8.783  0.4889  0.3526 -0.2611
 4026SOL    HW123711   3.749   3.520   8.785  2.1468  0.3574  2.7165
 4026SOL    HW223712   3.806   3.420   8.703  2.8335  0.2426  1.2593
 4027SOL     OW23713   3.543   3.216  17.305 -0.0549 -0.0519  0.5044
 4027SOL    HW123714   3.476   3.154  17.275 -0.3847 -0.1502  1.4339
 4027SOL    HW223715   3.524   3.290  17.247  1.7276 -0.1927 -0.2499
 4028SOL     OW23716   3.218   0.693   7.124  0.1127 -0.5247  0.3654
 4028SOL    HW123717   3.276   0.753   7.078  0.0258 -1.7607 -1.3455
 4028SOL    HW223718   3.224   0.725   7.214  0.7378  0.2547  0.0410
 4029SOL     OW23719   3.943   4.253   5.773 -0.4711  0.1338  0.0859
 4029SOL    HW123720   3.902   4.243   5.859  1.0671  0.2899  0.8366
 4029SOL    HW223721   4.010   4.317   5.795 -0.8505 -0.0179  1.6695
 4030SOL     OW23722   0.430   1.897   6.025 -0.2122 -0.2232  0.0123
 4030SOL    HW123723   0.461   1.851   6.103 -1.4386 -1.9895 -0.5541
 4030SOL    HW223724   0.475   1.981   6.037  0.7837 -0.7232 -0.2882
 4031SOL     OW23725   4.650   3.705   6.709 -0.4823 -0.4478 -0.3961
 4031SOL    HW123726   4.725   3.684   6.653 -0.3481 -3.8177  1.0595
 4031SOL    HW223727   4.676   3.647   6.780  0.6282  1.4664  0.7790
 4032SOL     OW23728   0.930   3.278   3.629 -0.5617 -0.3404 -0.4257
 4032SOL    HW123729   0.979   3.285   3.547 -0.2033  1.4661 -0.0535
 4032SOL    HW223730   0.924   3.182   3.622  0.6668 -0.5121  0.8339
 4033SOL     OW23731   2.886   4.584   8.264 -0.2279 -0.0626 -0.0187
 4033SOL    HW123732   2.883   4.592   8.169 -0.2330 -1.3093 -0.1193
 4033SOL    HW223733   2.981   4.587   8.278 -0.6667 -0.1861  3.0687
 4034SOL     OW23734   2.028   2.006   3.912 -0.2497 -0.0027  0.0761
 4034SOL    HW123735   2.079   2.085   3.893 -2.0648  0.5796 -2.2939
 4034SOL    HW223736   1.957   2.014   3.849  0.2857 -0.6194 -0.6016
 4035SOL     OW23737   1.014   0.943   5.329  0.0338  0.2077 -0.4196
 4035SOL    HW123738   1.102   0.907   5.332 -1.1696 -2.7100 -0.3903
 4035SOL    HW223739   1.029   1.024   5.280 -0.0239 -1.7282 -3.6728
 4036SOL     OW23740   1.461   3.959   2.532  0.2902  0.0331  0.2169
 4036SOL    HW123741   1.429   3.873   2.561 -2.6605  1.4335  1.1169
 4036SOL    HW223742   1.416   3.966   2.448  0.6031  0.6788  0.1042
 4037SOL     OW23743   3.287   1.929   1.999 -0.2840 -0.1036  0.2583
 4037SOL    HW123744   3.373   1.970   2.003 -0.3927  0.1375  0.0638
 4037SOL    HW223745   3.228   1.989   1.954  2.9946  2.1099 -1.0505
 4038SOL     OW23746   0.842   3.810   1.534 -0.5505  0.4773  0.4231
 4038SOL    HW123747   0.785   3.869   1.485 -0.5371 -0.3610 -0.6098
 4038SOL    HW223748   0.783   3.739   1.560  2.6575 -2.5157 -0.4309
 4039SOL     OW23749   1.292   3.481  16.155 -1.3183 -0.0851  0.7476
 4039SOL    HW123750   1.293   3.503  16.248 -0.9157  0.0311  0.7135
 4039SOL    HW223751   1.251   3.395  16.156 -1.5814  0.0341  0.3520
 4040SOL     OW23752   1.041   3.605   1.472  0.1884  0.4610  0.0178
 4040SOL    HW123753   0.964   3.554   1.497  1.1344 -0.7105  0.5536
 4040SOL    HW223754   1.008   3.644   1.391 -1.3041 -2.6218 -0.8742
 4041SOL     OW23755   4.441   3.500   9.970  0.3964 -0.1037  0.0959
 4041SOL    HW123756   4.479   3.490  10.057 -1.0497 -0.5458  0.6750
 4041SOL    HW223757   4.367   3.440   9.977 -0.4211  0.5383 -2.9107
 4042SOL     OW23758   0.029   1.652  15.181 -0.4495  0.2745  0.8673
 4042SOL    HW123759   0.050   1.727  15.237  0.8243  0.8683 -0.4279
 4042SOL    HW223760   0.114   1.636  15.140 -0.1747 -0.0263  1.5367
 4043SOL     OW23761   2.894   0.137   7.442  0.0028  0.1537  0.2718
 4043SOL    HW123762   2.857   0.208   7.389  0.9741  0.6372  0.2379
 4043SOL    HW223763   2.976   0.177   7.470  0.6122 -0.9504  0.0592
 4044SOL     OW23764   4.276   1.229   5.961  0.0919  0.3623 -0.5317
 4044SOL    HW123765   4.294   1.267   5.876 -0.9988  1.7462 -0.1544
 4044SOL    HW223766   4.212   1.283   6.008 -1.0588 -0.1320 -1.5281
 4045SOL     OW23767   4.101   2.686   9.253 -0.5154 -0.3806  0.8142
 4045SOL    HW123768   4.150   2.727   9.324  1.5150  0.2148 -0.9337
 4045SOL    HW223769   4.116   2.592   9.253  1.7413 -0.0396 -2.7909
 4046SOL     OW23770   0.785   1.056   9.268 -0.0201 -0.6340  0.6508
 4046SOL    HW123771   0.812   1.027   9.181 -2.5174 -1.6528  0.2149
 4046SOL    HW223772   0.745   0.972   9.292 -0.9611 -0.0459  1.1469
 4047SOL     OW23773   3.214   0.503   4.183  0.5600  0.3192 -0.0129
 4047SOL    HW123774   3.258   0.579   4.145  2.0824 -1.1712 -1.2200
 4047SOL    HW223775   3.270   0.430   4.157  0.7297  0.3432  0.2918
 4048SOL     OW23776   3.671   1.416   7.289 -0.4489 -0.5556  0.3423
 4048SOL    HW123777   3.734   1.356   7.330  0.5780 -0.2170 -0.7589
 4048SOL    HW223778   3.725   1.495   7.294 -0.7396 -0.1537 -3.3671
 4049SOL     OW23779   2.597   2.742   6.971  0.4762  0.5287 -0.1697
 4049SOL    HW123780   2.557   2.827   6.954  3.1849  1.6586 -0.7783
 4049SOL    HW223781   2.637   2.732   6.885 -0.6316  2.4219 -0.8982
 4050SOL     OW23782   3.439   4.282   7.960  0.6494 -0.1726 -0.0410
 4050SOL    HW123783   3.390   4.199   7.957  0.4255 -0.0572  0.4021
 4050SOL    HW223784   3.526   4.252   7.935  0.3622  0.6751 -2.0395
 4051SOL     OW23785   3.654   3.964   2.735  0.1385 -0.1034  0.0165
 4051SOL    HW123786   3.627   3.877   2.705  0.4952 -0.9431  2.1807
 4051SOL    HW223787   3.717   3.947   2.805  0.1722  2.3054  0.5467
 4052SOL     OW23788   0.648   3.092   4.032 -0.0274  0.0677  0.4334
 4052SOL    HW123789   0.738   3.097   4.062 -0.5227  0.4030  1.8597
 4052SOL    HW223790   0.615   3.045   4.108  2.1226 -0.6512  0.9140
 4053SOL     OW23791   0.583   2.541   8.719 -0.2034  0.5127  0.4586
 4053SOL    HW123792   0.514   2.560   8.783  0.7710  1.9190  1.1047
 4053SOL    HW223793   0.653   2.501   8.771  0.0337  0.2033 -0.1009
 4054SOL     OW23794   3.607   1.746   9.236  0.5480  0.1686 -0.2756
 4054SOL    HW123795   3.639   1.831   9.266 -0.3358 -0.0407  1.2683
 4054SOL    HW223796   3.688   1.703   9.211 -0.4314 -1.1363 -1.2618
 4055SOL     OW23797   1.553   2.324   6.512  0.2475  0.8256 -0.4639
 4055SOL    HW123798   1.494   2.345   6.440 -0.5314 -0.3627 -0.1800
 4055SOL    HW223799   1.576   2.407   6.554  2.3168 -0.1705  0.3847
 4056SOL     OW23800   1.055   3.633  12.198  0.6419 -0.1760 -0.0278
 4056SOL    HW123801   1.141   3.664  12.228  0.6522 -2.4533  2.2857
 4056SOL    HW223802   1.076   3.540  12.188 -2.8145 -0.7359 -2.1928
 4057SOL     OW23803   3.059   0.289  11.266 -0.7603  0.1764  0.2423
 4057SOL    HW123804   3.055   0.207  11.315 -2.0452  0.2031  0.1763
 4057SOL    HW223805   3.063   0.352  11.337  0.2428  0.9526 -0.4982
 4058SOL     OW23806   0.033   0.724   7.210 -0.3080  0.2225  0.3471
 4058SOL    HW123807   0.104   0.732   7.273  0.4703 -1.3204 -0.3490
 4058SOL    HW223808   4.707   0.789   7.242 -0.5564  0.9176 -1.5285
 4059SOL     OW23809   0.896   0.839   0.926 -0.0728  0.2733  0.2854
 4059SOL    HW123810   0.947   0.769   0.967 -2.3681 -2.0931 -0.8349
 4059SOL    HW223811   0.824   0.820   0.987  1.2111  0.1658  1.7842
 4060SOL     OW23812   1.637   4.578   8.653 -0.7490  0.0151 -0.0258
 4060SOL    HW123813   1.579   4.631   8.598 -1.4913  1.6892  2.3467
 4060SOL    HW223814   1.720   4.597   8.608  0.4968 -1.3830  1.6742
 4061SOL     OW23815   0.068   4.209   8.696  0.4569  0.4866 -0.1404
 4061SOL    HW123816   0.016   4.256   8.631 -1.6130 -0.2303  1.0072
 4061SOL    HW223817   0.091   4.287   8.748  2.2631  1.0677 -1.7753
 4062SOL     OW23818   3.470   0.118   4.516  0.3586 -0.2091 -0.0459
 4062SOL    HW123819   3.382   0.081   4.505 -0.1299  0.7151  0.8457
 4062SOL    HW223820   3.441   0.207   4.498  0.7261 -0.0479  0.1721
 4063SOL     OW23821   1.485   4.622   3.435 -0.1668 -0.2983 -0.2612
 4063SOL    HW123822   1.389   4.630   3.427 -0.1602 -0.6231 -0.6717
 4063SOL    HW223823   1.495   4.575   3.517  0.7137  2.8162  1.4092
 4064SOL     OW23824   3.902   0.924   2.999  0.5853  0.0264 -0.0100
 4064SOL    HW123825   3.937   0.991   3.058 -2.0864  0.4320  1.1299
 4064SOL    HW223826   3.828   0.891   3.050  0.0517  1.2161  0.0017
 4065SOL     OW23827   2.707   4.491   6.833 -0.4461 -0.2057 -0.1242
 4065SOL    HW123828   2.688   4.479   6.926  0.6917 -0.3127  0.0864
 4065SOL    HW223829   2.689   4.402   6.801  0.7595 -0.2219 -0.7433
 4066SOL     OW23830   0.827   1.807   5.997 -0.6230 -0.7378  0.5021
 4066SOL    HW123831   0.893   1.765   5.942 -0.4419 -1.4203  1.2303
 4066SOL    HW223832   0.815   1.888   5.947  1.5477 -0.7843 -0.0887
 4067SOL     OW23833   2.544   4.367   4.690 -0.3175 -0.3351  0.5465
 4067SOL    HW123834   2.611   4.304   4.664  0.7019  0.8631  0.2448
 4067SOL    HW223835   2.475   4.304   4.707 -0.7160 -0.1276 -0.2711
 4068SOL     OW23836   0.138   2.349  10.710  0.7625 -0.0841  0.0985
 4068SOL    HW123837   0.139   2.255  10.689  0.8936 -0.4102  1.5825
 4068SOL    HW223838   0.052   2.350  10.751  0.6934 -0.7239 -0.0349
 4069SOL     OW23839   3.924   2.871   8.633 -0.0522 -0.4198  0.4231
 4069SOL    HW123840   3.868   2.822   8.693  1.4199  0.1418  2.2553
 4069SOL    HW223841   3.894   2.956   8.664 -0.4985 -0.5538  0.3638
 4070SOL     OW23842   1.640   1.531   3.186 -0.7000  0.4943  0.3824
 4070SOL    HW123843   1.698   1.525   3.110  1.2770  1.7258  1.7908
 4070SOL    HW223844   1.670   1.456   3.237 -0.2834 -0.0902 -0.7106
 4071SOL     OW23845   1.360   4.024   1.100 -0.0610  0.2107  0.0049
 4071SOL    HW123846   1.368   4.078   1.022  0.8158  0.5819  0.3475
 4071SOL    HW223847   1.454   4.014   1.113  0.0165 -1.7950 -2.0809
 4072SOL     OW23848   2.975   1.146  16.706 -0.1762 -0.1849  0.1168
 4072SOL    HW123849   2.999   1.223  16.655  0.4381 -2.0430 -2.3867
 4072SOL    HW223850   2.907   1.117  16.645  2.1079 -1.1824 -1.9639
 4073SOL     OW23851   4.528   4.702   9.160 -0.0712 -0.2672  0.2130
 4073SOL    HW123852   4.573   0.044   9.133  0.1427 -0.4933 -0.0909
 4073SOL    HW223853   4.526   4.659   9.074  0.8704  1.9972 -0.9244
 4074SOL     OW23854   1.842   2.849   6.931 -0.1208 -0.3164  0.7257
 4074SOL    HW123855   1.924   2.870   6.886  0.2681 -1.2250  1.0122
 4074SOL    HW223856   1.874   2.775   6.981  3.2059  0.1799 -0.6586
 4075SOL     OW23857   3.811   4.230  11.086  0.2002 -0.1727  0.3703
 4075SOL    HW123858   3.803   4.308  11.142 -0.5743  0.4851 -0.6372
 4075SOL    HW223859   3.729   4.187  11.111 -1.4891  2.7944 -0.0447
 4076SOL     OW23860   0.362   1.182  17.349 -0.2912  0.1317 -0.6650
 4076SOL    HW123861   0.410   1.209  17.427  0.5523  0.9326 -1.4478
 4076SOL    HW223862   0.423   1.192  17.275  0.9266  1.6365  0.5401
 4077SOL     OW23863   1.576   4.622  15.431 -0.7145 -0.2772  0.0098
 4077SOL    HW123864   1.621   4.584  15.506  0.7369 -0.4318 -0.9329
 4077SOL    HW223865   1.545   4.705  15.466  1.4592  0.5046  0.0853
 4078SOL     OW23866   0.508   2.411  11.137  0.0742  0.4191 -0.2196
 4078SOL    HW123867   0.568   2.475  11.176  1.3635 -0.7341 -0.3170
 4078SOL    HW223868   0.468   2.368  11.213 -0.5281  0.2478 -0.6321
 4079SOL     OW23869   3.287   1.102   8.287 -0.4656  0.1239 -0.2261
 4079SOL    HW123870   3.366   1.148   8.314 -0.4402 -2.0078  3.2756
 4079SOL    HW223871   3.318   1.051   8.212  0.9481 -0.8321  1.0299
 4080SOL     OW23872   4.037   3.238  14.195 -0.2336 -0.5333  0.7446
 4080SOL    HW123873   3.964   3.285  14.235 -0.1002  0.3023  0.0054
 4080SOL    HW223874   4.107   3.304  14.190 -0.3957 -0.2754  1.8755
 4081SOL     OW23875   0.489   4.138  10.597 -0.5795  0.8094  0.3643
 4081SOL    HW123876   0.524   4.193  10.667  0.3942 -1.1887  1.4417
 4081SOL    HW223877   0.520   4.052  10.624 -0.3861  1.5230  2.3741
 4082SOL     OW23878   1.652   1.656   4.693 -0.3264  0.2791  0.6066
 4082SOL    HW123879   1.637   1.586   4.630 -1.5831 -1.4076  2.7732
 4082SOL    HW223880   1.712   1.612   4.753 -0.2422  1.8238  1.6782
 4083SOL     OW23881   2.313   4.637   5.022  0.3822 -0.3472  0.0262
 4083SOL    HW123882   2.346   4.612   4.936  0.0673 -0.1014 -0.1652
 4083SOL    HW223883   2.383   4.592   5.070  1.9680  1.4710 -0.6181
 4084SOL     OW23884   0.558   1.103   4.080 -0.2181  0.0340 -0.7354
 4084SOL    HW123885   0.611   1.035   4.120 -0.8092 -0.8793 -1.4892
 4084SOL    HW223886   0.621   1.169   4.051  0.3337  0.1386  0.7303
 4085SOL     OW23887   3.672   0.673   3.828  1.0038 -0.3852  0.0843
 4085SOL    HW123888   3.711   0.761   3.830 -1.4829  0.7182 -0.0116
 4085SOL    HW223889   3.745   0.622   3.794 -1.8785 -3.3654 -1.5709
 4086SOL     OW23890   1.186   2.517   8.509 -0.0250 -0.5885 -0.2498
 4086SOL    HW123891   1.128   2.584   8.547 -0.5255 -0.2026 -1.7097
 4086SOL    HW223892   1.216   2.468   8.586 -1.4955 -0.9270  0.1084
 4087SOL     OW23893   1.117   2.852   3.457  0.5303  0.0636  0.2120
 4087SOL    HW123894   1.126   2.838   3.363 -1.9524 -2.6018  0.3856
 4087SOL    HW223895   1.107   2.761   3.486 -1.1778  0.7892  1.8698
 4088SOL     OW23896   1.003   4.244   0.965  0.2349  0.2575 -0.3614
 4088SOL    HW123897   1.084   4.288   0.988  0.2173  0.4068 -0.5955
 4088SOL    HW223898   0.954   4.257   1.046 -0.6354 -1.1261 -0.6623
 4089SOL     OW23899   4.415   2.316  13.987  0.5289  0.0505  0.1426
 4089SOL    HW123900   4.491   2.356  13.946 -0.1331  0.5435 -0.5994
 4089SOL    HW223901   4.356   2.311  13.912 -0.5512  2.0124  0.8542
 4090SOL     OW23902   4.159   3.899  12.433  0.0033 -0.2243  0.3043
 4090SOL    HW123903   4.130   3.920  12.522  0.1006  1.4966 -0.0741
 4090SOL    HW223904   4.092   3.835  12.410  1.0380 -1.2034  0.0011
 4091SOL     OW23905   0.288   4.407   3.819 -0.2331  0.3917 -0.1990
 4091SOL    HW123906   0.241   4.336   3.775  1.1437 -0.8095  0.2821
 4091SOL    HW223907   0.313   4.455   3.740 -1.0548 -1.8213 -1.8126
 4092SOL     OW23908   2.630   3.395   7.278  0.5396 -0.5852 -0.4841
 4092SOL    HW123909   2.652   3.473   7.329  0.0941 -0.2749 -0.7654
 4092SOL    HW223910   2.608   3.326   7.340 -0.5151  0.4459  0.2835
 4093SOL     OW23911   3.718   3.394   8.334 -0.4907 -0.0038  0.4642
 4093SOL    HW123912   3.730   3.304   8.362 -0.0592 -0.7065 -1.9423
 4093SOL    HW223913   3.623   3.383   8.321 -0.2587  0.0235 -1.2656
 4094SOL     OW23914   4.033   3.586  17.351  0.3736 -0.0677 -0.5731
 4094SOL    HW123915   4.079   3.534  17.417  1.0922  2.3211  0.8151
 4094SOL    HW223916   4.061   3.673  17.380 -0.4043  0.3989 -1.2016
 4095SOL     OW23917   2.377   4.482   5.592 -0.2980 -0.3141  0.0586
 4095SOL    HW123918   2.387   4.495   5.498 -0.3625 -1.0932 -0.0566
 4095SOL    HW223919   2.333   4.564   5.614 -1.0411 -0.2694 -1.5686
 4096SOL     OW23920   0.493   0.820   7.634 -0.4615  0.0704  0.1443
 4096SOL    HW123921   0.478   0.911   7.606 -1.8605  0.1146  1.0318
 4096SOL    HW223922   0.565   0.853   7.688 -0.0513 -0.5367 -0.0425
 4097SOL     OW23923   3.261   0.749   7.952 -0.2764 -0.6109 -0.0617
 4097SOL    HW123924   3.224   0.669   7.989 -0.7044  0.0770  0.9930
 4097SOL    HW223925   3.296   0.726   7.866 -2.8266 -0.4433 -1.1449
 4098SOL     OW23926   2.432   2.103   2.351  0.0378 -0.2069 -0.3133
 4098SOL    HW123927   2.454   2.082   2.442 -1.7855 -1.5470 -0.1896
 4098SOL    HW223928   2.517   2.081   2.314 -0.7870  0.1470 -2.4366
 4099SOL     OW23929   0.832   3.515   7.496 -0.1302 -0.0484 -0.1874
 4099SOL    HW123930   0.852   3.429   7.459 -0.6766 -1.5280  2.9413
 4099SOL    HW223931   0.867   3.514   7.585 -0.8676  2.6330  0.1184
 4100SOL     OW23932   3.678   0.804  16.471 -0.5169  0.8881 -0.2688
 4100SOL    HW123933   3.661   0.857  16.394 -1.0404  0.5644 -0.3735
 4100SOL    HW223934   3.595   0.756  16.480  0.3337 -1.1401 -3.4780
 4101SOL     OW23935   2.100   4.165  12.275  0.0376 -0.1740 -0.4689
 4101SOL    HW123936   2.173   4.197  12.222  1.3402  0.8360  1.8828
 4101SOL    HW223937   2.020   4.180  12.224 -0.2849  2.9105  0.9205
 4102SOL     OW23938   1.108   1.483   6.554  0.0546  0.2777 -0.5258
 4102SOL    HW123939   1.203   1.488   6.543  0.0639 -0.7420 -0.8663
 4102SOL    HW223940   1.077   1.428   6.482  0.1261 -1.2541  0.6104
 4103SOL     OW23941   1.358   3.264  13.585 -0.2874  0.0878 -0.0282
 4103SOL    HW123942   1.282   3.314  13.614  2.0909  1.8815  3.2560
 4103SOL    HW223943   1.320   3.216  13.512  0.8115  0.4853 -0.8628
 4104SOL     OW23944   1.028   2.745   2.396 -0.5019  0.2753 -0.1489
 4104SOL    HW123945   1.122   2.757   2.384 -0.7308  1.7085 -0.5112
 4104SOL    HW223946   1.001   2.836   2.400  0.0267  0.3559  1.4103
 4105SOL     OW23947   4.356   0.252   9.054 -0.1655 -0.0620  1.0367
 4105SOL    HW123948   4.292   0.183   9.070 -0.0282 -0.3025  0.5404
 4105SOL    HW223949   4.357   0.302   9.136  0.4551 -0.2080  1.1209
 4106SOL     OW23950   0.185   0.896   3.331  0.7249 -0.0117 -0.7259
 4106SOL    HW123951   0.161   0.941   3.412 -3.7988 -0.1136 -2.0388
 4106SOL    HW223952   0.244   0.964   3.298  0.7334  0.3179 -0.0418
 4107SOL     OW23953   0.179   4.456  12.299  0.5905  0.3305 -0.5776
 4107SOL    HW123954   0.195   4.426  12.210  1.7084  1.4544 -0.7443
 4107SOL    HW223955   0.093   4.497  12.288 -0.2958 -1.0294  1.0319
 4108SOL     OW23956   3.760   1.213  15.009  0.4622  0.2811 -0.0247
 4108SOL    HW123957   3.757   1.178  14.920  0.4969  0.7739 -0.2216
 4108SOL    HW223958   3.711   1.294  14.994 -0.6410 -0.0215  1.9683
 4109SOL     OW23959   3.170   4.012   2.394 -0.4723  0.0996 -0.3138
 4109SOL    HW123960   3.155   3.939   2.454 -1.1175  0.3243 -0.2082
 4109SOL    HW223961   3.083   4.024   2.357 -0.0780  0.3084 -1.1992
 4110SOL     OW23962   0.718   2.107   9.198 -0.6428 -0.1382  0.1885
 4110SOL    HW123963   0.795   2.140   9.152  0.0420  0.4054  1.7275
 4110SOL    HW223964   0.716   2.028   9.144  0.7241  0.1956 -0.3729
 4111SOL     OW23965   1.412   0.640  13.033 -0.2618  0.0984  0.4838
 4111SOL    HW123966   1.384   0.652  13.123 -1.8875  0.5136 -0.0742
 4111SOL    HW223967   1.342   0.577  13.015  0.3415 -1.0509  2.1562
 4112SOL     OW23968   1.059   1.080   0.917  0.0749 -0.4956  0.0194
 4112SOL    HW123969   0.995   1.009   0.919  0.4333 -0.7653  2.0948
 4112SOL    HW223970   1.032   1.131   0.841 -0.0732  0.5765  0.7808
 4113SOL     OW23971   4.312   1.539   6.916  0.2794  0.0904  0.1291
 4113SOL    HW123972   4.299   1.464   6.858 -2.7237 -0.6340  1.7601
 4113SOL    HW223973   4.219   1.548   6.934 -0.3714  0.5361 -3.5253
 4114SOL     OW23974   4.275   0.921  16.988  0.2598  0.2139 -0.2387
 4114SOL    HW123975   4.349   0.927  16.928 -0.5717 -0.0468 -1.3029
 4114SOL    HW223976   4.223   0.856  16.941  0.2568 -0.2381  0.3854
 4115SOL     OW23977   1.290   0.985   5.351 -0.2815 -0.2719 -0.6145
 4115SOL    HW123978   1.314   1.045   5.281 -0.5470 -2.4084 -2.5487
 4115SOL    HW223979   1.305   1.039   5.428 -1.6240  0.8687 -1.1412
 4116SOL     OW23980   4.453   1.491   3.906  0.3825 -0.2278  0.1721
 4116SOL    HW123981   4.405   1.508   3.825  1.5869  1.0456 -0.2784
 4116SOL    HW223982   4.398   1.419   3.938  0.0552 -0.4806 -0.9698
 4117SOL     OW23983   3.983   4.345   7.211 -0.1288  0.2865  0.5396
 4117SOL    HW123984   3.909   4.393   7.173 -0.4792  0.0914  0.9619
 4117SOL    HW223985   4.002   4.298   7.130 -5.3667  1.1770 -1.2388
 4118SOL     OW23986   3.502   2.155  17.210 -0.3715  0.8030 -0.0789
 4118SOL    HW123987   3.583   2.200  17.185  0.5996 -1.8134 -1.6743
 4118SOL    HW223988   3.513   2.094  17.283  1.3299  0.8355 -0.3235
 4119SOL     OW23989   3.013   0.854  10.112  0.4896  0.3819  0.2894
 4119SOL    HW123990   3.104   0.832  10.131  1.8031  4.8675 -0.7471
 4119SOL    HW223991   2.971   0.845  10.197  1.2529 -0.5458  0.5639
 4120SOL     OW23992   2.102   4.140   5.777  0.0610  0.0084  0.2081
 4120SOL    HW123993   2.096   4.045   5.765 -2.0194  0.2135 -0.3923
 4120SOL    HW223994   2.033   4.167   5.718  0.4223  0.3818 -0.0426
 4121SOL     OW23995   1.564   3.102   6.036  0.2163  0.7134  0.1087
 4121SOL    HW123996   1.608   3.096   5.951  1.0496  0.0550  0.5809
 4121SOL    HW223997   1.621   3.161   6.085 -1.1633  0.6962  1.7257
 4122SOL     OW23998   4.177   0.719   8.699 -0.3328  0.8465 -0.0071
 4122SOL    HW123999   4.217   0.701   8.784 -0.7852 -1.6643 -0.3139
 4122SOL    HW224000   4.222   0.648   8.653  2.4080  3.3549 -1.2615
 4123SOL     OW24001   1.820   0.480   6.362 -0.2298  0.2998 -0.3826
 4123SOL    HW124002   1.781   0.487   6.449 -1.2745  2.7346 -1.0619
 4123SOL    HW224003   1.914   0.461   6.368 -0.4159 -0.4994 -0.0259
 4124SOL     OW24004   3.614   4.463   4.398  0.1108 -0.2340 -0.2986
 4124SOL    HW124005   3.632   4.370   4.394  1.4293 -0.1065  2.6931
 4124SOL    HW224006   3.532   4.464   4.348  0.3806  0.2907 -0.7378
 4125SOL     OW24007   0.038   2.830   8.678 -0.7491  0.7057 -0.9739
 4125SOL    HW124008   0.061   2.900   8.740 -1.8552  0.0677  0.1709
 4125SOL    HW224009   4.680   2.833   8.679 -0.7927 -0.3451 -2.1521
 4126SOL     OW24010   0.952   1.243   7.465  0.2608 -0.0378 -0.2391
 4126SOL    HW124011   1.028   1.187   7.479  0.3725 -0.0100 -0.7318
 4126SOL    HW224012   0.987   1.331   7.477 -0.6698 -0.0276  2.2867
 4127SOL     OW24013   2.369   2.111  10.145 -0.2136 -0.6058  0.0031
 4127SOL    HW124014   2.442   2.163  10.110 -1.2918  1.3528  0.6579
 4127SOL    HW224015   2.365   2.045  10.077 -0.9230 -0.3816 -0.1736
 4128SOL     OW24016   4.143   4.162   4.543 -0.0341 -0.4166 -0.2544
 4128SOL    HW124017   4.219   4.220   4.530  0.2517 -0.2734  2.0606
 4128SOL    HW224018   4.181   4.074   4.540 -3.0816 -1.6551 -2.0623
 4129SOL     OW24019   3.123   0.326   9.231 -0.0255  0.1155  0.1121
 4129SOL    HW124020   3.127   0.324   9.326  0.5469  0.0391  0.0879
 4129SOL    HW224021   3.057   0.393   9.214  0.5251  0.6471  0.0488
 4130SOL     OW24022   0.328   1.163   6.531 -0.4059  0.7450  0.5361
 4130SOL    HW124023   0.239   1.130   6.522  0.8240 -2.2677 -0.4844
 4130SOL    HW224024   0.306   1.256   6.532  0.6067  0.9978 -0.6940
 4131SOL     OW24025   1.502   4.564  17.206  0.4183 -0.2924 -0.2859
 4131SOL    HW124026   1.429   4.596  17.155 -0.2662 -1.4581 -0.0312
 4131SOL    HW224027   1.547   4.517  17.136 -0.4409  1.1009 -1.7837
 4132SOL     OW24028   1.876   0.433  15.699  0.3204 -0.0653  0.1272
 4132SOL    HW124029   1.918   0.509  15.658 -1.6648 -0.5178 -2.7660
 4132SOL    HW224030   1.882   0.358  15.640  1.2301  1.9669 -2.3724
 4133SOL     OW24031   4.546   3.881  11.571  0.5706  0.1709 -0.0357
 4133SOL    HW124032   4.480   3.911  11.633  1.6440  1.0690  0.6598
 4133SOL    HW224033   4.489   3.848  11.502 -0.5577 -0.4811  1.1935
 4134SOL     OW24034   1.017   0.661   4.018  0.6347 -0.6396 -0.4373
 4134SOL    HW124035   1.097   0.708   3.995  0.8304 -0.5346  0.4245
 4134SOL    HW224036   1.027   0.668   4.113  2.1166  0.9827 -0.7295
 4135SOL     OW24037   2.845   2.465  10.695  0.1271 -0.1073 -0.5048
 4135SOL    HW124038   2.909   2.536  10.706  1.3543 -1.0244 -1.8383
 4135SOL    HW224039   2.764   2.508  10.723  0.8278  0.7210  0.2233
 4136SOL     OW24040   0.616   3.649   3.970 -0.2336  0.5472  0.1333
 4136SOL    HW124041   0.580   3.722   3.919 -0.1113  1.8092  1.8613
 4136SOL    HW224042   0.576   3.568   3.938  1.7012 -0.2907 -0.1404
 4137SOL     OW24043   4.674   2.951   7.353 -0.4536 -0.3466 -0.5649
 4137SOL    HW124044   4.649   3.043   7.363 -0.9624 -0.7433  1.8631
 4137SOL    HW224045   4.624   2.928   7.275 -1.5701  0.4505 -0.0889
 4138SOL     OW24046   4.572   2.014   3.731  0.4064  0.3838 -0.0406
 4138SOL    HW124047   4.480   1.990   3.728 -0.0869  2.0424  1.0185
 4138SOL    HW224048   4.593   1.994   3.640  1.7583 -0.0038  0.3537
 4139SOL     OW24049   1.309   0.781   2.882  0.0023  0.1917  1.0466
 4139SOL    HW124050   1.288   0.688   2.892  0.7275  0.0825  1.5904
 4139SOL    HW224051   1.339   0.776   2.791  0.0915 -2.0018  1.1864
 4140SOL     OW24052   3.864   3.138   8.694 -0.3176  0.3533 -0.1929
 4140SOL    HW124053   3.802   3.184   8.749 -0.9269 -1.5979  0.7243
 4140SOL    HW224054   3.881   3.201   8.623  0.0527 -0.1509 -0.5558
 4141SOL     OW24055   2.382   3.609   1.719 -0.2051 -0.0578 -0.4712
 4141SOL    HW124056   2.398   3.525   1.675  1.0685  0.1633 -0.4332
 4141SOL    HW224057   2.436   3.591   1.796 -0.0169  1.4514 -0.2485
 4142SOL     OW24058   2.490   1.488   2.174 -0.5988 -0.0660 -0.3959
 4142SOL    HW124059   2.549   1.462   2.245  0.3909 -0.3085 -1.3171
 4142SOL    HW224060   2.415   1.439   2.208 -0.7352  0.1837 -0.3407
 4143SOL     OW24061   3.531   2.119  16.053 -0.5287  0.5612  0.2658
 4143SOL    HW124062   3.448   2.089  16.018  0.2144 -0.6540 -0.4428
 4143SOL    HW224063   3.506   2.143  16.142  0.5643 -0.8614  0.9562
 4144SOL     OW24064   1.132   0.570   4.692  0.1616 -0.4961  0.2939
 4144SOL    HW124065   1.191   0.535   4.625 -0.5735 -1.3971  0.1106
 4144SOL    HW224066   1.195   0.597   4.758  0.5905 -0.9708  0.0793
 4145SOL     OW24067   1.475   4.659   8.150 -0.3883 -0.1009  0.5328
 4145SOL    HW124068   1.527   4.592   8.106  1.1576  0.2019  1.8763
 4145SOL    HW224069   1.542   4.717   8.187 -0.5497  0.2421  0.2849
 4146SOL     OW24070   0.758   2.583   5.981  0.2188  0.0061  0.4748
 4146SOL    HW124071   0.791   2.569   6.069 -0.6861 -0.9918  0.6599
 4146SOL    HW224072   0.664   2.601   5.994 -0.1832 -0.5246 -1.6518
 4147SOL     OW24073   3.962   0.110  13.074 -0.2689 -0.1166  0.0967
 4147SOL    HW124074   3.941   0.019  13.054  2.3388 -0.3213 -1.7074
 4147SOL    HW224075   4.042   0.116  13.023 -0.6724  0.1177 -0.5024
 4148SOL     OW24076   3.403   0.452   4.775  0.0706 -0.4420  0.2572
 4148SOL    HW124077   3.373   0.465   4.864 -1.3652 -1.4839 -0.0766
 4148SOL    HW224078   3.366   0.525   4.725 -0.6706 -0.2758  1.0624
 4149SOL     OW24079   2.606   0.659  14.165  0.4642 -0.2076  0.0029
 4149SOL    HW124080   2.544   0.705  14.222 -1.8176 -0.8384 -1.9618
 4149SOL    HW224081   2.631   0.580  14.214  2.7655  0.1670 -0.5741
 4150SOL     OW24082   1.139   3.129   0.131 -0.1590 -0.8223 -0.2374
 4150SOL    HW124083   1.064   3.072   0.148 -1.5023  0.6270 -1.3049
 4150SOL    HW224084   1.204   3.071   0.090 -1.8074 -2.5412 -0.4177
 4151SOL     OW24085   4.675   3.716   8.148  0.6677 -0.2472 -0.2265
 4151SOL    HW124086   4.605   3.711   8.083 -0.5774  0.3978  1.0518
 4151SOL    HW224087   4.645   3.660   8.220  1.3826  0.4737  0.6301
 4152SOL     OW24088   3.791   1.067  12.369 -0.2547  0.6542  0.6169
 4152SOL    HW124089   3.710   1.089  12.415  0.9594  3.2486  1.5301
 4152SOL    HW224090   3.775   1.084  12.276 -0.1229 -0.0733  0.4629
 4153SOL     OW24091   3.629   1.959   2.935 -0.3172 -0.3217  0.5004
 4153SOL    HW124092   3.562   2.026   2.948  0.2563  0.4580 -0.5521
 4153SOL    HW224093   3.642   1.959   2.840  0.7322  0.3294  0.6322
 4154SOL     OW24094   1.189   0.429  15.699 -0.5513 -0.4089 -0.5441
 4154SOL    HW124095   1.177   0.475  15.615 -1.7113  1.9919  0.9509
 4154SOL    HW224096   1.190   0.337  15.674 -0.1847 -1.0027  1.6897
 4155SOL     OW24097   3.806   3.974   4.157 -0.2086  0.8880  0.3507
 4155SOL    HW124098   3.743   4.009   4.095 -0.5703 -0.1876  0.1041
 4155SOL    HW224099   3.835   3.896   4.111  0.9728  1.3609  0.3053
 4156SOL     OW24100   1.807   3.518   1.913 -0.2000 -0.4272 -0.0156
 4156SOL    HW124101   1.718   3.553   1.919 -0.3572 -0.5947 -1.3359
 4156SOL    HW224102   1.840   3.521   2.003  0.8598  1.1969 -0.4674
 4157SOL     OW24103   1.773   3.789   4.677  0.1441 -0.5043 -0.2526
 4157SOL    HW124104   1.855   3.789   4.628  0.4689  0.4070  0.2875
 4157SOL    HW224105   1.781   3.853   4.748 -1.4177 -0.9073  0.2874
 4158SOL     OW24106   1.808   3.959   2.863 -0.2281  0.2820  0.4685
 4158SOL    HW124107   1.731   3.939   2.810  1.4500  0.3498 -1.9805
 4158SOL    HW224108   1.837   4.043   2.827  1.1713 -0.8857 -1.1203
 4159SOL     OW24109   3.958   2.036   5.910  0.0850  0.2094 -0.1187
 4159SOL    HW124110   4.035   2.092   5.898  1.3411 -1.3881  0.3938
 4159SOL    HW224111   3.979   1.955   5.864 -2.4363 -0.6571  0.2353
 4160SOL     OW24112   3.717   0.043   6.756  0.3086 -0.3023 -0.6278
 4160SOL    HW124113   3.773   4.717   6.801 -1.3197 -0.5768  1.0122
 4160SOL    HW224114   3.632   0.032   6.799  1.3599 -2.9695  0.7563
 4161SOL     OW24115   2.724   4.705  17.089  0.2664  0.2534  0.5716
 4161SOL    HW124116   2.750   4.636  17.029  1.3945  2.5660 -1.6244
 4161SOL    HW224117   2.800   0.024  17.069  0.2290 -0.1213 -0.6198
 4162SOL     OW24118   0.633   2.095   5.558 -0.2064 -0.2607 -0.2870
 4162SOL    HW124119   0.711   2.128   5.513  0.4500  1.8106  2.4048
 4162SOL    HW224120   0.563   2.112   5.495  0.4063  0.6291 -0.7120
 4163SOL     OW24121   0.455   2.268  15.247  0.0586  0.1130 -0.9234
 4163SOL    HW124122   0.506   2.348  15.257  0.6935 -0.4414  0.2298
 4163SOL    HW224123   0.488   2.216  15.320 -2.8336  0.8865  0.9584
 4164SOL     OW24124   3.206   4.093   5.711 -0.3303  0.6910  0.4503
 4164SOL    HW124125   3.150   4.052   5.645  1.8227  0.5204 -1.2853
 4164SOL    HW224126   3.276   4.027   5.715 -0.4223  0.6245  0.9578
 4165SOL     OW24127   0.151   3.138   8.638 -0.2193  0.1891  0.4421
 4165SOL    HW124128   0.201   3.220   8.645 -0.3897  0.4408 -1.2702
 4165SOL    HW224129   0.135   3.123   8.732  0.7562  1.3151  0.7863
 4166SOL     OW24130   1.636   1.002   0.832 -0.6382 -0.5342  0.0599
 4166SOL    HW124131   1.683   0.958   0.903  1.2148  0.2856 -0.6675
 4166SOL    HW224132   1.553   0.953   0.833  0.3005 -2.0988  1.4197
 4167SOL     OW24133   0.071   0.129  12.566  0.4912 -0.0724 -0.5783
 4167SOL    HW124134   4.721   0.169  12.571  0.0634 -1.0560 -0.1470
 4167SOL    HW224135   0.109   0.170  12.488 -0.3638 -0.0050 -0.9569
 4168SOL     OW24136   4.688   0.180   3.359 -0.1771 -0.2564  0.1405
 4168SOL    HW124137   4.730   0.096   3.379  0.1967  0.1154  0.8850
 4168SOL    HW224138   0.020   0.236   3.323 -0.1274  0.3856  1.2284
 4169SOL     OW24139   3.521   1.173   7.851 -0.3669  0.0707  0.7496
 4169SOL    HW124140   3.563   1.181   7.936 -0.2340 -1.1390  0.8000
 4169SOL    HW224141   3.546   1.258   7.816 -0.0286  0.3921  1.7901
 4170SOL     OW24142   4.524   0.101   0.438 -0.0354 -0.3836  0.1573
 4170SOL    HW124143   4.486   0.058   0.515 -0.4049 -0.6937 -0.1964
 4170SOL    HW224144   4.491   0.191   0.444 -0.7565 -0.5485 -1.2892
 4171SOL     OW24145   2.296   4.202   9.034  0.3788 -0.9851 -0.4525
 4171SOL    HW124146   2.380   4.249   9.037  0.0829 -0.3807 -1.7956
 4171SOL    HW224147   2.331   4.113   9.043  1.4446 -0.2685  2.3086
 4172SOL     OW24148   4.506   4.642   4.442  0.3406 -0.2365  0.4492
 4172SOL    HW124149   4.476   4.704   4.376  1.0937  2.4834  2.6184
 4172SOL    HW224150   4.460   4.672   4.520  0.1788 -0.4610  0.4400
 4173SOL     OW24151   4.022   0.454   7.933  0.5102 -0.6225  0.1535
 4173SOL    HW124152   3.947   0.514   7.934  1.9903  1.2400 -0.2576
 4173SOL    HW224153   4.015   0.425   8.024  1.7097 -1.5474 -0.0476
 4174SOL     OW24154   3.207   4.166  11.016  0.8645 -0.2680 -0.4158
 4174SOL    HW124155   3.119   4.153  10.981  0.8089 -1.1427  0.0393
 4174SOL    HW224156   3.251   4.087  10.983  1.0443 -0.3255 -0.0414
 4175SOL     OW24157   0.880   3.261   8.417  0.1451  0.1986  0.2852
 4175SOL    HW124158   0.956   3.313   8.395  1.3715 -1.5820  0.2879
 4175SOL    HW224159   0.917   3.181   8.456 -1.2119  1.2642  3.7899
 4176SOL     OW24160   4.433   4.384   8.553 -0.0806 -0.0253  0.1084
 4176SOL    HW124161   4.352   4.353   8.514  0.3167  0.7087 -1.3126
 4176SOL    HW224162   4.428   4.340   8.637 -0.4737 -1.1565 -0.5093
 4177SOL     OW24163   0.803   1.359  15.784  0.1430 -0.3712 -0.4198
 4177SOL    HW124164   0.859   1.345  15.708 -1.5895 -2.1075 -1.3877
 4177SOL    HW224165   0.825   1.280  15.834  2.2723 -0.5408 -1.6151
 4178SOL     OW24166   1.446   0.288   1.828 -0.3919 -0.1442 -0.0853
 4178SOL    HW124167   1.378   0.273   1.763 -0.1726 -1.9900  0.1097
 4178SOL    HW224168   1.491   0.356   1.778  1.1740 -0.4294  0.9293
 4179SOL     OW24169   0.071   2.426  17.532 -0.6273  0.2177  0.6827
 4179SOL    HW124170   0.038   2.349  17.485  2.4489  0.1195 -1.3214
 4179SOL    HW224171   0.062   2.412  17.626  1.1466  1.4339  1.0430
 4180SOL     OW24172   3.601   0.744   8.060  0.7127  0.2255 -0.3093
 4180SOL    HW124173   3.634   0.761   7.971  2.3142 -0.9794  0.0482
 4180SOL    HW224174   3.687   0.758   8.101 -0.4498 -0.0951  2.2347
 4181SOL     OW24175   0.687   0.676   6.855  0.0030 -0.4198  0.2138
 4181SOL    HW124176   0.608   0.724   6.831 -0.8108 -1.7434  0.2382
 4181SOL    HW224177   0.645   0.594   6.880  0.7384 -0.8036  0.1877
 4182SOL     OW24178   4.165   4.693   4.727  0.2763 -0.2931 -0.2228
 4182SOL    HW124179   4.175   4.602   4.702 -0.2968 -0.7396  1.1584
 4182SOL    HW224180   4.248   4.706   4.774 -0.4444  1.0318  0.7002
 4183SOL     OW24181   3.224   1.352   9.206 -0.0345 -0.1522  0.2498
 4183SOL    HW124182   3.216   1.342   9.301  1.0593  3.2155  0.6853
 4183SOL    HW224183   3.308   1.397   9.195 -0.3185  0.8830  2.2233
 4184SOL     OW24184   1.222   4.118  13.259  0.6682 -0.1609 -0.1179
 4184SOL    HW124185   1.295   4.117  13.197 -0.0910  1.4012 -1.0647
 4184SOL    HW224186   1.145   4.111  13.201 -0.3051  0.5363  1.0769
 4185SOL     OW24187   1.309   1.134   5.027  0.4854  0.2178 -0.1911
 4185SOL    HW124188   1.343   1.046   5.041 -2.1857 -0.4006  2.4218
 4185SOL    HW224189   1.384   1.189   5.047  0.4340  0.1076  0.3120
 4186SOL     OW24190   2.299   3.966   8.014  0.3154  0.3971 -0.7452
 4186SOL    HW124191   2.279   3.872   8.004  2.0309 -0.0151 -0.3230
 4186SOL    HW224192   2.393   3.964   7.999  0.6988  0.0149  1.6541
 4187SOL     OW24193   1.969   2.599   0.747 -0.1853 -0.6801  0.0999
 4187SOL    HW124194   2.044   2.630   0.797  0.0558  0.3504 -0.9346
 4187SOL    HW224195   1.912   2.559   0.814  1.6321 -2.4054  0.6254
 4188SOL     OW24196   3.000   3.854   8.695  0.0318  0.2623  0.1396
 4188SOL    HW124197   3.050   3.776   8.672 -1.3594 -0.7239  0.5144
 4188SOL    HW224198   2.982   3.895   8.611  0.0073 -0.0384  0.0003
 4189SOL     OW24199   1.267   1.162   8.061 -0.8121 -0.2771 -0.2010
 4189SOL    HW124200   1.275   1.234   7.998  1.0625 -1.6799 -1.5723
 4189SOL    HW224201   1.191   1.196   8.108 -1.1262  1.4881 -2.0007
 4190SOL     OW24202   4.401   0.547   1.579 -0.0903  0.0447 -0.1815
 4190SOL    HW124203   4.492   0.571   1.564 -0.6080  1.4765 -1.0735
 4190SOL    HW224204   4.369   0.513   1.495 -0.1998 -1.7050  0.5744
 4191SOL     OW24205   4.722   0.985  17.683  0.6027 -0.1113 -0.1137
 4191SOL    HW124206   0.070   0.991  17.640  0.3552 -2.0514 -0.8752
 4191SOL    HW224207   4.681   1.061  17.644 -0.3757  0.1457  1.4269
 4192SOL     OW24208   0.501   4.113   9.087 -0.0192  0.0435  0.2051
 4192SOL    HW124209   0.529   4.028   9.121 -1.7376 -0.2569  0.8414
 4192SOL    HW224210   0.574   4.123   9.025  0.2935  0.5202  0.6594
 4193SOL     OW24211   1.048   3.627   8.737  0.0395  0.6564  0.1718
 4193SOL    HW124212   1.120   3.689   8.726  0.0371  0.7213  0.5097
 4193SOL    HW224213   1.041   3.565   8.665  0.7730  1.0309 -0.2249
 4194SOL     OW24214   2.665   1.320   2.687 -0.3875 -0.4408  0.2187
 4194SOL    HW124215   2.570   1.320   2.698 -0.5937 -2.5760 -1.3583
 4194SOL    HW224216   2.689   1.227   2.683 -0.3524 -0.4913  1.6478
 4195SOL     OW24217   2.648   2.687   3.633 -0.2523 -0.3236 -0.1248
 4195SOL    HW124218   2.634   2.593   3.637 -2.4979 -0.1329 -4.0894
 4195SOL    HW224219   2.652   2.709   3.540  0.0690 -0.1839 -0.0798
 4196SOL     OW24220   2.402   2.630   5.070 -0.4300  0.4291  0.3668
 4196SOL    HW124221   2.371   2.688   5.140  1.3590  1.1496  0.5369
 4196SOL    HW224222   2.351   2.655   4.993 -2.5422 -1.2482  1.2296
 4197SOL     OW24223   4.640   1.377  12.986 -0.2223 -0.5440  0.0898
 4197SOL    HW124224   4.638   1.463  12.943 -3.5962 -0.2480  0.8515
 4197SOL    HW224225   4.704   1.345  12.922 -0.4459 -0.7045 -0.0495
 4198SOL     OW24226   0.574   0.085   2.069  0.3803 -0.2403  0.5231
 4198SOL    HW124227   0.628   0.066   1.993 -0.0067  1.1543 -0.0994
 4198SOL    HW224228   0.633   0.059   2.140  1.0250 -1.4827 -0.4630
 4199SOL     OW24229   3.444   1.582   5.036 -0.3202 -0.0709 -0.2126
 4199SOL    HW124230   3.463   1.505   4.982 -2.6090 -0.3466 -0.6505
 4199SOL    HW224231   3.503   1.649   5.001  1.3699 -0.8719  1.1627
 4200SOL     OW24232   1.170   2.830   9.871  0.7653 -0.4726 -0.5698
 4200SOL    HW124233   1.201   2.740   9.880  2.1382  0.0344 -0.1112
 4200SOL    HW224234   1.225   2.875   9.936 -1.1526  1.2784 -0.1876
 4201SOL     OW24235   2.236   2.545   6.050 -0.1555  0.4290 -0.0005
 4201SOL    HW124236   2.194   2.564   6.134  0.9259  1.1034  0.3962
 4201SOL    HW224237   2.159   2.551   5.994  0.2497  1.2453 -0.4653
 4202SOL     OW24238   4.669   2.324   8.934  0.1364 -0.2732  0.2989
 4202SOL    HW124239   4.584   2.296   8.900  0.4163 -0.1989 -0.4655
 4202SOL    HW224240   4.669   2.417   8.909  1.3284  0.5880  3.5415
 4203SOL     OW24241   4.515   3.671   2.787  0.1294  0.0114  0.1218
 4203SOL    HW124242   4.502   3.615   2.711  1.7417  0.2656 -0.3368
 4203SOL    HW224243   4.510   3.760   2.753  2.0354 -0.1223 -0.4902
 4204SOL     OW24244   2.908   0.858   7.346 -0.2517  0.0272 -0.0172
 4204SOL    HW124245   2.853   0.812   7.410 -0.7321  1.1518  0.3756
 4204SOL    HW224246   2.877   0.947   7.359 -0.1297 -0.0412  0.7384
 4205SOL     OW24247   1.488   1.200   2.037 -0.6039  0.6676 -0.0946
 4205SOL    HW124248   1.417   1.144   2.008 -1.2750  0.4036  2.1116
 4205SOL    HW224249   1.492   1.279   1.982  3.1866 -0.7341 -1.8533
 4206SOL     OW24250   0.834   0.373   1.596  0.7326 -0.0390 -0.1393
 4206SOL    HW124251   0.891   0.304   1.631  2.5058  1.7091  0.3662
 4206SOL    HW224252   0.759   0.347   1.650  1.5649 -1.3638  0.3693
 4207SOL     OW24253   1.044   2.658   6.679 -0.3543 -0.0834  0.2804
 4207SOL    HW124254   1.035   2.703   6.595  0.9227  0.8801  0.6684
 4207SOL    HW224255   1.017   2.570   6.651 -0.8774  0.6259 -1.4304
 4208SOL     OW24256   1.827   1.554   7.876  0.1518 -0.0034  0.1031
 4208SOL    HW124257   1.860   1.513   7.956 -1.4076 -1.8749 -0.2002
 4208SOL    HW224258   1.890   1.626   7.867  1.4169 -0.7132  3.1217
 4209SOL     OW24259   3.494   0.722   3.215 -0.0837  0.2030  0.2208
 4209SOL    HW124260   3.497   0.667   3.137  0.6287 -0.5149  0.7513
 4209SOL    HW224261   3.401   0.730   3.237 -0.9931 -1.0679 -3.1335
 4210SOL     OW24262   3.822   0.101  12.192 -0.3584  0.3285 -0.5772
 4210SOL    HW124263   3.876   0.027  12.166 -1.0740 -0.9595  1.6757
 4210SOL    HW224264   3.783   0.055  12.266 -1.7778  0.9727 -0.9246
 4211SOL     OW24265   0.059   4.157   2.339  0.6693  0.9656 -0.2200
 4211SOL    HW124266   4.713   4.186   2.377 -0.3625 -1.1921 -0.8364
 4211SOL    HW224267   0.044   4.063   2.333  0.6330  0.8984  0.9648
 4212SOL     OW24268   3.423   3.669   1.133 -0.1762  0.3002  0.2743
 4212SOL    HW124269   3.441   3.703   1.221  0.7511 -1.7255  0.8828
 4212SOL    HW224270   3.352   3.606   1.146 -1.1759  1.7902  2.0559
 4213SOL     OW24271   2.786   1.912  10.716 -0.1765  0.1435 -0.6751
 4213SOL    HW124272   2.710   1.857  10.735 -0.0354 -0.6997 -2.4694
 4213SOL    HW224273   2.742   1.996  10.725 -0.2356  0.2307 -1.7108
 4214SOL     OW24274   2.401   4.482   2.563  0.0661 -0.4315  0.4740
 4214SOL    HW124275   2.409   4.512   2.473  3.7245 -0.7630  0.7034
 4214SOL    HW224276   2.347   4.558   2.588 -0.6243 -0.2075 -1.6713
 4215SOL     OW24277   4.434   1.201  11.586 -0.0822 -0.1862  0.1817
 4215SOL    HW124278   4.380   1.168  11.514  1.1252  1.6888 -1.5690
 4215SOL    HW224279   4.369   1.244  11.642 -1.3844 -0.8089 -0.8625
 4216SOL     OW24280   2.656   1.165   2.999 -0.1148  0.1560 -1.0346
 4216SOL    HW124281   2.602   1.243   3.014  0.8281  0.4611  0.7329
 4216SOL    HW224282   2.607   1.132   2.923  3.2700 -0.9417 -2.7076
 4217SOL     OW24283   2.135   3.631   9.920  0.7815  0.1873  0.3179
 4217SOL    HW124284   2.175   3.545   9.910 -0.9777 -0.6066  0.2951
 4217SOL    HW224285   2.090   3.614  10.002  0.6043 -2.2110 -0.3013
 4218SOL     OW24286   1.039   3.555   5.822  0.3759  0.1600  0.2912
 4218SOL    HW124287   1.125   3.535   5.784  1.1925 -0.2686  2.3713
 4218SOL    HW224288   0.998   3.476   5.786 -1.7632  2.2735 -1.8886
 4219SOL     OW24289   4.566   4.353   9.183 -0.5760 -0.2569  0.1609
 4219SOL    HW124290   4.520   4.291   9.239  0.2796  0.3743  1.5618
 4219SOL    HW224291   4.616   4.287   9.135 -0.5713  0.6794 -1.1169
 4220SOL     OW24292   3.544   1.643   7.872 -0.0895  0.6832 -0.0772
 4220SOL    HW124293   3.595   1.583   7.818  2.3085  4.2052 -1.7415
 4220SOL    HW224294   3.618   1.691   7.908 -0.2422  0.8689 -0.0102
 4221SOL     OW24295   1.884   4.261   4.069  0.1161  0.0722 -1.3802
 4221SOL    HW124296   1.947   4.312   4.121  0.6986 -1.7378 -0.3293
 4221SOL    HW224297   1.927   4.286   3.987  1.5015 -0.3672 -0.7984
 4222SOL     OW24298   3.193   2.680   2.997  0.2617  0.3399  0.2179
 4222SOL    HW124299   3.106   2.718   3.009 -0.0951  0.1004 -1.6128
 4222SOL    HW224300   3.169   2.590   2.978  0.3955 -0.0610  2.0221
 4223SOL     OW24301   4.567   0.918   6.582 -0.2203 -0.8006 -0.3153
 4223SOL    HW124302   4.641   0.968   6.617 -3.0567  3.5855 -0.5618
 4223SOL    HW224303   4.560   0.858   6.656 -0.4574  1.2543  1.3199
 4224SOL     OW24304   2.108   1.376   1.698 -0.0686  0.1898  0.0906
 4224SOL    HW124305   2.042   1.306   1.690  0.7713 -0.7726  1.5901
 4224SOL    HW224306   2.117   1.411   1.609  0.3162 -1.7603 -0.6416
 4225SOL     OW24307   2.035   4.705  14.918  0.0629 -0.3940 -0.0924
 4225SOL    HW124308   2.063   0.031  14.853  0.0098 -3.1510 -2.8044
 4225SOL    HW224309   2.050   0.028  14.991 -2.5054 -0.5850  0.6036
 4226SOL     OW24310   4.557   1.838   6.659  0.3792 -0.3340 -0.5480
 4226SOL    HW124311   4.550   1.878   6.573  0.6678 -2.2461 -1.4647
 4226SOL    HW224312   4.557   1.912   6.720  2.6406  0.1675 -1.1625
 4227SOL     OW24313   3.470   1.049  11.962 -0.2054 -0.1040  0.1216
 4227SOL    HW124314   3.442   0.959  11.946 -3.0494  0.5575  1.2436
 4227SOL    HW224315   3.407   1.075  12.029  0.4874  2.7970 -0.3618
 4228SOL     OW24316   2.428   1.792   6.993 -0.1616 -0.1520  0.0475
 4228SOL    HW124317   2.402   1.818   6.905  0.1659 -0.9620 -0.2931
 4228SOL    HW224318   2.364   1.723   7.013 -0.9500  1.0327  1.5885
 4229SOL     OW24319   2.683   0.999   3.369  0.0331 -0.2448 -0.1603
 4229SOL    HW124320   2.718   0.977   3.283  1.3223 -2.0973  0.8432
 4229SOL    HW224321   2.754   0.970   3.425 -0.2294  0.1170  0.3624
 4230SOL     OW24322   4.544   2.098   4.923 -0.3380 -0.3318 -0.2683
 4230SOL    HW124323   4.532   2.105   5.018 -1.4443 -0.0713 -0.4219
 4230SOL    HW224324   4.455   2.089   4.887 -1.0524  2.0510  0.9293
 4231SOL     OW24325   0.841   1.262   6.583 -0.3716  0.6550 -0.2164
 4231SOL    HW124326   0.854   1.338   6.527  0.7178 -0.2480 -1.1967
 4231SOL    HW224327   0.775   1.308   6.635  0.6789  0.9896  0.8179
 4232SOL     OW24328   4.678   0.635   5.252 -0.2108  0.1485  0.4508
 4232SOL    HW124329   4.692   0.547   5.217 -0.3351  0.0264  0.7064
 4232SOL    HW224330   4.585   0.646   5.231  0.5257  1.3058 -2.2355
 4233SOL     OW24331   1.512   1.304  12.402 -0.6894 -0.2428 -0.3569
 4233SOL    HW124332   1.517   1.265  12.490  0.8679  1.7029  0.4013
 4233SOL    HW224333   1.418   1.313  12.384 -0.4378 -0.5319 -1.8383
 4234SOL     OW24334   2.624   4.266   8.515  0.1988  0.0499  0.2540
 4234SOL    HW124335   2.654   4.201   8.452  3.8000  0.5542  1.4405
 4234SOL    HW224336   2.663   4.348   8.486 -0.8934  1.3662  2.4707
 4235SOL     OW24337   0.678   4.407   4.683  0.3505  0.1239  0.1328
 4235SOL    HW124338   0.617   4.435   4.751  0.8331 -2.9542  1.8378
 4235SOL    HW224339   0.720   4.340   4.737 -1.5195 -0.5621  0.7760
 4236SOL     OW24340   1.305   1.319   8.533  0.2546 -0.6770  0.1960
 4236SOL    HW124341   1.227   1.374   8.543  0.8586  0.0929  0.6940
 4236SOL    HW224342   1.377   1.368   8.572 -1.1455  1.9610 -0.5171
 4237SOL     OW24343   3.913   3.846   4.749 -0.1734 -0.1904 -0.5814
 4237SOL    HW124344   4.006   3.826   4.761 -0.1940 -1.0110 -1.8261
 4237SOL    HW224345   3.922   3.931   4.707 -2.4149  0.8287  1.0026
 4238SOL     OW24346   2.015   2.794   4.898  0.2574 -0.4774 -0.2872
 4238SOL    HW124347   2.110   2.800   4.889  0.3925 -1.4018  0.4734
 4238SOL    HW224348   2.007   2.707   4.938 -1.0505 -0.3251 -0.1910
 4239SOL     OW24349   1.005   4.179   0.210  0.1744  0.1013 -0.1006
 4239SOL    HW124350   1.024   4.152   0.300 -0.5009  0.4792  0.1544
 4239SOL    HW224351   1.059   4.110   0.173  1.2404  0.2308  1.1941
 4240SOL     OW24352   1.474   2.583   2.611  0.2618  0.6048 -0.5584
 4240SOL    HW124353   1.495   2.596   2.704 -1.3600 -0.6495 -0.0175
 4240SOL    HW224354   1.541   2.524   2.576 -1.0339  0.1149 -2.1768
 4241SOL     OW24355   1.204   4.409   4.077  0.3187 -0.3702  0.2532
 4241SOL    HW124356   1.147   4.394   4.152  2.0215 -2.6603  1.0767
 4241SOL    HW224357   1.282   4.370   4.117  0.4325 -1.4053 -0.9723
 4242SOL     OW24358   0.615   0.442   7.204  0.1187 -1.0617 -0.3022
 4242SOL    HW124359   0.551   0.498   7.160 -0.1248 -2.1356 -1.2931
 4242SOL    HW224360   0.667   0.501   7.260 -0.4580 -0.2716 -0.5939
 4243SOL     OW24361   4.396   1.795   4.914  0.0486  0.6045  0.1430
 4243SOL    HW124362   4.359   1.883   4.905 -0.1997  0.4994  0.1366
 4243SOL    HW224363   4.446   1.808   4.995 -0.4856 -1.4448  0.8088
 4244SOL     OW24364   1.901   2.291   4.244 -0.2169  0.4544 -0.1170
 4244SOL    HW124365   1.850   2.239   4.182 -1.8572  3.4953 -1.3258
 4244SOL    HW224366   1.951   2.228   4.295 -0.8290  1.2321  1.4247
 4245SOL     OW24367   1.505   1.935   4.382  0.0781  0.1301  0.0495
 4245SOL    HW124368   1.566   1.935   4.456 -0.5998  0.8731  0.6026
 4245SOL    HW224369   1.492   2.029   4.365  1.4433  0.3574  0.2396
 4246SOL     OW24370   1.103   3.284   1.165  0.2719 -0.2707  0.0753
 4246SOL    HW124371   1.182   3.263   1.214  0.6963  0.3967 -0.3259
 4246SOL    HW224372   1.133   3.284   1.074 -0.0513  0.1659 -0.0325
 4247SOL     OW24373   4.289   2.343   9.455 -0.3216  0.0012  0.4394
 4247SOL    HW124374   4.216   2.363   9.396 -0.8436  0.0814  1.1073
 4247SOL    HW224375   4.371   2.346   9.406 -0.6520 -1.6558 -0.2276
 4248SOL     OW24376   0.995   1.700  10.291 -0.0397  0.4294  0.1271
 4248SOL    HW124377   0.970   1.658  10.374 -0.2043  3.4188  1.5737
 4248SOL    HW224378   0.907   1.729  10.265  0.3131  1.1641 -0.2344
 4249SOL     OW24379   2.117   0.770   5.748 -0.3213  0.2256  0.0183
 4249SOL    HW124380   2.047   0.711   5.720 -0.0776 -0.3345  0.5720
 4249SOL    HW224381   2.183   0.709   5.781 -1.2853 -1.3127 -0.8893
 4250SOL     OW24382   3.759   0.465  13.335 -0.2431 -0.0866 -0.2448
 4250SOL    HW124383   3.772   0.402  13.406  2.1444 -0.5057 -1.0572
 4250SOL    HW224384   3.709   0.537  13.374  3.4529  3.0704 -1.4038
 4251SOL     OW24385   1.309   2.933   0.524  0.1047  0.1903 -0.0162
 4251SOL    HW124386   1.287   3.026   0.519  1.2076  0.5128  1.4013
 4251SOL    HW224387   1.404   2.925   0.535  0.2062  0.4845 -0.6535
 4252SOL     OW24388   2.882   3.893   8.955 -0.1867 -0.3399 -0.2532
 4252SOL    HW124389   2.959   3.882   8.898 -0.4107 -0.1540 -0.5922
 4252SOL    HW224390   2.935   3.869   9.031  0.3567 -1.4386 -0.9728
 4253SOL     OW24391   1.484   1.043   2.547 -0.6085 -0.2340 -0.2908
 4253SOL    HW124392   1.420   1.045   2.476  0.0703  0.2640 -0.8902
 4253SOL    HW224393   1.539   1.116   2.518  0.7942 -0.4259  1.8377
 4254SOL     OW24394   1.669   1.873   4.924 -0.0520  0.2318  0.2759
 4254SOL    HW124395   1.590   1.849   4.875  0.1584 -0.3364  0.2134
 4254SOL    HW224396   1.741   1.890   4.863  0.1077 -4.0403 -0.7353
 4255SOL     OW24397   2.347   0.326  10.282 -0.2273  0.1596  0.8453
 4255SOL    HW124398   2.272   0.268  10.295 -1.3978  1.2700 -0.8920
 4255SOL    HW224399   2.416   0.260  10.279  0.3568  0.6967  2.5437
 4256SOL     OW24400   0.373   4.545   4.911  0.3862 -0.4271  0.1412
 4256SOL    HW124401   0.362   4.572   5.002  0.3681  2.9150 -0.8432
 4256SOL    HW224402   0.372   4.451   4.930 -2.2935 -0.6471 -1.0883
 4257SOL     OW24403   2.570   2.201  14.752 -0.3401 -0.6319 -0.1492
 4257SOL    HW124404   2.517   2.138  14.800  1.2789 -2.0651 -0.2470
 4257SOL    HW224405   2.588   2.259  14.826 -0.9216 -1.2335  0.4620
 4258SOL     OW24406   2.374   1.578   4.194  0.3988 -0.1380 -0.4045
 4258SOL    HW124407   2.374   1.674   4.190  0.7915 -0.1305 -0.2490
 4258SOL    HW224408   2.454   1.566   4.246  0.2873  2.5662  0.3879
 4259SOL     OW24409   0.294   0.037   2.180  0.0448 -0.2586 -0.1236
 4259SOL    HW124410   0.300   4.679   2.176  2.8605 -0.0280 -1.2199
 4259SOL    HW224411   0.328   0.062   2.266 -0.7797  0.0273  0.1235
 4260SOL     OW24412   0.795   2.246   5.977 -0.0360 -0.3646  0.1161
 4260SOL    HW124413   0.837   2.246   6.063  1.6299  0.4499 -0.7015
 4260SOL    HW224414   0.709   2.284   5.996 -0.1856 -1.2322  1.1838
 4261SOL     OW24415   2.321   2.760   7.730  0.0324  0.1706  0.9218
 4261SOL    HW124416   2.248   2.706   7.759  0.2928  0.2312  1.7146
 4261SOL    HW224417   2.386   2.693   7.707 -1.2337  0.2693 -2.7988
 4262SOL     OW24418   2.478   0.583   4.289 -0.1367 -0.2658  0.1207
 4262SOL    HW124419   2.495   0.651   4.353 -0.5085 -0.0691  0.0117
 4262SOL    HW224420   2.527   0.506   4.317  2.0865  0.6205 -1.3102
 4263SOL     OW24421   3.827   3.960   7.767 -0.3517 -0.0514  0.5255
 4263SOL    HW124422   3.819   3.897   7.695  2.1791 -2.9739  2.7790
 4263SOL    HW224423   3.891   4.017   7.725  0.3769 -1.3484 -0.1127
 4264SOL     OW24424   3.236   2.453  12.278 -0.1657  0.1506 -0.0395
 4264SOL    HW124425   3.290   2.379  12.304 -2.6007 -0.4326  3.3142
 4264SOL    HW224426   3.247   2.504  12.358 -1.0848  0.5744 -0.1835
 4265SOL     OW24427   3.704   0.859   1.903  0.5731 -0.0884 -0.1189
 4265SOL    HW124428   3.668   0.928   1.847  0.7231  0.4878  0.4914
 4265SOL    HW224429   3.655   0.882   1.983  0.9745 -0.4624  0.2351
 4266SOL     OW24430   2.916   4.059   7.471 -0.5169  0.4484  0.3557
 4266SOL    HW124431   2.975   4.134   7.477  0.1858 -0.2572  2.2737
 4266SOL    HW224432   2.896   4.033   7.561  1.4147  0.5343  0.7907
 4267SOL     OW24433   3.803   2.126   6.502  0.1830  0.0774  0.2635
 4267SOL    HW124434   3.787   2.050   6.446 -0.3106 -0.1388  0.6925
 4267SOL    HW224435   3.810   2.087   6.589 -0.4913 -0.8586 -0.1003
 4268SOL     OW24436   2.974   4.136  11.308 -0.4621 -0.2854 -0.2564
 4268SOL    HW124437   2.946   4.101  11.393  1.6530  1.2428  1.0541
 4268SOL    HW224438   2.902   4.198  11.294 -1.4961 -1.8339 -1.7402
 4269SOL     OW24439   4.206   2.315  11.812  0.5434 -0.1553 -0.2294
 4269SOL    HW124440   4.277   2.251  11.819 -0.7223 -1.5139  0.1911
 4269SOL    HW224441   4.230   2.367  11.889 -0.4969  1.5928 -1.0794
 4270SOL     OW24442   0.081   1.393   4.777  0.2283 -0.4500 -0.1518
 4270SOL    HW124443   0.079   1.488   4.764 -0.5415 -0.3958  0.3527
 4270SOL    HW224444   0.090   1.361   4.688  0.7674 -1.4223  0.2529
 4271SOL     OW24445   2.706   1.897   2.999 -0.2929 -0.0891 -0.7992
 4271SOL    HW124446   2.734   1.922   3.087  3.3000 -0.2244 -1.9381
 4271SOL    HW224447   2.613   1.919   3.003  0.4641  3.0496 -0.9331
 4272SOL     OW24448   1.079   1.792   1.838 -0.0542 -0.5241 -0.2027
 4272SOL    HW124449   1.066   1.886   1.844 -0.1394 -0.6105  0.9185
 4272SOL    HW224450   1.022   1.758   1.907 -0.4022 -0.9381 -0.6850
 4273SOL     OW24451   2.273   2.785   1.672 -0.7282 -0.2171  0.6448
 4273SOL    HW124452   2.254   2.763   1.764  0.1145 -0.6306  0.7206
 4273SOL    HW224453   2.248   2.877   1.671 -0.0512 -0.0538 -0.2023
 4274SOL     OW24454   1.242   0.541   3.671  0.2759 -0.5466 -0.0360
 4274SOL    HW124455   1.285   0.608   3.724 -0.7182  0.6505 -0.7338
 4274SOL    HW224456   1.299   0.527   3.595 -0.8309 -1.6221 -0.6627
 4275SOL     OW24457   1.241   3.378   5.246  0.5804 -0.7372  0.0647
 4275SOL    HW124458   1.333   3.356   5.256  1.9053  3.3087 -3.3373
 4275SOL    HW224459   1.195   3.295   5.238  0.6500 -0.7050 -0.7266
 4276SOL     OW24460   4.578   2.314  12.198  0.6534 -0.0515 -0.3153
 4276SOL    HW124461   4.647   2.250  12.180  0.4377 -0.5554  0.6687
 4276SOL    HW224462   4.608   2.392  12.151 -2.6449  1.4483  0.0581
 4277SOL     OW24463   0.131   3.352   6.478 -0.3021 -0.1443 -0.1637
 4277SOL    HW124464   0.184   3.352   6.398 -1.0657  1.3759 -0.6705
 4277SOL    HW224465   0.107   3.259   6.473  0.4504 -0.3559  0.1016
 4278SOL     OW24466   3.791   1.915  13.199 -0.3514  0.1402 -0.1379
 4278SOL    HW124467   3.795   1.882  13.289 -2.4701 -0.5508 -0.2935
 4278SOL    HW224468   3.764   2.004  13.223 -0.4521  0.5965 -1.9898
 4279SOL     OW24469   1.201   3.011   1.184 -0.2894 -0.6294 -0.2145
 4279SOL    HW124470   1.145   3.036   1.111 -0.2534  1.0189  0.3121
 4279SOL    HW224471   1.275   3.071   1.175 -0.3463 -0.6996 -1.1241
 4280SOL     OW24472   1.624   4.099   6.791 -0.1782 -0.2265 -0.1058
 4280SOL    HW124473   1.697   4.138   6.841 -1.9680  3.5623 -0.4123
 4280SOL    HW224474   1.669   4.066   6.713  1.9535 -1.6133  1.6974
 4281SOL     OW24475   4.072   2.284   1.759  0.5164  0.0692 -0.4413
 4281SOL    HW124476   4.040   2.257   1.845  0.2171  0.1837 -0.5156
 4281SOL    HW224477   3.989   2.306   1.719 -0.0086 -1.5920 -0.2428
 4282SOL     OW24478   1.250   1.419   1.277  0.6052 -0.9522  0.0216
 4282SOL    HW124479   1.245   1.514   1.277  1.4718 -0.9075  0.6443
 4282SOL    HW224480   1.190   1.398   1.206 -1.6601  2.1077  1.0768
 4283SOL     OW24481   1.483   1.923   7.567  0.1222  0.5820 -0.1819
 4283SOL    HW124482   1.414   1.870   7.607 -0.6860  1.9663  0.2443
 4283SOL    HW224483   1.560   1.873   7.596  1.2285  0.1916 -3.7846
 4284SOL     OW24484   1.371   3.001   3.360 -0.2779 -0.1412 -0.1984
 4284SOL    HW124485   1.317   2.952   3.422  0.0433 -0.1697  0.0602
 4284SOL    HW224486   1.423   2.927   3.330 -0.5705 -0.1203 -0.7496
 4285SOL     OW24487   0.434   2.278   6.719  0.4526  0.1538  0.3445
 4285SOL    HW124488   0.426   2.336   6.795 -1.0650  0.3372  0.0366
 4285SOL    HW224489   0.504   2.221   6.749 -0.8853 -0.2893  2.5553
 4286SOL     OW24490   2.468   4.059   3.430 -0.3738  0.1668  0.0891
 4286SOL    HW124491   2.482   3.964   3.433  1.3308  0.3737 -1.3743
 4286SOL    HW224492   2.372   4.061   3.435 -0.3326 -0.7470  1.1422
 4287SOL     OW24493   1.897   1.363  15.988  0.4140 -0.1899  0.2001
 4287SOL    HW124494   1.886   1.458  15.989  4.0990  0.2533 -0.1651
 4287SOL    HW224495   1.908   1.344  15.895 -4.3570  2.2807 -0.8563
 4288SOL     OW24496   1.079   4.407   2.147 -0.0797 -0.1807 -0.2101
 4288SOL    HW124497   1.100   4.378   2.236  1.8876  2.8508  0.3198
 4288SOL    HW224498   1.133   4.483   2.125 -2.1190  1.7683  1.5562
 4289SOL     OW24499   3.146   1.733   1.778 -0.1558 -0.3375  0.1106
 4289SOL    HW124500   3.158   1.655   1.833 -2.2160 -1.4078 -0.9675
 4289SOL    HW224501   3.213   1.790   1.815 -0.5373 -0.1526  0.5150
 4290SOL     OW24502   0.902   1.710   1.346  0.7081 -0.4132  0.1178
 4290SOL    HW124503   0.813   1.713   1.384  1.5799  0.3134  2.1249
 4290SOL    HW224504   0.865   1.664   1.271  0.6893 -1.1667  0.5872
 4291SOL     OW24505   1.622   1.444  12.635  0.4226  0.1040 -0.3412
 4291SOL    HW124506   1.553   1.499  12.600  0.0542  1.2335  2.1480
 4291SOL    HW224507   1.698   1.493  12.603  0.5297  0.6889  0.8187
 4292SOL     OW24508   2.393   1.878  13.505 -0.3992  0.2293  1.2011
 4292SOL    HW124509   2.401   1.833  13.589  1.7520 -1.2293  0.2214
 4292SOL    HW224510   2.483   1.888  13.473 -1.4892 -0.4627 -2.0665
 4293SOL     OW24511   1.654   1.340   3.476 -0.4457 -0.0327  0.1506
 4293SOL    HW124512   1.744   1.364   3.501 -0.4248 -0.8100  0.8173
 4293SOL    HW224513   1.675   1.277   3.407 -0.6231 -0.8932  0.8759
 4294SOL     OW24514   0.329   3.021  17.368 -0.0336 -0.1405 -0.7682
 4294SOL    HW124515   0.285   3.099  17.335  1.4017  0.1787 -1.9304
 4294SOL    HW224516   0.406   3.052  17.416 -1.2039 -1.0119  1.6848
 4295SOL     OW24517   2.032   3.721   9.685  0.3323  0.3418 -0.5240
 4295SOL    HW124518   1.982   3.802   9.686  0.9842  0.7454 -0.2434
 4295SOL    HW224519   2.023   3.693   9.776  2.1621  0.4145 -0.3106
 4296SOL     OW24520   0.243   0.991   8.341  0.3189  0.5980 -0.1966
 4296SOL    HW124521   0.336   0.974   8.326  0.3754  2.5473 -2.0515
 4296SOL    HW224522   0.253   1.064   8.402  0.4334  2.1274 -2.0619
 4297SOL     OW24523   0.952   4.359   4.492  0.3013  0.2025  0.3471
 4297SOL    HW124524   0.968   4.434   4.435  0.7816  0.0436  0.2766
 4297SOL    HW224525   0.993   4.289   4.441 -0.2445 -0.9610  1.4999
 4298SOL     OW24526   1.642   1.039   5.315 -1.0452  0.2916 -0.2794
 4298SOL    HW124527   1.642   1.014   5.223 -1.0343 -0.5672 -0.0442
 4298SOL    HW224528   1.699   1.116   5.306 -0.5295  0.0096  0.5489
 4299SOL     OW24529   4.026   2.664   8.348 -0.2418 -0.0657 -0.2800
 4299SOL    HW124530   3.958   2.634   8.288  0.0087 -0.8120 -0.1972
 4299SOL    HW224531   3.972   2.708   8.414 -1.9260 -1.3397 -0.8021
 4300SOL     OW24532   1.518   3.341   2.854  0.3080  0.7696 -0.6902
 4300SOL    HW124533   1.474   3.364   2.935 -1.5641 -0.3136 -1.4129
 4300SOL    HW224534   1.455   3.283   2.812  1.6880 -2.1292  1.2685
 4301SOL     OW24535   2.864   2.644   2.389  0.0524 -0.0039 -0.6268
 4301SOL    HW124536   2.864   2.695   2.470 -2.7286  1.3953 -1.4986
 4301SOL    HW224537   2.865   2.720   2.330 -2.3788  0.2490 -0.3211
 4302SOL     OW24538   2.848   0.180   8.269 -0.4791  0.0927 -1.0603
 4302SOL    HW124539   2.894   0.137   8.342 -1.4931 -1.7908 -1.5263
 4302SOL    HW224540   2.759   0.164   8.302 -0.6392 -0.6606 -1.8667
 4303SOL     OW24541   1.608   2.348   5.744  0.6577  0.5025  0.2967
 4303SOL    HW124542   1.636   2.257   5.729  0.2858  0.3115  0.7711
 4303SOL    HW224543   1.678   2.397   5.701  1.3893 -0.7199  0.1098
 4304SOL     OW24544   2.959   1.235   7.678 -0.3136 -0.0792  0.9189
 4304SOL    HW124545   3.032   1.245   7.739  0.4979  2.0267 -0.3788
 4304SOL    HW224546   2.914   1.319   7.672 -0.1525 -0.0531 -0.0465
 4305SOL     OW24547   3.622   2.041   2.019  0.0309  0.0464  0.0624
 4305SOL    HW124548   3.623   1.965   2.077 -0.7271  1.0612  1.3957
 4305SOL    HW224549   3.655   1.994   1.942  1.7056  1.0972  0.1307
 4306SOL     OW24550   4.649   3.534   8.356  0.1905 -0.8634  0.0042
 4306SOL    HW124551   4.661   3.475   8.281 -2.2809 -0.2030 -0.9256
 4306SOL    HW224552   0.004   3.551   8.370  0.1891 -1.3806  0.6559
 4307SOL     OW24553   3.342   2.572  12.529  0.3725 -0.0622 -0.2889
 4307SOL    HW124554   3.247   2.568  12.538  0.6079 -0.6469  1.9104
 4307SOL    HW224555   3.365   2.611  12.613 -1.5491 -1.6499  0.9682
 4308SOL     OW24556   0.322   3.359   4.081 -0.1480  0.6131  0.0023
 4308SOL    HW124557   0.232   3.358   4.049 -0.2370  0.4093  0.2679
 4308SOL    HW224558   0.365   3.315   4.008  3.9664  2.7623  1.1313
 4309SOL     OW24559   1.795   1.525   4.916  0.0391 -0.2745  0.0361
 4309SOL    HW124560   1.882   1.561   4.895 -0.6838  0.4734 -1.7164
 4309SOL    HW224561   1.820   1.446   4.964  1.5171 -0.5765 -1.2229
 4310SOL     OW24562   2.840   4.254  13.755  0.6895  0.2796  0.0906
 4310SOL    HW124563   2.914   4.198  13.731 -0.1446 -0.5468 -0.5506
 4310SOL    HW224564   2.770   4.190  13.768  1.2002 -0.4332 -0.6338
 4311SOL     OW24565   1.954   0.585  17.623 -0.2303  0.9603  0.3247
 4311SOL    HW124566   1.974   0.502  17.667  2.6254  0.8911 -1.1440
 4311SOL    HW224567   2.035   0.597  17.573 -0.7467 -0.2617 -0.8065
 4312SOL     OW24568   1.075   1.495   3.763  0.0414  0.1109  0.0138
 4312SOL    HW124569   1.143   1.555   3.791  0.4533  0.5358 -1.9248
 4312SOL    HW224570   1.121   1.429   3.711  3.4399  2.1564  0.4535
 4313SOL     OW24571   1.292   3.880   5.827 -0.1944 -0.5738 -0.0542
 4313SOL    HW124572   1.251   3.842   5.749 -1.5987  3.0113 -1.0631
 4313SOL    HW224573   1.254   3.967   5.831 -0.1056 -0.4550 -1.6921
 4314SOL     OW24574   4.200   1.982   3.525 -0.2041  0.0773 -0.6983
 4314SOL    HW124575   4.276   1.948   3.479  2.2802 -0.0180  3.5042
 4314SOL    HW224576   4.126   1.940   3.481 -0.4885  0.2660 -0.4050
 4315SOL     OW24577   2.840   2.360   3.700  0.6380 -0.0547  0.1307
 4315SOL    HW124578   2.861   2.358   3.606 -2.3863  0.6561 -0.5644
 4315SOL    HW224579   2.749   2.388   3.696  0.3373 -1.1824 -0.8735
 4316SOL     OW24580   4.032   2.751   2.001 -0.0887  0.1327 -0.7393
 4316SOL    HW124581   4.033   2.845   2.017  0.0467  0.3243 -1.8429
 4316SOL    HW224582   4.011   2.726   2.091  0.1725 -1.1056 -1.0289
 4317SOL     OW24583   3.148   0.543   5.748  0.1261  0.2149  0.0617
 4317SOL    HW124584   3.205   0.497   5.809 -0.5878 -0.7174  0.0324
 4317SOL    HW224585   3.209   0.614   5.730  1.5912 -1.0283  0.1880
 4318SOL     OW24586   0.345   1.433   3.803  0.0333 -0.0795 -0.2472
 4318SOL    HW124587   0.436   1.426   3.774  0.7057  0.0490  1.8026
 4318SOL    HW224588   0.295   1.395   3.731  0.3864 -0.5650 -0.2365
 4319SOL     OW24589   3.022   2.214   5.273  0.5957  0.4070  0.3300
 4319SOL    HW124590   2.971   2.147   5.228 -1.0718  1.0673  1.2107
 4319SOL    HW224591   3.110   2.177   5.268  0.5021  0.0853  0.9633
 4320SOL     OW24592   1.215   1.845   8.330  0.2596 -0.4186 -0.0884
 4320SOL    HW124593   1.297   1.843   8.381 -0.4118  1.0802  1.0522
 4320SOL    HW224594   1.144   1.810   8.385 -2.3444  3.8934 -0.7216
 4321SOL     OW24595   0.396   2.949   3.524  0.1470  0.0244  0.0899
 4321SOL    HW124596   0.404   2.877   3.461 -0.6036  0.0563 -0.0514
 4321SOL    HW224597   0.300   2.955   3.532 -0.0301  0.1337 -2.0256
 4322SOL     OW24598   2.380   1.133  11.490 -0.2237  0.5645 -0.5870
 4322SOL    HW124599   2.437   1.209  11.494 -1.6903  1.7020 -1.3693
 4322SOL    HW224600   2.311   1.154  11.553 -0.5807  1.0728 -1.1471
 4323SOL     OW24601   0.976   3.785   7.443 -0.2582 -0.4631  0.0715
 4323SOL    HW124602   0.921   3.732   7.501  0.9785 -0.7870  0.9536
 4323SOL    HW224603   0.916   3.851   7.409 -0.2453  0.5842  2.1041
 4324SOL     OW24604   4.621   4.558   9.396 -0.3047  0.6906  0.2634
 4324SOL    HW124605   4.637   4.651   9.413  2.8511 -0.1714  1.9624
 4324SOL    HW224606   4.662   4.553   9.309 -1.0631 -1.3370  0.0405
 4325SOL     OW24607   4.322   1.459   8.623  0.5036  0.1784  0.5333
 4325SOL    HW124608   4.351   1.545   8.593  1.1594 -0.3690 -0.3925
 4325SOL    HW224609   4.338   1.401   8.548  0.0118 -0.0741  0.6229
 4326SOL     OW24610   3.197   0.684   3.815 -0.0938  0.5908 -0.5346
 4326SOL    HW124611   3.255   0.716   3.884  0.5732 -1.4372 -0.1677
 4326SOL    HW224612   3.257   0.649   3.750 -0.1162 -0.0013 -0.2368
 4327SOL     OW24613   4.168   3.926   8.182  0.1031 -0.3445 -0.2625
 4327SOL    HW124614   4.251   3.975   8.181 -0.4232  0.5660  3.1117
 4327SOL    HW224615   4.138   3.947   8.094  0.7831  2.3640  0.1505
 4328SOL     OW24616   3.146   2.063   9.162  0.0939  0.0093  0.9927
 4328SOL    HW124617   3.236   2.045   9.190  0.5639  0.3379 -0.3035
 4328SOL    HW224618   3.121   1.978   9.125  1.0183  0.1065  0.1425
 4329SOL     OW24619   3.835   4.664  14.283  0.1051  0.4971  0.1358
 4329SOL    HW124620   3.772   4.734  14.301 -0.7537  0.1116 -1.3673
 4329SOL    HW224621   3.779   4.587  14.272  1.9737 -0.5782 -1.8378
 4330SOL     OW24622   3.829   4.217   8.269 -0.1150 -0.3813  0.7179
 4330SOL    HW124623   3.783   4.140   8.304 -0.9603  0.7650  2.0765
 4330SOL    HW224624   3.869   4.167   8.197 -1.4922  1.6615 -1.4643
 4331SOL     OW24625   2.317   1.557   6.536 -0.0918  0.0333  0.2148
 4331SOL    HW124626   2.227   1.585   6.548  0.1563  0.9145 -0.0278
 4331SOL    HW224627   2.318   1.486   6.601 -2.0767 -0.0450  0.1414
 4332SOL     OW24628   2.737   4.256   6.741 -0.2243  0.2335  0.6325
 4332SOL    HW124629   2.704   4.171   6.770  2.1731 -0.6056  0.8723
 4332SOL    HW224630   2.813   4.228   6.690 -0.1580 -0.3253  1.0308
 4333SOL     OW24631   2.213   4.384   2.285 -0.0482 -0.1335  0.2800
 4333SOL    HW124632   2.269   4.330   2.230 -0.2398 -1.4485  1.3740
 4333SOL    HW224633   2.261   4.467   2.282  0.2401 -0.2364  2.0111
 4334SOL     OW24634   3.769   1.776  11.780 -0.6768 -0.5607 -0.2155
 4334SOL    HW124635   3.714   1.742  11.709  0.6286  0.1204 -1.5394
 4334SOL    HW224636   3.835   1.707  11.782 -1.4672 -1.2657  1.3164
 4335SOL     OW24637   2.018   3.206   7.100 -0.3720 -0.1997 -0.1749
 4335SOL    HW124638   2.018   3.168   7.188 -0.9351 -2.5137 -1.1833
 4335SOL    HW224639   1.939   3.259   7.112  0.0417  0.2780  0.4455
 4336SOL     OW24640   4.414   2.047   6.119 -0.1536  0.0133 -0.0324
 4336SOL    HW124641   4.490   2.005   6.158  1.2991  0.8688 -1.9221
 4336SOL    HW224642   4.457   2.119   6.072  2.3077 -1.9482 -0.7631
 4337SOL     OW24643   4.523   0.606   5.846 -0.0599 -0.2303 -0.1534
 4337SOL    HW124644   4.586   0.549   5.891 -0.6846 -0.0389  0.9412
 4337SOL    HW224645   4.498   0.672   5.910 -2.6802  1.1371 -2.6090
 4338SOL     OW24646   3.097   3.079   9.476  0.6328 -0.3455  0.9342
 4338SOL    HW124647   3.059   3.141   9.538 -2.0722  0.2839 -1.3632
 4338SOL    HW224648   3.021   3.050   9.425 -1.5524  0.7607  3.5364
 4339SOL     OW24649   3.256   2.955   8.606  0.0176  0.4516 -0.2121
 4339SOL    HW124650   3.278   3.011   8.681 -0.6125  0.2503  0.1165
 4339SOL    HW224651   3.191   3.005   8.557 -0.7905  0.0317  0.4350
 4340SOL     OW24652   3.062   1.228  16.975  0.2966 -0.3311 -0.0574
 4340SOL    HW124653   3.137   1.169  16.977  1.1307  0.7451  0.8167
 4340SOL    HW224654   3.018   1.208  16.892 -0.1855  0.9734 -0.1253
 4341SOL     OW24655   3.039   0.076   8.464 -0.1866 -0.6132 -0.4935
 4341SOL    HW124656   3.035   0.006   8.529 -0.5439 -0.6629 -0.5735
 4341SOL    HW224657   3.084   0.140   8.520 -0.9429 -0.3648 -0.1784
 4342SOL     OW24658   1.105   3.125   3.445  0.1841 -0.7099 -0.5357
 4342SOL    HW124659   1.192   3.147   3.478 -0.5221  1.6302 -0.2351
 4342SOL    HW224660   1.111   3.030   3.458 -1.4436 -0.9829 -1.7288
 4343SOL     OW24661   3.296   2.487   8.483  0.2290  0.5071  0.0213
 4343SOL    HW124662   3.261   2.465   8.396  1.4055 -0.5577 -0.1774
 4343SOL    HW224663   3.277   2.410   8.535 -1.1096  0.2490 -0.8515
 4344SOL     OW24664   3.094   3.435   6.644 -0.5714 -0.0658  0.3187
 4344SOL    HW124665   3.133   3.411   6.728  1.1449 -0.0665 -0.4912
 4344SOL    HW224666   3.131   3.523   6.636 -1.0607  0.2753  1.8996
 4345SOL     OW24667   2.188   3.361   6.178 -0.1864 -0.1230  0.1055
 4345SOL    HW124668   2.094   3.346   6.164 -0.1550 -2.0950  1.9508
 4345SOL    HW224669   2.219   3.271   6.189 -1.4258 -0.5098  0.4478
 4346SOL     OW24670   3.319   2.235   8.890 -0.1247 -0.1937 -0.4873
 4346SOL    HW124671   3.363   2.151   8.904 -1.2921 -0.3891  2.0665
 4346SOL    HW224672   3.227   2.209   8.877 -0.5382  1.0598 -0.0009
 4347SOL     OW24673   1.267   0.496   2.804 -0.0582 -0.2651 -0.5061
 4347SOL    HW124674   1.199   0.455   2.857  0.4207  2.1746  1.9980
 4347SOL    HW224675   1.245   0.460   2.718 -0.3098 -0.0146 -0.5485
 4348SOL     OW24676   2.220   2.169  17.601  0.1796  0.1445  0.5740
 4348SOL    HW124677   2.196   2.087  17.558  0.1497  0.4064  0.0900
 4348SOL    HW224678   2.266   2.217  17.532 -0.5669  0.8682  0.5796
 4349SOL     OW24679   4.053   4.246   4.967 -0.0789  0.5138  0.3023
 4349SOL    HW124680   4.047   4.165   4.917  0.7944 -0.9231  2.5372
 4349SOL    HW224681   4.100   4.226   5.048 -0.2401  0.6671  0.4344
 4350SOL     OW24682   2.302   0.872   3.024  0.0131 -0.0678  0.1387
 4350SOL    HW124683   2.243   0.943   3.048 -1.0211 -0.2692 -1.7798
 4350SOL    HW224684   2.382   0.900   3.069 -0.3861  1.8704 -0.3751
 4351SOL     OW24685   3.267   1.004   6.659  0.3595  0.3693 -0.0062
 4351SOL    HW124686   3.314   1.032   6.738 -1.5954  1.2045  0.8629
 4351SOL    HW224687   3.288   0.911   6.661  0.9137  0.5598  3.6575
 4352SOL     OW24688   4.158   4.454   4.255  0.1924 -0.0915 -0.6747
 4352SOL    HW124689   4.122   4.506   4.326  2.6742 -0.8695  1.1853
 4352SOL    HW224690   4.199   4.527   4.209  1.9755 -0.4036  0.3737
 4353SOL     OW24691   3.835   1.671   4.164  0.0054  0.3165 -0.6508
 4353SOL    HW124692   3.823   1.638   4.253  0.3090  0.0441 -0.7083
 4353SOL    HW224693   3.746   1.671   4.128 -0.6178  0.9992  0.8762
 4354SOL     OW24694   0.746   0.314   8.068 -0.5429 -0.0804  0.6216
 4354SOL    HW124695   0.830   0.358   8.054  0.4136 -1.7119  1.2776
 4354SOL    HW224696   0.775   0.230   8.104  0.5485 -0.2043 -0.5564
 4355SOL     OW24697   0.626   3.632   2.207  0.1192  0.0644 -0.0077
 4355SOL    HW124698   0.585   3.692   2.269  0.3861 -1.3385  1.5500
 4355SOL    HW224699   0.718   3.658   2.211  0.5663 -1.5371  0.3916
 4356SOL     OW24700   4.174   2.205   8.484 -0.2362 -0.1370  0.1738
 4356SOL    HW124701   4.132   2.131   8.440 -0.4556 -2.2787  4.0071
 4356SOL    HW224702   4.126   2.209   8.566 -0.6592 -0.5282 -0.0552
 4357SOL     OW24703   1.621   2.124   2.563  0.1988 -0.2699  0.4960
 4357SOL    HW124704   1.572   2.057   2.611  0.6209 -0.4415  0.6914
 4357SOL    HW224705   1.672   2.066   2.506  1.3059  1.1351  0.0309
 4358SOL     OW24706   0.748   2.235   8.490  0.4272 -0.0101 -0.1679
 4358SOL    HW124707   0.838   2.248   8.462  1.6231 -0.9093  3.1766
 4358SOL    HW224708   0.742   2.140   8.504 -2.3377  0.1223 -0.3650
 4359SOL     OW24709   0.682   3.334   6.103 -0.0094 -0.8335 -0.4183
 4359SOL    HW124710   0.614   3.296   6.048 -0.0631  1.2868 -1.8392
 4359SOL    HW224711   0.726   3.257   6.139 -0.3364 -0.4818  0.7298
 4360SOL     OW24712   2.682   0.563   1.745  0.3554  0.0097  0.4701
 4360SOL    HW124713   2.740   0.568   1.669 -0.4351 -1.2810 -0.2051
 4360SOL    HW224714   2.667   0.469   1.748 -2.2613  0.4361  0.9940
 4361SOL     OW24715   0.949   4.455   9.855  0.2047 -0.2892  0.5664
 4361SOL    HW124716   1.004   4.508   9.912 -0.0851 -0.3790  0.9226
 4361SOL    HW224717   0.866   4.463   9.903 -1.0006 -1.6639 -1.2583
 4362SOL     OW24718   2.382   0.916   3.873 -0.3614  0.9028 -0.1486
 4362SOL    HW124719   2.418   0.883   3.956 -1.2099  0.9415  0.2353
 4362SOL    HW224720   2.380   0.833   3.825  1.4183  0.8396 -0.1098
 4363SOL     OW24721   2.667   0.483   9.284  0.0387 -0.8336 -0.0644
 4363SOL    HW124722   2.657   0.551   9.218  0.3116 -0.3318  0.4107
 4363SOL    HW224723   2.683   0.403   9.234 -1.4569  0.1401 -2.1033
 4364SOL     OW24724   0.391   3.273   9.984  0.1804 -0.1319 -0.1267
 4364SOL    HW124725   0.388   3.341  10.051 -0.5324 -0.0609 -0.2326
 4364SOL    HW224726   0.355   3.199  10.033 -1.5431  0.3025 -0.7527
 4365SOL     OW24727   3.397   1.882   9.731  0.0066 -0.0502 -0.2129
 4365SOL    HW124728   3.327   1.845   9.784  0.3031 -1.2093 -0.6340
 4365SOL    HW224729   3.406   1.975   9.752 -0.7704  0.3543 -1.7097
 4366SOL     OW24730   4.066   1.317   3.437 -0.2882 -0.1647  1.0007
 4366SOL    HW124731   4.091   1.308   3.528  0.7185  0.3824  0.7789
 4366SOL    HW224732   4.090   1.409   3.432 -0.3936 -0.1100  1.5476
 4367SOL     OW24733   2.917   2.889   8.651 -0.1054  0.0570  0.1749
 4367SOL    HW124734   2.964   2.806   8.645 -1.9312 -0.7676 -2.5229
 4367SOL    HW224735   2.848   2.880   8.586  1.8395 -0.7850 -1.7772
 4368SOL     OW24736   4.149   0.447  11.731  0.4460  0.1363 -0.3290
 4368SOL    HW124737   4.220   0.512  11.727  0.3567  0.3380  1.5338
 4368SOL    HW224738   4.104   0.472  11.811  0.0405  0.4341 -0.6526
 4369SOL     OW24739   3.485   2.381   9.066  0.4047  0.2716  0.1851
 4369SOL    HW124740   3.432   2.341   8.998  1.6922  1.2595 -1.3928
 4369SOL    HW224741   3.424   2.424   9.125  0.8163  1.2089 -0.0662
 4370SOL     OW24742   4.306   0.732   3.604 -0.0730  0.2212 -0.2162
 4370SOL    HW124743   4.401   0.726   3.603 -0.0969 -0.0693 -0.8222
 4370SOL    HW224744   4.292   0.691   3.518  0.9580 -1.5200  0.4505
 4371SOL     OW24745   3.203   0.105   3.961  0.1857 -0.4220  0.0935
 4371SOL    HW124746   3.151   0.163   3.905  0.4341  2.1755  2.5572
 4371SOL    HW224747   3.232   0.050   3.888 -0.0003 -0.4467  0.0377
 4372SOL     OW24748   2.382   4.155   3.166  0.1104 -0.6362  0.6425
 4372SOL    HW124749   2.352   4.144   3.256 -1.2588  3.7054  0.6966
 4372SOL    HW224750   2.453   4.218   3.180  0.5058 -0.7170 -1.0291
 4373SOL     OW24751   1.065   2.760   1.557 -0.3118 -0.1627 -0.3448
 4373SOL    HW124752   1.004   2.825   1.591  0.9587 -0.7922  3.1595
 4373SOL    HW224753   1.133   2.812   1.514  0.5864  0.5423  1.9293
 4374SOL     OW24754   3.890   0.040  14.674  0.2006  0.3614  0.2997
 4374SOL    HW124755   3.927   0.005  14.593  0.8268  0.9976  0.3126
 4374SOL    HW224756   3.815   0.078  14.628  0.8814  0.7922 -0.4682
 4375SOL     OW24757   0.690   1.394  14.226  0.1764 -0.5023 -0.5656
 4375SOL    HW124758   0.694   1.351  14.312 -0.6739 -0.3861 -0.4752
 4375SOL    HW224759   0.651   1.332  14.164 -0.7662  0.8967 -1.3704
 4376SOL     OW24760   3.690   2.576   5.856  0.4595  0.0312 -0.1294
 4376SOL    HW124761   3.600   2.570   5.890 -0.4865  2.9295 -2.1075
 4376SOL    HW224762   3.698   2.495   5.807  2.3264  0.7899 -1.0504
 4377SOL     OW24763   3.302   3.372  12.466  0.3122  0.2434 -0.2888
 4377SOL    HW124764   3.322   3.278  12.466  0.6429  0.3164  0.2515
 4377SOL    HW224765   3.208   3.372  12.446  0.2313  0.7750  0.0985
 4378SOL     OW24766   1.329   1.309   5.881 -0.2095 -0.3906  0.4714
 4378SOL    HW124767   1.391   1.253   5.928 -0.3906 -2.9362 -2.2882
 4378SOL    HW224768   1.263   1.245   5.855 -0.8601  0.1229  0.8482
 4379SOL     OW24769   3.735   0.309   6.289 -0.0305 -0.4840 -0.0938
 4379SOL    HW124770   3.682   0.299   6.368  0.0002  0.0200 -0.0077
 4379SOL    HW224771   3.770   0.396   6.309  2.0903 -1.3326 -0.1800
 4380SOL     OW24772   3.594   0.642   7.557  0.3138  0.0831 -0.2302
 4380SOL    HW124773   3.635   0.728   7.570  0.0903  0.1551 -0.0082
 4380SOL    HW224774   3.574   0.651   7.464 -0.3512 -0.3192 -0.1278
 4381SOL     OW24775   3.578   3.061   0.598  0.2910  0.1901 -0.9807
 4381SOL    HW124776   3.644   3.097   0.538  1.3144 -2.0357 -1.1727
 4381SOL    HW224777   3.517   3.023   0.535 -0.5500 -1.0231  0.5733
 4382SOL     OW24778   3.605   3.101   8.854  0.4912 -0.2144  0.4064
 4382SOL    HW124779   3.557   3.019   8.843 -0.8138  0.5839  0.2359
 4382SOL    HW224780   3.534   3.160   8.880  0.9167 -0.4119  1.9958
 4383SOL     OW24781   1.640   2.983   9.067  0.2682 -0.5375  0.3437
 4383SOL    HW124782   1.606   3.012   8.982 -1.1200 -1.1832  0.6797
 4383SOL    HW224783   1.581   2.908   9.078 -1.4175  1.0998  2.5271
 4384SOL     OW24784   2.807   1.380  11.783 -0.4431  0.7246  0.2181
 4384SOL    HW124785   2.826   1.328  11.705  0.1529  1.1415  0.0822
 4384SOL    HW224786   2.712   1.376  11.777 -0.3648 -0.1652 -0.4832
 4385SOL     OW24787   1.681   3.476   8.493 -0.1786  0.3481  0.1567
 4385SOL    HW124788   1.713   3.566   8.488 -1.4616  0.7708 -0.3118
 4385SOL    HW224789   1.618   3.471   8.421 -0.9183  2.2124  0.6676
 4386SOL     OW24790   0.601   0.630   0.464  0.3444 -0.1215 -0.1742
 4386SOL    HW124791   0.651   0.703   0.498  0.1037 -0.0351 -0.0048
 4386SOL    HW224792   0.546   0.605   0.538 -1.4681  1.7337 -0.8881
 4387SOL     OW24793   1.964   1.617  16.573 -0.2588 -0.3797  0.2479
 4387SOL    HW124794   2.051   1.652  16.552  0.7768 -1.3027  3.0381
 4387SOL    HW224795   1.932   1.574  16.494 -0.3117  0.6644 -0.3065
 4388SOL     OW24796   1.016   3.002   1.415  0.2659 -0.1789 -0.5495
 4388SOL    HW124797   1.067   2.993   1.335  0.2398 -2.8551 -0.2602
 4388SOL    HW224798   0.954   3.069   1.385 -0.2532 -0.0977  0.7011
 4389SOL     OW24799   4.168   1.086   7.602  0.2999  0.2689  0.3400
 4389SOL    HW124800   4.202   1.139   7.674  1.4382  0.1063 -0.0701
 4389SOL    HW224801   4.184   1.143   7.527 -0.9870 -0.1982 -0.2920
 4390SOL     OW24802   2.543   1.293   9.250 -0.0050  0.0719  0.0763
 4390SOL    HW124803   2.583   1.265   9.332  1.1871 -0.0806 -0.5537
 4390SOL    HW224804   2.575   1.383   9.245  2.8835 -0.7981  2.8025
 4391SOL     OW24805   1.852   0.625  14.590 -0.0409 -0.1869 -0.5022
 4391SOL    HW124806   1.904   0.703  14.610  0.3111 -0.3819 -0.6616
 4391SOL    HW224807   1.775   0.670  14.553 -1.0919 -1.3192  0.2984
 4392SOL     OW24808   3.612   0.298  11.571  0.0734  0.1207 -0.1156
 4392SOL    HW124809   3.599   0.206  11.547  0.2848  0.0224  0.1483
 4392SOL    HW224810   3.635   0.344  11.490 -2.1477 -1.5473 -1.6642
 4393SOL     OW24811   1.200   2.549   6.056 -0.2277  0.0188  0.3118
 4393SOL    HW124812   1.247   2.612   6.001 -0.6227  0.7075  0.7607
 4393SOL    HW224813   1.178   2.482   5.992 -1.2296  2.2731 -1.6690
 4394SOL     OW24814   1.939   0.659   8.558 -0.1714 -0.1556  0.4195
 4394SOL    HW124815   1.889   0.731   8.518 -1.7742 -1.3654  0.2582
 4394SOL    HW224816   1.928   0.591   8.492  4.7276 -1.2711  0.7527
 4395SOL     OW24817   2.397   2.797  16.386 -0.1951  0.1972  0.6108
 4395SOL    HW124818   2.351   2.794  16.302 -0.1010  2.1224  0.4707
 4395SOL    HW224819   2.484   2.825  16.357 -0.6391 -0.7411 -1.6392
 4396SOL     OW24820   0.225   1.077  12.094  0.3220 -0.0793 -0.6816
 4396SOL    HW124821   0.199   1.098  12.184  0.9218 -1.5295 -0.1780
 4396SOL    HW224822   0.315   1.059  12.121  0.6387  2.4561 -0.0668
 4397SOL     OW24823   1.453   1.471  12.888 -0.4076  0.4814 -0.2386
 4397SOL    HW124824   1.505   1.448  12.811  0.4809  0.5165  0.3588
 4397SOL    HW224825   1.516   1.508  12.949 -0.6425 -1.2105  1.0172
 4398SOL     OW24826   2.033   3.212  14.519  0.0899 -0.1667  0.1222
 4398SOL    HW124827   2.047   3.127  14.477 -0.5817 -0.7418  1.0768
 4398SOL    HW224828   1.941   3.208  14.544 -0.2915 -0.3963 -1.2785
 4399SOL     OW24829   4.440   1.229   2.024  0.1835  0.1415 -0.5818
 4399SOL    HW124830   4.470   1.161   2.084  1.5093  1.6188  0.4113
 4399SOL    HW224831   4.350   1.241   2.054  1.8075 -0.3684  4.4890
 4400SOL     OW24832   4.238   1.622   4.034 -0.1176 -0.0913 -0.3483
 4400SOL    HW124833   4.317   1.591   3.990 -0.2249 -1.4126  0.3723
 4400SOL    HW224834   4.222   1.548   4.093  1.0637 -0.6588 -0.7340
 4401SOL     OW24835   0.235   2.498   7.346  0.3547  0.2778 -0.4960
 4401SOL    HW124836   0.173   2.561   7.309  0.0397  0.0278 -0.3991
 4401SOL    HW224837   0.307   2.556   7.368 -2.8204  3.4273  1.5951
 4402SOL     OW24838   0.263   3.388   8.692  0.4251 -0.2729  0.1728
 4402SOL    HW124839   0.338   3.447   8.694 -0.0506  0.3408  0.0453
 4402SOL    HW224840   0.261   3.367   8.785 -0.4199  2.4401  0.7687
 4403SOL     OW24841   0.226   1.741   3.984  0.2733 -0.2946 -0.0774
 4403SOL    HW124842   0.197   1.664   3.935 -1.8658  0.7513 -0.4424
 4403SOL    HW224843   0.143   1.783   4.006 -0.5278 -1.7984 -0.2047
 4404SOL     OW24844   0.644   3.243  12.692 -0.0335  0.3966 -0.1824
 4404SOL    HW124845   0.588   3.195  12.632 -0.2275  0.7163 -0.2555
 4404SOL    HW224846   0.575   3.307  12.710  0.6566  1.0909 -0.0514
 4405SOL     OW24847   3.052   3.789   9.163  0.0983  0.3165  0.2764
 4405SOL    HW124848   3.096   3.710   9.130  1.1322 -0.2809  2.9947
 4405SOL    HW224849   2.979   3.746   9.208  1.8373 -3.1852 -0.2107
 4406SOL     OW24850   2.128   4.666   7.361  0.4767 -0.1210 -0.3866
 4406SOL    HW124851   2.219   4.694   7.370  0.5994  0.3853 -3.2585
 4406SOL    HW224852   2.111   4.713   7.279 -0.4548 -2.8143 -1.7443
 4407SOL     OW24853   1.949   2.628   1.373 -0.3484  0.1326  0.2360
 4407SOL    HW124854   2.023   2.597   1.320 -0.4169 -0.7734  0.6578
 4407SOL    HW224855   1.967   2.585   1.457 -2.9816  0.1838  0.8075
 4408SOL     OW24856   3.696   0.934   8.961  0.2218  0.2010 -0.0034
 4408SOL    HW124857   3.674   0.915   9.052 -0.0098  0.2886 -0.0406
 4408SOL    HW224858   3.623   0.890   8.917 -1.4365  2.0598  0.9257
 4409SOL     OW24859   3.417   2.871   7.727  0.1181 -0.5153 -0.3288
 4409SOL    HW124860   3.483   2.869   7.658  0.7328 -3.1233  0.3136
 4409SOL    HW224861   3.466   2.913   7.797  2.0927 -1.3854 -1.2006
 4410SOL     OW24862   0.173   2.910   5.119  0.6098 -0.5460  0.0856
 4410SOL    HW124863   0.140   2.896   5.207 -1.2664 -1.1072 -0.7135
 4410SOL    HW224864   0.100   2.880   5.065  1.0369 -0.5131 -0.5161
 4411SOL     OW24865   2.990   3.081   0.680  0.6184  0.0746  0.1747
 4411SOL    HW124866   3.046   3.008   0.656 -0.3445 -1.0238  1.2893
 4411SOL    HW224867   3.055   3.151   0.690 -0.5648  0.9313  1.9982
 4412SOL     OW24868   2.272   1.370   1.925 -0.1316 -0.0942 -0.1585
 4412SOL    HW124869   2.210   1.392   1.855 -0.9443 -1.0084  0.2665
 4412SOL    HW224870   2.221   1.378   2.006 -0.5793  1.3476 -0.5815
 4413SOL     OW24871   1.944   4.023   6.017 -0.2467  0.6899 -0.1399
 4413SOL    HW124872   1.990   4.086   6.072 -0.7209  0.9409 -0.0269
 4413SOL    HW224873   2.007   3.986   5.956  1.0671  0.9092  1.0682
 4414SOL     OW24874   0.914   3.796  10.569 -0.3470 -0.5006 -0.3841
 4414SOL    HW124875   0.848   3.832  10.510  0.1721 -0.0897 -0.7241
 4414SOL    HW224876   0.920   3.861  10.640  0.9462  0.4494 -1.3443
 4415SOL     OW24877   4.228   3.413   9.674 -0.8666 -0.1368  0.1608
 4415SOL    HW124878   4.164   3.481   9.656  0.8447  1.4142 -0.1033
 4415SOL    HW224879   4.270   3.398   9.590  1.0142 -0.7452  1.2088
 4416SOL     OW24880   3.670   4.660   7.538  0.1423 -0.5706 -0.1160
 4416SOL    HW124881   3.604   4.632   7.601 -0.6119 -0.4888 -0.8739
 4416SOL    HW224882   3.611   4.721   7.494  1.3420  0.6177 -0.0649
 4417SOL     OW24883   1.607   1.291   5.128  0.2623 -0.1693  0.8185
 4417SOL    HW124884   1.697   1.275   5.100 -0.3466  1.6782 -2.1198
 4417SOL    HW224885   1.567   1.325   5.048  1.4116  0.9691  0.7238
 4418SOL     OW24886   3.612   2.590   0.777  0.8456 -0.2930 -0.0478
 4418SOL    HW124887   3.693   2.623   0.737 -0.5200  0.8415 -1.8365
 4418SOL    HW224888   3.558   2.577   0.700  3.1410  1.0846 -1.9014
 4419SOL     OW24889   0.834   3.815   8.909  0.1213  0.0635  0.0890
 4419SOL    HW124890   0.887   3.755   8.857 -0.4067  0.5874 -1.0460
 4419SOL    HW224891   0.759   3.837   8.854  1.1515  1.9667 -0.5528
 4420SOL     OW24892   4.091   2.513   7.132 -0.3818 -0.4364 -0.0733
 4420SOL    HW124893   4.116   2.423   7.111  2.1765 -0.2593  2.0688
 4420SOL    HW224894   4.022   2.550   7.077 -2.9258 -2.8903  1.4323
 4421SOL     OW24895   1.564   0.121   2.206  0.4249  0.2302 -0.2711
 4421SOL    HW124896   1.562   0.038   2.253 -1.4253  0.9692  0.9360
 4421SOL    HW224897   1.658   0.130   2.188  0.5460 -0.6212 -0.0322
 4422SOL     OW24898   0.013   4.317   9.484 -0.2035  0.1870  0.2688
 4422SOL    HW124899   0.075   4.306   9.412 -1.3590  1.1066 -0.8461
 4422SOL    HW224900   4.694   4.393   9.470  0.5609  0.2985 -2.0883
 4423SOL     OW24901   4.669   1.577  14.299  0.0435 -0.6298 -0.2961
 4423SOL    HW124902   4.704   1.489  14.288  0.7238 -0.5463  1.2278
 4423SOL    HW224903   4.575   1.566  14.314  0.0511  1.2154  1.1102
 4424SOL     OW24904   2.288   0.924   2.605  0.9662  0.3180 -0.2112
 4424SOL    HW124905   2.330   0.941   2.520 -0.3454  0.5770 -0.8070
 4424SOL    HW224906   2.365   0.924   2.661  2.2694 -1.8551 -2.0284
 4425SOL     OW24907   1.095   0.763  10.432 -0.1116  0.2732 -0.3194
 4425SOL    HW124908   1.150   0.793  10.505 -0.9727  1.5086 -0.1866
 4425SOL    HW224909   1.164   0.755  10.366 -0.4175  1.1386 -0.7443
 4426SOL     OW24910   1.249   0.997   1.911  0.1415 -0.0656  0.5618
 4426SOL    HW124911   1.290   0.916   1.881 -0.9664 -1.2997  2.4218
 4426SOL    HW224912   1.212   1.032   1.829 -2.5035  1.3674  2.3533
 4427SOL     OW24913   0.326   0.507   9.938  0.2781  0.3324  0.0658
 4427SOL    HW124914   0.359   0.488  10.026 -0.7024 -1.0028  0.1453
 4427SOL    HW224915   0.296   0.598   9.946  1.0643  0.5343  0.8744
 4428SOL     OW24916   2.786   4.082   1.815  0.3270  0.1014 -0.5696
 4428SOL    HW124917   2.837   4.160   1.835  0.6904 -0.0135 -1.0180
 4428SOL    HW224918   2.857   4.018   1.825  0.0275 -0.3967 -1.5606
 4429SOL     OW24919   0.677   2.976   2.513  0.0331  0.2063 -0.2446
 4429SOL    HW124920   0.763   3.007   2.543  0.6379 -1.8645  0.1716
 4429SOL    HW224921   0.651   3.036   2.444 -2.1244 -0.0608  0.3552
 4430SOL     OW24922   2.451   4.709   0.391 -0.0787  0.8681 -0.3696
 4430SOL    HW124923   2.471   0.015   0.474 -0.9257  2.6954 -1.1372
 4430SOL    HW224924   2.442   0.049   0.335 -0.6709  2.0689  1.3941
 4431SOL     OW24925   2.057   1.774  17.020 -0.1972 -0.2990  0.4913
 4431SOL    HW124926   1.982   1.803  16.968  1.2280  1.6556 -0.4602
 4431SOL    HW224927   2.085   1.701  16.965  1.0994  0.5758 -0.0016
 4432SOL     OW24928   1.726   1.922   6.753  0.4906 -0.3270 -0.7389
 4432SOL    HW124929   1.813   1.883   6.746  0.2559 -0.6732 -1.7131
 4432SOL    HW224930   1.679   1.887   6.677 -1.5247  1.0370 -0.1100
 4433SOL     OW24931   3.037   1.390   8.344 -0.6341 -0.5050 -0.6487
 4433SOL    HW124932   2.989   1.312   8.316 -1.1317 -0.7777  0.9518
 4433SOL    HW224933   3.055   1.369   8.436 -2.9545 -0.9240 -0.2950
 4434SOL     OW24934   0.116   0.976  12.739 -0.3045 -0.1399  0.5269
 4434SOL    HW124935   0.038   0.992  12.793  0.7685  1.3508  1.6266
 4434SOL    HW224936   0.120   0.881  12.745 -0.6037 -0.2313 -0.6297
 4435SOL     OW24937   0.094   4.040  13.612  0.0732 -0.0469  0.8124
 4435SOL    HW124938   0.126   3.951  13.621 -1.1074 -0.7126 -1.6613
 4435SOL    HW224939   0.001   4.018  13.615  0.5059 -1.8873  0.3692
 4436SOL     OW24940   3.227   3.793   5.261 -0.7650  0.3759  0.4435
 4436SOL    HW124941   3.260   3.791   5.351  1.8750 -0.1386 -0.5475
 4436SOL    HW224942   3.307   3.782   5.210 -0.5921  1.4257  0.4780
 4437SOL     OW24943   3.456   1.995   8.934 -0.0959 -0.1206 -0.3895
 4437SOL    HW124944   3.443   1.915   8.883  0.7896 -0.1750 -0.5226
 4437SOL    HW224945   3.549   2.012   8.923  0.1038 -0.9680  0.0147
 4438SOL     OW24946   3.941   3.739   7.458 -0.1526  0.0093  0.2039
 4438SOL    HW124947   3.859   3.774   7.491 -0.0928 -1.4557  1.9064
 4438SOL    HW224948   3.932   3.760   7.365 -1.7179  1.0710  0.6121
 4439SOL     OW24949   1.181   0.214   7.209  0.0725 -0.1816 -0.0621
 4439SOL    HW124950   1.252   0.155   7.236 -0.5984 -1.5165 -1.2279
 4439SOL    HW224951   1.218   0.263   7.136  0.7316 -2.7840 -1.4729
 4440SOL     OW24952   1.145   3.276   6.091 -0.4840 -0.3607 -0.3261
 4440SOL    HW124953   1.166   3.366   6.118  0.4630 -0.7364  0.1933
 4440SOL    HW224954   1.055   3.261   6.118 -1.1829  0.5537 -2.1999
 4441SOL     OW24955   3.967   0.560   3.961  0.4629  0.1911 -0.3166
 4441SOL    HW124956   3.897   0.556   3.896  0.7991  0.0231 -0.6674
 4441SOL    HW224957   4.010   0.645   3.950  0.0570  0.5249  0.7266
 4442SOL     OW24958   3.754   3.336   3.418 -0.2145 -0.0503  0.0631
 4442SOL    HW124959   3.849   3.342   3.431 -0.2276  0.2718  0.0195
 4442SOL    HW224960   3.733   3.316   3.509  2.5613  2.3523  1.2616
 4443SOL     OW24961   3.343   1.563  11.216  0.1189 -0.0997  0.2824
 4443SOL    HW124962   3.424   1.571  11.266  1.7274 -2.7400 -1.9158
 4443SOL    HW224963   3.370   1.608  11.135  0.4891 -2.4439 -0.8806
 4444SOL     OW24964   0.658   3.856  12.356 -0.5128  0.0772  0.0325
 4444SOL    HW124965   0.720   3.926  12.376  0.8150 -1.8096  2.5437
 4444SOL    HW224966   0.710   3.794  12.305  0.3884  0.6224  0.3024
 4445SOL     OW24967   3.286   0.253  11.467  0.1545  0.2639  0.0953
 4445SOL    HW124968   3.200   0.211  11.468  0.5112 -0.4960 -1.6477
 4445SOL    HW224969   3.278   0.313  11.392  2.0083  1.3874  0.8106
 4446SOL     OW24970   2.838   1.507   1.895  0.0552 -0.1996  0.1691
 4446SOL    HW124971   2.874   1.470   1.815 -3.1472  1.3360 -2.0178
 4446SOL    HW224972   2.889   1.469   1.967 -0.1121  1.3997  1.1389
 4447SOL     OW24973   3.494   1.498   9.214 -0.2582  0.1391  0.1747
 4447SOL    HW124974   3.521   1.589   9.228 -2.5600  0.7962  0.2125
 4447SOL    HW224975   3.531   1.459   9.293  1.4368  0.4971 -0.4350
 4448SOL     OW24976   1.200   1.444  17.690  0.0297 -0.1274 -0.6676
 4448SOL    HW124977   1.109   1.433  17.718 -0.3503  1.1020 -1.4151
 4448SOL    HW224978   1.200   1.402  17.604  0.1414  1.7201 -1.5868
 4449SOL     OW24979   2.914   3.996   3.110 -0.4434  0.6717  0.6533
 4449SOL    HW124980   2.992   3.956   3.072 -0.8892  1.3307 -0.9869
 4449SOL    HW224981   2.860   3.987   3.031  1.4342  0.0793 -0.5748
 4450SOL     OW24982   4.445   4.015   8.968 -0.4139  0.0356 -0.7015
 4450SOL    HW124983   4.414   3.927   8.946 -0.0710  0.6351 -3.5442
 4450SOL    HW224984   4.405   4.012   9.056 -1.4934 -0.7018 -1.2146
 4451SOL     OW24985   0.439   4.597   0.141 -0.6687  0.2938 -0.1893
 4451SOL    HW124986   0.525   4.639   0.132 -0.4067  0.0096  1.0325
 4451SOL    HW224987   0.397   4.648   0.210 -0.1836  0.5951 -0.1197
 4452SOL     OW24988   3.451   3.336   8.390  0.2217 -0.3045 -0.3606
 4452SOL    HW124989   3.453   3.322   8.485 -2.2272 -0.6092 -0.3358
 4452SOL    HW224990   3.361   3.309   8.372  0.3405  0.3967 -1.9529
 4453SOL     OW24991   4.098   2.846  11.983 -0.2596  0.6694  0.5017
 4453SOL    HW124992   4.169   2.901  11.951 -0.5414  1.5465  1.3873
 4453SOL    HW224993   4.124   2.837  12.075  1.2535  0.3670  0.0336
 4454SOL     OW24994   2.753   3.380   2.813  0.1782  0.4287 -0.0379
 4454SOL    HW124995   2.680   3.442   2.810 -2.4563 -2.5293  2.4167
 4454SOL    HW224996   2.796   3.411   2.893 -0.2386 -0.5806  0.5875
 4455SOL     OW24997   0.497   1.912  15.754 -0.1174 -0.1757 -0.7145
 4455SOL    HW124998   0.426   1.870  15.706  0.7739 -2.8230  0.2565
 4455SOL    HW224999   0.558   1.916  15.680 -1.2984  0.0665 -1.6682
 4456SOL     OW25000   1.701   4.100   4.787  0.1565 -0.1162 -0.2173
 4456SOL    HW125001   1.642   4.073   4.717 -0.4653  0.0547  0.2390
 4456SOL    HW225002   1.643   4.143   4.850  0.0250 -1.4266  0.5611
 4457SOL     OW25003   3.579   2.932   2.483 -0.3210 -0.0939 -0.0585
 4457SOL    HW125004   3.523   2.963   2.413 -2.5388  1.0585  2.2516
 4457SOL    HW225005   3.542   2.847   2.506  0.6019 -0.8430 -1.2878
 4458SOL     OW25006   1.771   0.345   2.849  0.0706  0.4165 -0.2055
 4458SOL    HW125007   1.694   0.388   2.884 -1.1730 -1.4328 -0.6606
 4458SOL    HW225008   1.811   0.311   2.930 -1.0809 -1.4561 -0.4177
 4459SOL     OW25009   0.684   2.531  15.764 -0.0561 -0.3779 -0.1799
 4459SOL    HW125010   0.710   2.613  15.807  2.1075 -0.5091 -1.2397
 4459SOL    HW225011   0.768   2.518  15.720  0.9400  0.5850  1.4147
 4460SOL     OW25012   2.938   2.524   4.599 -0.1718 -0.0007 -0.2186
 4460SOL    HW125013   2.931   2.557   4.509 -1.4940  0.7244  0.1485
 4460SOL    HW225014   2.924   2.609   4.642  0.4928  1.2096 -2.3821
 4461SOL     OW25015   0.344   2.745  12.500 -0.3650 -0.9109  0.0985
 4461SOL    HW125016   0.417   2.683  12.494 -0.2123 -0.7400  0.1706
 4461SOL    HW225017   0.399   2.823  12.505 -1.1319 -0.3210 -0.6080
 4462SOL     OW25018   3.304   0.742  15.024  0.2124  0.9208 -0.0438
 4462SOL    HW125019   3.222   0.791  15.033 -0.3320  0.1440 -0.7539
 4462SOL    HW225020   3.304   0.701  15.111 -0.8062 -0.7828 -0.8427
 4463SOL     OW25021   4.155   4.612   9.467  0.0564 -0.5715  0.0749
 4463SOL    HW125022   4.138   4.679   9.533  1.7937  0.2212 -0.2780
 4463SOL    HW225023   4.207   4.664   9.406  0.4618 -2.0594 -0.8394
 4464SOL     OW25024   1.191   3.378   1.854  0.1040 -0.3482  0.2657
 4464SOL    HW125025   1.188   3.364   1.760 -1.5291  1.7853  0.0070
 4464SOL    HW225026   1.101   3.360   1.882  0.1280  0.7833  1.0710
 4465SOL     OW25027   4.151   2.708  12.789 -0.7228  0.1664 -0.6203
 4465SOL    HW125028   4.199   2.625  12.784  0.0768  0.6569 -1.0832
 4465SOL    HW225029   4.214   2.772  12.756 -0.1822 -0.5941 -1.0575
 4466SOL     OW25030   1.351   2.539   5.549 -0.4122 -0.4330 -0.0895
 4466SOL    HW125031   1.271   2.494   5.522 -2.1991  1.8685  1.4264
 4466SOL    HW225032   1.316   2.617   5.592 -0.4074  0.0447 -0.9607
 4467SOL     OW25033   2.714   3.630   4.355  0.3075  0.1061  0.2328
 4467SOL    HW125034   2.721   3.615   4.261  1.5909  2.7451 -0.0903
 4467SOL    HW225035   2.767   3.709   4.363  0.5841 -0.0602  0.0234
 4468SOL     OW25036   1.875   3.508   3.195 -0.2613  0.6067 -0.1092
 4468SOL    HW125037   1.862   3.480   3.104  0.9736 -1.4531  0.3242
 4468SOL    HW225038   1.965   3.539   3.186 -0.5705  1.8136  1.0366
 4469SOL     OW25039   1.824   4.135   2.347  0.1725  0.4126 -0.3159
 4469SOL    HW125040   1.773   4.058   2.370  1.5236 -0.1374  0.8044
 4469SOL    HW225041   1.896   4.085   2.308  1.0883  0.9967  0.6398
 4470SOL     OW25042   4.591   2.271   8.254  0.3970  0.1522  0.3925
 4470SOL    HW125043   4.511   2.220   8.237 -0.5196  1.8818 -0.4266
 4470SOL    HW225044   4.628   2.214   8.322  1.3268  2.0699  1.4711
 4471SOL     OW25045   3.758   3.667   9.356 -0.4320 -0.0595 -0.2265
 4471SOL    HW125046   3.763   3.683   9.450 -2.6388  1.8666 -0.4358
 4471SOL    HW225047   3.689   3.730   9.335 -0.2431 -0.1046 -0.9728
 4472SOL     OW25048   0.843   2.969   3.154 -0.4623 -0.5313  0.2294
 4472SOL    HW125049   0.780   2.960   3.083  0.1936 -1.2275 -0.2565
 4472SOL    HW225050   0.920   2.984   3.101  0.0257  0.4296  1.1937
 4473SOL     OW25051   3.418   2.342  16.801  0.3526  0.2479 -0.1496
 4473SOL    HW125052   3.420   2.266  16.859 -0.7788  0.3230 -0.0092
 4473SOL    HW225053   3.417   2.414  16.864 -0.5146 -0.1929  0.3383
 4474SOL     OW25054   0.741   3.485   8.090 -0.0351  0.4686  0.2395
 4474SOL    HW125055   0.710   3.485   8.000 -0.4077 -1.0465  0.3697
 4474SOL    HW225056   0.796   3.407   8.098 -1.1375 -0.3406 -0.1836
 4475SOL     OW25057   1.146   4.683   7.918 -0.2377 -0.0237 -0.6084
 4475SOL    HW125058   1.118   4.598   7.883  0.5667 -1.1466  1.4531
 4475SOL    HW225059   1.175   4.658   8.005  2.3340  0.0926 -1.4464
 4476SOL     OW25060   3.948   1.242   6.846  0.4993 -0.0632  0.2675
 4476SOL    HW125061   3.908   1.223   6.761  0.5537 -0.0496  0.2390
 4476SOL    HW225062   4.040   1.257   6.824  0.7246  2.0601  2.6484
 4477SOL     OW25063   3.330   1.548   8.382  0.0910  0.1317 -0.1374
 4477SOL    HW125064   3.371   1.592   8.307  0.1024  1.0752  0.4259
 4477SOL    HW225065   3.266   1.608   8.420 -1.4411 -1.2088 -0.6054
 4478SOL     OW25066   0.156   4.217  10.788  0.1140 -0.0648 -0.2396
 4478SOL    HW125067   0.221   4.285  10.767 -1.3254  1.1380 -0.8334
 4478SOL    HW225068   0.151   4.184  10.698  0.3401  2.0890 -1.0549
 4479SOL     OW25069   2.073   0.368   0.011 -0.9161 -0.4668  0.2690
 4479SOL    HW125070   2.125   0.387   0.089  1.2237 -3.1695 -0.4988
 4479SOL    HW225071   2.049   0.280   0.039 -0.3156 -0.9363 -0.6874
 4480SOL     OW25072   3.350   2.694   8.034 -0.1210 -0.0428 -0.1568
 4480SOL    HW125073   3.372   2.601   8.033 -0.3356 -0.1140  1.8536
 4480SOL    HW225074   3.390   2.728   7.954 -1.0001 -1.1601 -1.0687
 4481SOL     OW25075   1.065   4.470   5.797  0.1407 -0.6050  0.3667
 4481SOL    HW125076   1.024   4.556   5.798  0.1730 -0.6048  1.1027
 4481SOL    HW225077   1.058   4.445   5.704  0.6310 -1.9951  0.7038
 4482SOL     OW25078   3.149   4.149   6.269 -0.0671 -0.0991 -0.1438
 4482SOL    HW125079   3.193   4.225   6.230 -0.4657 -0.8508 -2.0808
 4482SOL    HW225080   3.061   4.183   6.284  0.7304  1.3875  1.0781
 4483SOL     OW25081   0.186   3.482  10.394 -0.0386 -0.5997  0.5511
 4483SOL    HW125082   0.178   3.547  10.464 -2.9337 -0.5153  0.1313
 4483SOL    HW225083   0.152   3.541  10.326 -0.2200 -0.1734  1.0173
 4484SOL     OW25084   4.453   3.686   3.108  0.1902  0.4835 -0.4166
 4484SOL    HW125085   4.538   3.651   3.134  0.1128  1.0075  0.5321
 4484SOL    HW225086   4.480   3.764   3.060  0.5821  0.5523 -0.0755
 4485SOL     OW25087   0.148   2.049   0.365  0.0210 -0.1983  0.0731
 4485SOL    HW125088   0.143   2.114   0.435 -2.0356 -2.0433  1.6436
 4485SOL    HW225089   0.060   2.056   0.329  1.1089 -1.8463 -2.9167
 4486SOL     OW25090   2.269   2.088  13.867 -0.0414 -0.0455 -0.0308
 4486SOL    HW125091   2.299   2.112  13.780  3.0950  0.5619  1.2029
 4486SOL    HW225092   2.191   2.144  13.872 -0.7941 -1.3144  2.7025
 4487SOL     OW25093   2.396   2.469   0.068 -0.4950 -0.5098  0.3321
 4487SOL    HW125094   2.448   2.412   0.012 -0.2119  1.4970 -1.4302
 4487SOL    HW225095   2.358   2.535   0.010  0.8839 -1.1450 -1.2782
 4488SOL     OW25096   2.157   2.580   6.556 -0.0376  0.0367  0.2325
 4488SOL    HW125097   2.212   2.503   6.543 -2.1018 -1.7950  2.4317
 4488SOL    HW225098   2.217   2.643   6.596 -1.2220 -0.6813  3.1506
 4489SOL     OW25099   4.048   4.149   3.137  0.1171  0.2450  0.3885
 4489SOL    HW125100   4.029   4.127   3.046  0.6479 -0.7282  0.5204
 4489SOL    HW225101   4.141   4.128   3.132  0.2983  0.6624  1.9057
 4490SOL     OW25102   1.749   1.481   2.697 -0.8798 -0.1107  0.1366
 4490SOL    HW125103   1.704   1.409   2.653 -2.1461  0.0136  1.2227
 4490SOL    HW225104   1.825   1.487   2.639 -0.3457 -2.7422  0.5894
 4491SOL     OW25105   3.518   1.586   6.867  0.0708  0.1453  0.0758
 4491SOL    HW125106   3.530   1.666   6.919 -1.7203  1.9229 -2.2974
 4491SOL    HW225107   3.498   1.521   6.935 -0.0447 -1.0092 -1.0768
 4492SOL     OW25108   3.560   2.090   3.347  0.2877 -0.2710  0.2637
 4492SOL    HW125109   3.611   2.098   3.428  0.8732 -0.7777 -0.0567
 4492SOL    HW225110   3.557   2.180   3.317  0.0772 -0.7456 -1.1407
 4493SOL     OW25111   2.851   4.633   2.808 -0.3066 -0.1598  0.2493
 4493SOL    HW125112   2.758   4.656   2.819 -0.0203  0.5589  1.1438
 4493SOL    HW225113   2.845   4.542   2.836 -0.2595 -0.1306  0.3540
 4494SOL     OW25114   4.147   0.356  14.371  0.0084 -0.0725 -0.4967
 4494SOL    HW125115   4.206   0.391  14.305  0.6947  0.1325  0.2197
 4494SOL    HW225116   4.115   0.435  14.415 -0.9228 -1.0199  0.5124
 4495SOL     OW25117   1.955   2.782   3.421  0.9147 -0.5705 -0.3004
 4495SOL    HW125118   1.919   2.693   3.427  1.8949 -1.0193 -1.1942
 4495SOL    HW225119   1.877   2.838   3.428  2.1218  0.8107  2.2159
 4496SOL     OW25120   0.037   0.029   7.539  0.2415 -0.7188 -0.1569
 4496SOL    HW125121   0.079   4.680   7.545  2.1808  0.1627 -1.0533
 4496SOL    HW225122   0.105   0.089   7.569 -0.3265  0.1822 -0.6781
 4497SOL     OW25123   3.545   1.259  16.163 -0.1678 -0.3940 -0.1722
 4497SOL    HW125124   3.593   1.229  16.240 -0.1796 -0.0651 -0.0407
 4497SOL    HW225125   3.573   1.347  16.140  0.6062 -0.3921  0.7799
 4498SOL     OW25126   4.064   2.694  11.088  0.1125  0.0645 -0.1750
 4498SOL    HW125127   3.981   2.728  11.120  0.3848 -0.4973  1.1633
 4498SOL    HW225128   4.123   2.749  11.139 -2.2988  0.9908  1.5970
 4499SOL     OW25129   2.850   4.544   1.718 -0.5159 -0.3472 -0.4167
 4499SOL    HW125130   2.810   4.490   1.785  0.8658  0.0959  0.7751
 4499SOL    HW225131   2.925   4.487   1.699  1.1361  1.3878  0.9142
 4500SOL     OW25132   2.562   4.372   3.356  0.2001 -0.0660 -0.1356
 4500SOL    HW125133   2.549   4.286   3.397  0.0614 -0.4068 -0.8973
 4500SOL    HW225134   2.633   4.403   3.412 -0.1513 -1.5598  1.1585
 4501SOL     OW25135   4.143   2.348   2.363 -0.5336 -0.0572  0.2469
 4501SOL    HW125136   4.187   2.315   2.441 -0.0736  0.9416  0.4122
 4501SOL    HW225137   4.056   2.378   2.389 -1.0768 -0.7647 -0.7528
 4502SOL     OW25138   2.309   2.391   0.509 -0.5452  0.3103 -0.3352
 4502SOL    HW125139   2.243   2.328   0.479 -1.1879  0.3576  0.9911
 4502SOL    HW225140   2.256   2.469   0.527 -1.9740 -0.4885 -1.1318
 4503SOL     OW25141   2.256   2.963   4.201  0.3142  0.5052 -0.0707
 4503SOL    HW125142   2.160   2.958   4.208  0.2817  0.8090 -0.3061
 4503SOL    HW225143   2.262   3.030   4.133  1.5927  0.0779 -0.3566
 4504SOL     OW25144   1.559   4.088  11.155 -0.9906 -0.8063 -0.4067
 4504SOL    HW125145   1.488   4.041  11.198 -1.2066  0.8366  1.0287
 4504SOL    HW225146   1.604   4.120  11.232  1.5080 -1.4346 -1.6092
 4505SOL     OW25147   1.457   0.619   4.429  0.2351  0.1088  0.4894
 4505SOL    HW125148   1.458   0.620   4.334  0.5877  1.3053  0.5084
 4505SOL    HW225149   1.407   0.698   4.450  1.6837  0.7045  1.6701
 4506SOL     OW25150   3.006   0.887   5.430 -0.1386 -0.4156  0.1625
 4506SOL    HW125151   2.918   0.853   5.415 -0.0626 -1.0182  1.0673
 4506SOL    HW225152   3.060   0.820   5.389  2.4378  1.7847 -0.1128
 4507SOL     OW25153   4.367   0.070   9.394 -0.3966  0.0749  0.0913
 4507SOL    HW125154   4.407   0.027   9.319 -2.0756 -3.5546  1.2980
 4507SOL    HW225155   4.435   0.132   9.419  0.2942 -0.0176 -1.6072
 4508SOL     OW25156   2.220   3.033  12.448  0.0393 -0.3639 -0.2573
 4508SOL    HW125157   2.277   2.977  12.394  0.4728  0.1656 -0.3487
 4508SOL    HW225158   2.222   3.105  12.384  2.3282 -0.5422 -0.3739
 4509SOL     OW25159   1.237   2.575   9.896 -0.1454  0.1980 -0.6499
 4509SOL    HW125160   1.310   2.566   9.957 -0.8839 -1.4681 -0.0095
 4509SOL    HW225161   1.165   2.532   9.941  0.9349 -1.1740 -0.2252
 4510SOL     OW25162   4.046   1.668   7.204 -0.4164 -0.3919  0.2120
 4510SOL    HW125163   4.133   1.706   7.192 -0.3977 -0.9060 -1.2493
 4510SOL    HW225164   4.068   1.581   7.238  3.5211 -0.3508 -2.2504
 4511SOL     OW25165   0.089   0.772   4.224  0.0059  0.6245 -0.3932
 4511SOL    HW125166   0.182   0.751   4.223 -0.0313  0.4125  0.3227
 4511SOL    HW225167   0.101   0.866   4.210 -2.8163  1.0133 -0.2421
 4512SOL     OW25168   3.483   2.239   7.429  0.3202 -0.3620  0.4313
 4512SOL    HW125169   3.541   2.313   7.412 -1.0347 -0.1912 -3.3972
 4512SOL    HW225170   3.406   2.276   7.472 -1.4143 -1.2268 -1.8910
 4513SOL     OW25171   3.274   0.208  16.522 -0.8891 -0.5286  0.1767
 4513SOL    HW125172   3.214   0.142  16.486 -1.2014  0.1602 -0.5690
 4513SOL    HW225173   3.307   0.240  16.438  0.3097  1.6997  1.5058
 4514SOL     OW25174   4.312   4.649  17.316 -0.3092 -0.1985  0.4239
 4514SOL    HW125175   4.321   4.697  17.398 -0.8944 -2.4739  1.8083
 4514SOL    HW225176   4.287   4.560  17.340  0.9668 -1.0995 -1.5996
 4515SOL     OW25177   4.580   0.414   3.499 -0.1480  0.3060  0.2372
 4515SOL    HW125178   4.603   0.368   3.580  0.1553  0.9296  0.5075
 4515SOL    HW225179   4.638   0.368   3.439  0.4585 -0.0978  1.1350
 4516SOL     OW25180   4.106   4.091   3.932 -0.7591 -0.5693 -0.6749
 4516SOL    HW125181   4.114   4.182   3.905 -0.4614  0.3091  2.3766
 4516SOL    HW225182   4.190   4.081   3.977 -0.9682  0.6892  0.0017
 4517SOL     OW25183   0.843   4.094   7.175 -0.0939  0.2033 -0.0681
 4517SOL    HW125184   0.781   4.071   7.106 -0.8166 -0.4716  0.8090
 4517SOL    HW225185   0.930   4.074   7.139  0.5086  1.9771  0.3913
 4518SOL     OW25186   2.855   2.974   3.679  0.0082  0.0572  0.2941
 4518SOL    HW125187   2.771   2.930   3.667 -0.4965  1.1749 -0.2246
 4518SOL    HW225188   2.901   2.922   3.613 -0.4919  0.7894 -0.6366
 4519SOL     OW25189   1.780   2.182  13.330  0.3198 -0.2782  0.0647
 4519SOL    HW125190   1.772   2.110  13.267  0.6325 -0.9437  0.7812
 4519SOL    HW225191   1.814   2.250  13.272  1.4496 -0.6384  0.2984
 4520SOL     OW25192   1.141   2.054   3.222  0.0482 -0.1696 -0.2148
 4520SOL    HW125193   1.118   1.987   3.158  2.7531  0.9104 -2.2865
 4520SOL    HW225194   1.076   2.043   3.292  1.2716  0.8630  1.0798
 4521SOL     OW25195   3.572   1.287   9.686 -0.3225 -0.1753  0.9693
 4521SOL    HW125196   3.651   1.314   9.639 -0.6165 -2.0190 -0.5863
 4521SOL    HW225197   3.585   1.201   9.727  0.1960  0.2583  1.7232
 4522SOL     OW25198   2.735   1.132   4.453 -0.3542  0.7212 -1.1238
 4522SOL    HW125199   2.768   1.219   4.432  3.7309 -0.8126 -0.8995
 4522SOL    HW225200   2.651   1.131   4.407 -1.7355 -2.8949  1.4687
 4523SOL     OW25201   0.634   1.857  15.520  0.1617 -0.0729 -0.3630
 4523SOL    HW125202   0.682   1.800  15.579 -1.7723 -0.5116  0.7955
 4523SOL    HW225203   0.611   1.795  15.450  2.1695  0.3357 -1.3712
 4524SOL     OW25204   3.576   2.350   3.266  0.6550  0.5442 -0.0742
 4524SOL    HW125205   3.511   2.419   3.260  0.4243  0.3778  0.5521
 4524SOL    HW225206   3.589   2.333   3.173  1.8927  0.5051  0.1036
 4525SOL     OW25207   1.045   0.041   9.200  0.3334  0.9775  0.1400
 4525SOL    HW125208   1.098   0.073   9.274  2.9048 -1.6212 -0.5940
 4525SOL    HW225209   1.104   4.711   9.166  0.1004  0.6002  0.4792
 4526SOL     OW25210   4.327   1.860  15.158  0.2446  0.1495 -0.1282
 4526SOL    HW125211   4.343   1.950  15.184  3.9422 -0.4167 -0.4275
 4526SOL    HW225212   4.254   1.828  15.211 -1.4302  1.9414 -1.3557
 4527SOL     OW25213   3.367   4.664   1.510  0.1692  0.7118 -0.6225
 4527SOL    HW125214   3.321   4.588   1.474  0.2652  1.0464 -1.4414
 4527SOL    HW225215   3.356   4.720   1.433 -2.7180 -0.7039 -1.2389
 4528SOL     OW25216   2.946   4.629   3.675  0.3223  0.1211  0.1860
 4528SOL    HW125217   3.031   4.617   3.716  0.9039  1.9958 -0.4896
 4528SOL    HW225218   2.905   4.691   3.736  0.9529 -0.1999  0.9322
 4529SOL     OW25219   4.559   3.463  16.281 -0.2310 -0.2396 -0.2852
 4529SOL    HW125220   4.545   3.506  16.366  0.6873  0.0099 -0.2667
 4529SOL    HW225221   4.643   3.500  16.255 -0.1586 -1.5100 -1.8586
 4530SOL     OW25222   2.655   1.436   5.465  0.9741  0.0008  0.2449
 4530SOL    HW125223   2.634   1.478   5.382 -0.4881  0.9006  1.0883
 4530SOL    HW225224   2.574   1.411   5.509 -0.7862  1.8235 -2.0250
 4531SOL     OW25225   0.831   2.125   5.333  0.1035  0.4860 -0.2483
 4531SOL    HW125226   0.839   2.090   5.245  0.7113 -0.5996  0.2410
 4531SOL    HW225227   0.923   2.137   5.355  0.5324  0.4803 -2.0538
 4532SOL     OW25228   3.707   0.449   7.907 -0.0412 -0.0193 -0.2343
 4532SOL    HW125229   3.679   0.420   7.993  2.6445  0.8919  0.9527
 4532SOL    HW225230   3.745   0.369   7.871 -0.1632  0.1118 -0.6608
 4533SOL     OW25231   0.553   2.929  12.472 -0.1250  0.0576  0.3636
 4533SOL    HW125232   0.638   2.902  12.508  0.1545  0.5366  0.0525
 4533SOL    HW225233   0.584   2.961  12.388  1.1062 -0.6395  0.5377
 4534SOL     OW25234   1.719   0.901   8.834  0.1534 -0.2678  0.0258
 4534SOL    HW125235   1.810   0.869   8.831 -0.5855 -2.5211  1.6030
 4534SOL    HW225236   1.714   0.901   8.930 -1.2265  0.6554 -0.0414
 4535SOL     OW25237   4.720   0.643   7.820 -0.1323 -0.3476 -0.2597
 4535SOL    HW125238   4.731   0.731   7.856 -4.9209  0.1364  0.0303
 4535SOL    HW225239   0.019   0.661   7.733  0.7180 -2.2361 -0.3007
 4536SOL     OW25240   1.316   0.398   2.321  0.0881 -0.0998  0.4505
 4536SOL    HW125241   1.308   0.416   2.227 -2.2721 -1.1179  0.4641
 4536SOL    HW225242   1.408   0.370   2.318  0.6510  1.8373 -0.3060
 4537SOL     OW25243   0.124   3.372   4.402 -0.2858  0.5337  0.7732
 4537SOL    HW125244   0.070   3.350   4.326  2.5798 -1.2683 -0.7427
 4537SOL    HW225245   0.132   3.291   4.453  1.4178 -0.7069 -1.4426
 4538SOL     OW25246   4.428   2.315  12.454  0.6230 -0.0181  0.4159
 4538SOL    HW125247   4.372   2.251  12.410 -0.0495  0.9508 -0.1269
 4538SOL    HW225248   4.497   2.326  12.389  0.2679  1.7108  0.3411
 4539SOL     OW25249   1.881   1.620  15.952  0.1315  0.5595  0.0360
 4539SOL    HW125250   1.976   1.619  15.963  0.2356 -0.2160 -0.9450
 4539SOL    HW225251   1.867   1.632  15.858 -0.1286 -0.5716 -0.0732
 4540SOL     OW25252   2.559   0.736   2.951  0.9529 -0.0872 -0.0564
 4540SOL    HW125253   2.647   0.699   2.958 -0.2296 -2.6893  1.1056
 4540SOL    HW225254   2.526   0.718   3.039  2.1490 -1.6980  0.0719
 4541SOL     OW25255   0.867   2.970   2.742  0.0254 -0.4283 -0.2168
 4541SOL    HW125256   0.918   3.019   2.807 -0.8091 -1.5317  1.2884
 4541SOL    HW225257   0.918   2.892   2.721 -1.3923 -1.7377  1.1648
 4542SOL     OW25258   2.124   4.626   3.555 -0.5618  0.3524 -0.2095
 4542SOL    HW125259   2.082   4.672   3.482 -1.0016 -0.5586 -0.5289
 4542SOL    HW225260   2.207   4.673   3.565 -0.2235 -0.1256 -0.7618
 4543SOL     OW25261   0.814   2.805   4.061 -0.7112  0.0603  0.1261
 4543SOL    HW125262   0.896   2.771   4.025 -1.4192  0.8687 -2.2361
 4543SOL    HW225263   0.839   2.889   4.097 -1.8826  0.3509  0.2541
 4544SOL     OW25264   2.654   2.414   7.596  0.2548  0.0563 -0.3443
 4544SOL    HW125265   2.703   2.428   7.515 -0.3734  0.8954 -0.5774
 4544SOL    HW225266   2.735   2.394   7.643 -0.4694 -0.2011  0.7747
 4545SOL     OW25267   4.200   2.403   4.575 -0.1668  0.3026 -0.0373
 4545SOL    HW125268   4.218   2.338   4.507  2.1165 -1.3730  2.1978
 4545SOL    HW225269   4.245   2.367   4.651  0.2074 -0.2990 -0.5376
 4546SOL     OW25270   2.557   3.996  14.299 -0.2273 -0.1204 -0.5403
 4546SOL    HW125271   2.506   4.009  14.379  0.3867  0.8057 -0.2995
 4546SOL    HW225272   2.483   3.971  14.244 -1.7738  0.9043  1.0649
 4547SOL     OW25273   3.056   1.598   2.681 -0.3397 -0.1256 -0.2442
 4547SOL    HW125274   3.094   1.670   2.731  1.1992  2.0574 -4.5883
 4547SOL    HW225275   3.109   1.523   2.708 -0.5624  0.4970  1.8936
 4548SOL     OW25276   0.100   4.149   3.105  0.3528 -0.2593 -0.4100
 4548SOL    HW125277   0.144   4.200   3.038 -0.8578  1.4989  0.1371
 4548SOL    HW225278   0.171   4.142   3.170  0.0267  1.1032  0.0829
 4549SOL     OW25279   1.437   4.511   6.624 -0.2103 -0.0344 -0.2888
 4549SOL    HW125280   1.525   4.499   6.659 -0.2338  0.9153  0.1142
 4549SOL    HW225281   1.446   4.496   6.530 -0.5991 -0.2000 -0.2972
 4550SOL     OW25282   3.287   3.575  10.825  0.4527 -0.0161 -0.0899
 4550SOL    HW125283   3.207   3.621  10.800 -0.0850 -0.9559 -0.1189
 4550SOL    HW225284   3.314   3.643  10.887 -3.2811 -0.6479  2.2676
 4551SOL     OW25285   1.388   1.434   8.813 -0.4792  0.2981 -0.6190
 4551SOL    HW125286   1.305   1.453   8.856 -0.9452  0.3884 -1.5617
 4551SOL    HW225287   1.383   1.338   8.808 -1.9711  0.2886  0.8276
 4552SOL     OW25288   3.082   4.529  11.417 -0.1859 -0.8753  0.5912
 4552SOL    HW125289   3.078   4.460  11.483 -0.9653 -0.0670  1.3899
 4552SOL    HW225290   3.098   4.478  11.338  1.0100 -1.4055  1.1880
 4553SOL     OW25291   3.741   3.702   9.620 -0.8317  0.4367  0.0132
 4553SOL    HW125292   3.780   3.707   9.708  0.2839 -0.6789 -0.4120
 4553SOL    HW225293   3.654   3.670   9.640 -1.1906  0.7134 -1.1237
 4554SOL     OW25294   1.953   2.537   7.887 -0.1681  0.1609 -0.0377
 4554SOL    HW125295   1.942   2.484   7.807  0.2154  2.2366 -1.4767
 4554SOL    HW225296   2.048   2.544   7.887 -0.1791  0.0805  1.8373
 4555SOL     OW25297   2.423   0.967   2.356  0.0052  0.2126 -0.2382
 4555SOL    HW125298   2.461   0.879   2.349 -3.1600 -1.0902 -1.0435
 4555SOL    HW225299   2.369   0.968   2.277 -0.2513  0.2066 -0.0638
 4556SOL     OW25300   2.318   1.033   6.588  0.0435 -0.8437  0.0921
 4556SOL    HW125301   2.333   0.983   6.507  0.4696 -1.2014  0.3931
 4556SOL    HW225302   2.231   1.071   6.574  0.4973 -0.1036 -0.6912
 4557SOL     OW25303   4.087   0.084  14.433 -0.1835 -0.2439 -0.7268
 4557SOL    HW125304   4.093   0.179  14.424  0.6314 -0.4414 -2.1363
 4557SOL    HW225305   4.173   0.064  14.395  0.2597 -1.0123  0.6627
 4558SOL     OW25306   4.457   0.852  16.380  0.0993 -0.6083 -0.3111
 4558SOL    HW125307   4.474   0.927  16.323 -2.4415 -0.0631 -0.3449
 4558SOL    HW225308   4.503   0.779  16.339 -2.5109 -0.8629 -2.7132
 4559SOL     OW25309   4.591   2.031  11.617  0.1727  0.2796 -0.6346
 4559SOL    HW125310   4.667   1.974  11.611  0.7577  0.8195  1.7920
 4559SOL    HW225311   4.586   2.074  11.531  2.1071 -0.3999 -1.0689
 4560SOL     OW25312   0.239   0.752   9.717 -0.1147 -0.2928 -0.2861
 4560SOL    HW125313   0.315   0.755   9.774 -0.7590 -0.6997  0.5977
 4560SOL    HW225314   0.271   0.798   9.640 -0.2791  1.5725  0.7585
 4561SOL     OW25315   4.449   3.674   5.919  0.1978  0.5495 -0.1806
 4561SOL    HW125316   4.472   3.602   5.860 -0.4739 -0.4092  0.7320
 4561SOL    HW225317   4.483   3.750   5.871  0.5489  1.0785  0.9155
 4562SOL     OW25318   1.195   2.108   2.043  0.2979 -0.2438  0.0302
 4562SOL    HW125319   1.185   2.119   2.138 -0.6127  0.7295 -0.1843
 4562SOL    HW225320   1.170   2.197   2.015 -1.5621 -0.0644  2.2704
 4563SOL     OW25321   4.486   4.259   5.175 -0.5125  0.1569  0.6283
 4563SOL    HW125322   4.565   4.265   5.228  1.2575 -1.3044 -1.8453
 4563SOL    HW225323   4.515   4.203   5.103 -0.6248 -0.0564  0.7499
 4564SOL     OW25324   4.112   4.718   6.080  0.2135 -0.2623  0.4722
 4564SOL    HW125325   4.057   4.679   6.013  0.4342 -0.2399  0.2796
 4564SOL    HW225326   4.058   0.060   6.087  1.1625  0.3601  0.7223
 4565SOL     OW25327   1.912   1.584   1.151 -0.1430  0.6268  0.0256
 4565SOL    HW125328   1.948   1.672   1.157  1.6806 -0.1518  0.7870
 4565SOL    HW225329   1.906   1.568   1.056 -0.3759  0.1027  0.1274
 4566SOL     OW25330   1.905   3.195  10.632 -0.0227 -0.1170 -0.4752
 4566SOL    HW125331   1.909   3.102  10.653 -0.9726  0.2537  1.3531
 4566SOL    HW225332   1.941   3.230  10.714 -0.0271 -0.3782 -0.3634
 4567SOL     OW25333   3.808   2.794   5.626 -0.0425  1.0880  0.1665
 4567SOL    HW125334   3.723   2.815   5.589 -0.0924  0.8800  0.1638
 4567SOL    HW225335   3.860   2.856   5.575  1.5568  1.1135  1.7974
 4568SOL     OW25336   0.579   3.415   6.485  0.2264  0.3726  0.0111
 4568SOL    HW125337   0.499   3.399   6.434  0.3459  0.6693 -0.2718
 4568SOL    HW225338   0.652   3.369   6.444  0.4920  0.2337  0.6445
 4569SOL     OW25339   3.159   2.040   3.854 -0.2318 -0.2459  0.4059
 4569SOL    HW125340   3.193   1.987   3.926  0.7124 -2.0521 -1.3683
 4569SOL    HW225341   3.071   2.004   3.844 -0.8153  0.5087  2.8854
 4570SOL     OW25342   3.836   1.353   3.933 -0.1071  0.3354  0.0885
 4570SOL    HW125343   3.841   1.440   3.893 -1.0837  1.0548  1.5095
 4570SOL    HW225344   3.888   1.367   4.011 -0.3932 -0.4709  0.4247
 4571SOL     OW25345   2.939   4.327   6.311 -0.0469  0.1475 -0.6799
 4571SOL    HW125346   2.904   4.339   6.223 -2.8271 -1.2632  0.2457
 4571SOL    HW225347   2.881   4.388   6.357  0.6354  0.5931 -0.4009
 4572SOL     OW25348   1.638   1.085   7.916  0.5281  1.0399 -0.1904
 4572SOL    HW125349   1.617   1.160   7.972  0.0041  2.0242 -1.6955
 4572SOL    HW225350   1.578   1.021   7.954  0.1506  0.6460 -1.4418
 4573SOL     OW25351   1.992   3.655   7.503 -0.5018  0.4922 -0.0286
 4573SOL    HW125352   2.073   3.647   7.451 -0.8593 -1.9067 -0.2042
 4573SOL    HW225353   1.934   3.655   7.427  0.5599  1.8809 -0.8435
 4574SOL     OW25354   3.302   1.056   9.288 -0.3423  0.1689 -0.0694
 4574SOL    HW125355   3.240   1.044   9.361  2.2720  1.3090  2.3034
 4574SOL    HW225356   3.355   1.117   9.339  0.4950 -0.7037  0.0923
 4575SOL     OW25357   4.595   2.904   2.317  0.2714 -0.3344  0.7626
 4575SOL    HW125358   4.590   2.817   2.355 -2.2413 -0.8922 -0.8599
 4575SOL    HW225359   4.675   2.897   2.265 -1.3206 -1.9890 -1.4522
 4576SOL     OW25360   3.220   2.518   5.033 -0.1478  0.3001  0.3808
 4576SOL    HW125361   3.301   2.558   5.066  0.0303 -1.7909  2.4153
 4576SOL    HW225362   3.156   2.562   5.089 -3.7893 -1.9640 -1.9876
 4577SOL     OW25363   4.631   3.717  15.488 -0.1900  0.3561  0.1684
 4577SOL    HW125364   4.586   3.708  15.572  1.8313 -0.2214  1.1889
 4577SOL    HW225365   4.604   3.802  15.455  2.4292  0.9280 -0.5005
 4578SOL     OW25366   2.431   2.207   1.956  0.1418 -0.6105 -0.2283
 4578SOL    HW125367   2.386   2.198   2.040  0.3031  0.3355 -0.0426
 4578SOL    HW225368   2.474   2.122   1.943 -0.1541 -1.0867  1.9352
 4579SOL     OW25369   1.000   4.083   4.863 -0.1745  0.1801  0.0962
 4579SOL    HW125370   1.073   4.143   4.855  0.6896 -0.5563  2.4596
 4579SOL    HW225371   0.947   4.120   4.792  0.5078  0.2254 -0.3845
 4580SOL     OW25372   3.709   2.231  17.056 -0.4064 -0.2330  0.1418
 4580SOL    HW125373   3.765   2.176  17.001 -1.1020  0.1322 -0.9410
 4580SOL    HW225374   3.760   2.309  17.039 -1.0304  0.4147  1.2481
 4581SOL     OW25375   2.328   1.466   3.444 -0.4145 -0.0779  0.3258
 4581SOL    HW125376   2.422   1.458   3.456 -0.0279  1.2015 -1.7175
 4581SOL    HW225377   2.301   1.516   3.521 -1.9938 -0.5025  0.0559
 4582SOL     OW25378   1.123   1.301   8.253  0.5873 -0.4079  0.2480
 4582SOL    HW125379   1.047   1.334   8.206  0.7975 -0.2978 -0.0197
 4582SOL    HW225380   1.103   1.325   8.343  0.4700 -1.2702  0.4479
 4583SOL     OW25381   3.243   0.562  10.972  0.7176 -0.2888 -0.4412
 4583SOL    HW125382   3.169   0.521  10.927  0.7088  0.1951 -0.8674
 4583SOL    HW225383   3.290   0.491  11.015  0.1992  0.0278  0.6525
 4584SOL     OW25384   3.482   4.464   9.374 -0.3345 -0.0826  0.2902
 4584SOL    HW125385   3.553   4.417   9.419  1.0168  1.6824  0.0081
 4584SOL    HW225386   3.526   4.450   9.289  1.2840  0.4044  1.0559
 4585SOL     OW25387   2.298   3.330   0.200  0.2867  0.4807  0.5010
 4585SOL    HW125388   2.228   3.275   0.235  1.9684 -1.5764  0.6234
 4585SOL    HW225389   2.250   3.403   0.161 -0.3529  1.8174  3.7584
 4586SOL     OW25390   3.912   3.899   5.156 -0.0768 -0.2062 -0.0376
 4586SOL    HW125391   3.865   3.925   5.235 -0.7500 -1.3136 -0.0689
 4586SOL    HW225392   3.870   3.969   5.106 -1.9249 -0.3517  1.3362
 4587SOL     OW25393   3.218   1.367   7.207 -0.1454  0.5737  0.0991
 4587SOL    HW125394   3.157   1.405   7.270 -0.2610  0.0296  0.3165
 4587SOL    HW225395   3.180   1.392   7.123 -0.6284 -1.7703 -0.3773
 4588SOL     OW25396   4.576   3.192   8.788  0.3662  0.2017 -0.1680
 4588SOL    HW125397   4.571   3.148   8.704 -0.0251 -1.5983  0.8068
 4588SOL    HW225398   4.605   3.279   8.760  0.8061  0.5623  1.4154
 4589SOL     OW25399   4.620   3.098   6.932  0.2694 -0.0194 -0.0797
 4589SOL    HW125400   4.676   3.156   6.984 -0.0370 -1.1767  1.5420
 4589SOL    HW225401   4.599   3.164   6.866 -0.9353  1.0454  1.3678
 4590SOL     OW25402   2.289   0.312   1.312 -0.5184 -0.4547 -0.3725
 4590SOL    HW125403   2.338   0.379   1.360 -0.5270 -1.6093  1.2599
 4590SOL    HW225404   2.249   0.262   1.383  1.9849  4.7351  4.6745
 4591SOL     OW25405   0.944   1.359   7.039 -0.7759  0.2428 -0.7981
 4591SOL    HW125406   0.939   1.269   7.005 -1.4955  0.3452 -0.9692
 4591SOL    HW225407   0.986   1.410   6.970 -2.0091  0.2825 -1.5244
 4592SOL     OW25408   3.283   3.580   2.147  0.2668  0.1233  0.0228
 4592SOL    HW125409   3.355   3.613   2.201  0.9393 -0.8090 -0.3043
 4592SOL    HW225410   3.294   3.485   2.141 -1.1226 -0.0668  0.4612
 4593SOL     OW25411   1.985   2.685  17.702 -0.0591  0.5216 -0.0468
 4593SOL    HW125412   1.942   2.753  17.650  3.7511  2.7258 -0.3456
 4593SOL    HW225413   1.981   2.723   0.043  3.8202  1.1674 -0.1360
 4594SOL     OW25414   1.511   3.401   8.281 -0.2744 -0.2690  0.2952
 4594SOL    HW125415   1.436   3.341   8.272  0.0216 -0.1190 -2.9806
 4594SOL    HW225416   1.561   3.365   8.208  2.0980  0.6220  1.4555
 4595SOL     OW25417   1.564   3.968   1.759 -0.1981 -0.3394 -0.0473
 4595SOL    HW125418   1.511   4.045   1.737  0.8364 -0.3270 -2.4898
 4595SOL    HW225419   1.582   3.969   1.853  0.6473 -2.2231 -0.1991
 4596SOL     OW25420   2.430   2.949   1.458 -0.4617 -0.3081  0.3012
 4596SOL    HW125421   2.494   2.996   1.405 -0.3724 -0.6314  0.1250
 4596SOL    HW225422   2.359   3.012   1.451  0.6077  0.6825 -1.5201
 4597SOL     OW25423   4.619   4.618  12.100  0.0207 -0.6267  0.5298
 4597SOL    HW125424   4.633   4.523  12.105 -2.0300 -1.1491 -3.4975
 4597SOL    HW225425   4.685   4.654  12.158  2.3027 -0.8315 -1.9344
 4598SOL     OW25426   2.257   1.511  11.836  0.4133  0.8888 -0.2030
 4598SOL    HW125427   2.213   1.461  11.906  1.8701 -0.1431 -0.0157
 4598SOL    HW225428   2.223   1.466  11.759  0.1760  0.4018  0.1773
 4599SOL     OW25429   0.470   1.645   0.587  0.1006 -0.0840 -0.2608
 4599SOL    HW125430   0.536   1.679   0.648 -0.6085  0.4816  0.1865
 4599SOL    HW225431   0.508   1.680   0.506  0.9077 -0.1981  0.0687
 4600SOL     OW25432   2.478   1.845   0.018  0.3116  0.2023 -0.3793
 4600SOL    HW125433   2.483   1.854  17.669 -0.5667  2.0332 -0.2483
 4600SOL    HW225434   2.451   1.933   0.045 -1.0596  0.4353 -2.4656
 4601SOL     OW25435   0.708   3.246   4.394  0.3281  0.4473 -0.0082
 4601SOL    HW125436   0.642   3.180   4.373  0.4933  0.6020 -1.0130
 4601SOL    HW225437   0.713   3.308   4.321  0.4411  1.2126  0.6449
 4602SOL     OW25438   4.668   2.447   7.842 -0.5093  0.8035  0.0194
 4602SOL    HW125439   4.660   2.528   7.893  0.2643  0.3912  0.7988
 4602SOL    HW225440   4.674   2.488   7.756 -1.3885 -0.7923 -0.7912
 4603SOL     OW25441   2.574   2.209  15.023  0.1643 -0.1447  0.2478
 4603SOL    HW125442   2.572   2.255  15.107  1.4103  1.6335 -0.7200
 4603SOL    HW225443   2.641   2.142  15.038 -1.1585 -1.2815  1.1689
 4604SOL     OW25444   1.235   2.764   2.906  0.1037  0.7400  0.1616
 4604SOL    HW125445   1.256   2.674   2.880 -0.3688  0.7917 -0.3976
 4604SOL    HW225446   1.316   2.811   2.889  1.5334 -1.1567  1.6725
 4605SOL     OW25447   0.851   2.970  10.938  1.0746  0.4038  0.0854
 4605SOL    HW125448   0.929   2.927  10.903  1.5394 -0.2536  1.9499
 4605SOL    HW225449   0.821   2.905  11.001  2.3735  1.3101  1.6236
 4606SOL     OW25450   3.743   4.129   9.392  0.7076 -0.0496  0.6397
 4606SOL    HW125451   3.717   4.207   9.442 -1.2257 -0.5938  0.4966
 4606SOL    HW225452   3.723   4.166   9.306 -0.4341 -0.7494  0.5952
 4607SOL     OW25453   1.204   3.789   6.923 -0.1130 -0.1526 -0.2784
 4607SOL    HW125454   1.275   3.840   6.886 -2.3879  0.9726 -3.0674
 4607SOL    HW225455   1.188   3.723   6.855 -0.2655  1.2767 -1.6097
 4608SOL     OW25456   4.718   0.887  10.870  0.5447 -0.3593  0.0110
 4608SOL    HW125457   4.731   0.891  10.965  2.5288 -2.8508 -0.1499
 4608SOL    HW225458   4.624   0.876  10.861  0.2251  0.7498  2.0202
 4609SOL     OW25459   0.098   3.354   6.759  0.4560  0.1180  0.2943
 4609SOL    HW125460   0.180   3.322   6.797  0.3949  0.7938  0.9922
 4609SOL    HW225461   0.117   3.334   6.667 -2.2655  3.2790 -0.9592
 4610SOL     OW25462   3.580   3.554   3.548  0.1715 -0.2671 -0.1096
 4610SOL    HW125463   3.651   3.613   3.523 -0.4369  0.8597  0.8074
 4610SOL    HW225464   3.630   3.476   3.571  0.0867 -0.1630  0.4293
 4611SOL     OW25465   3.565   3.421   7.639  0.1403 -0.3809  0.0834
 4611SOL    HW125466   3.628   3.453   7.704  0.3247  1.1158 -0.8426
 4611SOL    HW225467   3.535   3.335   7.671 -1.7799 -0.3264 -1.6081
 4612SOL     OW25468   3.412   3.949   6.597  0.1361 -0.0092  0.3883
 4612SOL    HW125469   3.455   3.864   6.588 -1.8271 -0.9276 -0.0811
 4612SOL    HW225470   3.476   3.999   6.649  0.8619 -2.5282  1.9526
 4613SOL     OW25471   4.225   2.132   5.874 -0.0883 -0.1467 -0.3113
 4613SOL    HW125472   4.222   2.225   5.899 -0.1554  0.0253 -0.9714
 4613SOL    HW225473   4.293   2.099   5.932  0.2476  2.6287  0.8856
 4614SOL     OW25474   1.608   0.660   2.432 -0.3589  0.3886  0.2308
 4614SOL    HW125475   1.678   0.696   2.378  2.1310 -1.0447  2.4806
 4614SOL    HW225476   1.600   0.567   2.411  1.1697  0.3188 -0.0058
 4615SOL     OW25477   1.779   2.835  10.233 -0.3109 -0.5981  0.4377
 4615SOL    HW125478   1.851   2.777  10.258  0.8052  0.9224  0.8031
 4615SOL    HW225479   1.717   2.827  10.305  0.9753 -2.2857  1.3445
 4616SOL     OW25480   0.399   0.615   3.765  0.4310  0.2240 -0.2491
 4616SOL    HW125481   0.470   0.600   3.703  1.1512  0.5461  0.5096
 4616SOL    HW225482   0.438   0.677   3.826 -1.3111 -0.0796  1.1540
 4617SOL     OW25483   0.022   0.262   6.433 -0.2801  0.2550 -0.1997
 4617SOL    HW125484   0.009   0.168   6.418 -0.0009  0.2141 -0.1909
 4617SOL    HW225485   4.679   0.277   6.483  2.3544 -2.0562  4.7585
 4618SOL     OW25486   3.466   3.225  16.502  0.2517  1.0043 -0.2643
 4618SOL    HW125487   3.550   3.189  16.474 -0.0295  0.1559 -0.0220
 4618SOL    HW225488   3.411   3.147  16.494  0.6717  0.9513 -2.6348
 4619SOL     OW25489   1.074   3.380   7.182 -0.3941  0.6803 -0.7725
 4619SOL    HW125490   1.106   3.450   7.239  0.2325 -2.1399  2.3653
 4619SOL    HW225491   1.081   3.303   7.239 -2.9807  1.2455  0.2931
 4620SOL     OW25492   1.275   4.428   8.728 -0.7772  0.5252 -0.3440
 4620SOL    HW125493   1.271   4.398   8.638  0.3543 -2.0266  0.4413
 4620SOL    HW225494   1.248   4.350   8.777  0.0112 -0.2575 -1.1545
 4621SOL     OW25495   0.436   1.541   9.733 -0.5948  0.4540 -0.3887
 4621SOL    HW125496   0.518   1.511   9.771 -0.6947 -1.9528 -2.1182
 4621SOL    HW225497   0.382   1.464   9.746 -1.2561  1.0371  0.3043
 4622SOL     OW25498   0.024   2.721   4.027  0.5175 -0.3552  0.6096
 4622SOL    HW125499   0.075   2.650   3.988  1.0641 -0.1733  0.9991
 4622SOL    HW225500   0.094   2.771   4.068  0.6812 -1.4679  1.6779
 4623SOL     OW25501   4.313   2.677   7.174 -0.3514 -0.5937  0.8032
 4623SOL    HW125502   4.228   2.633   7.165 -0.5725  0.0659 -0.2731
 4623SOL    HW225503   4.364   2.641   7.101 -0.4045  3.5570 -1.2872
 4624SOL     OW25504   2.022   2.444  12.182  0.4946  0.5243 -0.5750
 4624SOL    HW125505   1.984   2.391  12.111  1.7366 -2.0684  0.6861
 4624SOL    HW225506   2.053   2.518  12.130  2.8202  0.3488  0.5535
 4625SOL     OW25507   2.870   1.889   9.804  0.2368 -0.4349  0.2109
 4625SOL    HW125508   2.925   1.843   9.868 -0.7849  1.4102  2.4197
 4625SOL    HW225509   2.885   1.833   9.728 -2.1359  1.4210 -1.6211
 4626SOL     OW25510   0.472   1.022   2.009  0.4645  0.9886  0.0426
 4626SOL    HW125511   0.397   1.060   1.962  0.1105 -0.5566 -0.6321
 4626SOL    HW225512   0.525   1.022   1.929 -0.1271  1.4169 -0.3560
 4627SOL     OW25513   3.235   2.618   6.087  0.8313  0.4826 -0.0562
 4627SOL    HW125514   3.168   2.552   6.070  2.0894 -1.1942  1.5584
 4627SOL    HW225515   3.196   2.679   6.149  1.6619 -0.1614  1.1047
 4628SOL     OW25516   4.475   3.383   9.054  0.2619  0.2281  0.3900
 4628SOL    HW125517   4.559   3.420   9.081  0.3448 -0.1076  0.5940
 4628SOL    HW225518   4.492   3.364   8.962  0.8058 -1.1606  0.7840
 4629SOL     OW25519   2.373   1.697   2.616 -0.3319  0.4329 -0.4145
 4629SOL    HW125520   2.355   1.603   2.613 -2.1735  0.7844 -0.1705
 4629SOL    HW225521   2.399   1.711   2.525  2.6274  0.2646  0.3958
 4630SOL     OW25522   1.498   3.021  10.178  0.2778 -0.2849 -0.1868
 4630SOL    HW125523   1.423   3.040  10.122  0.2751 -1.7977 -0.6908
 4630SOL    HW225524   1.445   3.029  10.258 -1.1679 -0.2414 -1.1480
 4631SOL     OW25525   1.795   3.582   9.304  0.3640 -0.4327  0.4094
 4631SOL    HW125526   1.735   3.644   9.346  0.8822 -0.9956  1.9885
 4631SOL    HW225527   1.863   3.643   9.274  0.1858  0.4512  1.8084
 4632SOL     OW25528   4.442   0.276   1.512 -0.5079  0.2177  0.3053
 4632SOL    HW125529   4.402   0.288   1.426  1.5782  1.6137 -0.4888
 4632SOL    HW225530   4.533   0.264   1.485 -0.3455 -0.8813  1.3745
 4633SOL     OW25531   4.328   3.832  16.463  0.1792  0.0931 -0.0802
 4633SOL    HW125532   4.377   3.839  16.381 -0.6719  0.7864 -0.5389
 4633SOL    HW225533   4.242   3.805  16.430 -0.0885 -1.0877  1.6147
 4634SOL     OW25534   2.598   0.129   8.337 -0.5358  0.4373  0.3937
 4634SOL    HW125535   2.571   0.216   8.368  1.9040  0.8363  1.3860
 4634SOL    HW225536   2.568   0.078   8.413  0.4117  0.1620  0.5905
 4635SOL     OW25537   0.304   1.246   5.624 -0.3499  0.0559  0.1441
 4635SOL    HW125538   0.344   1.281   5.544  0.3263 -0.6290  0.1847
 4635SOL    HW225539   0.214   1.257   5.593  0.1383  2.6928 -0.3473
 4636SOL     OW25540   1.147   1.317   9.584  0.5659 -0.3223 -0.4905
 4636SOL    HW125541   1.121   1.391   9.640 -1.7795 -0.0796 -1.8658
 4636SOL    HW225542   1.066   1.303   9.535 -0.6988 -1.2963  1.8776
 4637SOL     OW25543   4.240   2.627   7.803  0.7490  0.4018 -0.3650
 4637SOL    HW125544   4.246   2.648   7.710 -1.0832 -0.2690 -0.6339
 4637SOL    HW225545   4.324   2.664   7.830 -0.4380  1.7646  1.5167
 4638SOL     OW25546   1.054   0.506   9.042 -0.2435  0.1323 -0.1873
 4638SOL    HW125547   1.116   0.579   9.036 -0.7904  0.5763 -0.3920
 4638SOL    HW225548   1.113   0.440   9.078 -0.2982  0.5440  0.6604
 4639SOL     OW25549   3.373   0.511   6.198 -0.2665 -0.1559 -0.7402
 4639SOL    HW125550   3.329   0.587   6.161 -0.1542  0.2227 -0.0871
 4639SOL    HW225551   3.428   0.550   6.265 -0.2802 -0.4991 -0.5287
 4640SOL     OW25552   0.393   0.881  13.441 -0.1104 -0.1348 -0.0070
 4640SOL    HW125553   0.362   0.951  13.384 -2.4084 -1.2059 -0.0612
 4640SOL    HW225554   0.452   0.835  13.381 -0.0233 -2.3283  1.7713
 4641SOL     OW25555   2.199   2.630   1.895  0.2726  0.2611  0.3831
 4641SOL    HW125556   2.289   2.632   1.927  1.2764 -1.5550 -2.2796
 4641SOL    HW225557   2.177   2.556   1.952 -0.0674 -0.2509 -0.4029
 4642SOL     OW25558   0.683   0.010   7.873  0.2782  0.3163 -0.0768
 4642SOL    HW125559   0.718   4.690   7.941 -0.3150  1.5670  1.2671
 4642SOL    HW225560   0.627   4.678   7.838  1.0695 -0.8691  0.9901
 4643SOL     OW25561   1.937   1.963   7.525 -0.5188 -0.3461 -0.0311
 4643SOL    HW125562   1.952   2.049   7.485  0.1966  0.1992  1.3963
 4643SOL    HW225563   1.954   1.899   7.456  0.3493 -1.1307  0.9083
 4644SOL     OW25564   0.216   2.118  13.451  0.7211  0.6090  0.3181
 4644SOL    HW125565   0.291   2.096  13.506  0.8579  0.2894  0.0028
 4644SOL    HW225566   0.171   2.168  13.518  0.7678  0.3627  0.5301
 4645SOL     OW25567   2.831   0.360   2.884  0.8475  0.1387 -0.0989
 4645SOL    HW125568   2.782   0.345   2.965  0.9618 -1.6017 -0.3398
 4645SOL    HW225569   2.798   0.286   2.833  0.2684 -0.6453  1.4101
 4646SOL     OW25570   3.754   0.197   9.410  0.1236 -0.1334  0.5133
 4646SOL    HW125571   3.795   0.138   9.347  1.0135  3.0946 -1.9270
 4646SOL    HW225572   3.796   0.278   9.383  3.6094 -2.7517 -2.0525
 4647SOL     OW25573   0.616   3.178   1.876  0.6021  0.3518 -0.1660
 4647SOL    HW125574   0.685   3.165   1.940 -1.6894 -1.3453  1.9493
 4647SOL    HW225575   0.544   3.139   1.925  1.0333 -0.5709 -0.2772
 4648SOL     OW25576   0.230   1.297   8.448  0.3006  0.0211  0.3765
 4648SOL    HW125577   0.236   1.393   8.447 -0.7098  0.0745 -0.1713
 4648SOL    HW225578   0.232   1.269   8.356 -1.4235  0.1361  0.3071
 4649SOL     OW25579   3.417   2.157   7.169  0.7959 -0.1142 -0.1352
 4649SOL    HW125580   3.376   2.241   7.150 -1.3642 -0.9519  0.8504
 4649SOL    HW225581   3.437   2.158   7.262  1.6189  0.8139 -0.3215
 4650SOL     OW25582   4.259   0.333   9.849  0.0839 -0.8001  0.0720
 4650SOL    HW125583   4.350   0.316   9.826  0.9980  2.4069  1.3101
 4650SOL    HW225584   4.233   0.398   9.784  1.1934  0.7329  1.1597
 4651SOL     OW25585   0.797   3.577   5.271  0.1010 -0.4443 -0.0313
 4651SOL    HW125586   0.834   3.657   5.307  1.0924 -1.6257  1.5692
 4651SOL    HW225587   0.723   3.565   5.331 -0.1794  3.1492  0.3195
 4652SOL     OW25588   1.389   1.423   3.268  0.7837 -0.2420  0.3133
 4652SOL    HW125589   1.412   1.330   3.271  0.9970 -0.2370 -1.2802
 4652SOL    HW225590   1.455   1.453   3.206 -1.5631  0.8136 -1.6229
 4653SOL     OW25591   2.099   3.967  14.427  0.3159  0.7255  0.1020
 4653SOL    HW125592   2.165   3.982  14.360  1.0578  0.3376  0.7374
 4653SOL    HW225593   2.049   3.902  14.377  1.5444  0.3004 -0.5504
 4654SOL     OW25594   2.565   1.262   8.799 -0.2023  0.1834 -0.2127
 4654SOL    HW125595   2.472   1.283   8.790 -0.0481 -0.2375 -2.6749
 4654SOL    HW225596   2.580   1.209   8.721  0.0053  2.1284 -1.4823
 4655SOL     OW25597   4.592   0.409   2.531 -0.1056  0.4415 -0.4370
 4655SOL    HW125598   4.661   0.429   2.595 -0.0312  1.0493 -0.7084
 4655SOL    HW225599   4.524   0.476   2.539 -0.1567  0.3941 -0.4817
 4656SOL     OW25600   3.163   4.086   4.696  0.0411  0.6527  0.7033
 4656SOL    HW125601   3.160   4.165   4.642  1.7484  0.0277 -0.2972
 4656SOL    HW225602   3.153   4.123   4.784  0.3005 -1.5405  1.6608
 4657SOL     OW25603   4.721   1.318  14.273  0.2898 -0.5870  0.0943
 4657SOL    HW125604   4.634   1.307  14.235 -0.5699 -1.7771  2.4068
 4657SOL    HW225605   0.030   1.246  14.231  2.4485  0.8230  0.0314
 4658SOL     OW25606   1.442   3.191  14.582 -0.1016  0.1134  0.1059
 4658SOL    HW125607   1.392   3.123  14.538  1.0198  1.0790 -2.6977
 4658SOL    HW225608   1.456   3.244  14.503 -1.5005  0.4697  0.0951
 4659SOL     OW25609   1.026   4.674  16.894 -0.0555  0.0573 -0.2793
 4659SOL    HW125610   1.089   0.010  16.891  1.2144 -0.9905  0.7521
 4659SOL    HW225611   0.946   4.717  16.864 -0.3934 -0.5875 -0.3045
 4660SOL     OW25612   1.847   3.758   7.786 -0.0531 -0.0073 -0.6253
 4660SOL    HW125613   1.924   3.802   7.750 -0.7857  0.9565 -0.9942
 4660SOL    HW225614   1.780   3.784   7.722 -0.7005 -0.6169 -0.2035
 4661SOL     OW25615   1.165   4.305   6.407  0.2943 -0.5586  0.1033
 4661SOL    HW125616   1.153   4.213   6.381  1.0754 -0.5717 -0.2258
 4661SOL    HW225617   1.261   4.306   6.409  0.2403 -1.7596  4.1471
 4662SOL     OW25618   2.093   0.156   4.266 -0.6513 -0.1608 -0.3024
 4662SOL    HW125619   2.004   0.182   4.241 -0.8353 -1.3045 -0.8336
 4662SOL    HW225620   2.072   0.068   4.297 -0.9162  0.3082  0.8221
 4663SOL     OW25621   4.540   3.599   3.778  0.4095  0.3577 -0.4663
 4663SOL    HW125622   4.595   3.529   3.743 -1.1997 -0.0240 -2.2465
 4663SOL    HW225623   4.457   3.555   3.800  0.5470  0.6931  0.7304
 4664SOL     OW25624   3.558   4.455  17.633 -0.3011  0.3591  0.4152
 4664SOL    HW125625   3.559   4.436  17.539  1.2497 -1.8745  0.9073
 4664SOL    HW225626   3.623   4.391  17.659 -0.7551  0.1947  1.1595
 4665SOL     OW25627   3.938   3.686   8.768  0.3520 -0.2598 -0.2598
 4665SOL    HW125628   3.916   3.713   8.857 -0.5752 -0.6926 -0.3539
 4665SOL    HW225629   4.024   3.646   8.780  0.6731  1.4475  3.1445
 4666SOL     OW25630   1.035   0.765   8.030 -0.2426 -0.4268 -1.1041
 4666SOL    HW125631   1.112   0.807   8.067 -1.6518 -0.0388  1.4674
 4666SOL    HW225632   0.980   0.839   8.004 -0.1349  0.1892  0.3925
 4667SOL     OW25633   2.383   1.076   8.077  0.0575  0.6218  0.5966
 4667SOL    HW125634   2.321   1.089   8.149  1.0329  3.8332  0.8477
 4667SOL    HW225635   2.411   1.167   8.063  2.1997 -0.0878  0.3079
 4668SOL     OW25636   3.956   3.216   3.961 -0.2651 -0.2222  0.1465
 4668SOL    HW125637   3.946   3.126   3.992  0.7795 -0.8433 -1.3313
 4668SOL    HW225638   3.997   3.205   3.875  0.7065  1.2236  0.4134
 4669SOL     OW25639   3.164   3.092   6.908  0.5495  0.2769  0.0037
 4669SOL    HW125640   3.078   3.078   6.868  0.5346  3.6441 -1.1467
 4669SOL    HW225641   3.202   3.169   6.866  1.3806  0.5869  1.3297
 4670SOL     OW25642   2.941   1.999   1.020 -0.5260  0.2066  0.1884
 4670SOL    HW125643   2.891   2.005   0.939  1.5017  1.5817 -0.9486
 4670SOL    HW225644   2.876   1.999   1.090 -0.9201 -0.3138 -0.1759
 4671SOL     OW25645   3.798   0.455   5.563 -0.3586  0.1550  0.4018
 4671SOL    HW125646   3.844   0.488   5.486 -0.9060  1.5213  0.6607
 4671SOL    HW225647   3.715   0.447   5.516 -1.0936  0.1606  1.7155
 4672SOL     OW25648   0.249   3.592   5.212  0.2052 -0.6021  0.6127
 4672SOL    HW125649   0.244   3.538   5.133 -2.9932  1.1483 -0.3855
 4672SOL    HW225650   0.312   3.658   5.183 -0.1038 -1.0803 -1.1727
 4673SOL     OW25651   2.175   3.340   5.088  0.3340 -0.7598  0.4003
 4673SOL    HW125652   2.203   3.427   5.117 -1.3642 -0.1747  0.2754
 4673SOL    HW225653   2.174   3.295   5.172  0.9643  0.1208  0.8781
 4674SOL     OW25654   2.934   2.988   7.197 -0.3796 -0.4127  0.3194
 4674SOL    HW125655   2.953   2.917   7.258  0.3612  0.0661  0.6527
 4674SOL    HW225656   2.909   2.936   7.121  0.3702  0.7679 -0.7465
 4675SOL     OW25657   1.944   2.324   0.572 -0.0951  0.2897 -0.2585
 4675SOL    HW125658   1.856   2.302   0.603 -0.9023  1.0375 -2.0302
 4675SOL    HW225659   1.941   2.420   0.567  0.7904  0.3499  0.5021
 4676SOL     OW25660   0.205   2.362  14.874 -0.4741  0.5165  0.2999
 4676SOL    HW125661   0.205   2.420  14.797 -0.2173  0.9586  0.6287
 4676SOL    HW225662   0.199   2.278  14.829 -0.3647  1.2094 -1.0160
 4677SOL     OW25663   0.629   3.571   5.458 -0.3837 -0.7512  0.3560
 4677SOL    HW125664   0.634   3.511   5.533 -1.0604  0.4513  1.3701
 4677SOL    HW225665   0.623   3.658   5.499 -0.6056 -0.5807 -0.0408
 4678SOL     OW25666   2.358   4.302   8.592 -0.1093  0.3858 -0.0559
 4678SOL    HW125667   2.452   4.318   8.581  0.9148 -3.9385  2.6643
 4678SOL    HW225668   2.345   4.291   8.498 -0.4232 -0.8320  0.1354
 4679SOL     OW25669   2.186   2.642   0.914 -0.1496 -0.0735  0.1210
 4679SOL    HW125670   2.249   2.580   0.951 -0.2938 -1.1384 -1.3966
 4679SOL    HW225671   2.233   2.675   0.837 -3.1414 -0.4103 -1.8189
 4680SOL     OW25672   3.121   1.961  10.560  0.3408  0.1019 -0.8458
 4680SOL    HW125673   3.031   1.965  10.528 -0.5004 -0.8327  1.3698
 4680SOL    HW225674   3.150   1.879  10.521  1.0940 -1.4467  2.8963
 4681SOL     OW25675   3.374   0.299   4.099 -0.0840 -0.0463 -0.2903
 4681SOL    HW125676   3.314   0.239   4.054 -0.1780  0.1289 -0.4023
 4681SOL    HW225677   3.452   0.245   4.111  0.2457 -0.1411 -2.7389
 4682SOL     OW25678   2.654   2.240   1.673 -0.0515 -0.7244 -0.3853
 4682SOL    HW125679   2.626   2.149   1.660 -1.6516 -0.8016  3.7503
 4682SOL    HW225680   2.670   2.237   1.767 -2.2819  1.9236  0.0733
 4683SOL     OW25681   3.837   3.359   1.420 -0.3450  1.1066  0.4384
 4683SOL    HW125682   3.826   3.450   1.393  2.5110  1.7307  1.3220
 4683SOL    HW225683   3.782   3.317   1.355  1.6514 -1.9789  0.7661
 4684SOL     OW25684   2.774   3.220   3.547 -0.1905  0.5703 -0.3152
 4684SOL    HW125685   2.709   3.184   3.486 -1.2548 -1.8721  2.2226
 4684SOL    HW225686   2.801   3.138   3.588  0.0430  1.3247  1.0264
 4685SOL     OW25687   3.113   2.628   4.012 -0.1289  0.0713  0.2990
 4685SOL    HW125688   3.020   2.648   4.007 -0.3200 -1.0375 -0.5969
 4685SOL    HW225689   3.145   2.663   3.929 -0.5478 -0.5536 -0.1238
 4686SOL     OW25690   0.229   4.220   1.238  0.2159 -0.4558 -0.7290
 4686SOL    HW125691   0.216   4.183   1.325 -1.9068  0.9097 -0.4424
 4686SOL    HW225692   0.175   4.300   1.238  1.2180  0.2106  0.6173
 4687SOL     OW25693   3.426   0.089   2.407 -0.6239 -0.4139  0.3480
 4687SOL    HW125694   3.502   0.115   2.355  1.6371  0.1022  3.9302
 4687SOL    HW225695   3.363   0.062   2.340 -3.0437  2.2200  1.5867
 4688SOL     OW25696   3.871   1.301   8.629 -0.1130  0.0665 -0.1225
 4688SOL    HW125697   3.946   1.318   8.572 -0.4599  1.3902 -0.1754
 4688SOL    HW225698   3.912   1.256   8.702 -0.2345  1.2086  0.6466
 4689SOL     OW25699   1.333   0.910   0.023 -0.5454 -0.5913  0.0881
 4689SOL    HW125700   1.404   0.899  17.706 -1.6893  1.3241 -1.5193
 4689SOL    HW225701   1.381   0.976   0.073 -0.3174 -0.9600  0.3581
 4690SOL     OW25702   4.006   3.026   3.448 -0.0881  0.2761  0.1411
 4690SOL    HW125703   4.073   2.978   3.496 -0.2613 -1.4006 -1.2647
 4690SOL    HW225704   4.056   3.065   3.376 -1.6123  0.5987 -0.7524
 4691SOL     OW25705   0.240   0.035  15.190 -0.1987  0.2702 -0.3143
 4691SOL    HW125706   0.156   0.002  15.157  0.1076  1.4460 -2.2977
 4691SOL    HW225707   0.216   0.126  15.208  1.0017  0.1198  1.9526
 4692SOL     OW25708   0.038   3.398  11.081 -0.0474 -0.3127  0.3098
 4692SOL    HW125709   0.100   3.402  11.008 -0.2614  0.4040  0.1600
 4692SOL    HW225710   4.700   3.448  11.048 -1.1887 -1.6649  0.8338
 4693SOL     OW25711   3.408   2.943   2.250  0.1691 -0.2008 -0.3012
 4693SOL    HW125712   3.419   2.971   2.159 -1.0607  1.4273  0.0428
 4693SOL    HW225713   3.313   2.960   2.256 -0.0311 -1.1405 -0.7875
 4694SOL     OW25714   3.460   0.409   5.062  0.2501  0.2449  0.3889
 4694SOL    HW125715   3.380   0.360   5.085  1.0505 -1.0834  0.3448
 4694SOL    HW225716   3.499   0.343   5.004 -1.0305 -0.4923  0.3541
 4695SOL     OW25717   4.180   0.274   4.274  0.1555  0.9242 -0.0669
 4695SOL    HW125718   4.155   0.280   4.182 -0.1932 -1.8785 -0.1734
 4695SOL    HW225719   4.113   0.329   4.314 -0.1914  1.7470 -1.7775
 4696SOL     OW25720   1.960   3.401   7.618 -0.0915 -0.2174  0.1065
 4696SOL    HW125721   1.944   3.482   7.570 -1.1353 -0.4749  0.0204
 4696SOL    HW225722   2.056   3.404   7.615 -0.0435 -0.5807  1.2573
 4697SOL     OW25723   1.561   1.212  15.307 -0.7336 -0.3453  0.0229
 4697SOL    HW125724   1.522   1.220  15.394 -0.4267  1.1522  0.0223
 4697SOL    HW225725   1.498   1.235  15.239  1.0102  1.5441 -0.9547
 4698SOL     OW25726   2.571   3.128   7.915  0.6128 -0.0501  0.9360
 4698SOL    HW125727   2.570   3.184   7.992 -0.0437  0.1817  0.7616
 4698SOL    HW225728   2.497   3.068   7.928  1.3936 -0.9902  0.9807
 4699SOL     OW25729   1.335   4.483   8.361  0.2838  0.6178 -0.1835
 4699SOL    HW125730   1.351   4.557   8.420  1.3269 -0.2303  0.5994
 4699SOL    HW225731   1.414   4.476   8.308  0.1079 -0.4509 -0.3132
 4700SOL     OW25732   1.270   2.981  17.663 -0.1235 -0.1210  0.0274
 4700SOL    HW125733   1.313   2.930  17.594 -0.2221  1.1121 -0.9443
 4700SOL    HW225734   1.241   3.061  17.618 -0.7839 -0.7244 -0.6131
 4701SOL     OW25735   4.636   1.507   8.941  0.3305 -0.0086  0.4770
 4701SOL    HW125736   4.683   1.546   9.015  0.8178  1.2851 -0.5077
 4701SOL    HW225737   4.589   1.588   8.919 -1.5998 -1.6836 -1.5496
 4702SOL     OW25738   0.610   2.918   0.731 -0.3458  0.0421 -0.3753
 4702SOL    HW125739   0.546   2.977   0.771 -0.9141  0.3177 -1.6842
 4702SOL    HW225740   0.591   2.844   0.789  0.6239  1.0883  1.2663
 4703SOL     OW25741   0.332   4.079   7.670  0.4403 -0.0641  0.2820
 4703SOL    HW125742   0.282   4.035   7.739 -0.5408  2.7777  1.3999
 4703SOL    HW225743   0.423   4.066   7.695 -0.0679  0.1369  2.2346
 4704SOL     OW25744   3.929   3.349   3.181  0.0086  0.3207 -0.1611
 4704SOL    HW125745   3.927   3.443   3.166 -0.6319  0.7139  2.2895
 4704SOL    HW225746   3.987   3.338   3.257 -1.0573  0.0320  0.6147
 4705SOL     OW25747   0.658   4.248   3.697  0.7556  0.6958 -0.0608
 4705SOL    HW125748   0.633   4.313   3.763  1.8455  1.0298  0.0293
 4705SOL    HW225749   0.659   4.308   3.622  2.4902 -1.4797 -1.8005
 4706SOL     OW25750   2.160   3.156   4.036 -0.0743  0.4244  0.0006
 4706SOL    HW125751   2.109   3.237   4.029 -0.2609  0.2149 -1.0287
 4706SOL    HW225752   2.243   3.196   4.064 -0.3987  1.7019 -0.8835
 4707SOL     OW25753   0.219   3.243   9.507  0.2614  0.6653 -0.0961
 4707SOL    HW125754   0.128   3.214   9.514 -0.4512  2.4727 -1.6439
 4707SOL    HW225755   0.265   3.204   9.581 -0.8416 -1.2471 -0.4367
 4708SOL     OW25756   2.036   0.030   3.321  0.7828  0.1956  0.1797
 4708SOL    HW125757   2.026   4.736   3.230  2.7713  2.1874 -0.7227
 4708SOL    HW225758   2.051   0.123   3.305 -0.0534  0.1527 -0.9053
 4709SOL     OW25759   2.725   4.158   4.625  0.6691  0.5528  0.4181
 4709SOL    HW125760   2.784   4.085   4.604 -0.9182 -0.0577 -1.9252
 4709SOL    HW225761   2.793   4.220   4.653  2.1118 -0.5461 -0.6146
 4710SOL     OW25762   1.196   1.605   7.872 -0.2919  0.3920  0.0386
 4710SOL    HW125763   1.256   1.613   7.946  0.2728 -1.9985 -0.1717
 4710SOL    HW225764   1.177   1.699   7.865  0.7168  0.4849 -1.3737
 4711SOL     OW25765   4.359   3.354  14.330  0.5835 -0.0992  0.3887
 4711SOL    HW125766   4.376   3.340  14.237  0.0132 -1.4753  0.4972
 4711SOL    HW225767   4.371   3.449  14.322  0.1103 -0.0273  0.5652
 4712SOL     OW25768   3.608   0.197   4.158 -0.2585  0.6137  0.3451
 4712SOL    HW125769   3.652   0.118   4.189 -0.7755 -0.7432 -2.3523
 4712SOL    HW225770   3.671   0.209   4.087 -2.2483 -0.5494 -1.6384
 4713SOL     OW25771   0.706   3.864   5.268 -0.3275  0.4307  0.0745
 4713SOL    HW125772   0.797   3.838   5.283  0.1165  1.7460 -0.4010
 4713SOL    HW225773   0.686   3.869   5.361  0.4838  1.0583  0.2084
 4714SOL     OW25774   4.066   1.760   5.827 -0.1637  0.3240 -0.0850
 4714SOL    HW125775   4.153   1.735   5.860 -0.7081 -2.0154 -0.4130
 4714SOL    HW225776   4.074   1.721   5.740 -1.6111 -0.7099  0.2466
 4715SOL     OW25777   1.882   2.558   4.242  0.8037 -0.1574  0.2223
 4715SOL    HW125778   1.875   2.467   4.214  0.7860  0.5877 -2.1352
 4715SOL    HW225779   1.962   2.556   4.295 -0.2910 -1.3626  1.8348
 4716SOL     OW25780   4.683   2.423   3.706  0.0797 -1.1002 -0.1320
 4716SOL    HW125781   4.610   2.431   3.767 -0.2687 -1.1538 -0.5462
 4716SOL    HW225782   4.713   2.513   3.693  2.5096 -1.6431  1.5622
 4717SOL     OW25783   2.747   3.195   2.126  0.3393  0.3193  0.8143
 4717SOL    HW125784   2.676   3.257   2.145  1.1123  1.5256 -0.1878
 4717SOL    HW225785   2.821   3.238   2.169 -1.3218  1.5211  2.4681
 4718SOL     OW25786   0.616   4.184   5.667  0.0366 -0.0532 -0.1154
 4718SOL    HW125787   0.706   4.193   5.696 -0.0850  3.1978 -0.7452
 4718SOL    HW225788   0.582   4.263   5.711 -1.4855 -0.5773 -0.3430
 4719SOL     OW25789   1.205   4.701   9.435  0.8670 -0.2481  0.3663
 4719SOL    HW125790   1.247   4.619   9.408  2.6165  1.1530 -1.1795
 4719SOL    HW225791   1.165   4.669   9.515  0.5601  0.1257  0.3581
 4720SOL     OW25792   2.103   2.612   4.395  0.1876  0.7095 -0.0440
 4720SOL    HW125793   2.131   2.594   4.485  0.8524  0.0424 -0.3866
 4720SOL    HW225794   2.103   2.707   4.403  0.3409  0.9157 -2.5581
 4721SOL     OW25795   4.691   3.611   3.130  0.5395 -0.0855  0.1862
 4721SOL    HW125796   0.028   3.594   3.188 -0.7092 -2.3073  1.1371
 4721SOL    HW225797   4.735   3.632   3.048  1.8832  0.6981  1.1124
 4722SOL     OW25798   0.344   4.199  10.338 -0.1683  0.6461 -0.4122
 4722SOL    HW125799   0.252   4.226  10.336 -0.8559 -1.6981  0.5838
 4722SOL    HW225800   0.384   4.261  10.399  0.8947 -1.1595  0.7185
 4723SOL     OW25801   4.060   4.489   2.963  0.1742  0.0926  0.3561
 4723SOL    HW125802   4.152   4.474   2.942 -0.7149 -2.1385 -1.8805
 4723SOL    HW225803   4.034   4.553   2.897  1.4927  0.8681  0.5856
 4724SOL     OW25804   0.110   4.265   7.054 -0.5956 -0.0633 -0.3753
 4724SOL    HW125805   0.034   4.259   7.113 -0.6652  0.6212 -0.3916
 4724SOL    HW225806   0.082   4.342   7.004  0.0377  0.1649 -0.3694
 4725SOL     OW25807   3.693   1.892   7.726  0.4445  0.1534  0.1119
 4725SOL    HW125808   3.603   1.900   7.695  1.2315  2.0382 -1.7825
 4725SOL    HW225809   3.686   1.939   7.809  1.1681  1.1897 -0.4002
 4726SOL     OW25810   0.774   3.344   4.806 -0.1136 -0.5339 -0.1991
 4726SOL    HW125811   0.827   3.360   4.884 -0.2456 -2.7368  0.3623
 4726SOL    HW225812   0.682   3.362   4.823 -0.6625 -0.7992 -2.8308
 4727SOL     OW25813   0.423   4.210   4.001 -0.2455  0.4488  0.0604
 4727SOL    HW125814   0.355   4.253   3.949 -1.8233 -1.0041  0.8891
 4727SOL    HW225815   0.420   4.252   4.087  1.6191 -0.4349  0.5577
 4728SOL     OW25816   4.558   3.733  15.740  0.1458 -0.5559 -0.5973
 4728SOL    HW125817   4.504   3.705  15.813  1.3338 -0.0549  0.4594
 4728SOL    HW225818   4.636   3.771  15.779 -1.7979  3.6891 -0.8579
 4729SOL     OW25819   0.959   3.482   9.627 -0.2270  0.0332  0.0123
 4729SOL    HW125820   1.029   3.547   9.619  1.1951 -1.4484  0.3421
 4729SOL    HW225821   0.892   3.550   9.637 -0.4902 -0.0444 -1.2276
 4730SOL     OW25822   4.608   2.188   2.494 -0.2679 -0.0618 -0.1038
 4730SOL    HW125823   4.595   2.272   2.451 -1.8208 -0.0794  0.3228
 4730SOL    HW225824   4.538   2.133   2.460 -1.1941  1.5860 -0.8390
 4731SOL     OW25825   3.229   3.262  13.787 -0.0645 -0.0783 -0.0435
 4731SOL    HW125826   3.252   3.193  13.725  0.3265  0.1142 -0.1175
 4731SOL    HW225827   3.206   3.326  13.719  1.1531 -1.3516 -1.6635
 4732SOL     OW25828   2.729   2.166   7.177 -0.2622 -0.2677 -0.1931
 4732SOL    HW125829   2.717   2.095   7.240 -1.5935  1.3578  1.4023
 4732SOL    HW225830   2.692   2.133   7.096 -1.0543 -1.6837  0.7383
 4733SOL     OW25831   0.769   0.766   6.217  0.5231  0.2122  0.1538
 4733SOL    HW125832   0.747   0.858   6.230 -2.1606 -0.3472 -0.4734
 4733SOL    HW225833   0.691   0.727   6.178  1.8227 -2.7835  0.4962
 4734SOL     OW25834   1.145   0.465   4.255  0.2360  0.0155  0.1589
 4734SOL    HW125835   1.098   0.426   4.181 -0.5402  2.4524 -0.5985
 4734SOL    HW225836   1.134   0.557   4.232 -0.6839 -0.4802 -1.4120
 4735SOL     OW25837   3.024   3.964   6.986 -0.1791  0.2517  0.1542
 4735SOL    HW125838   2.985   3.903   6.924 -1.1852  0.6690  0.3729
 4735SOL    HW225839   3.048   3.896   7.050 -1.3541  0.6867  1.0528
 4736SOL     OW25840   2.239   1.502   7.309 -0.4409  0.6728 -0.5846
 4736SOL    HW125841   2.221   1.419   7.353  1.0890  0.0840 -1.0581
 4736SOL    HW225842   2.219   1.572   7.372  0.5864 -0.6330  1.2263
 4737SOL     OW25843   0.544   1.985  16.734 -0.2499 -0.2803 -0.1209
 4737SOL    HW125844   0.465   2.013  16.687 -0.4252 -0.1073  0.2742
 4737SOL    HW225845   0.606   2.053  16.708  0.8134 -2.1442 -2.4367
 4738SOL     OW25846   2.074   3.869   7.683  0.3976  1.0268  0.0651
 4738SOL    HW125847   2.093   3.959   7.655 -1.1978  1.2938 -0.1140
 4738SOL    HW225848   2.054   3.822   7.602  0.7149  1.9734 -0.5703
 4739SOL     OW25849   2.877   3.480  12.926  0.5623  0.0225  0.6324
 4739SOL    HW125850   2.958   3.483  12.875 -0.1363 -1.4762 -0.5387
 4739SOL    HW225851   2.887   3.388  12.948  0.5464  0.2133  1.4378
 4740SOL     OW25852   1.459   4.507   2.557  0.0002 -0.1548  0.0983
 4740SOL    HW125853   1.376   4.529   2.600  0.0891 -1.0886  0.7421
 4740SOL    HW225854   1.451   4.552   2.473  0.1267 -1.0758 -0.4040
 4741SOL     OW25855   4.650   3.929   3.333  0.2169  0.8213  0.0024
 4741SOL    HW125856   4.595   3.879   3.394 -0.8972  1.8011 -0.2120
 4741SOL    HW225857   4.585   3.959   3.270  0.1404  0.4271 -0.1064
 4742SOL     OW25858   1.171   4.287   4.864 -0.1164 -0.3225  0.1435
 4742SOL    HW125859   1.238   4.276   4.798 -0.1959 -4.4442  0.7633
 4742SOL    HW225860   1.194   4.379   4.882 -0.8063 -0.4992  1.9709
 4743SOL     OW25861   4.283   4.211   5.834  0.1745 -0.2772 -0.4510
 4743SOL    HW125862   4.346   4.199   5.905 -2.1341  0.8193  1.7848
 4743SOL    HW225863   4.261   4.124   5.801 -3.4032  1.1200 -1.7363
 4744SOL     OW25864   1.990   1.073   3.626  0.2930 -0.1912  0.5294
 4744SOL    HW125865   2.058   1.134   3.654 -0.4029  0.8966 -0.1698
 4744SOL    HW225866   2.002   1.009   3.697  0.7796 -2.0374 -1.2007
 4745SOL     OW25867   2.038   4.168   7.339 -0.3549 -0.8322  0.1328
 4745SOL    HW125868   2.094   4.222   7.283  0.9120 -0.0253  2.2241
 4745SOL    HW225869   1.960   4.223   7.339  0.6677  0.5900  2.1940
 4746SOL     OW25870   3.618   4.529   3.630 -0.0629 -0.1147 -0.5727
 4746SOL    HW125871   3.678   4.603   3.629 -0.0193 -0.1702 -1.9693
 4746SOL    HW225872   3.687   4.464   3.616  0.3995  0.6169 -1.6952
 4747SOL     OW25873   0.902   2.786  15.178  0.1722 -0.2643  0.0569
 4747SOL    HW125874   0.814   2.799  15.215  0.3974  1.8480 -0.1626
 4747SOL    HW225875   0.877   2.770  15.087  2.5082 -1.3607 -0.4036
 4748SOL     OW25876   4.542   1.219   8.134 -0.0843 -0.7597 -0.5258
 4748SOL    HW125877   4.615   1.169   8.172 -0.3385 -0.6376  0.1232
 4748SOL    HW225878   4.476   1.220   8.203  2.7499  1.0994  2.1767
 4749SOL     OW25879   3.105   1.290  13.546  0.2447 -0.1917  0.4754
 4749SOL    HW125880   3.124   1.382  13.528  0.5492 -0.3860 -0.1967
 4749SOL    HW225881   3.077   1.289  13.638  0.2415 -2.1276  0.4446
 4750SOL     OW25882   4.208   3.754  10.770 -0.5231 -0.5584  0.0986
 4750SOL    HW125883   4.195   3.708  10.687 -2.9670 -0.3522  0.3667
 4750SOL    HW225884   4.148   3.825  10.746 -1.0030 -1.3754 -1.0980
 4751SOL     OW25885   2.572   0.765   8.634 -0.3060 -0.8211  0.0180
 4751SOL    HW125886   2.477   0.752   8.631 -0.8398  3.2282 -0.0597
 4751SOL    HW225887   2.598   0.802   8.550 -1.5093  0.3730  0.1787
 4752SOL     OW25888   3.186   0.947   4.655 -0.0664 -0.0136  0.1676
 4752SOL    HW125889   3.098   0.985   4.661 -0.3496 -0.5762 -0.4273
 4752SOL    HW225890   3.217   0.946   4.746 -0.5348 -2.0976  0.3044
 4753SOL     OW25891   1.760   3.829  13.978  0.2059 -0.1971  0.1498
 4753SOL    HW125892   1.812   3.907  13.996 -2.1687  0.6009  3.4745
 4753SOL    HW225893   1.701   3.814  14.051 -0.4366  3.4137  0.3581
 4754SOL     OW25894   2.028   1.036  10.761 -0.5657 -0.3548  0.0827
 4754SOL    HW125895   1.939   1.065  10.780 -0.6786 -0.6880  0.0617
 4754SOL    HW225896   2.012   0.954  10.714 -0.5590 -1.0692  1.3058
 4755SOL     OW25897   4.076   1.288  12.338  0.1490 -0.5114 -0.1458
 4755SOL    HW125898   4.018   1.324  12.404  0.7746  0.9897 -0.4091
 4755SOL    HW225899   4.024   1.288  12.258 -0.1678 -0.6398  0.0632
 4756SOL     OW25900   0.808   0.236   0.646  0.1548 -0.1530  0.1837
 4756SOL    HW125901   0.811   0.312   0.587  1.9686 -1.1826 -1.0668
 4756SOL    HW225902   0.720   0.202   0.629 -0.2818  1.1931 -0.2463
 4757SOL     OW25903   0.527   0.924   8.867  0.4503  0.6926 -0.2397
 4757SOL    HW125904   0.477   1.005   8.858 -0.5964 -0.0958 -1.4978
 4757SOL    HW225905   0.613   0.946   8.830  0.6344  1.8433  0.8767
 4758SOL     OW25906   2.654   0.839   8.387  0.0055  0.2036 -0.8233
 4758SOL    HW125907   2.667   0.758   8.339  0.3356  0.5236 -1.2768
 4758SOL    HW225908   2.696   0.905   8.332 -0.8798  1.3015 -0.1833
 4759SOL     OW25909   3.039   4.647   8.662  0.2130  0.2915  0.2119
 4759SOL    HW125910   3.022   4.558   8.694  0.4278  0.5602  1.0695
 4759SOL    HW225911   2.975   4.681   8.724 -0.0510 -0.2225  0.2237
 4760SOL     OW25912   1.124   0.396   1.105  0.2449  0.4260  0.1687
 4760SOL    HW125913   1.117   0.301   1.100 -1.3744  0.5621 -0.5096
 4760SOL    HW225914   1.217   0.412   1.094  0.0835  1.3887  0.1440
 4761SOL     OW25915   4.117   0.550   9.210  0.2378 -0.1078  0.0612
 4761SOL    HW125916   4.104   0.476   9.151 -0.3767  1.5283 -1.8474
 4761SOL    HW225917   4.182   0.517   9.272  0.2030 -2.6656 -1.2597
 4762SOL     OW25918   4.159   3.328   6.489 -0.5836  0.1580  0.0155
 4762SOL    HW125919   4.129   3.414   6.460 -2.5825 -0.6130 -0.1665
 4762SOL    HW225920   4.223   3.299   6.423  1.2760  1.5495  1.2370
 4763SOL     OW25921   0.691   1.517   1.738 -0.5309  0.6089  0.0851
 4763SOL    HW125922   0.692   1.468   1.821 -0.6297  1.7986  0.7916
 4763SOL    HW225923   0.756   1.471   1.685  0.2715  2.9454 -0.9612
 4764SOL     OW25924   3.518   1.235   8.339  0.0723  0.2572 -0.2708
 4764SOL    HW125925   3.566   1.310   8.305  0.1025 -0.0482 -0.8973
 4764SOL    HW225926   3.569   1.169   8.293  0.3141 -0.6374  1.2824
 4765SOL     OW25927   3.764   1.249  17.187 -0.3197  0.3149 -0.1470
 4765SOL    HW125928   3.813   1.329  17.170  0.4675 -0.0444  0.3604
 4765SOL    HW225929   3.739   1.248  17.280 -1.7099 -2.0757 -0.5353
 4766SOL     OW25930   0.571   1.507   5.595  0.1990  0.5712 -0.3033
 4766SOL    HW125931   0.665   1.489   5.591  0.1847  0.8603 -1.9013
 4766SOL    HW225932   0.563   1.601   5.611 -1.1347  0.6652 -1.5951
 4767SOL     OW25933   2.357   2.581   3.725 -0.3425 -0.3151 -0.4799
 4767SOL    HW125934   2.295   2.531   3.778 -0.0489 -0.6847 -0.4948
 4767SOL    HW225935   2.295   2.631   3.671 -0.6437  0.6366  0.7454
 4768SOL     OW25936   4.255   2.613   2.752  0.0576 -0.7939 -0.5265
 4768SOL    HW125937   4.225   2.614   2.661 -0.4706  0.4508 -0.3328
 4768SOL    HW225938   4.226   2.533   2.796  1.2850 -0.6296  0.6022
 4769SOL     OW25939   3.740   3.629   1.321 -0.0529  0.6764  0.2611
 4769SOL    HW125940   3.807   3.664   1.381  0.7384  2.6205 -1.7759
 4769SOL    HW225941   3.668   3.690   1.335 -0.3115  0.1096  1.4146
 4770SOL     OW25942   2.307   1.019   5.473  0.4488  0.6547 -0.4918
 4770SOL    HW125943   2.356   1.043   5.395 -0.1907 -0.2461 -1.1825
 4770SOL    HW225944   2.377   1.030   5.536 -0.8523 -1.4280  1.3185
 4771SOL     OW25945   4.265   0.983   4.975  0.1196 -0.3358  0.4110
 4771SOL    HW125946   4.351   0.978   5.017 -0.3705  1.0622  1.5928
 4771SOL    HW225947   4.269   0.907   4.917  1.5050  1.3165 -1.7092
 4772SOL     OW25948   1.914   3.340   4.068 -0.0754 -0.5019 -0.0671
 4772SOL    HW125949   1.885   3.336   4.159 -2.5823 -1.1979 -0.9078
 4772SOL    HW225950   1.994   3.392   4.082  0.1568 -0.8075 -0.2391
 4773SOL     OW25951   3.178   3.345   7.711 -0.3340 -0.1916  0.7352
 4773SOL    HW125952   3.239   3.280   7.677 -0.6247  0.8886 -1.8103
 4773SOL    HW225953   3.110   3.341   7.644  0.0765  0.5702  0.2789
 4774SOL     OW25954   1.583   1.430  10.808  0.3966  0.9454  0.1295
 4774SOL    HW125955   1.531   1.491  10.862  0.3506  1.3965 -0.4271
 4774SOL    HW225956   1.669   1.431  10.850  0.7127 -0.9080 -0.5077
 4775SOL     OW25957   4.061   0.804   7.246 -0.0528  0.3680 -0.0757
 4775SOL    HW125958   4.085   0.816   7.339  0.5955  0.8584 -0.3021
 4775SOL    HW225959   3.999   0.732   7.254 -1.4711  1.5394 -0.3803
 4776SOL     OW25960   3.938   0.874   6.324 -0.6858  0.2220 -0.3133
 4776SOL    HW125961   3.878   0.870   6.398  0.1335  0.2932  0.3593
 4776SOL    HW225962   3.965   0.965   6.316  0.0948  0.0020 -0.2437
 4777SOL     OW25963   1.155   2.589   9.636  0.4138  0.4178  0.1263
 4777SOL    HW125964   1.064   2.565   9.658  0.7807 -0.0842  1.1022
 4777SOL    HW225965   1.206   2.589   9.717 -0.0292  0.5794  0.4045
 4778SOL     OW25966   3.161   0.705   1.377 -0.7771 -0.1914 -0.0919
 4778SOL    HW125967   3.127   0.794   1.376 -1.1185 -0.3222 -0.0874
 4778SOL    HW225968   3.153   0.686   1.470  0.3666  0.8210  0.2113
 4779SOL     OW25969   1.797   2.683   8.278  0.1015  0.3542 -0.2947
 4779SOL    HW125970   1.749   2.666   8.359 -0.4414  0.9378 -0.4995
 4779SOL    HW225971   1.733   2.668   8.209  2.0526 -1.7561 -1.6404
 4780SOL     OW25972   1.061   2.073   1.809 -0.4265  0.1841  0.4948
 4780SOL    HW125973   0.996   2.142   1.794  1.3299  1.6378 -0.3261
 4780SOL    HW225974   1.134   2.125   1.840 -1.0744  0.4227  1.6186
 4781SOL     OW25975   2.588   1.153   2.443  0.2966  0.4681 -0.0505
 4781SOL    HW125976   2.523   1.095   2.403  1.4373 -0.4030 -0.6421
 4781SOL    HW225977   2.614   1.098   2.517  0.9143  0.9921  0.1128
 4782SOL     OW25978   3.648   0.892  11.055 -0.1968  0.0721 -0.5759
 4782SOL    HW125979   3.577   0.828  11.060 -0.1628  0.1221  0.6026
 4782SOL    HW225980   3.690   0.855  10.977  2.4174 -0.0963  0.9071
 4783SOL     OW25981   1.354   3.783  13.305 -0.1585 -0.0083  0.6137
 4783SOL    HW125982   1.369   3.697  13.343  2.1578  0.6431  1.1514
 4783SOL    HW225983   1.260   3.774  13.286 -0.0120 -1.9430  0.8708
 4784SOL     OW25984   0.228   0.061   7.122 -0.1775  0.2453 -0.5049
 4784SOL    HW125985   0.313   0.067   7.165 -0.6151  1.2260  0.2277
 4784SOL    HW225986   0.167   0.086   7.191 -1.3155  0.0001 -1.4128
 4785SOL     OW25987   4.330   2.478  15.752 -0.0831  0.7816  0.3698
 4785SOL    HW125988   4.319   2.417  15.679  0.1465  2.2406 -0.9006
 4785SOL    HW225989   4.388   2.540  15.708  0.2689  0.6223  0.6108
 4786SOL     OW25990   2.249   3.190   6.951  0.7797 -1.0155  0.5524
 4786SOL    HW125991   2.169   3.183   7.003 -0.0032 -0.7292 -0.6215
 4786SOL    HW225992   2.198   3.213   6.873 -1.3978 -1.8477  1.7212
 4787SOL     OW25993   1.774   0.296  11.490 -0.4088 -0.4915  0.3420
 4787SOL    HW125994   1.864   0.321  11.507 -0.4368  0.7771 -1.3317
 4787SOL    HW225995   1.766   0.353  11.413  4.9206 -2.1015 -1.3950
 4788SOL     OW25996   3.920   2.450   4.612 -0.5556 -0.2270  0.0307
 4788SOL    HW125997   3.856   2.397   4.564 -0.8438  1.0163 -0.9614
 4788SOL    HW225998   3.999   2.426   4.565  0.0429 -1.6843  1.7819
 4789SOL     OW25999   4.156   1.221   8.656  0.1019 -0.1739 -0.0094
 4789SOL    HW126000   4.162   1.184   8.568 -0.4879 -1.7724  0.6279
 4789SOL    HW226001   4.240   1.267   8.654  1.3639 -2.5423 -1.7978
 4790SOL     OW26002   4.217   4.089  13.272  0.2586 -0.0471  0.5633
 4790SOL    HW126003   4.272   4.167  13.272  0.0391  0.1063  1.1011
 4790SOL    HW226004   4.134   4.134  13.288  0.0755 -0.0748 -0.3290
 4791SOL     OW26005   3.463   1.277  17.526  0.1022 -0.0813 -0.1830
 4791SOL    HW126006   3.377   1.315  17.506 -0.0854 -0.1993  0.4253
 4791SOL    HW226007   3.443   1.221  17.600 -0.2536  2.2574  1.5063
 4792SOL     OW26008   4.352   3.338   3.303 -0.6890  0.1355 -0.3667
 4792SOL    HW126009   4.410   3.303   3.236 -0.7264  1.3492 -1.0400
 4792SOL    HW226010   4.402   3.316   3.382 -0.6586  0.4017 -0.3131
 4793SOL     OW26011   2.752   0.620   2.371 -0.0906  0.0651 -0.0880
 4793SOL    HW126012   2.701   0.572   2.436 -1.0327  2.2550  0.7920
 4793SOL    HW226013   2.684   0.683   2.348  0.0693 -0.0581 -0.8906
 4794SOL     OW26014   4.666   0.795  14.146 -0.4573  0.0577 -0.1578
 4794SOL    HW126015   4.610   0.799  14.069  0.8031 -0.8824 -1.1185
 4794SOL    HW226016   4.680   0.888  14.168 -1.8252  0.3567 -0.5833
 4795SOL     OW26017   2.200   0.644   2.887 -0.3830 -0.0149  0.2222
 4795SOL    HW126018   2.106   0.656   2.900 -0.0464  0.4317  2.1833
 4795SOL    HW226019   2.240   0.716   2.936 -1.3318  0.6664  0.0047
 4796SOL     OW26020   1.564   1.560  12.029 -0.3118 -0.0463 -0.7403
 4796SOL    HW126021   1.490   1.499  12.017 -0.5661 -0.1689  1.4310
 4796SOL    HW226022   1.638   1.500  12.020 -1.9397 -2.4929  1.8050
 4797SOL     OW26023   2.187   3.536   1.390 -0.1112  0.1951  0.3946
 4797SOL    HW126024   2.260   3.591   1.361 -0.5316  1.1351  1.1187
 4797SOL    HW226025   2.129   3.595   1.438 -2.2080 -1.6092  0.1213
 4798SOL     OW26026   4.407   3.974   9.264 -0.4621 -0.7883  0.1936
 4798SOL    HW126027   4.331   4.020   9.228  0.8095  2.0083  1.0654
 4798SOL    HW226028   4.432   4.032   9.336  1.7091 -1.5783  0.0949
 4799SOL     OW26029   3.503   1.590   2.698  0.2795  0.1122 -0.1377
 4799SOL    HW126030   3.491   1.623   2.787 -1.2177  0.9009 -0.6346
 4799SOL    HW226031   3.455   1.656   2.648 -2.5622 -2.5572 -0.8971
 4800SOL     OW26032   0.314   1.267   8.163 -0.2940 -0.2720 -0.1675
 4800SOL    HW126033   0.234   1.302   8.123  0.8010  2.4333  0.0043
 4800SOL    HW226034   0.368   1.346   8.169 -1.3010  0.3048  1.3561
 4801SOL     OW26035   1.518   3.513   0.676  0.0204 -0.3677  0.2390
 4801SOL    HW126036   1.445   3.537   0.733  1.5896  0.4757  1.8880
 4801SOL    HW226037   1.578   3.586   0.696  1.2809 -1.2582 -0.3315
 4802SOL     OW26038   4.291   0.004  17.588  0.1260  0.3905  0.0848
 4802SOL    HW126039   4.199   4.729  17.563 -0.0999  3.7484 -0.7095
 4802SOL    HW226040   4.291   0.002  17.684  0.2639 -2.5998  0.0344
 4803SOL     OW26041   1.425   1.542   4.384  0.1662  0.3826 -0.2559
 4803SOL    HW126042   1.520   1.546   4.391  0.0637  1.8214  0.3758
 4803SOL    HW226043   1.395   1.623   4.425 -0.5073 -0.9409  1.8684
 4804SOL     OW26044   0.355   4.443   8.502  0.9416 -0.8246  0.7811
 4804SOL    HW126045   0.392   4.413   8.585 -0.2584 -0.8084  1.3360
 4804SOL    HW226046   0.262   4.460   8.520  1.6006  2.3751  1.1526
 4805SOL     OW26047   2.302   0.947  16.483 -0.2764 -0.7279  0.2829
 4805SOL    HW126048   2.346   1.018  16.436  0.4782 -2.1454 -1.1409
 4805SOL    HW226049   2.252   0.909  16.410 -1.9812  0.9773  0.5483
 4806SOL     OW26050   2.495   2.502   5.934 -0.1022 -0.8538 -0.3688
 4806SOL    HW126051   2.513   2.408   5.938  0.7890 -0.7474 -1.6012
 4806SOL    HW226052   2.401   2.501   5.950 -0.1602 -2.4209 -0.7890
 4807SOL     OW26053   2.237   1.838   7.944  0.5932  0.2769 -0.8578
 4807SOL    HW126054   2.242   1.744   7.958 -0.5726  0.4989  0.9598
 4807SOL    HW226055   2.310   1.880   7.990  1.4685 -1.0564 -1.0157
 4808SOL     OW26056   4.575   4.382   7.593 -0.3066 -0.1848  0.0761
 4808SOL    HW126057   4.646   4.439   7.622  0.4658 -0.3919 -1.3832
 4808SOL    HW226058   4.497   4.436   7.599  0.4929  1.1304 -1.4923
 4809SOL     OW26059   1.916   1.101   2.181  0.6438 -0.7823 -0.1877
 4809SOL    HW126060   1.863   1.170   2.142 -0.6849 -1.4269  0.4869
 4809SOL    HW226061   1.894   1.022   2.132 -1.6551 -0.3882  0.2155
 4810SOL     OW26062   2.901   3.249   8.034  0.3867  0.3182 -0.8395
 4810SOL    HW126063   2.835   3.309   7.998  0.6139  0.6744 -0.6676
 4810SOL    HW226064   2.894   3.187   7.961 -0.5605 -0.3416 -0.1788
 4811SOL     OW26065   4.566   2.225  11.390 -0.1616  0.0603 -0.1454
 4811SOL    HW126066   4.582   2.240  11.297  0.7444  0.1221  0.0241
 4811SOL    HW226067   4.474   2.250  11.387 -0.4274 -0.9995 -0.8391
 4812SOL     OW26068   4.086   2.583   5.276 -0.3146 -0.2258 -0.1937
 4812SOL    HW126069   4.149   2.513   5.259 -1.2953 -1.4864  1.4449
 4812SOL    HW226070   4.036   2.542   5.346  1.4424 -1.0229  0.5830
 4813SOL     OW26071   4.642   0.621   3.825  0.8129  0.0057 -0.1360
 4813SOL    HW126072   4.587   0.639   3.901 -0.7801 -1.4522 -0.9482
 4813SOL    HW226073   4.672   0.537   3.858  0.8023  0.0893  0.0825
 4814SOL     OW26074   2.857   1.547   1.289 -0.1994 -0.1660  0.1922
 4814SOL    HW126075   2.867   1.641   1.299 -0.8860  0.1289 -2.0093
 4814SOL    HW226076   2.834   1.550   1.197 -2.5102 -1.0944  0.7521
 4815SOL     OW26077   1.020   2.030  11.803 -0.2965 -0.6450  0.2990
 4815SOL    HW126078   1.098   1.981  11.776 -1.5211 -0.7229 -3.1682
 4815SOL    HW226079   1.038   2.048  11.895  3.7557 -0.7888 -0.4418
 4816SOL     OW26080   3.278   0.048   4.245 -0.1468 -0.2682  0.3740
 4816SOL    HW126081   3.220   0.052   4.168  0.5122 -1.8933 -0.2100
 4816SOL    HW226082   3.364   0.071   4.210 -1.5815  0.5645 -2.6652
 4817SOL     OW26083   4.225   3.827   8.570  0.0729  0.1696  0.3016
 4817SOL    HW126084   4.280   3.770   8.516  0.2566  1.6809 -1.1043
 4817SOL    HW226085   4.230   3.800   8.661  1.6346 -0.8616 -0.0915
 4818SOL     OW26086   2.885   4.027  16.729  0.0609  0.2155  0.0686
 4818SOL    HW126087   2.817   4.059  16.669 -3.1303 -2.5246  2.2692
 4818SOL    HW226088   2.922   4.098  16.782 -0.5097 -0.6222  1.5583
 4819SOL     OW26089   3.816   3.570   4.879 -0.5389  0.0966 -0.4119
 4819SOL    HW126090   3.863   3.631   4.821 -0.9041  1.1843  0.4455
 4819SOL    HW226091   3.865   3.492   4.852 -0.5659  0.0186 -0.2302
 4820SOL     OW26092   0.973   0.865   9.777 -0.3476 -0.0237 -0.2290
 4820SOL    HW126093   0.921   0.821   9.710 -0.3026  0.0500 -0.3119
 4820SOL    HW226094   0.943   0.956   9.770  0.9528  0.3657 -0.7038
 4821SOL     OW26095   2.045   4.038   9.144  0.4892  0.5507  0.0953
 4821SOL    HW126096   2.040   4.123   9.099 -1.3173 -0.0093 -0.7481
 4821SOL    HW226097   2.067   3.983   9.069 -1.9205  0.0290 -0.2353
 4822SOL     OW26098   3.543   2.656   2.532  0.8220  0.2799 -0.5151
 4822SOL    HW126099   3.497   2.583   2.573  1.5720  1.9414  3.2322
 4822SOL    HW226100   3.631   2.646   2.569  0.3794  1.5650  0.8674
 4823SOL     OW26101   0.855   1.451   4.942  0.5369  0.7412 -0.0779
 4823SOL    HW126102   0.856   1.391   4.868 -0.7669 -1.0907  1.3844
 4823SOL    HW226103   0.763   1.449   4.968  0.9683  1.8950  1.5571
 4824SOL     OW26104   0.448   0.558   9.519 -0.4731  0.7733 -0.0264
 4824SOL    HW126105   0.429   0.577   9.427  1.3908 -1.4517 -0.8616
 4824SOL    HW226106   0.468   0.644   9.555  1.4151  0.2115  0.2648
 4825SOL     OW26107   3.122   0.174   6.047  0.1014 -0.5955  0.1732
 4825SOL    HW126108   3.209   0.153   6.013  0.2158 -0.0255  0.1221
 4825SOL    HW226109   3.137   0.199   6.138 -0.0580 -0.0806  0.0600
 4826SOL     OW26110   2.611   0.047  10.883 -0.1331 -0.1684  0.2024
 4826SOL    HW126111   2.622   0.139  10.859  0.7849  0.0678  1.5311
 4826SOL    HW226112   2.668   0.036  10.959 -0.6970  0.7266  0.7524
 4827SOL     OW26113   1.521   0.534   6.078 -0.2450  0.3745 -0.2203
 4827SOL    HW126114   1.522   0.571   6.166  0.9778  0.2612 -0.1872
 4827SOL    HW226115   1.585   0.464   6.089  0.2209  0.4872 -2.2817
 4828SOL     OW26116   4.141   2.765  14.393 -0.1380  0.4190  0.1435
 4828SOL    HW126117   4.117   2.856  14.374 -2.1573  0.0838  1.0446
 4828SOL    HW226118   4.215   2.777  14.453  0.3080 -1.1953 -0.0880
 4829SOL     OW26119   3.304   1.475   7.793 -0.1168 -0.1546 -0.7955
 4829SOL    HW126120   3.373   1.500   7.855 -1.1882 -2.1108  1.2036
 4829SOL    HW226121   3.353   1.468   7.711  0.3015  0.0299 -0.5587
 4830SOL     OW26122   1.036   0.588   2.278 -0.4267 -0.0724  0.4493
 4830SOL    HW126123   0.955   0.623   2.315 -0.6835 -1.2216  0.9751
 4830SOL    HW226124   1.026   0.497   2.307  1.8946 -0.8305 -1.1405
 4831SOL     OW26125   3.600   0.595  13.522 -0.3411 -0.2883  0.2768
 4831SOL    HW126126   3.544   0.521  13.503  1.5063 -1.4200 -0.7352
 4831SOL    HW226127   3.561   0.631  13.602 -1.2195  0.2831 -0.4151
 4832SOL     OW26128   1.496   2.437  16.900 -0.3378 -0.0723 -0.5563
 4832SOL    HW126129   1.525   2.408  16.813 -0.5537 -0.3610 -0.5361
 4832SOL    HW226130   1.460   2.525  16.889  0.2001  0.1643 -0.3971
 4833SOL     OW26131   2.914   2.389   6.454 -0.2157  0.8363  0.2095
 4833SOL    HW126132   2.969   2.354   6.524 -0.7491  0.1329  0.2805
 4833SOL    HW226133   2.979   2.388   6.384  0.1826  0.4381  0.5838
 4834SOL     OW26134   1.113   0.538   6.539 -0.3091  0.6374 -0.2556
 4834SOL    HW126135   1.119   0.481   6.462  0.1295  0.0561  0.2076
 4834SOL    HW226136   1.126   0.478   6.612  0.6815  1.3035  0.1145
 4835SOL     OW26137   2.856   3.717   2.526  0.5658  0.5834 -0.4154
 4835SOL    HW126138   2.781   3.700   2.582  0.9793  0.8625  0.2295
 4835SOL    HW226139   2.829   3.674   2.445 -1.6432  0.5720  0.3269
 4836SOL     OW26140   0.657   3.708   4.441 -0.5020 -0.1225  0.1135
 4836SOL    HW126141   0.603   3.628   4.439 -2.0475  0.9053  0.5464
 4836SOL    HW226142   0.595   3.781   4.448 -0.8638 -0.5338  1.1933
 4837SOL     OW26143   0.571   0.396  13.753  0.3622 -0.4181 -0.0456
 4837SOL    HW126144   0.577   0.327  13.819  2.0106  1.1034  1.3842
 4837SOL    HW226145   0.487   0.376  13.713 -0.5859 -0.4736  1.9985
 4838SOL     OW26146   0.488   4.585   8.286  0.1560 -0.0896 -0.7479
 4838SOL    HW126147   0.428   4.616   8.218  0.5773  1.1099 -0.5751
 4838SOL    HW226148   0.427   4.536   8.342 -0.0660  1.3693  0.3109
 4839SOL     OW26149   0.040   1.816  14.173  0.2557 -0.6447 -0.2018
 4839SOL    HW126150   4.694   1.831  14.129  0.2481 -0.3141 -0.0791
 4839SOL    HW226151   0.022   1.732  14.215 -1.0752 -0.6067 -0.6975
 4840SOL     OW26152   1.351   0.578   5.870  0.3159  0.2052  0.0247
 4840SOL    HW126153   1.414   0.566   5.941  0.1571 -0.1980  0.0922
 4840SOL    HW226154   1.375   0.495   5.829  1.9160  0.8089 -0.2813
 4841SOL     OW26155   3.142   3.916   2.957  0.2450  0.0547  0.5923
 4841SOL    HW126156   3.118   3.856   2.886 -0.4883 -0.4587  1.2757
 4841SOL    HW226157   3.189   3.989   2.917 -0.8557 -0.5731 -1.8867
 4842SOL     OW26158   0.657   1.022   6.213  0.3047 -0.2039 -0.3801
 4842SOL    HW126159   0.709   1.098   6.187  1.6001 -0.0231  2.8443
 4842SOL    HW226160   0.567   1.056   6.218  0.0226 -0.9580 -0.2949
 4843SOL     OW26161   1.514   1.534   1.179  0.6083  0.0058 -0.1558
 4843SOL    HW126162   1.451   1.606   1.177  2.0474  1.3160  2.8738
 4843SOL    HW226163   1.580   1.576   1.234 -1.7854  1.4455  1.6229
 4844SOL     OW26164   4.543   4.529   1.979 -0.0458  0.1823 -0.0335
 4844SOL    HW126165   4.595   4.471   1.924  0.6323  0.4895  0.2860
 4844SOL    HW226166   4.602   4.603   1.965 -0.5411  0.6498  0.3373
 4845SOL     OW26167   4.470   3.954   3.069 -0.5684  0.6275 -1.0003
 4845SOL    HW126168   4.411   3.979   3.140 -0.6705 -0.9333 -0.5191
 4845SOL    HW226169   4.445   4.025   3.010 -0.6426  1.5095  0.0855
 4846SOL     OW26170   4.541   1.321   2.835  0.1405  0.0577  0.2330
 4846SOL    HW126171   4.513   1.236   2.801  2.4070 -0.4590 -0.3987
 4846SOL    HW226172   4.504   1.328   2.923 -2.7640 -0.0219 -0.9878
 4847SOL     OW26173   0.394   3.369  16.136 -0.3523  0.4134  0.1509
 4847SOL    HW126174   0.314   3.345  16.090  0.6021 -0.2057 -1.2103
 4847SOL    HW226175   0.415   3.459  16.111  0.3179 -0.7814 -3.5922
 4848SOL     OW26176   1.441   4.527   5.158 -0.6442  0.1802  0.3458
 4848SOL    HW126177   1.347   4.517   5.143  0.5085 -3.0656 -4.5343
 4848SOL    HW226178   1.454   4.464   5.229  1.3928 -1.3733 -1.4514
 4849SOL     OW26179   2.834   0.912  15.355 -0.7592 -0.1725 -0.0000
 4849SOL    HW126180   2.837   0.984  15.417 -1.0363  0.1207 -0.3272
 4849SOL    HW226181   2.925   0.910  15.326 -0.7086  0.7826  0.1158
 4850SOL     OW26182   1.863   2.895  12.943  0.5525 -0.2441  0.2303
 4850SOL    HW126183   1.796   2.865  12.881  2.2024  1.2084 -2.2642
 4850SOL    HW226184   1.888   2.979  12.905 -0.5093  1.0846  2.4854
 4851SOL     OW26185   3.933   2.236   9.169  0.1406  0.2738  0.1973
 4851SOL    HW126186   3.968   2.166   9.115  0.8235  0.2161  0.7104
 4851SOL    HW226187   3.926   2.307   9.105  0.4326  0.1300  0.0071
 4852SOL     OW26188   3.842   2.060   7.197  0.2941 -0.2165  0.5561
 4852SOL    HW126189   3.852   2.147   7.236  0.5145 -0.6236  1.3933
 4852SOL    HW226190   3.935   2.035   7.198  0.3763  0.1802  2.3467
 4853SOL     OW26191   3.780   1.561   2.198 -0.4554  0.0890 -0.5195
 4853SOL    HW126192   3.812   1.542   2.110 -0.5041 -0.2495 -0.4620
 4853SOL    HW226193   3.756   1.475   2.232  0.0912 -0.3576 -1.2623
 4854SOL     OW26194   0.170   1.630   0.600 -0.3458  0.0342  0.0250
 4854SOL    HW126195   0.250   1.637   0.547  0.1719 -0.2007  0.7653
 4854SOL    HW226196   0.165   1.722   0.625 -1.0050 -0.9289  3.4311
 4855SOL     OW26197   2.924   3.988  11.081  0.2432  0.4448  0.4934
 4855SOL    HW126198   2.994   3.922  11.078  0.4692  0.7242 -0.3844
 4855SOL    HW226199   2.949   4.037  11.159 -2.8927  2.1193  0.4409
 4856SOL     OW26200   0.289   3.562   4.461 -0.0632  0.1020 -0.4298
 4856SOL    HW126201   0.352   3.573   4.390  1.5151  1.7760  1.2018
 4856SOL    HW226202   0.224   3.498   4.432 -1.7234  2.0242 -0.9452
 4857SOL     OW26203   1.697   1.310  16.947  0.3511  0.6052 -0.4980
 4857SOL    HW126204   1.625   1.258  16.911  0.3306  0.4778 -0.2685
 4857SOL    HW226205   1.662   1.399  16.959  1.6684  1.1409 -0.6106
 4858SOL     OW26206   2.284   0.640   5.145 -0.0001 -0.6313  0.0733
 4858SOL    HW126207   2.233   0.560   5.158 -1.0578  0.0725  0.2637
 4858SOL    HW226208   2.279   0.686   5.229  1.3515  0.2782 -0.3382
 4859SOL     OW26209   1.110   0.980  14.003 -0.4931 -0.0064 -1.1242
 4859SOL    HW126210   1.026   0.933  14.007 -0.5557  0.2399  0.5325
 4859SOL    HW226211   1.091   1.073  13.996  3.1935  0.9699  1.9359
 4860SOL     OW26212   4.386   3.959   6.554 -0.0868 -0.0354  0.4064
 4860SOL    HW126213   4.480   3.966   6.537 -0.3862  1.8802 -0.4693
 4860SOL    HW226214   4.379   3.870   6.518 -1.3172  0.2576 -0.0814
 4861SOL     OW26215   0.759   2.806   3.686 -0.3415 -0.5543 -0.7483
 4861SOL    HW126216   0.681   2.816   3.740 -1.1066 -0.1615 -1.9147
 4861SOL    HW226217   0.735   2.734   3.627  0.8960  0.5495 -2.6048
 4862SOL     OW26218   1.872   1.830  10.734  0.6465 -0.0201  0.3865
 4862SOL    HW126219   1.946   1.807  10.790  0.3300 -0.8371  0.4756
 4862SOL    HW226220   1.828   1.908  10.768 -0.1147  0.4795 -1.7459
 4863SOL     OW26221   3.649   1.138   6.557  0.0078  0.2482 -0.7203
 4863SOL    HW126222   3.738   1.173   6.563  0.4982 -1.1241  0.1677
 4863SOL    HW226223   3.597   1.218   6.563  0.1783  0.3500 -0.6046
 4864SOL     OW26224   2.212   0.252   7.463 -0.4049  0.0082 -0.0093
 4864SOL    HW126225   2.263   0.176   7.435  0.6683  0.7453 -0.0678
 4864SOL    HW226226   2.237   0.305   7.387 -1.3331  0.0379 -0.2882
 4865SOL     OW26227   4.450   0.776   0.728  0.2011  0.4284  0.5048
 4865SOL    HW126228   4.503   0.814   0.798 -0.8720  0.4749  1.2897
 4865SOL    HW226229   4.408   0.858   0.703  0.6076 -0.1297 -1.9988
 4866SOL     OW26230   1.695   2.841   6.311  0.1996  0.1659 -0.7075
 4866SOL    HW126231   1.714   2.925   6.354 -0.8480 -0.1411  0.3716
 4866SOL    HW226232   1.613   2.862   6.265  0.1564 -0.2693 -0.8282
 4867SOL     OW26233   4.337   1.716   5.762 -0.0871  0.6008  0.5001
 4867SOL    HW126234   4.356   1.804   5.730 -1.3169 -0.3954 -2.9853
 4867SOL    HW226235   4.293   1.684   5.683  1.3568  0.2329 -0.1522
 4868SOL     OW26236   4.662   2.539   7.518  0.2665  0.1740  0.3351
 4868SOL    HW126237   4.726   2.583   7.463 -0.3008 -1.6693 -1.7875
 4868SOL    HW226238   4.589   2.527   7.457  0.3249  0.9678  0.1123
 4869SOL     OW26239   3.185   0.436   1.937 -0.4353  0.3691  0.0944
 4869SOL    HW126240   3.230   0.421   2.020 -0.9474 -1.0355  0.1221
 4869SOL    HW226241   3.218   0.523   1.916  1.4109 -0.5255 -0.6565
 4870SOL     OW26242   4.154   1.403  15.617  0.0483 -0.0468  0.0574
 4870SOL    HW126243   4.179   1.350  15.542 -1.0700  0.5641 -0.7456
 4870SOL    HW226244   4.237   1.420  15.661  1.8037 -0.0572 -3.2944
 4871SOL     OW26245   2.643   0.384   4.381 -0.1088 -0.1784 -0.2651
 4871SOL    HW126246   2.677   0.324   4.447  0.8953 -0.1275 -0.7352
 4871SOL    HW226247   2.722   0.414   4.336 -0.7361 -0.4194 -1.4992
 4872SOL     OW26248   3.341   2.273   4.048  0.0816  0.4930  0.0014
 4872SOL    HW126249   3.333   2.256   4.141  2.1983  1.9071  0.4527
 4872SOL    HW226250   3.434   2.295   4.040 -0.5852  2.5116 -2.2851
 4873SOL     OW26251   0.890   4.092   6.633 -0.7064  0.3097 -0.0573
 4873SOL    HW126252   0.969   4.142   6.652 -1.7205  1.6513  0.6124
 4873SOL    HW226253   0.826   4.155   6.665 -0.3727  0.3392  0.5580
 4874SOL     OW26254   3.412   2.922   5.351 -0.3332  1.1392 -0.5173
 4874SOL    HW126255   3.461   3.003   5.330  0.1354  1.7661  3.1134
 4874SOL    HW226256   3.472   2.858   5.312 -1.4947  0.5927 -1.3915
 4875SOL     OW26257   3.589   1.851   3.188 -0.0268 -0.3254  0.0947
 4875SOL    HW126258   3.627   1.896   3.113  0.0276  1.4708  1.2191
 4875SOL    HW226259   3.574   1.921   3.251 -0.6133  0.8072 -1.3277
 4876SOL     OW26260   3.161   0.127   3.544  0.1212  0.5348  0.2093
 4876SOL    HW126261   3.186   0.047   3.496  0.3491 -1.3230  3.4454
 4876SOL    HW226262   3.133   0.177   3.467  3.2361 -1.1060 -2.0138
 4877SOL     OW26263   0.006   1.045   4.160  0.1308  0.9123 -0.0786
 4877SOL    HW126264   0.003   1.141   4.159 -2.6476  0.8269  0.8605
 4877SOL    HW226265   4.720   1.022   4.070 -0.8890 -1.9956  0.9188
 4878SOL     OW26266   4.255   3.278   9.961 -0.0857  0.2265 -0.1052
 4878SOL    HW126267   4.278   3.230   9.881 -1.4351 -0.1154 -0.2871
 4878SOL    HW226268   4.256   3.201  10.017  0.0784 -0.4190 -0.9926
 4879SOL     OW26269   1.408   1.860   4.807 -0.2037 -0.0815  0.1664
 4879SOL    HW126270   1.370   1.812   4.880  0.5947 -0.3327  0.4102
 4879SOL    HW226271   1.384   1.799   4.737  0.7123 -0.0527 -0.1806
 4880SOL     OW26272   3.213   0.509   2.964  0.0759  0.3237 -0.3644
 4880SOL    HW126273   3.182   0.579   2.907 -1.3865 -0.5395 -0.6379
 4880SOL    HW226274   3.213   0.432   2.907 -1.7123 -0.0945  0.1878
 4881SOL     OW26275   0.140   0.036   2.926 -0.2727 -0.0835  0.2837
 4881SOL    HW126276   0.193   4.703   2.967 -0.4909  0.5891  1.7214
 4881SOL    HW226277   0.128   4.726   2.844  0.4485 -0.7856  0.5700
 4882SOL     OW26278   0.712   1.547   0.440 -0.3517  0.3476  0.6078
 4882SOL    HW126279   0.670   1.494   0.373  0.4976 -0.8457  1.0280
 4882SOL    HW226280   0.673   1.630   0.412  0.2953  1.0702  1.8488
 4883SOL     OW26281   1.271   4.614  17.059 -0.6450 -0.4014  0.1984
 4883SOL    HW126282   1.291   4.594  16.968  1.6314 -0.0658  0.6302
 4883SOL    HW226283   1.177   4.613  17.042 -0.3775 -1.6717 -1.1471
 4884SOL     OW26284   4.666   1.469   8.350 -0.0066  0.2480 -0.7082
 4884SOL    HW126285   4.737   1.410   8.322  0.8381  0.9705 -0.0939
 4884SOL    HW226286   4.621   1.404   8.404  1.6131  1.1839  1.7215
 4885SOL     OW26287   0.013   4.180   4.693  0.4102  0.2768 -0.3084
 4885SOL    HW126288   4.693   4.232   4.749  0.0368  0.0874 -0.5158
 4885SOL    HW226289   4.733   4.212   4.604 -0.1462  1.4901  0.2359
 4886SOL     OW26290   0.399   4.498   6.676  0.7374 -0.2941  0.0146
 4886SOL    HW126291   0.420   4.452   6.758  1.4591  2.4388  1.3755
 4886SOL    HW226292   0.482   4.476   6.632  0.7457 -1.0135  0.3728
 4887SOL     OW26293   0.545   0.288  14.797 -0.5847 -0.2377  0.1572
 4887SOL    HW126294   0.574   0.323  14.713 -0.7050 -0.1430  0.1547
 4887SOL    HW226295   0.617   0.230  14.822 -0.2250 -0.6184 -1.7900
 4888SOL     OW26296   0.998   4.150   4.043  0.0637  0.1194 -0.4170
 4888SOL    HW126297   0.962   4.069   4.006  2.6640 -1.5801  0.7943
 4888SOL    HW226298   1.057   4.169   3.970 -0.3313 -1.0657 -1.0353
 4889SOL     OW26299   3.697   2.697   7.319  0.4542 -0.3476 -0.0126
 4889SOL    HW126300   3.631   2.729   7.257  1.9168  2.9485  0.1601
 4889SOL    HW226301   3.772   2.747   7.286 -1.9316  2.1304 -1.7246
 4890SOL     OW26302   2.833   0.408  11.189 -0.5486  0.0592 -0.1968
 4890SOL    HW126303   2.914   0.366  11.220  0.0372  1.7187  0.5658
 4890SOL    HW226304   2.863   0.498  11.173 -1.6209  0.5377  0.5236
 4891SOL     OW26305   2.556   2.477  16.332 -0.1142 -0.8139  0.3717
 4891SOL    HW126306   2.560   2.386  16.305  1.9734 -0.0840 -1.7738
 4891SOL    HW226307   2.470   2.484  16.374 -0.4390 -1.6954 -0.1619
 4892SOL     OW26308   3.066   4.156   4.940 -0.0597  0.0720 -0.1347
 4892SOL    HW126309   3.009   4.081   4.924  2.0697 -1.5983  0.1019
 4892SOL    HW226310   3.125   4.119   5.006  1.3686  0.7596 -1.0253
 4893SOL     OW26311   1.270   1.522   4.156 -0.3397 -0.6153  0.1111
 4893SOL    HW126312   1.303   1.538   4.245  0.8175 -0.3864 -0.3628
 4893SOL    HW226313   1.356   1.523   4.114 -0.9001  0.6275 -1.0098
 4894SOL     OW26314   1.054   2.994   7.593  0.0229 -0.0303  0.0539
 4894SOL    HW126315   1.016   2.946   7.520 -0.7688 -0.3052  0.6400
 4894SOL    HW226316   0.983   2.998   7.657  0.1624 -1.9402  0.3350
 4895SOL     OW26317   2.578   2.306  17.649 -0.0725 -0.2023 -0.0857
 4895SOL    HW126318   2.647   2.246  17.677 -0.5236 -0.3817  0.6588
 4895SOL    HW226319   2.602   2.318  17.558  0.1965 -1.3194 -0.1575
 4896SOL     OW26320   3.116   4.037   1.633  0.2662 -0.3387 -0.1660
 4896SOL    HW126321   3.074   4.034   1.719 -0.3012  0.8883 -0.3912
 4896SOL    HW226322   3.208   4.035   1.659  0.1830  0.5669  0.2323
 4897SOL     OW26323   2.282   1.692   0.115 -0.3561  0.3777 -0.8998
 4897SOL    HW126324   2.352   1.749   0.085 -1.4036  2.9230  1.6029
 4897SOL    HW226325   2.289   1.694   0.210  0.1885  2.9807 -0.9979
 4898SOL     OW26326   3.246   2.414   8.231  0.0579 -0.5150  0.8417
 4898SOL    HW126327   3.326   2.417   8.179 -0.4038  0.0095  0.1668
 4898SOL    HW226328   3.223   2.329   8.192  0.9013 -0.4278  0.1538
 4899SOL     OW26329   4.429   2.059   8.464 -0.1375  0.1180 -0.3499
 4899SOL    HW126330   4.344   2.099   8.480  0.3304  0.6797  0.7434
 4899SOL    HW226331   4.471   2.116   8.529  0.8349 -0.1006 -0.7834
 4900SOL     OW26332   1.243   0.748  11.469 -0.2496 -0.5210 -0.1732
 4900SOL    HW126333   1.199   0.763  11.385 -3.0587 -1.6986  1.0849
 4900SOL    HW226334   1.184   0.685  11.511 -1.2424  1.1230  0.9433
 4901SOL     OW26335   2.070   4.348   1.406  0.3881  0.2352 -0.1702
 4901SOL    HW126336   2.061   4.331   1.500  3.9109  0.0820  0.1439
 4901SOL    HW226337   2.116   4.431   1.395  0.7421 -0.2552 -2.3950
 4902SOL     OW26338   3.661   2.742  13.178 -0.4565 -0.0430  0.0445
 4902SOL    HW126339   3.621   2.825  13.203  3.2659  1.4035  1.2196
 4902SOL    HW226340   3.700   2.718  13.262  1.3500 -0.3435 -0.8707
 4903SOL     OW26341   1.947   3.138  10.206 -0.3374 -0.5521  0.7110
 4903SOL    HW126342   1.922   3.223  10.244  1.3077 -0.3784  1.3966
 4903SOL    HW226343   1.996   3.097  10.277 -1.8256 -1.8991  0.9441
 4904SOL     OW26344   1.563   0.374   9.970 -0.0995 -0.1528  0.4347
 4904SOL    HW126345   1.562   0.464  10.002 -0.1453  0.0841 -0.2292
 4904SOL    HW226346   1.570   0.314  10.044  2.2478  0.4785  0.7150
 4905SOL     OW26347   2.192   1.071   2.152 -0.2377  0.6527 -0.8369
 4905SOL    HW126348   2.099   1.088   2.169  0.5706  2.1685  1.9553
 4905SOL    HW226349   2.181   1.011   2.078 -0.2895 -1.2935  0.7485
 4906SOL     OW26350   1.249   1.600   3.406  0.3491 -0.2678  0.1951
 4906SOL    HW126351   1.312   1.539   3.368 -0.0282 -0.9714  0.7055
 4906SOL    HW226352   1.232   1.559   3.491  1.0144 -0.9949 -0.0222
 4907SOL     OW26353   1.101   4.634   9.999 -0.4278  0.0072 -0.0235
 4907SOL    HW126354   1.185   4.678   9.991  0.9808 -1.9349  3.7393
 4907SOL    HW226355   1.034   4.701   9.981 -1.3991 -1.4362 -1.7512
 4908SOL     OW26356   3.041   2.628   5.170  0.3564  0.2911 -0.1847
 4908SOL    HW126357   3.049   2.723   5.168  1.1408  0.2723  2.1211
 4908SOL    HW226358   2.977   2.609   5.239  0.1135  2.0375  0.0715
 4909SOL     OW26359   1.171   3.741  17.588 -0.2804 -0.4124 -0.4383
 4909SOL    HW126360   1.119   3.777  17.660 -0.3612 -0.0825 -0.6554
 4909SOL    HW226361   1.204   3.822  17.548  1.4788 -1.1010 -0.3480
 4910SOL     OW26362   4.506   3.775   3.513 -0.6189  0.3881 -0.0195
 4910SOL    HW126363   4.435   3.713   3.528 -1.5549  1.3224 -0.5331
 4910SOL    HW226364   4.582   3.726   3.543 -0.7066  0.1726 -0.1475
 4911SOL     OW26365   2.144   0.111   7.167 -0.4453  0.6913 -0.4173
 4911SOL    HW126366   2.168   0.096   7.075 -1.3135  1.1418 -0.7154
 4911SOL    HW226367   2.183   0.197   7.182  1.3445 -0.3144  0.7250
 4912SOL     OW26368   4.268   2.917  10.738 -0.2641 -0.4418 -0.0864
 4912SOL    HW126369   4.243   2.833  10.775 -1.8895  0.2157  0.2863
 4912SOL    HW226370   4.349   2.883  10.700  1.0025  0.8923  1.3915
 4913SOL     OW26371   3.532   0.363   1.565  0.6750  0.3219 -0.3009
 4913SOL    HW126372   3.440   0.345   1.545  1.2069 -2.0137 -0.7032
 4913SOL    HW226373   3.567   0.278   1.592 -1.5713 -0.7163 -0.6468
 4914SOL     OW26374   3.441   3.714  13.713  0.5167 -0.3857  0.3941
 4914SOL    HW126375   3.432   3.733  13.619 -0.6920  3.2376  1.2658
 4914SOL    HW226376   3.530   3.740  13.738  0.1407  0.9232  0.3115
 4915SOL     OW26377   0.915   0.184  10.334  0.5037  0.3481 -0.0083
 4915SOL    HW126378   1.002   0.208  10.367  0.7460 -0.9105  0.2863
 4915SOL    HW226379   0.904   0.258  10.274 -0.6470  1.1414  1.1840
 4916SOL     OW26380   4.396   3.353   3.859 -0.3749  0.0682  0.5826
 4916SOL    HW126381   4.380   3.280   3.799 -0.7845 -0.1134  0.9100
 4916SOL    HW226382   4.444   3.326   3.937 -0.2012  0.1238  0.4935
 4917SOL     OW26383   2.904   0.875   3.485 -0.0402 -0.6962 -0.2019
 4917SOL    HW126384   2.980   0.860   3.541 -0.3416  3.4060  1.3185
 4917SOL    HW226385   2.903   0.787   3.447 -1.2984  0.4216 -2.8279
 4918SOL     OW26386   4.582   2.251   2.815 -0.6279  0.2902  0.1121
 4918SOL    HW126387   4.510   2.293   2.769 -0.1299 -1.8888 -2.6907
 4918SOL    HW226388   4.574   2.279   2.906 -1.1421  0.0433  0.1449
 4919SOL     OW26389   2.523   3.501   5.869 -0.6104  0.1170  0.4911
 4919SOL    HW126390   2.525   3.439   5.941 -0.0962 -0.3780  0.0468
 4919SOL    HW226391   2.524   3.433   5.803 -0.5234  0.3762  0.2234
 4920SOL     OW26392   0.069   2.166   4.768 -0.0589  0.0661  0.0145
 4920SOL    HW126393   4.732   2.151   4.827  0.0569  1.6027  0.5352
 4920SOL    HW226394   0.028   2.106   4.705  0.9834 -0.9934  0.3512
 4921SOL     OW26395   0.246   3.336   1.800  0.0825  0.0489  0.3169
 4921SOL    HW126396   0.265   3.373   1.714 -0.6491 -1.1983 -0.3822
 4921SOL    HW226397   0.307   3.389   1.852  1.3549 -2.5662  1.4701
 4922SOL     OW26398   2.177   3.805   6.924 -0.3102 -0.1913 -0.2579
 4922SOL    HW126399   2.266   3.769   6.924 -0.8835 -1.5877  4.2015
 4922SOL    HW226400   2.158   3.791   6.831  2.2312 -1.0353 -0.6515
 4923SOL     OW26401   0.721   3.416   4.165 -0.5082  0.2881 -0.1134
 4923SOL    HW126402   0.714   3.431   4.071 -0.4294  2.0978  0.1667
 4923SOL    HW226403   0.804   3.462   4.180  0.5909 -2.1660  1.3122
 4924SOL     OW26404   1.118   4.213   6.659  0.4033 -0.0995  0.4952
 4924SOL    HW126405   1.153   4.249   6.578  0.6414 -0.4053  0.4600
 4924SOL    HW226406   1.151   4.268   6.730 -0.9274  2.9981 -1.3113
 4925SOL     OW26407   1.728   2.250   3.210  0.0356 -0.0832 -0.5686
 4925SOL    HW126408   1.688   2.325   3.255 -1.2550 -0.8904 -0.3770
 4925SOL    HW226409   1.819   2.280   3.204 -0.0696  0.2194 -0.6596
 4926SOL     OW26410   2.158   3.082  12.056  0.0727 -0.4097  0.5492
 4926SOL    HW126411   2.218   3.029  12.108 -0.3672 -0.9967  0.4651
 4926SOL    HW226412   2.092   3.016  12.033 -0.2863  0.6339 -1.5015
 4927SOL     OW26413   3.322   4.224   5.938 -0.0963  0.4990 -0.0157
 4927SOL    HW126414   3.321   4.153   6.003 -0.5742 -0.1643 -0.7433
 4927SOL    HW226415   3.284   4.180   5.861  1.3607  1.1542 -1.1004
 4928SOL     OW26416   3.007   0.235   5.772  0.7063 -0.0623  0.2524
 4928SOL    HW126417   3.001   0.147   5.735  0.9251  0.7356 -1.7279
 4928SOL    HW226418   3.078   0.228   5.836  0.3072 -0.1073  0.6825
 4929SOL     OW26419   2.029   3.600   3.729  0.3600  0.2482  0.1272
 4929SOL    HW126420   2.073   3.664   3.784  1.3974 -1.8084  1.7014
 4929SOL    HW226421   2.015   3.653   3.650  0.7498  1.4467  0.8628
 4930SOL     OW26422   3.423   2.377   4.592  0.5666 -0.8459  0.2879
 4930SOL    HW126423   3.334   2.391   4.560 -0.3319  0.3442  3.2972
 4930SOL    HW226424   3.413   2.388   4.687  2.0660  1.7893  0.1105
 4931SOL     OW26425   1.884   1.724   6.186  0.5444  0.0399  0.1040
 4931SOL    HW126426   1.903   1.669   6.109 -0.1365 -0.6030  0.3936
 4931SOL    HW226427   1.818   1.779   6.143 -0.7329 -0.7862  0.9990
 4932SOL     OW26428   0.503   0.594   6.479  0.3861 -0.2530  0.3133
 4932SOL    HW126429   0.438   0.525   6.489 -0.2262  0.4650  1.3867
 4932SOL    HW226430   0.496   0.627   6.569 -0.1123 -0.7788  0.4702
 4933SOL     OW26431   0.097   0.528  12.398  0.4578  0.1142 -0.2004
 4933SOL    HW126432   0.074   0.613  12.437 -0.0743  0.4112 -1.1481
 4933SOL    HW226433   0.106   0.553  12.306  0.3178  2.1225  0.3216
 4934SOL     OW26434   1.264   1.653   9.701 -0.1205 -0.0670 -0.8349
 4934SOL    HW126435   1.294   1.744   9.703  0.1955 -0.1951  0.7692
 4934SOL    HW226436   1.327   1.621   9.636 -0.7347 -1.4200 -0.7634
 4935SOL     OW26437   3.650   0.179   8.006 -0.2611  0.4168  0.1953
 4935SOL    HW126438   3.689   0.092   7.997 -2.6239 -0.5500 -0.6906
 4935SOL    HW226439   3.557   0.162   7.987  0.0432 -0.2752 -0.6805
 4936SOL     OW26440   2.791   2.305   6.908 -0.4901  0.5478  0.2758
 4936SOL    HW126441   2.762   2.302   7.000 -1.8401  1.3427 -0.1231
 4936SOL    HW226442   2.882   2.275   6.912 -1.1423 -1.4244  0.3447
 4937SOL     OW26443   0.030   0.445  14.916 -0.0325 -0.8747 -0.1017
 4937SOL    HW126444   0.080   0.520  14.883 -1.0376 -1.6459 -3.4453
 4937SOL    HW226445   0.013   0.409  14.828 -0.8555 -2.2249  0.6069
 4938SOL     OW26446   3.664   4.096   2.332  0.2038  0.4701 -0.3009
 4938SOL    HW126447   3.661   4.001   2.335  0.2847  0.5426  1.9472
 4938SOL    HW226448   3.574   4.126   2.340 -0.4248 -1.7066  0.6588
 4939SOL     OW26449   0.894   4.373   0.387  0.0770 -0.2911 -0.7772
 4939SOL    HW126450   0.811   4.327   0.399 -0.4165  1.2574  1.6696
 4939SOL    HW226451   0.933   4.320   0.318 -1.5018 -2.3192 -0.1088
 4940SOL     OW26452   3.310   3.810   0.386 -0.0679 -0.0317 -0.8047
 4940SOL    HW126453   3.354   3.882   0.342  1.3129  0.1430  0.8970
 4940SOL    HW226454   3.257   3.860   0.448 -0.6539  0.3066 -1.5822
 4941SOL     OW26455   3.865   2.976   4.644 -0.1151  0.4496  0.3564
 4941SOL    HW126456   3.838   2.884   4.636  1.6604 -0.1495  1.1121
 4941SOL    HW226457   3.834   2.998   4.731  2.5756 -0.1696  1.5030
 4942SOL     OW26458   0.591   2.603  12.529  0.4482  0.2376  0.0533
 4942SOL    HW126459   0.626   2.585  12.441  0.9599 -0.2738  0.3639
 4942SOL    HW226460   0.671   2.632  12.572  0.5515  2.5782 -1.6775
 4943SOL     OW26461   0.946   2.653  13.746  0.5941 -0.8811  0.1278
 4943SOL    HW126462   0.995   2.582  13.787  0.2552 -0.6107  0.9990
 4943SOL    HW226463   0.953   2.710  13.823  1.4239 -0.6718 -0.0979
 4944SOL     OW26464   3.199   2.934   0.918 -0.1937  0.5043 -0.2170
 4944SOL    HW126465   3.200   2.860   0.857 -2.0340  2.3224 -2.4807
 4944SOL    HW226466   3.233   3.001   0.859  0.8045 -0.7494 -1.0602
 4945SOL     OW26467   0.447   4.194   5.988  0.4598  0.0559  0.7124
 4945SOL    HW126468   0.389   4.166   5.917  1.7857  1.3740 -0.8891
 4945SOL    HW226469   0.484   4.272   5.947 -1.1705  1.1206  1.2805
 4946SOL     OW26470   4.331   4.275  14.684 -0.2907  0.1610  0.0627
 4946SOL    HW126471   4.243   4.274  14.647  0.4866 -2.8936 -1.6679
 4946SOL    HW226472   4.303   4.323  14.762  0.9795  1.0988 -0.0626
 4947SOL     OW26473   4.272   4.125  12.314  0.1990  0.0201 -0.1305
 4947SOL    HW126474   4.229   4.050  12.355 -0.1648  0.9724  1.2158
 4947SOL    HW226475   4.258   4.107  12.221 -2.2544  0.1019  0.2110
 4948SOL     OW26476   2.549   1.242  17.185  0.9834  0.0240 -0.1641
 4948SOL    HW126477   2.455   1.263  17.179  0.5958 -1.8304 -0.6674
 4948SOL    HW226478   2.548   1.217  17.277 -3.3369 -0.3478 -0.2829
 4949SOL     OW26479   4.065   0.923   7.852  0.7241  0.3198 -0.2972
 4949SOL    HW126480   4.106   1.001   7.813  1.8623  1.0791  2.4107
 4949SOL    HW226481   4.102   0.851   7.801  2.9379 -0.1193  1.9692
 4950SOL     OW26482   1.461   1.666   6.830 -0.5827  0.9610 -0.5877
 4950SOL    HW126483   1.431   1.584   6.791 -1.7143  0.5534  1.1792
 4950SOL    HW226484   1.398   1.668   6.902 -0.4426 -0.8903 -0.4250
 4951SOL     OW26485   2.607   0.803   3.739  0.5410 -0.1360  0.0423
 4951SOL    HW126486   2.545   0.754   3.686 -1.9499  3.5320 -0.4016
 4951SOL    HW226487   2.644   0.729   3.788 -1.2704 -0.2758  1.2072
 4952SOL     OW26488   4.595   3.223   7.374  0.1515  0.5166 -0.6194
 4952SOL    HW126489   4.542   3.178   7.441 -1.4512  3.0633 -0.1627
 4952SOL    HW226490   4.628   3.292   7.432 -1.3916 -0.3587  1.3102
 4953SOL     OW26491   1.636   3.499   1.197  0.6947  0.6181 -0.2260
 4953SOL    HW126492   1.643   3.585   1.238 -1.6689 -0.4000  2.2721
 4953SOL    HW226493   1.727   3.468   1.203  0.7409  1.0048  1.0496
 4954SOL     OW26494   2.687   3.935  10.962  0.3434 -0.4866  0.0650
 4954SOL    HW126495   2.762   3.959  11.016  0.9574 -1.9779 -0.1365
 4954SOL    HW226496   2.639   3.865  11.004 -2.7025  1.0603 -0.8557
 4955SOL     OW26497   1.004   4.662   4.096  0.0703  0.5900  0.3164
 4955SOL    HW126498   1.029   4.703   4.013  1.1547  1.3304  1.0131
 4955SOL    HW226499   0.951   4.588   4.067  0.3172 -0.1469  1.7518
 4956SOL     OW26500   3.081   3.537   5.480 -0.0193  0.7408 -0.2314
 4956SOL    HW126501   3.030   3.516   5.558  1.2426 -0.3491  0.3029
 4956SOL    HW226502   3.045   3.480   5.412 -2.9985  1.9998  0.3298
 4957SOL     OW26503   1.512   1.473   0.639  0.2263  0.0600  1.0730
 4957SOL    HW126504   1.464   1.520   0.708  0.2881 -0.8049  1.7013
 4957SOL    HW226505   1.491   1.521   0.558 -1.0282  0.8664  1.8662
 4958SOL     OW26506   4.056   3.306  15.564 -0.1634 -0.0228 -0.2642
 4958SOL    HW126507   4.115   3.281  15.636 -2.3098 -1.9967  0.8094
 4958SOL    HW226508   4.018   3.385  15.601  1.7681  0.3501  0.8884
 4959SOL     OW26509   0.856   3.022   7.776  0.0949  1.0901 -0.2386
 4959SOL    HW126510   0.770   3.002   7.737  0.4074 -0.4479 -0.1218
 4959SOL    HW226511   0.831   3.078   7.850  0.4995 -0.2386  0.8902
 4960SOL     OW26512   1.338   4.042   8.616 -0.6242 -0.0522 -0.5461
 4960SOL    HW126513   1.393   4.054   8.539 -0.6173 -2.9220 -1.0049
 4960SOL    HW226514   1.276   4.114   8.608  0.5919  0.9158 -1.2058
 4961SOL     OW26515   2.435   3.600   2.195  0.4557 -0.1277 -0.3543
 4961SOL    HW126516   2.343   3.617   2.179  0.5266 -0.0474 -0.6784
 4961SOL    HW226517   2.469   3.648   2.119 -0.5354 -1.1656 -1.4431
 4962SOL     OW26518   3.882   3.328   7.058 -0.0127  0.0747  0.7063
 4962SOL    HW126519   3.821   3.338   6.985  0.1895 -1.5952  0.3140
 4962SOL    HW226520   3.842   3.380   7.127 -1.2414 -0.2719  0.2601
 4963SOL     OW26521   1.652   2.214   6.198  0.3820 -0.9392  0.4738
 4963SOL    HW126522   1.714   2.278   6.232 -0.3587  0.0310 -0.0113
 4963SOL    HW226523   1.594   2.258   6.137 -0.9628 -1.3996  1.4258
 4964SOL     OW26524   3.743   4.344  15.621  0.6136 -0.0417 -0.0881
 4964SOL    HW126525   3.776   4.360  15.532  0.1542  2.4269  0.1789
 4964SOL    HW226526   3.793   4.265  15.638  0.1760 -0.5257 -1.0709
 4965SOL     OW26527   2.679   3.320   4.386  0.2651  0.5762 -0.1606
 4965SOL    HW126528   2.689   3.413   4.409 -2.0565  1.0858 -1.2241
 4965SOL    HW226529   2.585   3.318   4.369 -0.0080 -1.1302  1.6110
 4966SOL     OW26530   3.944   1.334   4.681  0.4836  0.1941 -0.1615
 4966SOL    HW126531   3.990   1.415   4.662  0.2368  0.0593 -1.3226
 4966SOL    HW226532   3.993   1.310   4.759 -2.3459  0.9664  1.8426
 4967SOL     OW26533   0.371   2.051   8.461 -0.0192  0.0965 -0.2904
 4967SOL    HW126534   0.297   2.109   8.480  0.0148 -0.8004  2.6049
 4967SOL    HW226535   0.345   1.977   8.516 -0.0733  1.1375  1.0994
 4968SOL     OW26536   1.290   0.962  10.339  0.2299  0.4011 -0.4157
 4968SOL    HW126537   1.287   1.000  10.251  0.1844  2.1630  0.3547
 4968SOL    HW226538   1.369   0.991  10.385 -0.8649  0.5961  1.3402
 4969SOL     OW26539   3.474   3.037   4.604 -0.6482  0.3095 -0.3682
 4969SOL    HW126540   3.473   2.985   4.523 -0.7731 -0.4281  0.1013
 4969SOL    HW226541   3.564   3.068   4.611 -1.3234  2.2744 -0.6125
 4970SOL     OW26542   3.175   1.321   3.115 -0.0470  0.2035 -0.2116
 4970SOL    HW126543   3.154   1.409   3.147  1.1985  0.8413 -1.1371
 4970SOL    HW226544   3.090   1.279   3.131 -1.3034  2.2838 -1.5608
 4971SOL     OW26545   4.725   3.574   5.275  0.2847 -0.5120 -0.0374
 4971SOL    HW126546   4.735   3.490   5.230  2.1511 -0.3498  0.0715
 4971SOL    HW226547   0.080   3.597   5.270  0.3638 -0.4772  1.4858
 4972SOL     OW26548   4.089   2.267   5.341  0.5110 -0.3374 -0.0602
 4972SOL    HW126549   4.120   2.228   5.423  3.4335  0.2562 -0.8974
 4972SOL    HW226550   3.994   2.265   5.351  0.4580 -1.4306 -0.6956
 4973SOL     OW26551   2.086   1.361   5.212 -0.1481 -0.3665  0.1417
 4973SOL    HW126552   2.117   1.363   5.121  2.0030  2.5199  0.9554
 4973SOL    HW226553   2.163   1.377   5.266  0.0493 -1.1416  0.0932
 4974SOL     OW26554   0.267   2.994   8.212 -0.3586 -0.5399 -0.0953
 4974SOL    HW126555   0.346   3.002   8.266 -0.6417 -0.4146  0.3069
 4974SOL    HW226556   0.195   3.023   8.268  1.4341 -0.4214  2.1473
 4975SOL     OW26557   0.305   4.242  13.717  0.1690 -0.1535  0.2972
 4975SOL    HW126558   0.235   4.212  13.775  1.4177 -3.0260  0.3419
 4975SOL    HW226559   0.266   4.211  13.635 -3.4639  1.9292  1.2649
 4976SOL     OW26560   2.769   2.637  14.682  0.1812 -0.5891 -0.1246
 4976SOL    HW126561   2.754   2.551  14.644  0.1355 -1.5213  2.0204
 4976SOL    HW226562   2.709   2.690  14.628 -1.5617 -0.9853  1.4469
 4977SOL     OW26563   1.255   1.985   5.527  0.2481 -0.0916  0.1021
 4977SOL    HW126564   1.236   1.894   5.504  1.2465 -0.4368  0.6317
 4977SOL    HW226565   1.167   2.005   5.558  0.5066  0.9644  0.1538
 4978SOL     OW26566   0.906   1.115  17.041  0.4677 -0.0250  0.1756
 4978SOL    HW126567   0.920   1.058  17.117 -1.2306 -0.6445  0.0143
 4978SOL    HW226568   0.812   1.132  17.039  0.8754  2.5156  2.4185
 4979SOL     OW26569   2.324   1.065   7.365 -0.9310  0.7177 -0.1609
 4979SOL    HW126570   2.360   1.154   7.367 -0.8400  0.6742  0.2425
 4979SOL    HW226571   2.282   1.067   7.451 -1.1237  2.4159 -0.3065
 4980SOL     OW26572   2.026   0.161   5.299 -0.2845  0.2842 -0.3383
 4980SOL    HW126573   1.965   0.169   5.225  0.2263  1.1223 -0.6624
 4980SOL    HW226574   2.115   0.175   5.268  0.1793 -2.1433 -0.0936
 4981SOL     OW26575   1.320   1.091   2.351  0.2112  0.1303 -0.4946
 4981SOL    HW126576   1.256   1.034   2.308 -0.5089 -1.5243  2.7862
 4981SOL    HW226577   1.293   1.172   2.306 -0.4371 -0.6963 -1.5854
 4982SOL     OW26578   4.103   4.097  17.437  0.0672  0.2273 -0.7179
 4982SOL    HW126579   4.036   4.157  17.404 -0.3288 -0.5249 -1.3097
 4982SOL    HW226580   4.171   4.146  17.483 -0.8883 -0.1907  1.1380
 4983SOL     OW26581   0.380   4.563  15.266 -0.4969  0.3234  0.4363
 4983SOL    HW126582   0.331   4.645  15.258 -2.4455 -0.7125  1.8055
 4983SOL    HW226583   0.464   4.600  15.293  1.1612 -0.3973 -3.7062
 4984SOL     OW26584   1.182   4.053   6.314 -0.7511  0.0678  0.2416
 4984SOL    HW126585   1.270   4.023   6.293 -0.6737  0.5409 -0.1104
 4984SOL    HW226586   1.125   4.012   6.249 -1.3410  0.5964  0.4244
 4985SOL     OW26587   4.720   3.888   2.371 -0.5258  0.3498  0.0260
 4985SOL    HW126588   4.699   3.897   2.278  0.1886  1.5377 -0.0216
 4985SOL    HW226589   0.010   3.797   2.383  1.5332  0.9121 -0.2894
 4986SOL     OW26590   0.791   1.495   7.211 -0.2769 -0.2236  0.3091
 4986SOL    HW126591   0.853   1.558   7.173 -0.2565 -0.7368 -0.5242
 4986SOL    HW226592   0.828   1.417   7.169  0.6721 -0.3537  1.3875
 4987SOL     OW26593   4.677   1.548  11.482  0.0892  0.4404 -0.3210
 4987SOL    HW126594   4.722   1.509  11.557  2.5517  0.3468 -1.8152
 4987SOL    HW226595   4.584   1.541  11.502  0.0590  0.3943 -0.4710
 4988SOL     OW26596   1.597   4.475  10.266  0.1794 -0.1237 -0.2411
 4988SOL    HW126597   1.595   4.476  10.362  0.5546  0.7547 -0.2346
 4988SOL    HW226598   1.671   4.535  10.257  0.8347 -0.9436 -0.3201
 4989SOL     OW26599   3.269   3.088   4.758  0.3321 -0.2815  0.7093
 4989SOL    HW126600   3.346   3.083   4.702  0.2375  0.8898  0.4694
 4989SOL    HW226601   3.196   3.079   4.696 -0.0698  0.0156  1.1344
 4990SOL     OW26602   3.570   0.937   6.389  0.1516 -0.2064  0.2076
 4990SOL    HW126603   3.583   0.992   6.312  1.6371 -2.2802 -1.0306
 4990SOL    HW226604   3.582   1.000   6.460  1.5277  1.9045 -1.9202
 4991SOL     OW26605   2.011   2.133   0.759 -0.3168 -0.1482  0.1900
 4991SOL    HW126606   1.999   2.057   0.703  0.1752 -0.7724  0.9468
 4991SOL    HW226607   1.994   2.202   0.694 -1.2405 -2.2233 -1.7665
 4992SOL     OW26608   4.445   3.861  12.308 -0.3536  0.7715  0.1400
 4992SOL    HW126609   4.497   3.920  12.362 -1.1366  1.5492  0.0323
 4992SOL    HW226610   4.379   3.854  12.377 -0.5703 -3.6657 -0.5323
 4993SOL     OW26611   0.908   1.286   8.625  0.1812 -0.4197  0.1886
 4993SOL    HW126612   0.961   1.364   8.607 -0.7642  0.4384  1.1396
 4993SOL    HW226613   0.918   1.239   8.542 -1.2822 -0.6746  0.1666
 4994SOL     OW26614   4.481   4.060   4.447  0.6160  0.6407 -0.0043
 4994SOL    HW126615   4.563   4.016   4.471 -0.7213 -0.6041  2.3249
 4994SOL    HW226616   4.476   4.039   4.354  2.4050 -0.0421  0.0515
 4995SOL     OW26617   2.347   2.767   1.269  0.4066 -0.7209 -0.0014
 4995SOL    HW126618   2.266   2.716   1.263 -1.2493  2.1060 -1.8336
 4995SOL    HW226619   2.337   2.810   1.354 -0.1038 -2.1908  0.6800
 4996SOL     OW26620   0.899   0.874   6.750 -0.2650 -0.5594 -0.0071
 4996SOL    HW126621   0.857   0.791   6.773  0.7885 -2.2513 -4.1661
 4996SOL    HW226622   0.863   0.894   6.663  1.4496 -0.0473 -0.6179
 4997SOL     OW26623   1.838   4.525  17.331  0.4735  0.2539  0.7186
 4997SOL    HW126624   1.902   4.571  17.276 -0.3858  1.7855  0.9983
 4997SOL    HW226625   1.753   4.542  17.289  0.7388 -0.2624 -0.0263
 4998SOL     OW26626   3.289   1.949   8.632  0.0371  0.4934 -0.5153
 4998SOL    HW126627   3.354   1.898   8.682  0.2891  0.2403 -1.0991
 4998SOL    HW226628   3.223   1.971   8.697  0.1223 -2.3881  0.5611
 4999SOL     OW26629   1.793   0.170   5.118 -0.0400 -0.0178  0.0580
 4999SOL    HW126630   1.814   0.135   5.032 -2.3246  1.9648 -1.3214
 4999SOL    HW226631   1.703   0.197   5.099  0.5642  1.9730 -0.0507
 5000SOL     OW26632   2.656   2.006   2.222  0.2972  0.3239 -0.5299
 5000SOL    HW126633   2.725   2.036   2.162  0.7724 -2.3360 -1.3239
 5000SOL    HW226634   2.670   1.911   2.224  0.1488  0.3017 -0.5611
 5001SOL     OW26635   2.120   1.206   7.153  0.2479  0.5781 -0.0069
 5001SOL    HW126636   2.075   1.136   7.107 -2.0023 -0.3060  3.5237
 5001SOL    HW226637   2.087   1.207   7.243  0.1959 -3.1865  0.0057
 5002SOL     OW26638   3.343   1.570   6.670 -0.1618  0.0185  0.0643
 5002SOL    HW126639   3.276   1.616   6.719  0.1341  1.0095 -0.4634
 5002SOL    HW226640   3.407   1.574   6.742 -0.1182  1.2844 -0.0453
 5003SOL     OW26641   2.869   3.930   9.780 -0.2740  0.1390  0.5115
 5003SOL    HW126642   2.786   3.959   9.741  0.1340 -2.0271 -1.9623
 5003SOL    HW226643   2.928   3.993   9.739 -1.1347  0.5547 -0.1049
 5004SOL     OW26644   2.838   4.078   4.199  0.3177  0.1775 -0.0483
 5004SOL    HW126645   2.803   4.060   4.112  0.4295 -1.7321  0.3006
 5004SOL    HW226646   2.765   4.124   4.240 -0.0079  0.4391 -0.9086
 5005SOL     OW26647   2.091   0.056   1.048  0.1483 -0.4787  0.9895
 5005SOL    HW126648   2.156   0.011   1.101  0.4478  0.0109  1.0304
 5005SOL    HW226649   2.144   0.127   1.011 -1.6694  0.1450 -0.4666
 5006SOL     OW26650   2.059   0.322   3.245  0.5403  0.4746 -0.7403
 5006SOL    HW126651   2.103   0.371   3.176 -0.0520  2.7728  0.5055
 5006SOL    HW226652   1.985   0.292   3.192  0.0775 -0.9248  0.7024
 5007SOL     OW26653   0.873   0.431   4.363  0.3060 -0.6599  0.2688
 5007SOL    HW126654   0.957   0.455   4.325  0.7384 -2.2223  0.2553
 5007SOL    HW226655   0.875   0.486   4.442  1.6050  2.1185 -1.7283
 5008SOL     OW26656   4.602   0.020   3.666 -0.0575  0.0340  0.3014
 5008SOL    HW126657   4.536   0.018   3.597 -0.2372  1.6885  0.4248
 5008SOL    HW226658   4.670   4.695   3.639  1.8807  2.0625  0.6038
 5009SOL     OW26659   0.930   4.484   8.560  0.4404 -0.1346  0.0932
 5009SOL    HW126660   0.895   4.525   8.639 -0.0406 -0.6269  0.1408
 5009SOL    HW226661   0.921   4.392   8.583 -2.2822 -0.0645 -0.6827
 5010SOL     OW26662   3.717   4.357   4.770 -0.4004  0.1912  0.4123
 5010SOL    HW126663   3.683   4.435   4.814  1.1378  1.0195  0.1457
 5010SOL    HW226664   3.646   4.304   4.733  1.0387 -1.3270 -0.2041
 5011SOL     OW26665   2.154   4.346   8.825  0.3560  0.3140  0.7269
 5011SOL    HW126666   2.138   4.259   8.860 -1.9504 -0.0773 -1.2939
 5011SOL    HW226667   2.246   4.334   8.802  0.0725 -2.1796  0.9772
 5012SOL     OW26668   1.704   4.214   5.125 -0.4214 -0.5982  0.0275
 5012SOL    HW126669   1.674   4.237   5.213 -0.7903 -3.0586  0.5336
 5012SOL    HW226670   1.798   4.232   5.124 -0.1384 -2.2467 -1.7659
 5013SOL     OW26671   2.580   4.084   0.724  0.2570 -0.2603  0.5263
 5013SOL    HW126672   2.594   3.996   0.689  0.1873 -0.9971  2.3703
 5013SOL    HW226673   2.574   4.066   0.817  0.0586 -0.9387  0.3822
 5014SOL     OW26674   4.000   1.548   8.367  0.3785  0.1062 -0.4413
 5014SOL    HW126675   4.060   1.583   8.301  0.5773 -0.3901 -0.5201
 5014SOL    HW226676   4.041   1.468   8.401  0.1227  0.3859  0.5417
 5015SOL     OW26677   2.335   0.393   2.342  0.1480  0.1015 -0.1854
 5015SOL    HW126678   2.299   0.426   2.424 -2.8846 -0.6637 -1.2050
 5015SOL    HW226679   2.278   0.433   2.276 -0.1326  0.6635  0.4034
 5016SOL     OW26680   1.127   2.430  13.911  0.1236  0.3385 -0.6260
 5016SOL    HW126681   1.097   2.339  13.899 -1.5281  0.8890 -0.6734
 5016SOL    HW226682   1.167   2.420  13.998 -2.2049  0.4025  0.4431
 5017SOL     OW26683   3.386   0.502  17.213 -0.2056 -0.5625 -0.2681
 5017SOL    HW126684   3.471   0.487  17.172  0.3032  1.8720 -0.1076
 5017SOL    HW226685   3.323   0.456  17.157  1.2700 -1.5559 -1.0905
 5018SOL     OW26686   1.846   0.021   7.869  0.5106  0.1380  0.3630
 5018SOL    HW126687   1.859   0.115   7.857 -1.0109  0.2908 -0.1272
 5018SOL    HW226688   1.928   4.711   7.880 -0.6891 -2.1905 -0.4215
 5019SOL     OW26689   1.341   3.203   8.272 -0.4703 -0.0250 -0.4063
 5019SOL    HW126690   1.260   3.254   8.286  0.9305  2.1831 -0.3672
 5019SOL    HW226691   1.305   3.116   8.253  0.1494  0.2149 -2.6747
 5020SOL     OW26692   1.779   1.076   8.297 -0.3616 -0.5048 -0.3441
 5020SOL    HW126693   1.699   1.060   8.246 -1.1670 -0.4652  0.8987
 5020SOL    HW226694   1.842   1.019   8.253  1.3974  0.3368  1.1336
 5021SOL     OW26695   3.498   0.022   1.159  0.2334 -0.1133 -0.2978
 5021SOL    HW126696   3.517   0.062   1.074 -1.1804  1.2216  0.0083
 5021SOL    HW226697   3.493   4.665   1.142 -0.4923 -0.1543  0.1227
 5022SOL     OW26698   1.543   3.019  11.350  0.0803  0.1608  0.0903
 5022SOL    HW126699   1.580   3.056  11.270 -0.7871  1.5158  0.3177
 5022SOL    HW226700   1.579   2.931  11.340  1.8282  0.6751  1.9821
 5023SOL     OW26701   2.227   4.514   3.028  1.1142 -0.0628 -0.6229
 5023SOL    HW126702   2.176   4.592   3.046  2.5628  1.0146 -1.1874
 5023SOL    HW226703   2.315   4.517   3.066  0.5127  2.7041  0.5393
 5024SOL     OW26704   0.027   0.208   4.343  0.3290  0.5134 -0.5597
 5024SOL    HW126705   0.118   0.237   4.345  0.6614 -0.6058  0.3641
 5024SOL    HW226706   4.722   0.292   4.359  0.3313  0.1318  1.3683
 5025SOL     OW26707   0.667   0.079   2.989  0.3092 -0.0947 -0.3305
 5025SOL    HW126708   0.625   0.021   2.926  2.1245  0.3755 -2.0016
 5025SOL    HW226709   0.593   0.128   3.023  0.2065 -0.7082  0.3087
 5026SOL     OW26710   3.660   2.700   3.989  0.1861  0.5255  0.2099
 5026SOL    HW126711   3.578   2.689   4.036 -1.0460 -0.6598 -2.2469
 5026SOL    HW226712   3.645   2.728   3.899  5.0015  0.2784 -0.7111
 5027SOL     OW26713   3.429   3.916   7.900  0.0427  0.1101  0.1001
 5027SOL    HW126714   3.346   3.878   7.929  2.1392 -1.4438  4.1014
 5027SOL    HW226715   3.493   3.845   7.903 -1.0387 -0.8438  0.9473
 5028SOL     OW26716   0.862   0.631  10.439  0.1636 -0.3783  0.0352
 5028SOL    HW126717   0.915   0.563  10.479 -3.3831 -1.9349  2.0878
 5028SOL    HW226718   0.928   0.698  10.422 -2.0160  1.3058 -1.9148
 5029SOL     OW26719   0.311   2.786  10.933 -0.0221 -0.0560 -0.2286
 5029SOL    HW126720   0.286   2.760  10.844 -0.5485 -0.8778  0.1565
 5029SOL    HW226721   0.228   2.820  10.968 -0.0032 -2.0193  1.7428
 5030SOL     OW26722   0.123   4.674  14.063  0.1522 -0.1781 -0.1230
 5030SOL    HW126723   0.156   4.667  14.153 -0.8538 -1.9800  0.0948
 5030SOL    HW226724   0.063   4.600  14.069  2.8387 -2.1831  2.2874
 5031SOL     OW26725   2.817   0.805   2.831  0.7009 -0.0352  0.1954
 5031SOL    HW126726   2.834   0.760   2.914 -0.4831 -0.2549  0.3136
 5031SOL    HW226727   2.850   0.894   2.845  0.2321  0.2128 -0.2884
 5032SOL     OW26728   3.167   2.704   2.427  0.0303  0.2331  0.1385
 5032SOL    HW126729   3.246   2.710   2.372 -0.1258  1.7571  0.0720
 5032SOL    HW226730   3.115   2.643   2.376 -0.1080  0.3406  0.1510
 5033SOL     OW26731   2.196   4.345   8.375  0.5635 -0.0009  0.2285
 5033SOL    HW126732   2.178   4.333   8.282 -2.8304 -1.8222  1.1398
 5033SOL    HW226733   2.107   4.328   8.406 -0.4761  1.2112 -2.0703
 5034SOL     OW26734   1.245   2.899   9.148 -0.3019  0.1394  0.0092
 5034SOL    HW126735   1.327   2.849   9.137 -1.0786 -0.8999 -1.0567
 5034SOL    HW226736   1.201   2.845   9.215  0.9672 -1.1688 -0.2016
 5035SOL     OW26737   2.928   4.339   4.674  0.2324  0.6302 -0.9780
 5035SOL    HW126738   2.980   4.321   4.596  0.1933 -0.0399 -0.8485
 5035SOL    HW226739   2.991   4.396   4.719  1.8257 -0.4132 -1.8904
 5036SOL     OW26740   1.943   0.888  14.251  0.3704 -0.3227 -0.2817
 5036SOL    HW126741   1.855   0.857  14.230  0.9159 -2.1653  0.0749
 5036SOL    HW226742   1.953   0.958  14.187  1.0953  0.4393  0.6662
 5037SOL     OW26743   1.075   2.542  14.833 -0.5854 -0.5666 -0.3749
 5037SOL    HW126744   1.110   2.549  14.744  0.4385  1.2261  0.1684
 5037SOL    HW226745   1.091   2.632  14.861  4.0285 -1.7734  0.8061
 5038SOL     OW26746   4.329   1.563   3.681 -0.2009  0.1016 -0.0029
 5038SOL    HW126747   4.254   1.563   3.621 -0.0330  0.6043 -0.2073
 5038SOL    HW226748   4.397   1.537   3.619 -0.3942 -1.0907  0.2801
 5039SOL     OW26749   2.992   4.685   2.164  0.4754  0.0530  0.0621
 5039SOL    HW126750   2.950   4.734   2.094 -1.3025 -1.8627 -0.1994
 5039SOL    HW226751   2.992   0.017   2.231 -0.5974 -0.4074  0.5425
 5040SOL     OW26752   4.667   3.826   0.003 -0.2411 -0.1466  0.4606
 5040SOL    HW126753   4.696   3.900   0.056  1.0214  0.7547 -1.4587
 5040SOL    HW226754   4.660   3.761   0.072  4.6223  0.2614  1.3381
 5041SOL     OW26755   2.059   3.987   8.889 -0.0763 -0.1543 -0.2521
 5041SOL    HW126756   2.142   4.010   8.847 -0.5317  0.2543 -0.9308
 5041SOL    HW226757   1.995   4.025   8.828  1.6893  0.4109 -1.7414
 5042SOL     OW26758   1.109   2.103   4.898  0.4454  0.0944 -0.2507
 5042SOL    HW126759   1.128   2.197   4.898 -0.2067  0.2228 -0.3102
 5042SOL    HW226760   1.042   2.097   4.830 -1.2413 -2.6240  1.6667
 5043SOL     OW26761   0.253   2.597   6.708  0.4648  0.1211 -0.8007
 5043SOL    HW126762   0.230   2.620   6.798 -0.3612 -0.8043 -0.7644
 5043SOL    HW226763   0.346   2.582   6.725 -0.2936 -1.7387  1.6917
 5044SOL     OW26764   0.461   3.545   1.363  0.3753 -0.0864 -0.7791
 5044SOL    HW126765   0.443   3.626   1.314  1.0908  2.4598  3.2319
 5044SOL    HW226766   0.556   3.540   1.358  0.3363 -1.1305 -0.2994
 5045SOL     OW26767   2.902   3.097  17.366  0.0705  0.7727 -0.1128
 5045SOL    HW126768   2.810   3.070  17.360  0.8780 -1.7918 -0.9679
 5045SOL    HW226769   2.899   3.159  17.439  0.5248 -0.9180  1.3251
 5046SOL     OW26770   1.974   1.842   1.176 -0.5385 -0.1672 -0.1641
 5046SOL    HW126771   1.944   1.906   1.112 -3.4770 -1.7591 -0.3802
 5046SOL    HW226772   1.947   1.893   1.252  3.0136 -1.5758  2.0551
 5047SOL     OW26773   1.114   3.138   5.126 -0.1492  0.2697  0.5626
 5047SOL    HW126774   1.050   3.073   5.152 -0.4047 -0.2035 -1.2666
 5047SOL    HW226775   1.096   3.148   5.033 -0.8304  1.2856  0.8024
 5048SOL     OW26776   1.724   3.050   6.495 -0.3994  0.1840  0.5130
 5048SOL    HW126777   1.650   3.070   6.552  0.1383  2.4544  0.3913
 5048SOL    HW226778   1.792   3.068   6.561  0.2164  0.1761 -0.1132
 5049SOL     OW26779   2.753   2.102  17.649  0.2077  0.5152 -0.6131
 5049SOL    HW126780   2.779   2.023  17.697  0.9199  0.8189 -0.4904
 5049SOL    HW226781   2.738   2.077  17.558 -1.5997  0.1571 -0.2154
 5050SOL     OW26782   3.133   1.224  11.061  0.1081 -0.5679  0.5131
 5050SOL    HW126783   3.212   1.237  11.113  0.2065 -0.5962  0.3715
 5050SOL    HW226784   3.157   1.148  11.006 -0.1078  0.2816 -0.7652
 5051SOL     OW26785   3.586   0.668   7.274  0.0902 -0.1293 -0.5219
 5051SOL    HW126786   3.567   0.756   7.244  1.0822  1.2051  2.7122
 5051SOL    HW226787   3.679   0.660   7.256 -0.3356 -1.8202 -1.9699
 5052SOL     OW26788   2.202   3.392  11.093 -0.3023  0.8871 -0.0746
 5052SOL    HW126789   2.154   3.474  11.097 -0.9538  0.4767  0.5365
 5052SOL    HW226790   2.143   3.325  11.128  0.2227  0.6947  0.4677
 5053SOL     OW26791   1.769   0.654   5.960 -0.6019  0.0789  0.0030
 5053SOL    HW126792   1.702   0.609   6.010 -0.3403 -2.7507 -2.1619
 5053SOL    HW226793   1.766   0.743   5.997  0.9931  0.0632  0.1998
 5054SOL     OW26794   3.188   0.145   7.116 -0.0748 -0.0760  0.1929
 5054SOL    HW126795   3.169   0.193   7.196 -0.4835  0.9058 -0.4986
 5054SOL    HW226796   3.240   0.201   7.059  1.6736  1.1488  2.9793
 5055SOL     OW26797   3.787   1.261   2.817  0.1207  0.1860 -0.2045
 5055SOL    HW126798   3.768   1.167   2.827  0.1256  0.2194  0.1327
 5055SOL    HW226799   3.701   1.297   2.799  0.3352  1.4232  1.2187
 5056SOL     OW26800   3.700   4.419   4.061  0.0433  0.0535  0.5135
 5056SOL    HW126801   3.617   4.459   4.087 -0.2863 -0.5316  0.3550
 5056SOL    HW226802   3.757   4.419   4.138  1.3454 -1.2658 -0.4423
 5057SOL     OW26803   1.067   1.159   5.787  0.0202  0.2538  0.0384
 5057SOL    HW126804   0.975   1.161   5.812 -0.1595  0.5470 -0.6376
 5057SOL    HW226805   1.058   1.125   5.698  0.3609 -1.3986  0.6464
 5058SOL     OW26806   1.568   1.347  13.648  0.0668 -0.5096 -0.3113
 5058SOL    HW126807   1.522   1.430  13.662  1.8671  0.1611  1.6722
 5058SOL    HW226808   1.655   1.379  13.627  0.2207  0.8558  2.3723
 5059SOL     OW26809   0.076   4.205   8.192 -0.0512 -0.6338  0.1284
 5059SOL    HW126810   0.108   4.206   8.282 -2.3634 -0.2041  0.9620
 5059SOL    HW226811   0.027   4.123   8.202 -0.5193 -0.4347 -0.5215
 5060SOL     OW26812   1.999   2.101   4.436 -0.2264  0.3506  0.0153
 5060SOL    HW126813   2.006   2.074   4.528  3.7369  0.4884 -0.2587
 5060SOL    HW226814   2.089   2.120   4.410 -0.9269  1.3297 -1.7312
 5061SOL     OW26815   3.004   0.153   2.348 -0.2982 -0.1811 -0.1844
 5061SOL    HW126816   3.080   0.206   2.324  0.1918 -0.7699  0.0834
 5061SOL    HW226817   2.952   0.210   2.405  0.6650  0.8689 -0.3506
 5062SOL     OW26818   2.534   0.022   3.515  0.2833 -0.5299  0.0245
 5062SOL    HW126819   2.476   0.037   3.441 -0.6239 -2.4541  0.3472
 5062SOL    HW226820   2.614   0.016   3.463 -0.0266  1.4819 -0.7114
 5063SOL     OW26821   0.995   2.444  17.550  0.0233  0.5542 -0.1937
 5063SOL    HW126822   0.968   2.491  17.471  0.3795 -0.3767 -0.8717
 5063SOL    HW226823   1.064   2.387  17.516 -0.6867 -0.5734  0.2339
 5064SOL     OW26824   2.012   2.886   4.448 -0.2925  0.7726  0.5228
 5064SOL    HW126825   1.971   2.903   4.533 -0.4734 -0.6132  0.7213
 5064SOL    HW226826   1.940   2.907   4.389  1.1112 -0.6968 -1.7168
 5065SOL     OW26827   0.515   3.444   2.700 -0.0098 -0.6433 -0.2717
 5065SOL    HW126828   0.509   3.356   2.737  0.1803 -1.2786 -1.7638
 5065SOL    HW226829   0.564   3.486   2.771  1.3203 -1.7984 -0.5178
 5066SOL     OW26830   3.744   3.261   9.028  0.0496 -0.0080 -0.3081
 5066SOL    HW126831   3.770   3.317   8.955  0.1390 -0.0183 -0.2843
 5066SOL    HW226832   3.716   3.183   8.981  1.0791 -0.0433 -0.8672
 5067SOL     OW26833   2.304   0.564   0.467  0.0290  0.2804 -0.2128
 5067SOL    HW126834   2.339   0.642   0.424  2.0384 -0.6173 -0.2060
 5067SOL    HW226835   2.350   0.565   0.551 -1.0881 -0.8413  0.4057
 5068SOL     OW26836   2.678   0.141   5.917  0.1699  0.3217 -0.0784
 5068SOL    HW126837   2.646   0.089   5.843 -0.6024  0.8839 -0.1405
 5068SOL    HW226838   2.753   0.087   5.941 -1.0705 -0.8891  1.1094
 5069SOL     OW26839   2.210   3.403  12.789  0.0799 -0.0781 -0.1464
 5069SOL    HW126840   2.269   3.362  12.726 -0.0179 -1.9596  0.9883
 5069SOL    HW226841   2.126   3.396  12.744 -1.0659  0.3976  1.9290
 5070SOL     OW26842   0.053   3.839   8.984 -0.1906  0.0065  0.4271
 5070SOL    HW126843   0.040   3.745   8.975 -2.3817  0.1344  2.2362
 5070SOL    HW226844   4.700   3.862   8.960 -0.4536  1.6254  2.9751
 5071SOL     OW26845   0.729   1.292  12.221  0.3684  0.2932  0.5160
 5071SOL    HW126846   0.655   1.245  12.259  1.1758 -1.4393 -0.0482
 5071SOL    HW226847   0.694   1.329  12.140 -2.3809 -1.6344  0.8189
 5072SOL     OW26848   1.877   1.102  10.227  0.3861 -0.2989 -0.5189
 5072SOL    HW126849   1.805   1.156  10.194  0.4807 -0.2462 -0.6397
 5072SOL    HW226850   1.828   1.069  10.303  1.1055 -0.1553  0.0020
 5073SOL     OW26851   3.909   3.394   8.568  0.0932 -0.0048  0.6196
 5073SOL    HW126852   3.873   3.441   8.493 -1.6781  0.1567  1.5763
 5073SOL    HW226853   3.999   3.373   8.540 -0.0625 -0.2663  0.3121
 5074SOL     OW26854   1.776   4.379   0.789 -0.5209  0.4847  0.7199
 5074SOL    HW126855   1.691   4.412   0.759 -0.4954 -0.1535 -0.0802
 5074SOL    HW226856   1.757   4.372   0.882  0.2528  0.6853  0.8917
 5075SOL     OW26857   0.907   3.250   9.903 -0.0398 -0.2025  0.3249
 5075SOL    HW126858   0.903   3.155   9.910 -1.8715 -0.2300 -0.8507
 5075SOL    HW226859   0.926   3.261   9.809 -1.5572 -1.0355 -0.0766
 5076SOL     OW26860   1.875   3.770  17.107  0.2021 -0.1820  0.0426
 5076SOL    HW126861   1.958   3.729  17.081  1.5763  2.6775 -0.0258
 5076SOL    HW226862   1.906   3.860  17.100  0.4448 -0.1653  1.3262
 5077SOL     OW26863   3.552   1.518  11.394 -0.2884  0.7052 -0.1384
 5077SOL    HW126864   3.493   1.452  11.430 -0.9015  1.3389  0.0024
 5077SOL    HW226865   3.627   1.460  11.381  0.0882  0.8409  1.3387
 5078SOL     OW26866   0.933   2.012   2.083  0.2087  0.7059 -0.8205
 5078SOL    HW126867   1.025   2.004   2.059 -0.3955 -1.5527 -2.3634
 5078SOL    HW226868   0.881   2.047   2.011 -0.5831  1.5274  0.1477
 5079SOL     OW26869   1.297   3.079   7.710 -0.2906  0.1711  0.1457
 5079SOL    HW126870   1.341   3.044   7.632  0.7174  1.0872  0.3088
 5079SOL    HW226871   1.209   3.045   7.695 -0.8137  1.8277 -0.5033
 5080SOL     OW26872   1.668   3.842  12.325  0.2612 -0.2552 -0.5392
 5080SOL    HW126873   1.729   3.778  12.362  0.9041 -0.2571 -1.6059
 5080SOL    HW226874   1.710   3.926  12.309  0.2958 -0.1777 -0.0609
 5081SOL     OW26875   3.638   2.645   4.296 -0.3227 -0.3237  0.3565
 5081SOL    HW126876   3.684   2.561   4.290  0.7791  0.2611  0.5949
 5081SOL    HW226877   3.557   2.609   4.260 -0.5798 -1.3535  1.9368
 5082SOL     OW26878   1.202   4.206   7.013 -0.2004  0.3299  0.9300
 5082SOL    HW126879   1.202   4.260   6.935  0.5894 -0.2090  0.5661
 5082SOL    HW226880   1.158   4.264   7.076  0.1600  2.3192 -0.6322
 5083SOL     OW26881   0.197   4.144   5.451 -0.5537  0.5818  0.3742
 5083SOL    HW126882   0.284   4.108   5.469  0.3278  1.4413 -2.1069
 5083SOL    HW226883   0.187   4.195   5.532 -2.7757 -1.0499  1.1472
 5084SOL     OW26884   0.067   1.728  14.496 -0.5028  0.6269  0.2658
 5084SOL    HW126885   0.032   1.686  14.417 -1.5794 -0.6495  1.4431
 5084SOL    HW226886   4.727   1.734  14.552 -0.7458 -0.4649  0.0367
 5085SOL     OW26887   2.593   1.942   5.264 -0.8651 -0.4953  0.1584
 5085SOL    HW126888   2.635   2.026   5.245  1.2421 -1.2316  1.5125
 5085SOL    HW226889   2.541   1.973   5.338  0.0098 -2.1208  1.4583
 5086SOL     OW26890   3.902   0.919   9.321 -0.0961  0.3195 -0.3910
 5086SOL    HW126891   3.956   0.890   9.247  1.3810 -1.2583  1.3133
 5086SOL    HW226892   3.872   0.834   9.354  0.8428 -0.5323 -1.7331
 5087SOL     OW26893   1.028   4.009  10.352  0.0316 -0.2390 -0.3260
 5087SOL    HW126894   0.948   4.038  10.395 -2.3344 -5.7840 -0.8679
 5087SOL    HW226895   1.024   3.913  10.355 -2.1889 -0.0526  1.8911
 5088SOL     OW26896   0.320   3.117   5.431 -0.0918  0.2796 -0.0186
 5088SOL    HW126897   0.262   3.183   5.471 -0.5380 -0.4170  0.4834
 5088SOL    HW226898   0.375   3.178   5.381 -0.9151  1.9188  1.0504
 5089SOL     OW26899   1.073   2.129   2.579  0.3164 -0.3354 -0.7130
 5089SOL    HW126900   1.076   2.074   2.658 -2.2388  1.6934  0.8017
 5089SOL    HW226901   0.992   2.178   2.594  0.4399 -0.6250  0.9406
 5090SOL     OW26902   4.083   1.074  15.655  0.0203  0.2239  0.0816
 5090SOL    HW126903   4.024   1.002  15.631 -1.5882  0.5917  3.0440
 5090SOL    HW226904   4.111   1.095  15.566  0.3427  1.7910  0.5551
 5091SOL     OW26905   4.651   0.762  16.204  0.5569  0.0832 -0.0137
 5091SOL    HW126906   4.622   0.675  16.179 -0.3110  0.1366  0.7705
 5091SOL    HW226907   4.636   0.813  16.125  0.8881 -1.9061 -1.3475
 5092SOL     OW26908   3.024   2.324  17.706 -0.6217  0.5028  0.1717
 5092SOL    HW126909   2.954   2.268  17.674  2.5601 -2.3140 -1.7674
 5092SOL    HW226910   3.043   2.378  17.629 -1.8824 -0.1138 -0.5725
 5093SOL     OW26911   2.081   4.185   1.955 -0.2908  0.1639 -0.5884
 5093SOL    HW126912   2.012   4.119   1.947 -0.2475  0.0525 -0.0329
 5093SOL    HW226913   2.162   4.133   1.960 -1.0143 -0.7412  1.7063
 5094SOL     OW26914   1.750   2.530   8.051 -0.3307  0.0655  0.1839
 5094SOL    HW126915   1.768   2.444   8.088  0.0575  0.6167  1.3159
 5094SOL    HW226916   1.819   2.543   7.986 -0.6441  0.6699 -0.0286
 5095SOL     OW26917   2.297   1.079   4.586  0.1114  0.0681 -0.6351
 5095SOL    HW126918   2.335   1.016   4.524  0.2041  0.1955 -0.7072
 5095SOL    HW226919   2.253   1.021   4.649 -1.8909  2.0576 -0.2349
 5096SOL     OW26920   1.321   4.529   1.277 -0.2455  0.5260 -0.0869
 5096SOL    HW126921   1.305   4.593   1.346 -0.2367 -2.1963  2.4617
 5096SOL    HW226922   1.369   4.577   1.210 -1.0699 -1.4935 -2.1419
 5097SOL     OW26923   3.393   4.143   5.262  0.0634 -0.2494 -0.4671
 5097SOL    HW126924   3.377   4.196   5.340  1.9937  0.0153 -0.2534
 5097SOL    HW226925   3.436   4.068   5.304 -0.2062  0.4501  1.0751
 5098SOL     OW26926   0.351   2.782   7.180 -0.1244 -0.1258  0.5452
 5098SOL    HW126927   0.344   2.831   7.262  0.1695 -1.4596  1.3852
 5098SOL    HW226928   0.435   2.736   7.175  0.1675  0.3968  0.6522
 5099SOL     OW26929   3.275   3.621   6.601  0.2837  0.3602  0.2396
 5099SOL    HW126930   3.354   3.671   6.581 -0.0795 -0.3635 -3.0729
 5099SOL    HW226931   3.239   3.668   6.677  0.6324 -0.6031  1.0009
 5100SOL     OW26932   3.480   0.164   9.836  0.2842 -0.5882 -0.2508
 5100SOL    HW126933   3.566   0.132   9.863  1.3380  2.9625  0.6959
 5100SOL    HW226934   3.496   0.156   9.742  1.2275 -1.3411 -0.0279
 5101SOL     OW26935   3.730   1.319  17.439 -0.1048 -0.5447 -0.4315
 5101SOL    HW126936   3.637   1.311  17.461  0.3766  1.5621  2.4926
 5101SOL    HW226937   3.757   1.304  17.529  2.0785  1.4536 -0.7433
 5102SOL     OW26938   0.292   2.291   1.571 -0.2456  0.1743  0.3417
 5102SOL    HW126939   0.361   2.356   1.580 -0.1144  0.2398 -1.2307
 5102SOL    HW226940   0.283   2.254   1.659 -1.7407  2.6904  1.2443
 5103SOL     OW26941   1.808   2.048   3.380  0.8484 -0.2091  0.2247
 5103SOL    HW126942   1.850   2.104   3.446 -0.6149  0.4249  0.6223
 5103SOL    HW226943   1.790   2.100   3.302  3.3274 -0.4748 -0.5275
 5104SOL     OW26944   1.995   3.702   2.289 -0.2416  0.4856 -0.2536
 5104SOL    HW126945   2.061   3.672   2.227  1.2283  0.4511  1.3305
 5104SOL    HW226946   2.024   3.789   2.315 -0.4392  1.0909 -2.0168
 5105SOL     OW26947   3.813   4.647  17.675  0.1681 -0.0192 -0.5794
 5105SOL    HW126948   3.784   4.711  17.610 -0.2804 -0.3653 -0.7231
 5105SOL    HW226949   3.814   4.566  17.623 -0.4805 -0.9641  0.8913
 5106SOL     OW26950   4.110   3.462   6.049  0.6736 -0.1977  0.0591
 5106SOL    HW126951   4.204   3.456   6.067  0.6969  0.3007  0.1201
 5106SOL    HW226952   4.075   3.424   6.130  0.2348 -0.9846 -0.5059
 5107SOL     OW26953   3.336   1.569   6.405  1.0087  0.1281 -0.0526
 5107SOL    HW126954   3.297   1.483   6.392 -0.7111  0.5769  2.1905
 5107SOL    HW226955   3.341   1.573   6.500 -0.9455 -1.4093  0.1103
 5108SOL     OW26956   2.648   1.726   2.212  0.6015 -0.0132 -0.0954
 5108SOL    HW126957   2.601   1.644   2.194  1.5145 -0.3240 -1.0349
 5108SOL    HW226958   2.743   1.714   2.209  0.7761  0.3672  3.3362
 5109SOL     OW26959   3.610   3.341   4.147 -0.0526  0.1221  0.2469
 5109SOL    HW126960   3.575   3.410   4.202 -2.7526 -0.9159 -0.1785
 5109SOL    HW226961   3.704   3.356   4.159 -0.0104 -0.6366  0.8452
 5110SOL     OW26962   0.021   3.374  16.528  0.2566  0.1388 -0.0887
 5110SOL    HW126963   0.012   3.313  16.601  2.9183  0.1484  0.2346
 5110SOL    HW226964   0.104   3.345  16.491  0.2217 -0.4949  0.3429
 5111SOL     OW26965   4.702   0.577   6.590 -0.4859 -0.1597 -0.1734
 5111SOL    HW126966   0.016   0.656   6.570 -2.5781  1.8034  2.4121
 5111SOL    HW226967   4.737   0.554   6.676  1.4735  0.0406 -0.9056
 5112SOL     OW26968   2.645   3.327   3.120 -0.1834 -0.1969 -0.0031
 5112SOL    HW126969   2.647   3.264   3.048  0.3929  1.8591 -1.7870
 5112SOL    HW226970   2.688   3.406   3.087  1.4688 -1.0466  0.1482
 5113SOL     OW26971   2.326   4.257   1.272  0.0173 -0.1329 -0.0500
 5113SOL    HW126972   2.304   4.253   1.365 -0.8085  1.7259 -0.1527
 5113SOL    HW226973   2.267   4.330   1.254 -0.5847 -0.5948  0.0641
 5114SOL     OW26974   2.722   3.980   5.925 -0.0462 -0.3581 -0.0968
 5114SOL    HW126975   2.738   3.932   6.007  0.2346  0.6543  0.4443
 5114SOL    HW226976   2.811   3.991   5.892  0.7088 -1.2725  1.6235
 5115SOL     OW26977   1.994   3.703  12.282  1.0140  0.3006 -0.3490
 5115SOL    HW126978   2.053   3.648  12.334  0.4008 -0.7206 -0.7318
 5115SOL    HW226979   2.023   3.792  12.299 -1.0912  0.5957  1.5982
 5116SOL     OW26980   0.080   4.431   1.522 -0.3874  0.1641  0.1037
 5116SOL    HW126981   0.095   4.458   1.431  0.6718 -0.4903  0.0832
 5116SOL    HW226982   0.002   4.377   1.526  0.4220 -1.0374 -0.4149
 5117SOL     OW26983   4.579   1.542  17.032 -0.0789  0.3196 -0.0667
 5117SOL    HW126984   4.509   1.587  17.080 -0.2816  1.3916 -1.3753
 5117SOL    HW226985   4.601   1.470  17.092  0.6502  1.1132  0.6056
 5118SOL     OW26986   1.663   0.747   8.124 -0.4416 -0.0482 -0.2957
 5118SOL    HW126987   1.755   0.726   8.141 -1.2772 -2.3697  1.4037
 5118SOL    HW226988   1.620   0.662   8.128 -0.5947 -0.0262 -1.4518
 5119SOL     OW26989   2.768   2.408   2.950 -0.1712 -0.3045 -0.5080
 5119SOL    HW126990   2.684   2.451   2.938 -0.2825 -1.1307 -2.6282
 5119SOL    HW226991   2.741   2.344   3.015  2.3778 -0.2579  0.5956
 5120SOL     OW26992   2.716   2.315   2.611  0.2348 -0.0196  0.3560
 5120SOL    HW126993   2.667   2.397   2.617 -3.7428 -2.4164  0.1741
 5120SOL    HW226994   2.796   2.353   2.649 -0.2641 -0.2789  1.6625
 5121SOL     OW26995   0.173   3.700   7.768  0.0002 -0.2949  0.3658
 5121SOL    HW126996   0.127   3.742   7.696  0.4232  1.4185  1.1134
 5121SOL    HW226997   0.162   3.760   7.841  0.5884  0.7994 -0.4537
 5122SOL     OW26998   0.233   1.423   6.549 -0.8315  0.3370  0.1634
 5122SOL    HW126999   0.201   1.493   6.605 -1.6749  0.9693 -1.0904
 5122SOL    HW227000   0.226   1.470   6.466  3.1985 -0.4341 -0.6178
 5123SOL     OW27001   1.896   4.523   4.496  0.1040  0.0807 -0.0855
 5123SOL    HW127002   1.803   4.540   4.509  0.5836  2.1247  0.6012
 5123SOL    HW227003   1.930   4.605   4.533  0.6383  0.2054 -0.8496
 5124SOL     OW27004   3.579   0.378   7.532  0.6893  0.0871  0.0071
 5124SOL    HW127005   3.642   0.383   7.460  2.6188  0.7029  1.7736
 5124SOL    HW227006   3.577   0.471   7.554  1.2559 -0.0514  0.6142
 5125SOL     OW27007   2.710   2.430   8.155  0.0400  0.6600  0.3006
 5125SOL    HW127008   2.699   2.465   8.066  0.8079 -1.3007 -0.5661
 5125SOL    HW227009   2.803   2.437   8.177 -0.0543 -0.0567  0.9061
 5126SOL     OW27010   1.158   1.989   3.903 -0.0456  0.0566  0.3037
 5126SOL    HW127011   1.193   1.928   3.967  1.3953  2.0202  1.3915
 5126SOL    HW227012   1.097   2.029   3.965 -0.2176  1.2827 -0.6396
 5127SOL     OW27013   2.886   3.345  15.105 -0.4262 -0.0751 -0.4430
 5127SOL    HW127014   2.943   3.422  15.116  0.2991 -0.7033  0.1566
 5127SOL    HW227015   2.812   3.383  15.152  0.9029  1.5339  0.3527
 5128SOL     OW27016   2.365   0.027   3.746  0.2993 -0.1367  0.7284
 5128SOL    HW127017   2.384   0.115   3.779 -2.7760  0.2510  1.4428
 5128SOL    HW227018   2.429   0.013   3.676  0.1623 -3.2513  1.2433
 5129SOL     OW27019   4.241   2.125   2.839 -0.0513  0.1690 -0.2090
 5129SOL    HW127020   4.175   2.069   2.880  1.2843 -0.7628  0.6344
 5129SOL    HW227021   4.325   2.086   2.863  0.3891  0.4584 -1.2672
 5130SOL     OW27022   1.692   1.906   4.584  0.2066 -0.3488 -0.3093
 5130SOL    HW127023   1.655   1.831   4.632 -0.3239  1.5363  2.2370
 5130SOL    HW227024   1.761   1.928   4.646 -0.0442 -0.2702 -0.0594
 5131SOL     OW27025   2.288   3.192   7.715  0.1286 -0.3525  0.1807
 5131SOL    HW127026   2.259   3.102   7.729  0.7251 -0.4860  0.5728
 5131SOL    HW227027   2.375   3.185   7.755 -0.4418  1.0797  1.6676
 5132SOL     OW27028   0.813   2.682  11.726  0.0351 -0.0428 -0.0283
 5132SOL    HW127029   0.907   2.694  11.714  0.2916 -1.5694  0.3653
 5132SOL    HW227030   0.822   2.624  11.802  0.4795 -0.4533 -0.3908
 5133SOL     OW27031   4.173   2.257   7.056 -0.7687 -0.0945 -0.1833
 5133SOL    HW127032   4.214   2.183   7.099  1.0042  1.4998  0.8700
 5133SOL    HW227033   4.234   2.271   6.984 -0.6562  0.4610  0.0210
 5134SOL     OW27034   2.156   4.384   6.862 -0.7340 -0.2921 -0.6039
 5134SOL    HW127035   2.229   4.441   6.882 -0.8702 -0.7644  1.2750
 5134SOL    HW227036   2.200   4.313   6.815  0.1064 -0.9496  1.1525
 5135SOL     OW27037   0.667   1.595   3.482 -0.0489 -0.2368 -0.4562
 5135SOL    HW127038   0.733   1.599   3.552 -0.0515 -0.2792 -0.4510
 5135SOL    HW227039   0.721   1.576   3.406  0.3869 -1.2077  0.1005
 5136SOL     OW27040   3.856   3.837   8.171 -0.5903 -0.1512  0.0527
 5136SOL    HW127041   3.932   3.783   8.195 -0.2255 -0.0267 -0.7997
 5136SOL    HW227042   3.908   3.897   8.116  1.3197  0.5209  2.5983
 5137SOL     OW27043   3.312   3.945   1.979 -0.5851 -0.1777  0.0644
 5137SOL    HW127044   3.384   3.885   1.996 -0.8202 -0.2177  0.8953
 5137SOL    HW227045   3.314   3.964   1.885 -1.8477  4.1483  0.9171
 5138SOL     OW27046   4.718   0.219   4.739 -0.2034  0.2066  0.5957
 5138SOL    HW127047   4.720   0.181   4.827 -2.3934  0.4775  0.7707
 5138SOL    HW227048   0.019   0.146   4.690 -1.0001  0.7724 -0.8773
 5139SOL     OW27049   3.741   3.907   3.814 -0.0107 -0.2954  0.3123
 5139SOL    HW127050   3.777   3.921   3.726  0.9402  1.1303  0.9372
 5139SOL    HW227051   3.683   3.841   3.777  1.6571 -2.2899  1.2262
 5140SOL     OW27052   0.154   3.673   2.439  0.2072  0.1249 -0.1676
 5140SOL    HW127053   0.198   3.731   2.376  2.1350  0.8336  1.8350
 5140SOL    HW227054   0.169   3.586   2.402  0.4234  0.5915 -1.1857
 5141SOL     OW27055   0.109   4.422   8.858 -0.0111  0.6326  0.2347
 5141SOL    HW127056   0.082   4.497   8.910  1.8828  2.6370 -1.6883
 5141SOL    HW227057   0.185   4.392   8.907  1.0883  1.7716 -0.7810
 5142SOL     OW27058   3.776   1.255  15.801  0.1022  0.2291  0.3515
 5142SOL    HW127059   3.757   1.277  15.710  1.1655  0.2819  0.1397
 5142SOL    HW227060   3.868   1.283  15.804  0.6429 -1.5605  0.8404
 5143SOL     OW27061   3.250   1.256   2.046  0.4138  0.7343  0.1141
 5143SOL    HW127062   3.162   1.220   2.045  0.9655 -0.6038  0.4120
 5143SOL    HW227063   3.300   1.175   2.056 -0.3557  0.1622 -0.7564
 5144SOL     OW27064   0.912   3.645   2.825  1.0443  0.2734 -0.0368
 5144SOL    HW127065   0.831   3.602   2.851  1.1364 -0.7851 -1.4933
 5144SOL    HW227066   0.927   3.714   2.890  0.1081 -0.3839  0.8890
 5145SOL     OW27067   1.753   1.438   0.736  0.0377  0.2210  0.3941
 5145SOL    HW127068   1.677   1.454   0.680  1.1277 -1.1539 -1.4369
 5145SOL    HW227069   1.715   1.441   0.824 -1.1939  1.7652 -0.1847
 5146SOL     OW27070   4.556   0.220  10.185  0.2869 -0.3655  0.9229
 5146SOL    HW127071   4.492   0.270  10.236 -0.5538 -1.5497  1.0334
 5146SOL    HW227072   4.583   0.281  10.117 -2.4318  1.6856  1.6832
 5147SOL     OW27073   4.464   3.387   4.912 -0.2594 -0.2558  0.5113
 5147SOL    HW127074   4.391   3.364   4.970 -1.8417  0.9756 -1.0107
 5147SOL    HW227075   4.533   3.390   4.978 -1.3122 -0.2213  1.6131
 5148SOL     OW27076   3.104   2.059   2.254  0.0344 -0.2695 -0.2601
 5148SOL    HW127077   3.020   2.101   2.276  0.4800 -0.2496  1.4082
 5148SOL    HW227078   3.083   1.967   2.272 -1.5462  0.6325  2.5645
 5149SOL     OW27079   1.689   4.340   2.232 -0.2869 -0.3235 -0.0051
 5149SOL    HW127080   1.706   4.248   2.250 -1.5233 -0.6445 -0.4453
 5149SOL    HW227081   1.739   4.396   2.292  1.2003 -1.7036  0.0108
 5150SOL     OW27082   3.096   3.416   5.861  0.4488  0.0730 -0.2786
 5150SOL    HW127083   3.180   3.433   5.903  0.3418 -0.9972  0.3803
 5150SOL    HW227084   3.102   3.477   5.788 -4.2324 -0.7762 -1.3559
 5151SOL     OW27085   1.806   1.136   6.147  0.3442 -0.7191  0.4694
 5151SOL    HW127086   1.773   1.046   6.149 -0.0801 -0.5570  0.6160
 5151SOL    HW227087   1.885   1.134   6.200 -0.5922 -0.1209  1.8760
 5152SOL     OW27088   1.546   4.015   3.072  0.1275  0.0430  0.2700
 5152SOL    HW127089   1.560   4.033   2.979 -2.1598  2.8853  0.4659
 5152SOL    HW227090   1.452   3.998   3.077 -0.1870  1.6805  0.0520
 5153SOL     OW27091   1.532   1.820   9.121 -0.0188 -0.1453  0.8292
 5153SOL    HW127092   1.547   1.888   9.186 -2.0655 -0.1010  1.2485
 5153SOL    HW227093   1.579   1.852   9.044  0.1816  2.8579  2.2146
 5154SOL     OW27094   0.574   2.058  14.316  0.3779  0.2618 -0.5530
 5154SOL    HW127095   0.577   2.095  14.228 -2.4350  1.6279 -0.0480
 5154SOL    HW227096   0.609   2.134  14.363 -0.1607  0.0314  0.2136
 5155SOL     OW27097   2.408   2.412   9.695 -0.4843 -0.0538 -0.1475
 5155SOL    HW127098   2.406   2.324   9.732 -0.5365  1.3559  3.1658
 5155SOL    HW227099   2.407   2.473   9.769  1.4121  2.2567 -2.0636
 5156SOL     OW27100   0.411   0.466   4.961  0.0205 -0.2329 -0.3217
 5156SOL    HW127101   0.317   0.467   4.980 -0.2865  0.3421 -1.8337
 5156SOL    HW227102   0.446   0.535   5.018  1.0007 -0.1106 -1.0664
 5157SOL     OW27103   2.867   2.402   0.183 -0.2023 -0.1658 -0.7137
 5157SOL    HW127104   2.877   2.314   0.220  1.4626  0.7932  1.1420
 5157SOL    HW227105   2.922   2.380   0.108  0.2264  2.5438 -1.1936
 5158SOL     OW27106   2.650   1.521   8.765 -0.2365  0.3498  0.2859
 5158SOL    HW127107   2.564   1.563   8.766 -0.4966 -0.2116  1.1772
 5158SOL    HW227108   2.630   1.431   8.789 -0.0756  0.4329  0.7179
 5159SOL     OW27109   2.677   3.106   5.235  0.4517  0.2484  0.0765
 5159SOL    HW127110   2.679   3.149   5.320 -1.0581  0.8366 -0.1958
 5159SOL    HW227111   2.643   3.170   5.173 -0.1606  1.3885  1.5993
 5160SOL     OW27112   3.541   2.305   0.574  0.5930 -0.1172 -0.3011
 5160SOL    HW127113   3.503   2.222   0.547  0.8254 -0.4284  0.3235
 5160SOL    HW227114   3.626   2.274   0.606  0.5857  0.7227  0.5242
 5161SOL     OW27115   3.171   3.851   4.355 -0.2044 -0.2950  0.2275
 5161SOL    HW127116   3.077   3.854   4.369 -0.2112  2.0709 -0.4554
 5161SOL    HW227117   3.181   3.760   4.327  0.5848  1.2557 -4.4283
 5162SOL     OW27118   2.497   0.927  13.201  0.2619 -0.9288 -0.2327
 5162SOL    HW127119   2.482   1.018  13.175  1.6391 -0.6561 -0.0718
 5162SOL    HW227120   2.426   0.921  13.265 -1.7402 -0.9613 -2.4848
 5163SOL     OW27121   1.663   2.319  11.862 -0.0221 -0.0198  0.5114
 5163SOL    HW127122   1.654   2.225  11.871 -1.3664 -0.3219 -3.9518
 5163SOL    HW227123   1.752   2.330  11.897  1.1904  0.4923 -2.6848
 5164SOL     OW27124   0.795   2.380   3.527 -0.1371  0.1301  0.4429
 5164SOL    HW127125   0.890   2.383   3.520 -0.1376  0.4108  0.5171
 5164SOL    HW227126   0.770   2.313   3.464  1.6725 -1.3962  1.3769
 5165SOL     OW27127   3.924   1.395   2.609 -0.3098 -0.0795  0.8494
 5165SOL    HW127128   3.885   1.367   2.692 -0.9503 -0.4656  0.4147
 5165SOL    HW227129   3.998   1.335   2.604  2.3213  3.1244  1.2222
 5166SOL     OW27130   3.661   4.687   4.595 -0.2596 -0.0371 -0.8928
 5166SOL    HW127131   3.644   4.637   4.516  4.0560 -1.1964 -1.0802
 5166SOL    HW227132   3.599   0.020   4.575 -0.8063  0.5064  2.6262
 5167SOL     OW27133   0.950   2.695   5.720  0.1652  0.1704 -0.3636
 5167SOL    HW127134   0.936   2.616   5.772 -1.5965  1.0636  0.5226
 5167SOL    HW227135   0.898   2.758   5.770  0.1033 -0.0698 -0.1308
 5168SOL     OW27136   2.819   4.157  17.726  0.1902 -0.0564  0.2994
 5168SOL    HW127137   2.772   4.126  17.648  1.7365 -1.0555 -0.2354
 5168SOL    HW227138   2.832   4.251  17.711  0.9390 -0.2107 -0.0116
 5169SOL     OW27139   0.278   4.298   9.026 -0.2591 -0.3648 -0.3381
 5169SOL    HW127140   0.227   4.267   9.101 -0.7564 -2.1584 -1.4230
 5169SOL    HW227141   0.355   4.242   9.035  0.5146  0.6644 -0.6166
 5170SOL     OW27142   1.022   0.108   0.481 -0.4158  0.2246  0.0774
 5170SOL    HW127143   0.964   0.178   0.512  1.0363  1.7123 -0.5636
 5170SOL    HW227144   1.065   0.086   0.564  1.7037  2.7598 -0.3466
 5171SOL     OW27145   2.686   0.989   6.729 -0.2033 -0.3653  0.2748
 5171SOL    HW127146   2.678   0.910   6.783 -3.5104  2.2103  3.5133
 5171SOL    HW227147   2.608   1.038   6.755 -0.6229 -0.9178  0.0675
 5172SOL     OW27148   4.084   3.964  10.629  0.7398 -0.0729 -0.0762
 5172SOL    HW127149   4.106   4.057  10.623  0.4675  0.1318  1.9233
 5172SOL    HW227150   3.990   3.956  10.614  0.6079 -1.2216  1.3166
 5173SOL     OW27151   0.529   1.424   7.200  0.2971 -0.6160 -0.0133
 5173SOL    HW127152   0.619   1.456   7.187  0.1712  0.0374  0.6760
 5173SOL    HW227153   0.514   1.352   7.139 -2.9490 -0.8193  1.0344
 5174SOL     OW27154   1.321   2.850   6.784 -0.2804 -0.0782  0.5231
 5174SOL    HW127155   1.399   2.838   6.838  2.0857 -2.4325 -3.3886
 5174SOL    HW227156   1.314   2.757   6.760 -1.4500  0.0563  0.3025
 5175SOL     OW27157   4.724   2.582   8.813 -0.2584 -0.1119 -0.3355
 5175SOL    HW127158   0.072   2.555   8.779 -0.5245 -0.6919 -0.5441
 5175SOL    HW227159   4.731   2.667   8.771 -2.2897 -0.1419 -0.7508
 5176SOL     OW27160   3.425   1.039   2.959  0.6076  0.5335 -0.2371
 5176SOL    HW127161   3.463   1.066   3.042  0.7254 -0.7736  0.1442
 5176SOL    HW227162   3.502   1.017   2.907  0.5296 -0.5804  0.1022
 5177SOL     OW27163   3.318   2.416   2.102 -0.2680 -0.0508  0.2707
 5177SOL    HW127164   3.364   2.495   2.130  0.9296 -1.9237  3.5139
 5177SOL    HW227165   3.240   2.456   2.062  0.4782  0.2700 -0.8726
 5178SOL     OW27166   0.293   1.926  14.190 -0.0607 -0.4267  0.0467
 5178SOL    HW127167   0.212   1.882  14.214 -0.4188  0.2467  0.0549
 5178SOL    HW227168   0.345   1.918  14.271  0.5865 -0.5941 -0.3836
 5179SOL     OW27169   4.688   4.179   7.888  0.0555  0.5575  0.6306
 5179SOL    HW127170   4.604   4.224   7.876  0.3906  0.5488 -1.7748
 5179SOL    HW227171   4.686   4.165   7.983 -0.1468 -0.2400  0.5063
 5180SOL     OW27172   0.213   3.473   9.310 -0.6253  0.1058 -0.2021
 5180SOL    HW127173   0.243   3.527   9.382  1.5905 -0.3683 -0.7860
 5180SOL    HW227174   0.192   3.390   9.353 -1.0957  0.1898 -0.2612
 5181SOL     OW27175   0.139   1.810   9.889 -0.1886 -0.2650 -0.0842
 5181SOL    HW127176   0.119   1.898   9.923  1.8061 -0.8104  2.4310
 5181SOL    HW227177   0.117   1.829   9.798 -1.4074 -2.7051 -0.2896
 5182SOL     OW27178   3.359   4.684   3.098 -0.0267  0.7659  0.1316
 5182SOL    HW127179   3.286   4.642   3.053  1.5854  0.2531 -2.0057
 5182SOL    HW227180   3.370   0.012   3.028  0.7077  0.3173 -0.1708
 5183SOL     OW27181   3.622   1.115   6.185  0.1745  0.2467  0.0704
 5183SOL    HW127182   3.659   1.204   6.186 -3.3748  1.7054  0.3369
 5183SOL    HW227183   3.687   1.070   6.132 -1.3830  2.1737 -3.5195
 5184SOL     OW27184   1.984   3.705   1.784  0.2233 -0.3382  0.0695
 5184SOL    HW127185   1.909   3.737   1.834  1.3968 -1.5840  2.6411
 5184SOL    HW227186   1.960   3.613   1.781  1.0516 -0.6075  1.5359
 5185SOL     OW27187   2.299   0.062   8.216 -0.1348 -0.1425 -0.4742
 5185SOL    HW127188   2.377   0.076   8.269  1.1061  1.8287 -2.8386
 5185SOL    HW227189   2.297   4.711   8.177  2.2021 -1.6727  2.8743
 5186SOL     OW27190   4.125   1.021  17.708 -0.4363 -0.6144  0.4509
 5186SOL    HW127191   4.176   1.014  17.628 -0.0624  3.2476  0.3356
 5186SOL    HW227192   4.091   1.109  17.691  2.9857  0.5555 -0.3828
 5187SOL     OW27193   3.118   1.299  10.433 -0.1107  0.1405  0.4397
 5187SOL    HW127194   3.120   1.393  10.417 -2.4740  0.4495  1.9017
 5187SOL    HW227195   3.098   1.264  10.346 -1.8534 -1.2593  1.3925
 5188SOL     OW27196   1.604   3.014  16.915 -0.0379 -0.3193 -0.3099
 5188SOL    HW127197   1.612   3.064  16.996  0.0184 -0.2499 -0.3589
 5188SOL    HW227198   1.511   3.030  16.896 -0.5315  1.0319  3.2555
 5189SOL     OW27199   1.625   3.683   3.366  0.2512  0.1840  0.4115
 5189SOL    HW127200   1.539   3.714   3.395  0.3884  0.4953  0.4792
 5189SOL    HW227201   1.589   3.635   3.291  0.8971  0.4953 -0.0844
 5190SOL     OW27202   2.459   0.047   4.054  0.2769  0.1553 -0.3256
 5190SOL    HW127203   2.499   4.707   4.014  0.3726 -0.7623  1.5624
 5190SOL    HW227204   2.366   0.034   4.036  0.1866  1.1174 -0.5569
 5191SOL     OW27205   3.481   0.619   4.526 -0.3825 -0.6936 -0.1683
 5191SOL    HW127206   3.464   0.713   4.515  1.5158 -0.1417  1.4976
 5191SOL    HW227207   3.561   0.617   4.578 -0.6019 -1.3852  0.1370
 5192SOL     OW27208   1.983   2.328   3.169 -0.5961  0.4413 -0.0147
 5192SOL    HW127209   2.038   2.325   3.247 -1.5924  1.4285  0.7187
 5192SOL    HW227210   2.023   2.397   3.116  1.5080 -1.5091 -0.9724
 5193SOL     OW27211   4.480   0.840  17.577  0.4144  0.5947 -0.2001
 5193SOL    HW127212   4.441   0.927  17.568  2.1816  1.3652 -0.3976
 5193SOL    HW227213   4.404   0.783  17.592  1.8185 -1.1007  0.4557
 5194SOL     OW27214   3.743   1.121   9.236 -0.5021  0.4100 -0.1443
 5194SOL    HW127215   3.805   1.052   9.260  1.5787  1.8149 -1.5160
 5194SOL    HW227216   3.662   1.071   9.224  0.1109 -0.3216 -1.2284
 5195SOL     OW27217   2.008   0.974   2.995 -0.2342 -0.2071 -0.6002
 5195SOL    HW127218   1.980   0.887   2.967 -0.1856  0.6513 -3.3615
 5195SOL    HW227219   2.075   0.995   2.929 -0.3018  0.5534 -0.4198
 5196SOL     OW27220   1.700   1.578   4.366 -0.0588 -0.0640 -0.0553
 5196SOL    HW127221   1.662   1.626   4.292  1.2802 -0.0785 -0.7425
 5196SOL    HW227222   1.793   1.595   4.358 -0.0814 -0.5754 -1.3907
 5197SOL     OW27223   2.111   4.360   3.497  0.1774  0.5166  0.3202
 5197SOL    HW127224   2.094   4.453   3.511 -1.0416  0.6285 -1.9448
 5197SOL    HW227225   2.202   4.360   3.528  0.2964  1.3471 -0.0498
 5198SOL     OW27226   1.964   1.574   5.385  0.1357 -0.2968 -0.8294
 5198SOL    HW127227   1.960   1.496   5.329 -0.9977 -0.4326 -0.5644
 5198SOL    HW227228   1.872   1.586   5.410  0.9890  0.0030  2.2014
 5199SOL     OW27229   1.494   2.284   7.904  0.1875 -0.8755 -0.0904
 5199SOL    HW127230   1.569   2.235   7.870  0.5017  0.8005 -1.7982
 5199SOL    HW227231   1.519   2.373   7.879 -0.8247 -0.8019 -0.8229
 5200SOL     OW27232   0.756   4.535   7.668 -0.3362  0.1184  0.5451
 5200SOL    HW127233   0.666   4.529   7.638 -0.0697 -2.2067  0.2189
 5200SOL    HW227234   0.778   4.627   7.683 -0.4154  0.0918  0.8242
 5201SOL     OW27235   2.885   0.593   3.605  0.0489  0.0981 -0.1078
 5201SOL    HW127236   2.849   0.505   3.615 -1.0731  0.5413 -0.2105
 5201SOL    HW227237   2.886   0.598   3.510 -0.2754 -1.0368 -0.1757
 5202SOL     OW27238   4.508   0.132  15.794  0.6235  0.0857 -0.1919
 5202SOL    HW127239   4.561   0.083  15.857 -0.0591 -1.5915 -0.9360
 5202SOL    HW227240   4.430   0.144  15.850  1.9079 -0.5661  1.7313
 5203SOL     OW27241   4.200   1.468   7.473 -0.5822  0.0494 -0.0808
 5203SOL    HW127242   4.288   1.495   7.448  0.5459 -2.7805  0.7573
 5203SOL    HW227243   4.178   1.533   7.540  0.8574  2.4200 -1.9223
 5204SOL     OW27244   1.824   3.961   9.497 -0.2108  0.3246 -0.1307
 5204SOL    HW127245   1.783   3.922   9.575 -2.1876 -0.0642 -1.3563
 5204SOL    HW227246   1.787   4.047   9.515  1.3835  0.7590  1.0705
 5205SOL     OW27247   1.668   4.657   6.432 -0.2402 -0.1625  0.0987
 5205SOL    HW127248   1.759   4.629   6.431 -0.5132 -1.0519  0.0685
 5205SOL    HW227249   1.630   4.625   6.350  2.8398 -0.9936 -1.0046
 5206SOL     OW27250   2.037   4.708   3.002  0.2764 -0.2620 -0.5592
 5206SOL    HW127251   1.957   4.659   2.985  0.4899  0.0905 -2.5125
 5206SOL    HW227252   2.054   0.010   2.916  0.5951 -0.9941 -0.8287
 5207SOL     OW27253   0.268   2.854   4.102 -0.4438  0.1051  0.5184
 5207SOL    HW127254   0.313   2.786   4.151 -1.5658 -0.8473  0.2229
 5207SOL    HW227255   0.214   2.881   4.176 -1.1999  2.1758 -0.7642
 5208SOL     OW27256   1.306   3.786   5.029  0.4167 -0.3894 -0.1768
 5208SOL    HW127257   1.390   3.745   5.006  1.4441  1.7812 -0.2587
 5208SOL    HW227258   1.331   3.875   5.054  2.3762 -0.9854 -0.0013
 5209SOL     OW27259   3.526   2.313   6.099  0.0557 -0.3467 -0.3549
 5209SOL    HW127260   3.491   2.313   6.189  1.0240 -1.3123  0.0138
 5209SOL    HW227261   3.616   2.288   6.117  1.0835  2.5980 -1.4585
 5210SOL     OW27262   1.621   3.091   8.350 -0.7523 -0.2841 -0.5920
 5210SOL    HW127263   1.580   3.158   8.296  2.4642  1.0804 -1.3423
 5210SOL    HW227264   1.572   3.010   8.339 -1.7965 -0.0398  2.3076
 5211SOL     OW27265   0.655   4.442   7.086 -0.5479  0.3773  0.4303
 5211SOL    HW127266   0.571   4.457   7.129  0.3604  2.3638  1.5417
 5211SOL    HW227267   0.715   4.471   7.155 -0.5717  1.9843 -0.2253
 5212SOL     OW27268   3.478   2.477  12.082 -0.2533  0.2085 -0.3100
 5212SOL    HW127269   3.431   2.531  12.144  0.2940  1.5330 -1.0325
 5212SOL    HW227270   3.528   2.549  12.042 -1.8272  0.1409 -2.3973
 5213SOL     OW27271   0.827   1.483   6.396 -0.5653  0.0561  0.1160
 5213SOL    HW127272   0.921   1.499   6.407 -0.1168 -2.1387 -0.5150
 5213SOL    HW227273   0.805   1.509   6.307 -1.9053  1.8608  0.9851
 5214SOL     OW27274   0.242   2.113   7.402 -0.1975  0.2222 -0.5541
 5214SOL    HW127275   0.202   2.027   7.419 -1.1235  0.6008 -0.7940
 5214SOL    HW227276   0.192   2.174   7.455  0.1476  1.3019 -1.4814
 5215SOL     OW27277   4.648   3.120   0.970 -0.0995 -0.4179 -0.5258
 5215SOL    HW127278   4.686   3.046   0.923  1.6208  1.4269 -2.0371
 5215SOL    HW227279   4.716   3.153   1.028 -0.9392 -0.6354  0.5759
 5216SOL     OW27280   3.383   0.153   5.934 -0.0800  0.3553 -0.0367
 5216SOL    HW127281   3.428   0.103   5.865 -0.0564  0.0027  0.2345
 5216SOL    HW227282   3.455   0.203   5.973  0.6411 -2.9564  2.8565
 5217SOL     OW27283   2.617   3.886   7.454 -0.4422 -0.1694  0.8790
 5217SOL    HW127284   2.685   3.927   7.507 -0.8347  0.9420  0.5215
 5217SOL    HW227285   2.535   3.934   7.455 -0.5024 -0.2647  0.6232
 5218SOL     OW27286   4.536   4.091   7.610 -0.2319  0.0751  0.2769
 5218SOL    HW127287   4.612   4.046   7.648 -1.5918 -2.3836  0.0695
 5218SOL    HW227288   4.580   4.175   7.594 -2.1702  0.5132 -2.6984
 5219SOL     OW27289   1.501   0.215   7.600 -0.2172  0.2122 -0.1272
 5219SOL    HW127290   1.449   0.150   7.648 -0.4549  0.7142  0.2942
 5219SOL    HW227291   1.576   0.157   7.586  1.1100  1.5090  1.5507
 5220SOL     OW27292   2.307   2.473  16.585  0.0847 -0.0135  0.5470
 5220SOL    HW127293   2.335   2.381  16.586 -2.2593 -0.6737  2.9983
 5220SOL    HW227294   2.224   2.474  16.538  1.7236 -0.0891 -2.3806
 5221SOL     OW27295   1.170   3.968  11.135  0.6017  0.5489  0.5569
 5221SOL    HW127296   1.111   3.906  11.180  0.2510 -0.4121 -1.2297
 5221SOL    HW227297   1.220   3.992  11.213  1.0048  1.0979  0.1266
 5222SOL     OW27298   3.370   4.591   9.713  0.5455  0.8036  0.4225
 5222SOL    HW127299   3.293   4.643   9.692  2.4908  1.9520 -3.8844
 5222SOL    HW227300   3.406   4.656   9.774  1.1329 -2.0829  3.1691
 5223SOL     OW27301   0.476   2.114   9.509  0.2924  0.4128  0.4165
 5223SOL    HW127302   0.460   2.158   9.426  0.1303 -0.4740 -0.0224
 5223SOL    HW227303   0.454   2.185   9.570  0.6524 -0.0363  1.0731
 5224SOL     OW27304   0.874   3.250   6.597  0.6168  0.0727  0.2687
 5224SOL    HW127305   0.869   3.286   6.509  0.1290  4.3023  2.0274
 5224SOL    HW227306   0.961   3.285   6.618  0.7352  0.0645 -0.2070
 5225SOL     OW27307   0.971   3.737  10.878 -0.4638 -0.4709  0.2688
 5225SOL    HW127308   0.931   3.818  10.845 -0.4107 -0.5258  0.0687
 5225SOL    HW227309   1.035   3.724  10.808 -1.8266  2.5467 -1.5462
 5226SOL     OW27310   2.732   3.839  10.544  0.3905 -0.2180 -0.4158
 5226SOL    HW127311   2.804   3.784  10.514  1.2564 -0.5701  2.3255
 5226SOL    HW227312   2.775   3.872  10.623 -0.1263  0.3506 -0.3739
 5227SOL     OW27313   1.225   0.576  11.710  0.0595  0.3520  0.4026
 5227SOL    HW127314   1.205   0.508  11.774 -0.2712  1.4666  1.4829
 5227SOL    HW227315   1.321   0.570  11.714  0.0407 -0.6407 -0.7292
 5228SOL     OW27316   3.872   1.128   8.901 -0.3811 -0.0867  0.0604
 5228SOL    HW127317   3.802   1.068   8.927  0.9652 -0.9543  1.6708
 5228SOL    HW227318   3.924   1.074   8.842  1.2102  0.0167  1.3813
 5229SOL     OW27319   4.193   1.147   5.421  0.0527  0.6651 -0.3089
 5229SOL    HW127320   4.234   1.074   5.467  0.9124  0.1548 -1.9042
 5229SOL    HW227321   4.181   1.099   5.339 -1.2662  0.2230  0.1392
 5230SOL     OW27322   0.630   4.517   3.632 -0.2400 -0.1885  0.0826
 5230SOL    HW127323   0.618   4.512   3.537 -0.6505 -0.1849  0.1373
 5230SOL    HW227324   0.611   4.610   3.640  0.8953  0.0240  0.3453
 5231SOL     OW27325   0.546   4.561  11.059  0.2854  0.1698 -0.4522
 5231SOL    HW127326   0.575   4.628  10.997 -0.0177 -0.2065 -0.9982
 5231SOL    HW227327   0.540   4.601  11.146  1.4818  0.1072 -0.3447
 5232SOL     OW27328   1.965   3.371   8.046 -0.0411 -0.1095  0.2566
 5232SOL    HW127329   1.912   3.409   7.977 -1.4784 -1.9952  0.3473
 5232SOL    HW227330   1.904   3.384   8.119  0.0189 -1.1223  0.4951
 5233SOL     OW27331   3.653   3.222   4.688  0.0162 -0.7237 -0.0252
 5233SOL    HW127332   3.740   3.185   4.701 -0.2792 -1.3544  0.1474
 5233SOL    HW227333   3.672   3.298   4.633 -1.4376  0.1726  0.7009
 5234SOL     OW27334   4.732   3.374  10.708  0.2168  1.0298  0.2654
 5234SOL    HW127335   0.021   3.466  10.717  0.1660  0.6714  4.0240
 5234SOL    HW227336   0.074   3.328  10.681  0.5489  0.9418  1.3563
 5235SOL     OW27337   1.473   2.928   2.889  0.4271  0.1072 -0.2845
 5235SOL    HW127338   1.491   2.986   2.963  0.5558  0.4683 -0.6000
 5235SOL    HW227339   1.427   2.979   2.823  0.4238 -1.1153 -1.2306
 5236SOL     OW27340   0.319   2.798   3.765  0.2068  0.3075 -0.2134
 5236SOL    HW127341   0.376   2.827   3.694  0.2217  1.0698  0.1106
 5236SOL    HW227342   0.370   2.729   3.808 -0.2701 -0.3291 -0.6645
 5237SOL     OW27343   4.640   3.905   6.440 -0.0065  0.2416 -0.5713
 5237SOL    HW127344   4.675   3.837   6.382 -1.7902 -0.4306 -0.8520
 5237SOL    HW227345   4.679   3.980   6.395  0.3397 -1.1979 -2.6902
 5238SOL     OW27346   0.484   4.064   5.176 -0.6755 -0.0606  0.4063
 5238SOL    HW127347   0.523   4.106   5.253 -0.7350 -2.3305  1.6690
 5238SOL    HW227348   0.549   3.994   5.169 -2.9728 -1.9526 -2.1704
 5239SOL     OW27349   0.919   2.412   4.801  0.2010  0.4622  0.0872
 5239SOL    HW127350   0.997   2.406   4.745 -0.1899 -1.0227 -0.2824
 5239SOL    HW227351   0.933   2.503   4.827 -0.8406  1.1943 -1.9340
 5240SOL     OW27352   0.896   0.860   4.426  0.1026 -0.4356 -0.1836
 5240SOL    HW127353   0.911   0.775   4.468  0.9428  0.0562  0.5195
 5240SOL    HW227354   0.801   0.858   4.439  0.3892  1.1243  2.1848
 5241SOL     OW27355   0.062   1.501   4.496 -0.2333 -0.5527  0.3242
 5241SOL    HW127356   4.712   1.510   4.457  0.6216 -1.1881 -1.7743
 5241SOL    HW227357   0.100   1.552   4.424  3.5183 -0.6056  2.2640
 5242SOL     OW27358   4.157   0.932   8.165 -0.0776 -0.0019  0.0333
 5242SOL    HW127359   4.074   0.946   8.119  0.3155  0.8968 -0.4142
 5242SOL    HW227360   4.181   0.844   8.138 -1.3737  0.0349 -1.2422
 5243SOL     OW27361   4.431   3.416   2.889 -0.2270  0.2003  0.4061
 5243SOL    HW127362   4.472   3.502   2.880 -2.7440  1.3432 -0.1175
 5243SOL    HW227363   4.350   3.429   2.839  0.1135  0.0080 -0.1951
 5244SOL     OW27364   4.474   1.369  14.532  0.0585 -0.0975 -0.1001
 5244SOL    HW127365   4.474   1.398  14.441 -1.5685 -0.7979 -0.3383
 5244SOL    HW227366   4.555   1.390  14.578 -1.7570  1.0760  2.5472
 5245SOL     OW27367   3.798   4.063   8.690  0.2478 -0.5646 -0.2554
 5245SOL    HW127368   3.856   3.987   8.703 -2.4222 -2.2454  1.8929
 5245SOL    HW227369   3.861   4.130   8.665 -0.5131 -0.2232 -1.2306
 5246SOL     OW27370   0.133   3.064   3.120  0.0417 -0.2996 -0.5753
 5246SOL    HW127371   0.215   3.061   3.170 -0.0372  1.6938 -0.3414
 5246SOL    HW227372   0.096   3.142   3.161  0.0824 -0.4055 -0.3321
 5247SOL     OW27373   4.629   2.734   9.022 -0.0541 -0.2292  0.0662
 5247SOL    HW127374   4.697   2.802   9.029  0.0396 -0.2432 -0.8035
 5247SOL    HW227375   4.654   2.683   8.946  1.1967 -1.7829  1.5294
 5248SOL     OW27376   2.855   4.074   2.614  0.2685 -0.1243  0.8366
 5248SOL    HW127377   2.770   4.040   2.588  0.0921  1.7450 -0.9942
 5248SOL    HW227378   2.906   3.994   2.607  0.0735  0.0936 -2.9219
 5249SOL     OW27379   2.519   3.486   2.764 -0.6215  0.6752 -0.0392
 5249SOL    HW127380   2.454   3.456   2.827 -1.7837  0.8108 -1.1662
 5249SOL    HW227381   2.505   3.420   2.695  1.0378  0.7960 -0.4966
 5250SOL     OW27382   4.492   4.735   7.062 -0.0732  0.4237  0.3883
 5250SOL    HW127383   4.524   0.084   7.034 -0.5450  1.0457  1.7331
 5250SOL    HW227384   4.486   0.014   7.156  1.2300  3.1737  0.0265
 5251SOL     OW27385   0.230   3.023   2.676 -0.0899  0.2627 -0.5639
 5251SOL    HW127386   0.234   3.068   2.760  0.0942 -2.4974  0.9202
 5251SOL    HW227387   0.139   2.994   2.677 -0.2129  0.6322 -0.9044
 5252SOL     OW27388   2.592   2.200   6.432 -0.1011  0.1688 -0.6346
 5252SOL    HW127389   2.657   2.130   6.443  0.0872  0.0520 -2.4945
 5252SOL    HW227390   2.634   2.237   6.355  1.6611  1.6299  1.0424
 5253SOL     OW27391   3.384   3.275  11.770  0.3696  0.1871 -0.1753
 5253SOL    HW127392   3.444   3.349  11.781 -0.7148  1.2381 -1.3935
 5253SOL    HW227393   3.424   3.226  11.698 -1.2081  3.0486 -2.9865
 5254SOL     OW27394   4.721   1.244   7.546 -0.2082 -0.2033  0.2491
 5254SOL    HW127395   4.650   1.192   7.508  1.4655 -1.7293 -0.7690
 5254SOL    HW227396   0.055   1.181   7.555 -0.0060  0.0946  0.7298
 5255SOL     OW27397   1.288   0.041   3.750 -0.0377 -0.5325  0.1390
 5255SOL    HW127398   1.384   0.049   3.752 -0.2464  1.0822  3.4601
 5255SOL    HW227399   1.282   4.685   3.769  0.3049 -0.8208 -1.1716
 5256SOL     OW27400   2.240   3.722   9.512 -0.1165  0.2419 -0.2789
 5256SOL    HW127401   2.225   3.631   9.485  0.1740  0.3056 -0.6396
 5256SOL    HW227402   2.163   3.733   9.569  0.1822 -1.3180  0.4506
 5257SOL     OW27403   3.122   2.389   0.934  0.2226 -0.1489  0.2519
 5257SOL    HW127404   3.091   2.474   0.965  1.4842 -0.0769  1.3022
 5257SOL    HW227405   3.217   2.397   0.933  0.4600 -3.0196  0.5704
 5258SOL     OW27406   1.667   3.056  16.661 -0.0071  0.2341 -0.3720
 5258SOL    HW127407   1.648   2.966  16.634 -0.6920 -0.2759  1.7724
 5258SOL    HW227408   1.642   3.048  16.753  1.8976  1.0528  0.2123
 5259SOL     OW27409   4.519   1.613  12.369  0.3293 -0.0431 -0.2213
 5259SOL    HW127410   4.528   1.610  12.273 -2.9905  0.7771 -0.5421
 5259SOL    HW227411   4.432   1.577  12.385  0.6840 -0.6636  0.2648
 5260SOL     OW27412   1.915   1.174   1.706  0.2353 -0.6654 -0.1730
 5260SOL    HW127413   1.836   1.146   1.752 -0.9189 -0.9978 -2.3745
 5260SOL    HW227414   1.881   1.203   1.622  2.0653 -1.1427 -1.0835
 5261SOL     OW27415   3.562   0.909   9.211  0.2948 -0.1976 -0.2463
 5261SOL    HW127416   3.479   0.910   9.258  1.4987  0.4112  1.8648
 5261SOL    HW227417   3.591   0.821   9.231  1.2319 -0.1206 -1.2190
 5262SOL     OW27418   2.276   0.323  15.973 -0.0370  0.2854 -0.3118
 5262SOL    HW127419   2.296   0.406  16.017 -0.0586 -0.0558  0.3546
 5262SOL    HW227420   2.241   0.354  15.890 -0.1726  1.1335  0.0530
 5263SOL     OW27421   0.289   0.428   6.531 -0.7415  0.2797 -0.2365
 5263SOL    HW127422   0.210   0.465   6.570 -0.8397 -1.9442  1.6926
 5263SOL    HW227423   0.255   0.351   6.485  1.8523 -1.5524  0.9192
 5264SOL     OW27424   3.419   3.733  11.131 -0.1309 -0.0239 -0.2841
 5264SOL    HW127425   3.420   3.661  11.194 -2.8036 -1.3801 -1.7755
 5264SOL    HW227426   3.500   3.781  11.146 -0.8067  0.8882  0.4805
 5265SOL     OW27427   3.858   1.623   1.689 -0.2515  0.0287 -0.0429
 5265SOL    HW127428   3.794   1.577   1.635 -0.5239 -0.3229  0.5857
 5265SOL    HW227429   3.905   1.661   1.614 -0.0606  0.8586  0.4954
 5266SOL     OW27430   2.399   0.215   1.967 -0.6587  0.0611  0.2576
 5266SOL    HW127431   2.377   0.123   1.978 -1.5401  0.3431  0.8788
 5266SOL    HW227432   2.472   0.202   1.907 -0.8572  0.1714 -0.0068
 5267SOL     OW27433   1.929   2.326   8.164 -0.4702 -0.2311 -0.1236
 5267SOL    HW127434   1.952   2.417   8.184 -3.6165  0.7357 -0.8012
 5267SOL    HW227435   1.921   2.287   8.251 -1.1596  0.5090  0.1396
 5268SOL     OW27436   2.974   0.057  10.702 -0.2285 -0.5022  0.4281
 5268SOL    HW127437   2.940   0.146  10.697  0.5883 -0.2598 -0.6128
 5268SOL    HW227438   2.979   0.053  10.798 -0.7520 -1.1885  0.4332
 5269SOL     OW27439   0.545   0.986  17.732  0.0579  0.3090  0.0323
 5269SOL    HW127440   0.566   0.912   0.043 -2.4216 -0.4532 -0.0490
 5269SOL    HW227441   0.572   0.951  17.647 -0.2075  0.1799  0.0018
 5270SOL     OW27442   1.168   0.205   9.000 -0.4406  0.3862  0.6013
 5270SOL    HW127443   1.124   0.169   9.077 -0.0592 -1.3910 -0.0010
 5270SOL    HW227444   1.260   0.178   9.007 -0.7648 -1.0999 -0.9034
 5271SOL     OW27445   3.157   1.114   3.783 -0.5614 -0.4957  0.3140
 5271SOL    HW127446   3.230   1.110   3.844 -0.4481  0.9837  0.2672
 5271SOL    HW227447   3.092   1.159   3.837  0.6104  0.5711  0.8108
 5272SOL     OW27448   3.597   0.861   4.792  0.8590 -0.1237  0.4399
 5272SOL    HW127449   3.583   0.788   4.853 -0.5151 -0.2165  0.0308
 5272SOL    HW227450   3.650   0.839   4.716  2.2088 -1.0423  1.6421
 5273SOL     OW27451   0.682   1.817   1.772 -0.0041  0.1320  0.4412
 5273SOL    HW127452   0.687   1.735   1.722 -1.2367  0.3934 -0.1206
 5273SOL    HW227453   0.697   1.878   1.700  1.0009 -1.0256 -0.3340
 5274SOL     OW27454   2.372   1.783   1.765 -0.0713  0.1419  0.6022
 5274SOL    HW127455   2.380   1.720   1.836 -1.0306 -0.6747 -0.0102
 5274SOL    HW227456   2.413   1.740   1.691 -0.1968  0.4540  0.3491
 5275SOL     OW27457   2.615   4.393   1.249 -0.0023  0.0079 -0.0164
 5275SOL    HW127458   2.623   4.368   1.341  1.2872  0.7534  0.0656
 5275SOL    HW227459   2.524   4.371   1.228  0.7247 -3.0707 -0.0698
 5276SOL     OW27460   4.736   2.741   9.941  0.0448 -0.2370 -0.5535
 5276SOL    HW127461   4.697   2.655   9.927 -2.0670  0.7173 -0.6219
 5276SOL    HW227462   0.084   2.719   9.904  0.7872  0.8786  0.4944
 5277SOL     OW27463   1.753   3.335   0.850 -0.3492  0.0839  0.1615
 5277SOL    HW127464   1.715   3.270   0.791 -0.4845  1.7762 -1.5961
 5277SOL    HW227465   1.845   3.331   0.826 -0.5086 -0.4925 -0.3314
 5278SOL     OW27466   2.944   4.516  13.781 -0.0685 -0.1708 -0.4354
 5278SOL    HW127467   2.912   4.588  13.835  0.7769 -0.3391  0.2846
 5278SOL    HW227468   2.866   4.461  13.794  0.3747 -0.9496 -1.1397
 5279SOL     OW27469   2.567   2.937   4.932 -0.5336 -0.1468 -0.2977
 5279SOL    HW127470   2.590   3.001   4.865  2.1222 -0.0925  0.6676
 5279SOL    HW227471   2.656   2.918   4.960 -0.9254 -0.9665  0.3782
 5280SOL     OW27472   1.488   4.451   7.754 -0.4181  0.2448 -0.0117
 5280SOL    HW127473   1.442   4.532   7.778 -1.0418  0.4463 -1.8543
 5280SOL    HW227474   1.555   4.458   7.821  0.6012 -2.3903 -0.7682
 5281SOL     OW27475   4.526   0.689   3.309 -0.2415  0.0877  0.0902
 5281SOL    HW127476   4.487   0.733   3.233  2.6668 -1.9318 -2.5721
 5281SOL    HW227477   4.442   0.651   3.336 -2.2794  2.5928 -2.7954
 5282SOL     OW27478   3.903   0.318   7.739  0.5492  0.2682 -0.0295
 5282SOL    HW127479   3.927   0.389   7.680  1.9140 -0.6067 -0.5275
 5282SOL    HW227480   3.961   0.347   7.809  4.0418 -2.8218 -1.6057
 5283SOL     OW27481   3.710   4.438  14.216  0.3730  0.2020 -0.3056
 5283SOL    HW127482   3.738   4.427  14.125  0.3506  1.6495 -0.4899
 5283SOL    HW227483   3.625   4.395  14.219  0.6032 -0.1000  1.5923
 5284SOL     OW27484   2.788   0.391   5.721 -0.0538 -0.2442 -0.0008
 5284SOL    HW127485   2.857   0.326   5.736 -1.2193 -1.9664 -2.1467
 5284SOL    HW227486   2.834   0.456   5.669 -2.1700  0.6624 -0.7216
 5285SOL     OW27487   1.131   2.355   1.946 -0.7802  0.2283  0.2899
 5285SOL    HW127488   1.081   2.403   2.012  1.6620 -0.9636  3.0627
 5285SOL    HW227489   1.128   2.419   1.875  2.5358 -0.7074 -0.6950
 5286SOL     OW27490   2.373   2.450   3.276  0.0405  0.3428 -0.0805
 5286SOL    HW127491   2.282   2.467   3.303 -0.4268 -1.0565 -0.8075
 5286SOL    HW227492   2.419   2.534   3.276 -0.1446  0.4432 -0.6947
 5287SOL     OW27493   0.455   0.758   2.351  0.5200 -0.2636 -0.2318
 5287SOL    HW127494   0.385   0.693   2.362  1.5663 -1.0878  1.5760
 5287SOL    HW227495   0.473   0.763   2.257  1.7822  1.6400  0.1087
 5288SOL     OW27496   1.226   2.293   1.190 -0.5837 -0.8611 -0.2104
 5288SOL    HW127497   1.217   2.375   1.239  1.9606  1.9246 -4.4427
 5288SOL    HW227498   1.203   2.227   1.256  0.1024 -1.2146 -0.3251
 5289SOL     OW27499   0.549   0.505   9.789  0.0392 -0.5939  0.1659
 5289SOL    HW127500   0.466   0.503   9.836 -0.8662 -2.6872 -1.4899
 5289SOL    HW227501   0.522   0.508   9.697 -1.4666 -0.3289  0.6175
 5290SOL     OW27502   0.075   1.737   1.798 -0.2862  0.5914  0.5442
 5290SOL    HW127503   4.737   1.718   1.741  3.0184  1.3491 -4.0303
 5290SOL    HW227504   0.043   1.819   1.836 -2.7741  0.4278 -1.2108
 5291SOL     OW27505   0.823   4.486   6.024 -0.3178 -0.0067 -0.6346
 5291SOL    HW127506   0.832   4.430   6.101 -1.0623  0.2950 -0.3300
 5291SOL    HW227507   0.763   4.554   6.054  0.2523  0.1969  0.0418
 5292SOL     OW27508   1.014   1.648   4.830 -0.0158  0.1024 -0.0748
 5292SOL    HW127509   0.965   1.582   4.880  1.7382 -0.4153  0.9940
 5292SOL    HW227510   1.099   1.651   4.875 -0.1299  0.9532  0.0740
 5293SOL     OW27511   2.964   2.720   7.250  0.0659 -0.3817  0.3206
 5293SOL    HW127512   3.053   2.717   7.284  0.0881 -0.2154  0.2751
 5293SOL    HW227513   2.992   2.694   7.162  1.3641 -0.3923  0.7342
 5294SOL     OW27514   1.125   3.091  11.635  0.6622 -0.4845  0.1739
 5294SOL    HW127515   1.049   3.119  11.584  0.3699 -0.9752  0.3379
 5294SOL    HW227516   1.163   3.008  11.606  1.5940 -0.8610  2.4856
 5295SOL     OW27517   3.377   3.154   2.834 -0.2675 -0.0297  0.3326
 5295SOL    HW127518   3.367   3.061   2.815 -1.9537  0.1289  0.4474
 5295SOL    HW227519   3.468   3.169   2.807 -0.8193  0.5374 -1.1996
 5296SOL     OW27520   2.648   0.281  11.950  0.1528  0.1547 -0.3235
 5296SOL    HW127521   2.593   0.289  11.872 -0.2471 -0.8869 -0.1543
 5296SOL    HW227522   2.585   0.271  12.021 -0.2337  0.9551 -0.5484
 5297SOL     OW27523   1.979   2.839   1.020  0.2434 -0.6049 -0.2072
 5297SOL    HW127524   1.935   2.907   0.969 -0.1772 -1.4085 -0.9165
 5297SOL    HW227525   2.058   2.820   0.969  1.0340 -1.0286  1.1529
 5298SOL     OW27526   3.341   0.163   2.930 -0.1202 -0.2692 -0.2453
 5298SOL    HW127527   3.422   0.205   2.901 -0.5401 -1.0274 -2.5334
 5298SOL    HW227528   3.273   0.216   2.888  1.0795  0.7516 -0.9247
 5299SOL     OW27529   1.379   1.416   7.333  0.3704  0.1679  0.4008
 5299SOL    HW127530   1.297   1.375   7.307 -0.2033  1.6758 -0.1807
 5299SOL    HW227531   1.346   1.468   7.406  0.8612  0.0073  0.7393
 5300SOL     OW27532   1.902   2.879  15.981  0.4937 -0.3559 -0.0506
 5300SOL    HW127533   1.809   2.857  15.970  0.5464 -0.8585  0.5130
 5300SOL    HW227534   1.925   2.831  16.060 -2.3508  0.8332  1.5225
 5301SOL     OW27535   1.393   0.236   2.952 -0.4476 -0.1215  0.0444
 5301SOL    HW127536   1.370   0.228   2.860  1.1760  3.7863 -0.7046
 5301SOL    HW227537   1.384   0.141   2.966 -2.9103 -0.0146 -0.8707
 5302SOL     OW27538   1.136   1.439  13.175 -0.2852 -0.2845 -0.2033
 5302SOL    HW127539   1.159   1.460  13.085  0.1151 -1.4194 -0.3733
 5302SOL    HW227540   1.131   1.523  13.220  0.4610 -0.0219 -0.6135
 5303SOL     OW27541   3.534   4.455  16.663 -0.5297  0.0505 -0.2754
 5303SOL    HW127542   3.519   4.539  16.620  1.4184  2.0456  2.9123
 5303SOL    HW227543   3.587   4.482  16.738 -0.3086 -0.9277 -0.0763
 5304SOL     OW27544   1.832   0.237   3.137  0.5439 -0.7785  0.6993
 5304SOL    HW127545   1.756   0.281   3.174  0.5559 -0.0025 -0.2049
 5304SOL    HW227546   1.808   0.146   3.122  0.5340 -0.9516  1.7686
 5305SOL     OW27547   1.220   4.425   9.490 -0.5636 -0.6124 -0.4310
 5305SOL    HW127548   1.274   4.427   9.411 -1.8412 -0.2194 -1.2959
 5305SOL    HW227549   1.136   4.452   9.453 -1.2778 -0.2723  1.4351
 5306SOL     OW27550   0.646   4.379  17.645 -0.0150  0.1825  0.3158
 5306SOL    HW127551   0.573   4.317  17.650  2.2789 -2.5391  0.3686
 5306SOL    HW227552   0.712   4.327  17.692  1.9782  1.4652 -1.0952
 5307SOL     OW27553   3.589   3.807   8.207  0.4213  0.4017  0.0392
 5307SOL    HW127554   3.583   3.747   8.132 -1.6048  2.1846 -1.2246
 5307SOL    HW227555   3.678   3.842   8.198  1.0075 -1.3218 -1.0452
 5308SOL     OW27556   4.497   4.627   8.699 -0.3299  0.2363  0.0813
 5308SOL    HW127557   4.500   4.645   8.605  0.0521  0.9987  0.2395
 5308SOL    HW227558   4.442   4.549   8.698  0.4169 -0.3299  2.7690
 5309SOL     OW27559   4.121   3.221  13.454 -0.0481  0.1089 -0.5002
 5309SOL    HW127560   4.044   3.266  13.490 -1.3110 -1.7419 -0.8532
 5309SOL    HW227561   4.188   3.237  13.520  1.6790  0.0647 -2.2404
 5310SOL     OW27562   3.798   2.576   8.184  0.2345 -0.2427 -0.4069
 5310SOL    HW127563   3.786   2.600   8.092 -1.2042 -0.6676 -0.3269
 5310SOL    HW227564   3.714   2.558   8.226  0.2635 -0.1877 -0.3250
 5311SOL     OW27565   3.246   3.585   2.477 -0.1204  0.3857  0.4373
 5311SOL    HW127566   3.154   3.603   2.497 -0.6321 -0.5587 -1.0696
 5311SOL    HW227567   3.286   3.672   2.479 -1.1772  0.9387 -1.8404
 5312SOL     OW27568   0.018   2.185  13.641 -0.4312 -0.1339  0.3482
 5312SOL    HW127569   4.700   2.246  13.692  0.1903 -0.6814  1.6760
 5312SOL    HW227570   4.734   2.100  13.680  0.2919 -0.2009  0.5843
 5313SOL     OW27571   1.268   4.120  15.483  0.4685 -0.0285 -0.0118
 5313SOL    HW127572   1.330   4.124  15.555  1.6734  4.6018 -1.2855
 5313SOL    HW227573   1.193   4.153  15.534  0.2675 -0.3826 -0.0812
 5314SOL     OW27574   3.869   0.514   3.702 -0.6009 -0.0903 -0.2788
 5314SOL    HW127575   3.963   0.500   3.691 -0.2950  0.9259  1.0158
 5314SOL    HW227576   3.830   0.466   3.630  2.0653  0.6957 -2.2651
 5315SOL     OW27577   0.365   4.067   4.617 -0.1084 -0.5433 -0.2247
 5315SOL    HW127578   0.366   3.974   4.640 -4.0380 -0.8021 -1.1139
 5315SOL    HW227579   0.401   4.061   4.529 -1.3041 -2.0582 -0.5887
 5316SOL     OW27580   4.693   0.218   6.857  0.5228 -0.2247  0.2586
 5316SOL    HW127581   0.025   0.154   6.837  1.1156  0.1002  1.2582
 5316SOL    HW227582   4.645   0.215   6.775 -0.1057  0.8749  0.5891
 5317SOL     OW27583   2.335   0.213   4.336  0.2737  0.2905  0.1803
 5317SOL    HW127584   2.374   0.195   4.251  0.6896  0.6825  0.2895
 5317SOL    HW227585   2.243   0.204   4.309  0.8151 -1.2002 -1.1654
 5318SOL     OW27586   4.691   2.330  14.988  0.9756  0.3196  0.2812
 5318SOL    HW127587   0.039   2.319  14.945  0.5671  1.0704 -0.7293
 5318SOL    HW227588   4.715   2.394  15.055  0.6767 -0.1444  0.8301
 5319SOL     OW27589   1.714   2.686   5.153 -0.2918 -0.4093 -0.3757
 5319SOL    HW127590   1.631   2.723   5.123  0.1684 -0.6176 -1.9206
 5319SOL    HW227591   1.714   2.731   5.238  0.5754 -1.8473  0.3764
 5320SOL     OW27592   2.258   0.207   7.943  0.7420 -0.0018 -0.8362
 5320SOL    HW127593   2.212   0.179   7.864 -2.4368  0.5981  0.8140
 5320SOL    HW227594   2.326   0.141   7.956  1.5073  0.4250 -2.6821
 5321SOL     OW27595   4.423   2.002   2.422  0.4439 -0.3873  0.0018
 5321SOL    HW127596   4.469   1.944   2.482  0.4287 -0.1343  0.2596
 5321SOL    HW227597   4.382   1.937   2.366  0.7806  1.4381 -2.3762
 5322SOL     OW27598   3.068   2.641   6.556  0.0730  0.2507  0.0050
 5322SOL    HW127599   2.993   2.630   6.614  0.7609 -3.1252  0.2481
 5322SOL    HW227600   3.074   2.555   6.514 -1.7746 -0.1328  0.5082
 5323SOL     OW27601   2.873   1.487   3.967 -0.0125  0.0577 -0.2784
 5323SOL    HW127602   2.826   1.487   3.884  0.0536  0.6168 -0.3141
 5323SOL    HW227603   2.808   1.534   4.020  0.4196  0.3643 -0.0234
 5324SOL     OW27604   3.182   0.886   7.643 -0.3188 -0.3324  0.0213
 5324SOL    HW127605   3.275   0.892   7.666 -0.0503  0.6493 -1.2731
 5324SOL    HW227606   3.141   0.926   7.719  0.1651  2.0418 -0.9579
 5325SOL     OW27607   3.920   1.384  16.323 -0.3729 -0.0943  0.0513
 5325SOL    HW127608   3.915   1.368  16.229 -1.2207  0.5244  0.0031
 5325SOL    HW227609   3.908   1.295  16.356  0.4169  0.0383  0.7012
 5326SOL     OW27610   3.666   2.488   8.735 -0.2372 -0.1052 -0.2624
 5326SOL    HW127611   3.669   2.446   8.649  0.6823 -1.4261  0.4152
 5326SOL    HW227612   3.577   2.464   8.760  0.9604 -2.3020  1.9170
 5327SOL     OW27613   3.357   4.272   7.183 -0.5708  0.2828  0.6644
 5327SOL    HW127614   3.432   4.288   7.127 -1.8107 -0.3085 -1.1541
 5327SOL    HW227615   3.388   4.182   7.195 -0.7813 -0.1333 -1.9575
 5328SOL     OW27616   4.297   0.907   8.501 -0.1946  1.0085  0.2601
 5328SOL    HW127617   4.380   0.933   8.541 -0.8814  2.8781  0.4722
 5328SOL    HW227618   4.302   0.812   8.488  0.6626  1.4793 -3.0381
 5329SOL     OW27619   2.163   3.605   9.197 -0.0368 -0.1043  0.0391
 5329SOL    HW127620   2.199   3.583   9.112  0.0123  1.7682 -0.4247
 5329SOL    HW227621   2.068   3.604   9.187 -0.1126 -1.4283  0.8929
 5330SOL     OW27622   4.348   1.919   0.631  0.0141  0.0197  0.1097
 5330SOL    HW127623   4.370   1.998   0.582  1.6345 -0.6103 -0.1627
 5330SOL    HW227624   4.400   1.847   0.597  0.6768  0.6230 -0.1517
 5331SOL     OW27625   3.495   3.283  10.731  0.2534  0.0109 -0.5104
 5331SOL    HW127626   3.541   3.255  10.652 -0.5340  2.2409 -1.7519
 5331SOL    HW227627   3.455   3.366  10.706  1.1519  0.0440 -1.8261
 5332SOL     OW27628   4.667   4.146   5.868 -0.3937  0.2058 -0.4225
 5332SOL    HW127629   4.581   4.139   5.909 -0.8623  2.0474 -1.1155
 5332SOL    HW227630   4.647   4.106   5.784 -0.7737  1.0502 -0.7319
 5333SOL     OW27631   2.850   0.724  14.085 -0.2376  0.2821 -0.5418
 5333SOL    HW127632   2.886   0.664  14.150 -0.1850 -1.4775 -2.2029
 5333SOL    HW227633   2.758   0.721  14.112  0.0808  0.3478  0.5462
 5334SOL     OW27634   2.497   1.401   3.015  0.0392  0.5526  0.0171
 5334SOL    HW127635   2.555   1.461   2.969 -0.6801  3.2186  2.5922
 5334SOL    HW227636   2.419   1.421   2.964 -0.1443  0.9405  0.4446
 5335SOL     OW27637   4.707   1.381   4.192  0.1022 -0.4857 -0.1555
 5335SOL    HW127638   4.715   1.374   4.097  1.8165  5.0526 -0.3983
 5335SOL    HW227639   0.043   1.440   4.208  0.3294 -0.6816 -0.4500
 5336SOL     OW27640   0.901   4.360   3.365  0.1754  0.1595  0.5173
 5336SOL    HW127641   0.905   4.303   3.288 -2.5348  1.1837 -0.3704
 5336SOL    HW227642   0.918   4.292   3.430 -0.0049  0.3116  0.7233
 5337SOL     OW27643   4.131   4.447   5.799  0.2252  0.2665  0.1556
 5337SOL    HW127644   4.168   4.471   5.714  3.2590  0.0531  1.4214
 5337SOL    HW227645   4.191   4.379   5.830  0.6262  0.5753  0.0492
 5338SOL     OW27646   4.350   0.607   8.450 -0.2868  0.0781  0.0722
 5338SOL    HW127647   4.367   0.519   8.485 -0.3523  0.2238  0.4724
 5338SOL    HW227648   4.439   0.641   8.456  0.1243 -0.8595 -0.6714
 5339SOL     OW27649   4.056   1.670   2.551 -0.3156  0.2613 -0.7230
 5339SOL    HW127650   4.022   1.607   2.614 -2.4690  1.3459 -0.8316
 5339SOL    HW227651   4.063   1.602   2.483  2.2644 -0.3416  0.1562
 5340SOL     OW27652   0.034   1.397   0.513 -0.1664 -0.0998 -0.4558
 5340SOL    HW127653   0.083   1.470   0.552 -0.1559 -0.4757  0.2234
 5340SOL    HW227654   4.682   1.424   0.536  0.8701  0.2454  3.1152
 5341SOL     OW27655   3.174   1.898  10.844  0.0600  0.2909  0.6020
 5341SOL    HW127656   3.089   1.929  10.876 -0.4622 -0.4754 -0.0234
 5341SOL    HW227657   3.172   1.915  10.749 -0.9272 -3.8633 -0.1205
 5342SOL     OW27658   2.632   4.703   5.672 -0.3251  0.1472  0.1556
 5342SOL    HW127659   2.613   4.642   5.743 -1.1072  0.4548  0.2082
 5342SOL    HW227660   2.589   4.660   5.598  1.9925  0.5321 -1.4232
 5343SOL     OW27661   3.224   3.094  14.730 -0.6841  0.2636 -0.4826
 5343SOL    HW127662   3.196   3.003  14.742 -2.7214  0.8530 -0.8251
 5343SOL    HW227663   3.156   3.120  14.668  0.7938  0.2894 -2.0846
 5344SOL     OW27664   4.730   0.058   9.471  0.0087 -0.1057  0.0741
 5344SOL    HW127665   0.028   0.100   9.549 -0.2730  3.8832 -1.9779
 5344SOL    HW227666   0.072   0.019   9.433 -0.6021 -3.1182  1.8480
 5345SOL     OW27667   2.312   2.970   8.498 -0.3375 -0.9500  0.3966
 5345SOL    HW127668   2.308   3.064   8.482 -0.0819 -1.1472 -0.8749
 5345SOL    HW227669   2.328   2.928   8.413  0.7245  0.1620  0.0433
 5346SOL     OW27670   0.462   3.501   1.873  0.2498  0.2344  0.0158
 5346SOL    HW127671   0.516   3.556   1.816 -1.2357  0.8623 -0.7569
 5346SOL    HW227672   0.523   3.434   1.904 -0.7754 -0.8432 -0.3200
 5347SOL     OW27673   3.006   3.694   3.288  0.3410  0.0302 -0.7805
 5347SOL    HW127674   2.948   3.771   3.287  2.8727  1.9481  0.1045
 5347SOL    HW227675   3.017   3.679   3.381  0.7933  0.3733 -0.7811
 5348SOL     OW27676   4.179   0.183  11.726 -0.3846 -0.2652  0.0064
 5348SOL    HW127677   4.162   0.277  11.735 -0.0680 -0.1673 -0.3957
 5348SOL    HW227678   4.095   0.144  11.702 -1.3918  1.0151  1.4748
 5349SOL     OW27679   1.362   1.716   1.805  0.2441  0.5833  0.6731
 5349SOL    HW127680   1.396   1.783   1.864 -0.0803  1.1981  0.1642
 5349SOL    HW227681   1.267   1.725   1.815 -0.0371  0.1706 -1.7443
 5350SOL     OW27682   2.854   3.726   6.949  0.2769 -0.0803  0.3993
 5350SOL    HW127683   2.786   3.742   7.014  0.6888  0.9536  0.5655
 5350SOL    HW227684   2.836   3.640   6.910  1.6955 -0.7001  1.1284
 5351SOL     OW27685   3.108   4.162   8.581 -0.4858  0.2016 -0.9374
 5351SOL    HW127686   3.015   4.138   8.581 -0.4521  0.1198  2.1423
 5351SOL    HW227687   3.144   4.122   8.660 -0.2468  0.4436 -0.9255
 5352SOL     OW27688   3.845   0.409   9.296 -0.1731  0.4813 -0.0851
 5352SOL    HW127689   3.897   0.488   9.308  1.2037 -0.5175  0.5008
 5352SOL    HW227690   3.888   0.381   9.215  0.7169  1.1065  0.1801
 5353SOL     OW27691   1.900   0.505   0.936  0.3833  0.2336  0.0870
 5353SOL    HW127692   1.873   0.542   0.852 -0.1603 -2.1952 -0.8007
 5353SOL    HW227693   1.954   0.430   0.911  1.5107  0.7160  1.0777
 5354SOL     OW27694   4.432   0.477  11.282  0.4723 -0.3110  0.0038
 5354SOL    HW127695   4.361   0.541  11.283  0.6050 -0.1211 -2.3523
 5354SOL    HW227696   4.377   0.403  11.255  0.2015 -0.5611  1.2550
 5355SOL     OW27697   0.297   3.441   8.107  0.4045 -0.5599  0.0668
 5355SOL    HW127698   0.366   3.467   8.169  0.6956 -1.3943  0.0824
 5355SOL    HW227699   0.341   3.408   8.028 -0.1935 -0.2526 -0.3940
 5356SOL     OW27700   2.147   2.628  15.596  0.2806  0.0021 -0.5067
 5356SOL    HW127701   2.226   2.620  15.543 -1.5294 -2.6124 -2.7975
 5356SOL    HW227702   2.163   2.708  15.647 -1.0903  0.1713 -0.3387
 5357SOL     OW27703   3.942   2.004   2.388 -0.4267 -0.2849 -0.0104
 5357SOL    HW127704   3.884   2.078   2.407  0.6677  0.2433  1.3016
 5357SOL    HW227705   3.956   1.974   2.478 -0.5171 -0.9515 -0.2263
 5358SOL     OW27706   1.837   0.025   4.859 -0.5180  0.4941 -0.2943
 5358SOL    HW127707   1.867   4.672   4.853  0.1519  0.6893  0.1227
 5358SOL    HW227708   1.744   0.016   4.838 -0.1675 -0.6407 -1.3402
 5359SOL     OW27709   3.677   0.319  15.344  0.2941 -0.1952 -0.4756
 5359SOL    HW127710   3.759   0.284  15.378  0.1515  0.7081  0.8222
 5359SOL    HW227711   3.681   0.301  15.250 -2.9194 -0.5119 -0.5631
 5360SOL     OW27712   3.258   1.538   4.526  0.6265 -0.1862 -0.0120
 5360SOL    HW127713   3.205   1.485   4.585  0.6243 -0.5208 -0.3144
 5360SOL    HW227714   3.191   1.545   4.458 -1.0764  2.0750  1.9215
 5361SOL     OW27715   2.826   1.246   8.018  0.2736 -0.0294 -0.6694
 5361SOL    HW127716   2.811   1.339   8.004  0.5338  0.1562  0.2436
 5361SOL    HW227717   2.897   1.230   7.956 -0.2066  0.5581 -1.3619
 5362SOL     OW27718   3.862   0.408   5.803 -0.0019  0.1223 -0.4866
 5362SOL    HW127719   3.831   0.424   5.714  0.7743  0.9127 -0.6091
 5362SOL    HW227720   3.799   0.464   5.848 -1.6163 -1.5606 -0.6104
 5363SOL     OW27721   0.230   2.592   4.948  0.0719 -0.1406 -0.0851
 5363SOL    HW127722   0.308   2.644   4.971  0.2414 -0.0550 -0.8575
 5363SOL    HW227723   0.262   2.502   4.952 -0.7669 -0.3633  1.9185
 5364SOL     OW27724   0.740   4.261   1.100 -0.5945  0.5012  0.7662
 5364SOL    HW127725   0.803   4.279   1.170 -1.2431 -0.5397  1.6145
 5364SOL    HW227726   0.659   4.242   1.148 -1.1075  0.0626 -0.2736
 5365SOL     OW27727   3.267   2.400   7.164  0.0206  0.5590  0.1581
 5365SOL    HW127728   3.284   2.469   7.228  1.2210  0.4648 -0.0645
 5365SOL    HW227729   3.185   2.370   7.203  1.0041  0.4913  2.1936
 5366SOL     OW27730   1.875   1.454   6.576 -0.0281 -0.5488 -0.0333
 5366SOL    HW127731   1.851   1.434   6.486 -0.6390  0.0046  0.0099
 5366SOL    HW227732   1.929   1.532   6.562  0.4156 -0.9732 -0.6840
 5367SOL     OW27733   1.660   1.920  11.600  0.1315 -0.0903  0.0531
 5367SOL    HW127734   1.636   1.873  11.680  2.6970 -0.3078  0.7154
 5367SOL    HW227735   1.600   1.995  11.608 -0.0178 -0.0113 -1.8586
 5368SOL     OW27736   3.934   3.339   4.828  0.1334 -0.4768  0.1046
 5368SOL    HW127737   3.984   3.345   4.746 -1.3995  1.1311 -0.7160
 5368SOL    HW227738   3.888   3.255   4.830  1.1395 -1.0401 -0.3632
 5369SOL     OW27739   1.989   2.199   1.640 -0.2634  0.0752  0.3967
 5369SOL    HW127740   1.962   2.110   1.659  0.3710  0.2521  2.1005
 5369SOL    HW227741   2.067   2.223   1.690 -0.1438 -0.9501  0.7088
 5370SOL     OW27742   1.469   0.722   0.841  0.9317  0.3251  0.5233
 5370SOL    HW127743   1.505   0.730   0.753 -0.7788 -0.0075 -0.1956
 5370SOL    HW227744   1.392   0.673   0.811  2.6481 -1.7380 -0.5146
 5371SOL     OW27745   2.309   0.598   6.412  0.7142 -0.0263  0.1471
 5371SOL    HW127746   2.355   0.678   6.439  1.0053  0.2191 -1.0839
 5371SOL    HW227747   2.311   0.608   6.317  2.5934 -1.2297  0.0674
 5372SOL     OW27748   1.465   2.238   8.632  0.8127 -0.2596 -0.2368
 5372SOL    HW127749   1.475   2.308   8.567  0.0109 -0.4977 -0.6192
 5372SOL    HW227750   1.518   2.171   8.590  2.0755  1.0822 -0.7881
 5373SOL     OW27751   3.585   0.259   3.684  0.3968 -0.1909  0.0802
 5373SOL    HW127752   3.614   0.282   3.772 -2.4779  0.2188  0.9321
 5373SOL    HW227753   3.643   0.307   3.625  0.8472 -1.7893 -0.7903
 5374SOL     OW27754   4.735   3.005   8.463  0.1358 -0.4024  0.1256
 5374SOL    HW127755   0.019   2.920   8.503  0.8681  0.4169  1.4742
 5374SOL    HW227756   0.059   3.059   8.513 -1.7270 -0.6017  2.6111
 5375SOL     OW27757   3.811   2.348   7.211 -0.3518  0.3199  0.4079
 5375SOL    HW127758   3.758   2.391   7.145  0.0320  0.6292  0.3071
 5375SOL    HW227759   3.888   2.332   7.157 -0.7036 -2.4642  0.7102
 5376SOL     OW27760   1.174   1.289   7.177 -0.1173 -0.1682  0.3354
 5376SOL    HW127761   1.147   1.198   7.188 -1.4084  0.0702 -0.8866
 5376SOL    HW227762   1.097   1.325   7.133  0.5711  0.3407 -0.4458
 5377SOL     OW27763   1.683   3.075   7.041 -0.8542 -0.4263  0.5248
 5377SOL    HW127764   1.731   3.131   6.979 -0.7930 -0.4382  0.5605
 5377SOL    HW227765   1.722   2.991   7.018 -0.3423  0.0061 -0.2123
 5378SOL     OW27766   4.183   0.261  10.111  0.0173 -0.0214  0.0935
 5378SOL    HW127767   4.250   0.291  10.172  0.2439 -0.1183 -0.1078
 5378SOL    HW227768   4.224   0.288  10.029 -0.3762 -0.1288 -0.1408
 5379SOL     OW27769   2.577   2.956  12.147  0.1309 -0.2794 -0.2865
 5379SOL    HW127770   2.657   3.001  12.176  0.6744 -1.2299 -0.3169
 5379SOL    HW227771   2.608   2.922  12.063 -2.3454  1.7077 -1.9900
 5380SOL     OW27772   0.419   1.113   3.707  0.7904  0.2291  0.1497
 5380SOL    HW127773   0.502   1.095   3.751  1.6804 -0.0434 -1.6191
 5380SOL    HW227774   0.359   1.135   3.778 -0.5979  0.4630 -1.0875
 5381SOL     OW27775   1.688   4.226   7.304  0.6427 -0.0417 -0.5571
 5381SOL    HW127776   1.724   4.148   7.262 -0.2793 -0.6647 -0.1974
 5381SOL    HW227777   1.642   4.184   7.377  1.0429 -0.5382 -0.5957
 5382SOL     OW27778   4.702   2.312   5.585  0.0835 -0.1274  0.2511
 5382SOL    HW127779   4.732   2.236   5.535 -2.6728 -0.3744 -1.0425
 5382SOL    HW227780   4.710   2.387   5.526 -2.7720 -0.0935 -0.0994
 5383SOL     OW27781   0.727   0.378   5.966 -0.0983 -0.2936  0.0344
 5383SOL    HW127782   0.737   0.341   6.053  1.3419  0.5039  0.2113
 5383SOL    HW227783   0.632   0.385   5.963 -0.0482  0.7649  1.0198
 5384SOL     OW27784   2.538   3.354   6.579 -0.1156 -0.0357 -0.6257
 5384SOL    HW127785   2.615   3.410   6.593 -0.1994  0.1175 -0.7866
 5384SOL    HW227786   2.509   3.377   6.491  0.8932  0.2629 -0.8810
 5385SOL     OW27787   4.306   0.268   7.627  0.0737  0.4113  0.4866
 5385SOL    HW127788   4.399   0.289   7.630  0.3976 -1.0157  0.0464
 5385SOL    HW227789   4.298   0.276   7.722  0.8787  0.3112  0.5618
 5386SOL     OW27790   3.537   0.602   2.090  0.2682 -0.3810 -0.2148
 5386SOL    HW127791   3.560   0.685   2.130 -1.1085 -0.1951  0.1836
 5386SOL    HW227792   3.626   0.570   2.074  0.3307 -1.6253  2.5614
 5387SOL     OW27793   2.164   2.299   7.956 -0.3117 -0.7938 -0.0821
 5387SOL    HW127794   2.156   2.216   7.908  1.5615  0.4587 -2.5452
 5387SOL    HW227795   2.105   2.286   8.030 -0.7759 -2.0685 -0.6802
 5388SOL     OW27796   2.540   0.705  11.987 -0.2368  0.2148  0.1567
 5388SOL    HW127797   2.540   0.748  11.902 -1.4727 -0.5816 -0.2530
 5388SOL    HW227798   2.506   0.771  12.047  1.8195  0.4823  1.0205
 5389SOL     OW27799   1.526   2.729   8.787 -0.1659 -0.1665 -0.1134
 5389SOL    HW127800   1.503   2.820   8.768  1.2439  0.1877 -0.1272
 5389SOL    HW227801   1.438   2.693   8.796  0.8858 -3.4800 -2.9672
 5390SOL     OW27802   3.168   3.452   1.859  0.1526  0.5280  0.1905
 5390SOL    HW127803   3.186   3.507   1.783 -1.9292  0.4167 -0.3774
 5390SOL    HW227804   3.094   3.402   1.825  1.9669 -1.5616 -0.6981
 5391SOL     OW27805   1.195   3.853   2.418  0.0312  0.1879  0.2035
 5391SOL    HW127806   1.201   3.759   2.434  1.7187  0.3833  0.8033
 5391SOL    HW227807   1.167   3.845   2.327  1.7100  1.1513 -0.4085
 5392SOL     OW27808   2.106   1.319   6.211 -0.2110  0.5933  0.4469
 5392SOL    HW127809   2.183   1.365   6.244  1.8786 -2.9543  0.5577
 5392SOL    HW227810   2.122   1.227   6.232 -2.2866 -0.5642 -3.0498
 5393SOL     OW27811   3.471   2.391   6.669 -0.1327  0.9013  0.3783
 5393SOL    HW127812   3.476   2.370   6.762  0.0012 -1.8161 -0.2433
 5393SOL    HW227813   3.428   2.476   6.675  1.4917  1.9104 -1.9578
 5394SOL     OW27814   2.772   2.739   5.773 -0.1217 -0.1832 -0.2226
 5394SOL    HW127815   2.767   2.646   5.753  1.6538 -0.5304  0.9293
 5394SOL    HW227816   2.865   2.756   5.787  0.1575 -0.9539 -1.1767
 5395SOL     OW27817   3.998   0.385  15.135  0.1957 -0.0558  0.8603
 5395SOL    HW127818   3.958   0.463  15.173  2.2202  1.0903  0.6143
 5395SOL    HW227819   3.977   0.322  15.204 -3.6321  0.2620 -0.0069
 5396SOL     OW27820   4.228   3.096  11.916  0.2439  0.0496  0.0445
 5396SOL    HW127821   4.251   3.187  11.934  0.5510  0.2297 -1.2668
 5396SOL    HW227822   4.266   3.092  11.828 -1.7955  1.0683 -0.8714
 5397SOL     OW27823   0.924   0.041   9.461  0.5849 -0.1728 -0.0351
 5397SOL    HW127824   0.832   0.024   9.437  0.3020  0.5476  0.5339
 5397SOL    HW227825   0.947   4.715   9.530  0.5781  0.9699  1.0166
 5398SOL     OW27826   3.961   0.043   5.609  0.6556  0.2112  0.1632
 5398SOL    HW127827   3.895   0.010   5.548 -0.7410  2.0644  0.7203
 5398SOL    HW227828   3.910   0.076   5.683 -0.4152  1.1538 -1.0029
 5399SOL     OW27829   2.767   4.684  12.390 -0.0796  0.6626  0.1962
 5399SOL    HW127830   2.829   0.020  12.382  1.5852 -0.9678 -1.4857
 5399SOL    HW227831   2.795   4.651  12.475 -1.4268 -2.4861 -0.6033
 5400SOL     OW27832   3.341   1.262   6.219  0.1717 -0.0505 -0.7765
 5400SOL    HW127833   3.311   1.217   6.298 -0.2143  2.9448  0.7732
 5400SOL    HW227834   3.436   1.271   6.226  0.0132  1.8333 -1.0299
 5401SOL     OW27835   2.497   4.178   4.963 -0.1929  0.3957 -0.0315
 5401SOL    HW127836   2.528   4.153   5.050  4.8518  1.8710 -1.4422
 5401SOL    HW227837   2.535   4.112   4.906 -2.4547 -0.8258 -0.1563
 5402SOL     OW27838   0.062   1.158   0.217 -0.2976 -0.2858  0.1816
 5402SOL    HW127839   0.026   1.181   0.131  2.2684  1.8659 -0.2862
 5402SOL    HW227840   0.145   1.117   0.195  0.5892  1.2426  0.6948
 5403SOL     OW27841   0.445   0.204   9.000 -0.1635  0.0714  0.0261
 5403SOL    HW127842   0.437   0.252   9.082  1.3193  1.4655 -0.6480
 5403SOL    HW227843   0.472   0.276   8.943 -2.8339  2.1343  1.4179
 5404SOL     OW27844   4.595   0.805   4.363  0.4417  0.2870  0.0281
 5404SOL    HW127845   4.680   0.804   4.320 -0.8779  0.1500 -2.5492
 5404SOL    HW227846   4.559   0.717   4.355  2.3759 -0.4868 -0.1473
 5405SOL     OW27847   1.739   2.906   7.927 -0.2451  0.6287 -0.1302
 5405SOL    HW127848   1.802   2.933   7.994  0.1356  0.5232 -0.4429
 5405SOL    HW227849   1.797   2.866   7.862 -1.5833  1.7839 -2.0225
 5406SOL     OW27850   1.772   4.637  14.735 -0.1303 -0.5692 -0.1981
 5406SOL    HW127851   1.770   4.708  14.672 -0.2000  0.4537  0.9525
 5406SOL    HW227852   1.736   4.566  14.682  1.9542 -0.0688 -2.2775
 5407SOL     OW27853   2.098   0.121  16.794 -0.1333  0.2002 -0.1431
 5407SOL    HW127854   2.181   0.155  16.827  1.3464 -3.5743 -0.0688
 5407SOL    HW227855   2.045   0.196  16.822  0.9613  0.7154  0.5740
 5408SOL     OW27856   3.169   1.214   4.480 -0.0877  0.7777 -0.0479
 5408SOL    HW127857   3.152   1.283   4.544  0.9316  1.2852 -0.3279
 5408SOL    HW227858   3.097   1.154   4.503  0.2944  0.1206 -0.5613
 5409SOL     OW27859   4.258   2.794  14.838 -0.1632 -0.0530 -0.1584
 5409SOL    HW127860   4.209   2.718  14.870  2.0490 -1.3774  0.1070
 5409SOL    HW227861   4.260   2.777  14.744 -0.4322 -1.6362  0.1190
 5410SOL     OW27862   3.716   2.044   6.089 -0.7014  0.2545  0.2678
 5410SOL    HW127863   3.700   1.950   6.096 -1.9565  0.4007 -0.6861
 5410SOL    HW227864   3.779   2.039   6.017 -0.9457  0.2910  0.0536
 5411SOL     OW27865   2.470   3.008   0.255 -0.2004 -0.2215 -0.5701
 5411SOL    HW127866   2.446   2.987   0.164 -1.5565 -1.5851  0.1081
 5411SOL    HW227867   2.555   3.051   0.241 -0.5386  0.4403 -0.6076
 5412SOL     OW27868   4.132   3.646   1.865 -0.4240  0.2946 -0.0055
 5412SOL    HW127869   4.123   3.579   1.933 -2.5400  0.2926 -0.3003
 5412SOL    HW227870   4.148   3.729   1.911  0.3288  1.4600 -2.3681
 5413SOL     OW27871   1.885   2.103   1.995  0.0138  0.8496 -0.4706
 5413SOL    HW127872   1.832   2.091   1.916  1.3966  0.9549 -1.4046
 5413SOL    HW227873   1.875   2.196   2.015 -2.3293  0.6179 -0.4930
 5414SOL     OW27874   2.383   0.953  10.918  0.3148 -0.1734  0.3120
 5414SOL    HW127875   2.443   0.906  10.976 -0.0797  1.4659  2.0266
 5414SOL    HW227876   2.351   0.883  10.861  0.5285 -0.1273  0.1330
 5415SOL     OW27877   3.627   0.553  15.446  0.3032 -0.1437  0.0098
 5415SOL    HW127878   3.611   0.549  15.540 -1.0143  0.5140 -0.1825
 5415SOL    HW227879   3.620   0.462  15.416  0.2326  0.0069 -0.4299
 5416SOL     OW27880   3.461   3.997   5.040  0.5222 -0.3470 -0.1457
 5416SOL    HW127881   3.460   4.050   5.120  1.1411 -0.8266  0.1869
 5416SOL    HW227882   3.420   4.066   4.989 -1.0975  0.2091  1.9054
 5417SOL     OW27883   0.222   2.574  11.103 -0.2144  0.5440  0.1566
 5417SOL    HW127884   0.275   2.620  11.038 -2.1138  2.8585  0.2385
 5417SOL    HW227885   0.236   2.632  11.178  1.5150 -2.0212  1.8478
 5418SOL     OW27886   2.546   0.928   7.379  0.3053  0.5834 -0.0553
 5418SOL    HW127887   2.464   0.974   7.396  0.2262  1.0687 -1.8277
 5418SOL    HW227888   2.608   1.000   7.373  1.6364 -0.4255  1.5974
 5419SOL     OW27889   4.177   2.025   4.366  0.0903  0.4005 -0.0613
 5419SOL    HW127890   4.206   1.971   4.293 -0.1107 -1.2012  1.0375
 5419SOL    HW227891   4.226   1.978   4.434 -0.2371 -0.6386 -0.5375
 5420SOL     OW27892   4.069   3.026   8.879 -0.5674  0.8068  0.6513
 5420SOL    HW127893   4.085   3.062   8.792 -1.3061 -1.0317 -0.2405
 5420SOL    HW227894   4.157   3.009   8.912 -0.6708  2.8248  1.9481
 5421SOL     OW27895   0.225   4.166   3.674  0.3949  0.2180 -0.8413
 5421SOL    HW127896   0.149   4.120   3.709  1.5504 -0.5091  0.6887
 5421SOL    HW227897   0.276   4.103   3.625 -1.1147 -0.2568 -1.8123
 5422SOL     OW27898   2.602   0.775   7.939  0.4896  0.3666 -0.4317
 5422SOL    HW127899   2.568   0.824   8.014 -1.0741  1.9102 -2.1431
 5422SOL    HW227900   2.666   0.714   7.975  0.2682  0.4001  0.0191
 5423SOL     OW27901   4.713   2.259   9.193 -0.0441 -0.0082  0.0760
 5423SOL    HW127902   4.688   2.277   9.102  0.9120  2.8254  0.3628
 5423SOL    HW227903   0.064   2.296   9.192 -0.3868  0.7583 -1.5173
 5424SOL     OW27904   2.403   3.341   4.369  0.0248 -0.3861 -0.0195
 5424SOL    HW127905   2.425   3.255   4.335 -1.2679 -1.7089  2.5138
 5424SOL    HW227906   2.310   3.319   4.378 -0.1442 -0.1706 -1.2270
 5425SOL     OW27907   0.193   3.696   8.091 -0.5716  0.1441  0.3251
 5425SOL    HW127908   0.098   3.706   8.098 -0.6620 -0.4541 -0.0300
 5425SOL    HW227909   0.203   3.608   8.127 -1.5761  0.4897  1.4470
 5426SOL     OW27910   3.826   2.443  12.252  0.3244 -0.6211  0.3237
 5426SOL    HW127911   3.796   2.391  12.178 -1.9343 -0.1424  0.9133
 5426SOL    HW227912   3.780   2.409  12.329 -1.7374  0.4574 -0.4189
 5427SOL     OW27913   3.128   1.822   1.186  0.2320 -0.0853  0.6092
 5427SOL    HW127914   3.092   1.879   1.117 -1.1471 -0.8215  0.7152
 5427SOL    HW227915   3.049   1.785   1.225  0.2590  1.6972  2.3615
 5428SOL     OW27916   4.268   3.785   6.127  0.1053 -0.1789 -0.3822
 5428SOL    HW127917   4.271   3.694   6.155  0.6782 -0.6428 -1.9590
 5428SOL    HW227918   4.347   3.786   6.073 -0.9251 -3.0140 -1.9304
 5429SOL     OW27919   0.270   0.252   9.832  0.1224 -0.2569  0.3737
 5429SOL    HW127920   0.273   0.344   9.858  1.0703 -0.0663 -0.3875
 5429SOL    HW227921   0.220   0.209   9.901 -0.5687 -0.4021 -0.2145
 5430SOL     OW27922   2.309   3.087   2.207  0.5241  0.2628  0.0619
 5430SOL    HW127923   2.351   3.038   2.137  1.3707  1.8061 -0.5234
 5430SOL    HW227924   2.312   3.039   2.290 -0.0055  1.1809  0.6132
 5431SOL     OW27925   0.419   2.791   5.051  0.1762  0.2602 -0.6341
 5431SOL    HW127926   0.438   2.768   5.142  0.3961 -0.6044 -0.9012
 5431SOL    HW227927   0.349   2.856   5.057  0.0093  0.0829 -0.6819
 5432SOL     OW27928   0.841   0.122   4.581 -0.4489  0.4400 -0.4717
 5432SOL    HW127929   0.868   0.169   4.502 -1.5826 -0.1138 -1.1954
 5432SOL    HW227930   0.922   0.076   4.601 -0.7472 -1.1488 -2.9093
 5433SOL     OW27931   4.504   4.192   9.402  0.0070  1.2106  0.1199
 5433SOL    HW127932   4.581   4.230   9.445  1.3889  0.5534 -1.7701
 5433SOL    HW227933   4.433   4.231   9.453  1.1816  1.8418  1.2931
 5434SOL     OW27934   1.437   1.254   9.632 -0.0601  0.0039  0.0477
 5434SOL    HW127935   1.342   1.264   9.622  0.3096  2.6010 -0.9074
 5434SOL    HW227936   1.461   1.343   9.658 -0.8303  0.5441 -1.0341
 5435SOL     OW27937   0.427   3.083   4.722 -0.1237 -0.2459 -0.3962
 5435SOL    HW127938   0.513   3.101   4.684  1.6339 -0.1421  3.6062
 5435SOL    HW227939   0.442   3.014   4.787 -0.1782  0.9447  0.8756
 5436SOL     OW27940   4.320   0.010   4.960  0.0567  0.0436 -0.0017
 5436SOL    HW127941   4.323   0.020   5.056  1.8283 -1.0438  0.0503
 5436SOL    HW227942   4.362   4.663   4.942  2.5804  1.3606 -0.2054
 5437SOL     OW27943   0.277   1.402  15.145 -0.0691 -0.8737  0.2984
 5437SOL    HW127944   0.205   1.419  15.084 -0.0793  0.0833  0.5679
 5437SOL    HW227945   0.351   1.387  15.086 -0.2947  1.8495 -0.7106
 5438SOL     OW27946   4.205   2.603  10.722  0.6375 -0.0462 -0.1243
 5438SOL    HW127947   4.257   2.619  10.643  0.4656  0.0356 -0.2199
 5438SOL    HW227948   4.173   2.517  10.696 -1.8258  0.7325  0.4054
 5439SOL     OW27949   0.005   3.855   7.616  0.1574 -0.0885 -0.0943
 5439SOL    HW127950   0.097   3.870   7.591  0.1612  0.1842  0.0787
 5439SOL    HW227951   4.705   3.882   7.532 -2.5572 -1.6225  0.6157
 5440SOL     OW27952   2.882   4.103   5.306 -0.4471  0.2053  0.3756
 5440SOL    HW127953   2.896   4.196   5.289  0.4948 -0.2784 -1.4839
 5440SOL    HW227954   2.967   4.076   5.271 -1.1208 -2.6647  0.9463
 5441SOL     OW27955   4.672   4.718   5.638 -0.2165  0.1167  0.3530
 5441SOL    HW127956   4.649   4.626   5.629  1.5048 -0.1972 -0.8318
 5441SOL    HW227957   4.612   0.006   5.709 -0.0226  0.0996  0.5224
 5442SOL     OW27958   3.191   0.769   7.402  0.3282 -0.1447  0.4462
 5442SOL    HW127959   3.212   0.808   7.487 -0.6887  3.5267 -0.9706
 5442SOL    HW227960   3.110   0.818   7.387 -0.9390 -2.4002 -0.0381
 5443SOL     OW27961   2.464   1.941   8.726 -0.3858  0.0874 -0.0497
 5443SOL    HW127962   2.457   2.033   8.701  0.9685 -0.0010 -0.7636
 5443SOL    HW227963   2.556   1.931   8.701 -0.6600 -1.0647 -0.5627
 5444SOL     OW27964   4.645   0.548   4.159 -0.3822 -0.0667  0.4771
 5444SOL    HW127965   4.700   0.626   4.153 -1.0366  0.3034 -0.8145
 5444SOL    HW227966   4.668   0.521   4.248  0.3352 -0.0612  0.2944
 5445SOL     OW27967   1.249   2.397   7.955  0.0518 -0.8026  0.1565
 5445SOL    HW127968   1.335   2.356   7.942  0.9229  0.9700  0.3674
 5445SOL    HW227969   1.205   2.388   7.871 -2.0219 -0.8978  1.2605
 5446SOL     OW27970   1.967   2.194   7.406 -0.3985 -0.0928  0.0470
 5446SOL    HW127971   2.023   2.270   7.420  0.2657 -0.4514 -0.7025
 5446SOL    HW227972   1.930   2.215   7.320  1.0599  0.4989 -0.4247
 5447SOL     OW27973   2.103   3.813   5.440 -0.0040 -0.5430  0.8126
 5447SOL    HW127974   2.138   3.817   5.351  1.3340 -1.1593  1.3009
 5447SOL    HW227975   2.052   3.732   5.439  0.1934 -0.6774  1.4853
 5448SOL     OW27976   1.394   2.647   7.014  0.1498 -0.1468  0.1898
 5448SOL    HW127977   1.360   2.589   6.946 -0.7890  0.8534 -0.2019
 5448SOL    HW227978   1.416   2.586   7.084  1.1531  0.3400  0.2955
 5449SOL     OW27979   1.281   1.359   3.625 -0.4851  0.4252  0.3877
 5449SOL    HW127980   1.369   1.394   3.608  0.9031 -3.0656  0.2334
 5449SOL    HW227981   1.297   1.316   3.709 -0.4547  0.1688  0.2522
 5450SOL     OW27982   3.756   3.085   5.930 -0.1519 -0.0090  0.0672
 5450SOL    HW127983   3.670   3.049   5.907 -0.2806  0.2131  0.2006
 5450SOL    HW227984   3.816   3.011   5.927  1.4676  1.2805  1.1351
 5451SOL     OW27985   2.412   2.909  17.744 -0.3720  0.4457 -0.0301
 5451SOL    HW127986   2.504   2.905  17.719 -0.3284  0.7030  0.0872
 5451SOL    HW227987   2.375   2.828  17.710  0.1877  0.1688  0.0295
 5452SOL     OW27988   2.087   4.596   5.947 -0.4135  0.7464  0.3098
 5452SOL    HW127989   2.093   4.654   6.023  3.5629  0.8005 -0.0600
 5452SOL    HW227990   2.180   4.598   5.927 -0.5549  1.7482 -0.2655
 5453SOL     OW27991   3.967   1.725   4.578 -0.1917 -0.2100  0.0469
 5453SOL    HW127992   4.017   1.686   4.507 -1.8361 -3.5106  0.7101
 5453SOL    HW227993   4.017   1.807   4.582  0.1528 -0.4279  0.1941
 5454SOL     OW27994   2.385   1.623   0.376 -0.0824 -0.0931 -0.8435
 5454SOL    HW127995   2.431   1.697   0.415  0.4689 -1.1602  0.5354
 5454SOL    HW227996   2.317   1.595   0.437  0.3650  0.9653  0.1388
 5455SOL     OW27997   0.865   0.690   9.576 -0.0285  0.0012  0.8263
 5455SOL    HW127998   0.894   0.624   9.513  1.1475  1.8038 -0.4903
 5455SOL    HW227999   0.830   0.751   9.512 -1.3255  1.2743  2.7542
 5456SOL     OW28000   0.771   3.196   1.393  0.4807  0.0132 -0.0635
 5456SOL    HW128001   0.685   3.180   1.353  0.0658 -1.6506  1.5362
 5456SOL    HW228002   0.755   3.177   1.485  0.1201  1.1476  0.1052
 5457SOL     OW28003   1.468   4.392   0.985 -0.1199  0.0179  0.0421
 5457SOL    HW128004   1.433   4.461   0.929  0.7658 -0.0922 -0.6548
 5457SOL    HW228005   1.398   4.366   1.045 -0.0643 -1.2916 -0.4629
 5458SOL     OW28006   2.949   0.248  10.902 -0.5997  1.0090 -0.1266
 5458SOL    HW128007   3.010   0.270  10.973 -0.8644  2.2592 -0.2909
 5458SOL    HW228008   2.894   0.185  10.949 -1.1992 -0.7405 -3.2185
 5459SOL     OW28009   0.733   4.055   4.244  0.2749  0.3038 -0.8723
 5459SOL    HW128010   0.715   3.967   4.209 -0.8481  1.2718 -2.7461
 5459SOL    HW228011   0.821   4.062   4.282 -0.3022  0.5357  0.3963
 5460SOL     OW28012   3.850   3.813   4.377  0.0712  0.5165  0.3096
 5460SOL    HW128013   3.814   3.863   4.304 -0.2912  0.0361  0.1587
 5460SOL    HW228014   3.936   3.854   4.376  0.2285  0.2701  2.4856
 5461SOL     OW28015   1.447   2.268  10.729  0.1513  0.4435  0.2966
 5461SOL    HW128016   1.423   2.222  10.809 -0.8428  1.1697  0.4223
 5461SOL    HW228017   1.530   2.223  10.714  0.5795  0.2443  3.3408
 5462SOL     OW28018   3.208   4.398   4.969 -0.4004 -0.1955  0.0352
 5462SOL    HW128019   3.164   4.313   4.969 -0.1905 -0.3063 -1.4738
 5462SOL    HW228020   3.130   4.452   4.958 -0.1930  0.4274  1.6190
 5463SOL     OW28021   3.812   0.617   1.990 -0.1777 -0.6011 -0.3020
 5463SOL    HW128022   3.820   0.566   1.909  2.1265 -0.4545 -0.1723
 5463SOL    HW228023   3.800   0.701   1.947 -0.4257  0.7580  2.4234
 5464SOL     OW28024   3.449   0.761   3.968  0.7969 -0.3455 -0.2630
 5464SOL    HW128025   3.511   0.690   3.953  1.6214  0.1368  0.8585
 5464SOL    HW228026   3.492   0.835   3.925  0.6455  0.5378  1.0844
 5465SOL     OW28027   2.217   3.747   6.133  0.5581  0.6837 -0.3284
 5465SOL    HW128028   2.214   3.831   6.087  0.1986  1.8461  1.7836
 5465SOL    HW228029   2.125   3.737   6.155  1.2482  1.7236  3.1725
 5466SOL     OW28030   4.191   0.204  12.971 -0.3134 -0.5893 -0.6949
 5466SOL    HW128031   4.224   0.281  13.017  0.1482 -0.8595 -0.5782
 5466SOL    HW228032   4.258   0.201  12.903  1.5807  1.8098  1.0985
 5467SOL     OW28033   0.569   3.318   2.463 -0.8394  0.2781 -0.3977
 5467SOL    HW128034   0.532   3.380   2.527 -2.1432 -0.2117 -0.6876
 5467SOL    HW228035   0.492   3.276   2.427 -1.2899 -0.6863  1.6655
 5468SOL     OW28036   3.347   1.424   2.332 -0.3002  0.4726 -0.3126
 5468SOL    HW128037   3.320   1.468   2.251 -0.3712  1.4262  0.2260
 5468SOL    HW228038   3.423   1.472   2.366  1.1355 -1.4361 -0.8473
 5469SOL     OW28039   3.396   2.752   9.124 -0.0081 -0.0570  0.3647
 5469SOL    HW128040   3.469   2.725   9.069  0.2149  4.0653 -1.4200
 5469SOL    HW228041   3.434   2.837   9.148  1.2647 -0.1869 -1.1989
 5470SOL     OW28042   1.106   1.164   1.643 -0.5037 -0.1089 -0.0639
 5470SOL    HW128043   1.140   1.245   1.605  0.2669  0.5618  2.0561
 5470SOL    HW228044   1.015   1.162   1.615  0.2176 -1.8703 -2.2618
 5471SOL     OW28045   2.887   3.098   8.298 -0.2231  0.5034 -0.2661
 5471SOL    HW128046   2.829   3.029   8.267  1.6098 -2.0955  2.0426
 5471SOL    HW228047   2.898   3.141   8.214  2.5768 -0.5264 -0.4394
 5472SOL     OW28048   4.448   2.385   0.298  0.0848 -0.3434  0.5284
 5472SOL    HW128049   4.445   2.444   0.223  0.2303 -0.7927  0.1744
 5472SOL    HW228050   4.356   2.385   0.325  0.0255 -2.3729  0.3165
 5473SOL     OW28051   0.385   4.339   8.764 -1.7651 -0.2638  0.7274
 5473SOL    HW128052   0.392   4.418   8.817 -0.1718  0.3105 -0.3379
 5473SOL    HW228053   0.289   4.337   8.761 -1.8585  1.5568  2.0873
 5474SOL     OW28054   4.328   0.037  10.411 -0.2075  0.2920 -0.1554
 5474SOL    HW128055   4.306   0.010  10.322  0.3514 -1.8705  0.3546
 5474SOL    HW228056   4.251   0.087  10.440  1.0836  1.8691  0.5206
 5475SOL     OW28057   4.071   4.729   7.166 -0.4844 -0.3936  0.2881
 5475SOL    HW128058   3.979   0.020   7.173  0.0160  1.1927  0.5765
 5475SOL    HW228059   4.086   0.003   7.072 -0.1600 -0.2614  0.3543
 5476SOL     OW28060   2.455   4.099   6.042 -0.3759 -0.3365 -0.2696
 5476SOL    HW128061   2.367   4.070   6.018 -0.1509 -0.6034 -0.7784
 5476SOL    HW228062   2.507   4.058   5.973 -0.3897 -0.9218  0.0743
 5477SOL     OW28063   3.859   2.246   8.539 -0.0150  0.5152  0.2544
 5477SOL    HW128064   3.796   2.177   8.558  1.8223 -1.7057 -1.8059
 5477SOL    HW228065   3.928   2.230   8.603 -0.2893 -0.1668  0.3697
 5478SOL     OW28066   4.325   3.179   3.620  0.7299  0.2538  0.7252
 5478SOL    HW128067   4.297   3.089   3.637  2.5647 -0.8384 -2.0462
 5478SOL    HW228068   4.394   3.169   3.554  0.2291 -2.7536  0.6622
 5479SOL     OW28069   3.763   3.976   6.569 -0.1118  0.1623  0.1073
 5479SOL    HW128070   3.855   3.956   6.552  0.1705  1.3525  0.2387
 5479SOL    HW228071   3.740   4.003   6.481 -2.6680 -1.8776  0.1494
 5480SOL     OW28072   3.529   0.729  13.927 -0.2325 -0.4974 -0.2311
 5480SOL    HW128073   3.508   0.712  13.836 -0.0733 -0.7009 -0.2298
 5480SOL    HW228074   3.549   0.823  13.920  2.0508 -1.2145 -3.3296
 5481SOL     OW28075   4.569   1.794   0.526 -0.5913 -0.1836 -0.6755
 5481SOL    HW128076   4.600   1.877   0.563 -0.6850  0.7100 -2.5997
 5481SOL    HW228077   4.599   1.791   0.435  1.4055 -1.9144  0.0367
 5482SOL     OW28078   3.249   0.421  15.922  0.8654 -0.1689 -0.2486
 5482SOL    HW128079   3.258   0.331  15.892  1.9415 -0.4138  0.8181
 5482SOL    HW228080   3.330   0.459  15.890  0.3417  0.7044 -0.5660
 5483SOL     OW28081   0.110   3.062   7.543 -0.2496 -0.1746 -0.0135
 5483SOL    HW128082   0.066   3.145   7.564 -0.9436 -0.5642  0.0599
 5483SOL    HW228083   0.038   3.022   7.495 -0.4319 -2.5356  2.2307
 5484SOL     OW28084   0.082   1.402   8.078 -0.1574  0.2010 -0.8566
 5484SOL    HW128085   0.050   1.356   8.001 -0.8038 -0.4445 -0.2032
 5484SOL    HW228086   0.027   1.481   8.082  1.7060  1.4480  0.1293
 5485SOL     OW28087   1.941   2.435  11.847 -0.9332 -0.1368 -0.4062
 5485SOL    HW128088   1.971   2.518  11.884  0.1644  0.6338 -3.0053
 5485SOL    HW228089   1.974   2.442  11.758  3.2918  1.6037  1.2860
 5486SOL     OW28090   4.734   3.844   1.587 -0.6364  0.4797 -0.2995
 5486SOL    HW128091   4.714   3.752   1.607  0.1654  0.1501 -1.0181
 5486SOL    HW228092   0.007   3.845   1.492 -1.2489 -1.9602 -0.4037
 5487SOL     OW28093   3.935   3.074  13.243 -0.4564  0.2452  0.2307
 5487SOL    HW128094   4.003   3.040  13.184  0.7252  2.1847  0.4629
 5487SOL    HW228095   3.993   3.102  13.314  2.3815 -0.0913 -1.9246
 5488SOL     OW28096   2.758   2.068   5.936 -0.1692  0.1159 -0.0035
 5488SOL    HW128097   2.833   2.037   5.884 -1.5837 -3.1549 -0.0572
 5488SOL    HW228098   2.713   1.983   5.937  2.8764 -1.5495 -2.5311
 5489SOL     OW28099   4.023   0.357  13.263  0.5616  0.0619 -0.8564
 5489SOL    HW128100   3.945   0.410  13.271  0.4364  0.0303 -1.8698
 5489SOL    HW228101   4.002   0.293  13.195 -2.0670 -1.8063  1.7000
 5490SOL     OW28102   4.144   0.068   0.629  0.3064 -0.3572  0.3557
 5490SOL    HW128103   4.216   0.104   0.681  0.4751 -1.5965  0.9567
 5490SOL    HW228104   4.199   0.006   0.581 -0.9054 -0.3106 -1.1074
 5491SOL     OW28105   0.474   4.421   7.508  0.1503 -0.0235 -0.3529
 5491SOL    HW128106   0.478   4.424   7.412 -1.3272 -0.1371 -0.4201
 5491SOL    HW228107   0.469   4.325   7.504 -0.8806 -0.0537  2.2086
 5492SOL     OW28108   4.468   3.792   5.628 -0.1858  0.1878  0.2831
 5492SOL    HW128109   4.545   3.844   5.651 -0.0532 -0.2743  0.8654
 5492SOL    HW228110   4.494   3.757   5.543  1.2279  0.2557  0.6997
 5493SOL     OW28111   1.331   3.570   7.216 -0.5795 -0.5794 -0.4831
 5493SOL    HW128112   1.329   3.663   7.193 -1.8844 -0.9209 -1.7242
 5493SOL    HW228113   1.267   3.560   7.286 -2.5900 -0.3743 -2.3039
 5494SOL     OW28114   3.362   3.835   8.379 -0.3213 -1.0810 -0.4595
 5494SOL    HW128115   3.327   3.757   8.336  1.1457 -0.5175 -2.7045
 5494SOL    HW228116   3.427   3.853   8.311  1.0305  1.2395  1.4339
 5495SOL     OW28117   2.103   4.640   7.920  0.3615  0.5551 -0.1077
 5495SOL    HW128118   2.116   4.545   7.926  1.5724  0.6988 -0.5298
 5495SOL    HW228119   2.166   4.652   7.849 -0.2332 -0.2235 -0.7670
 5496SOL     OW28120   3.819   1.488   1.932 -0.0166  0.0724  0.1356
 5496SOL    HW128121   3.780   1.413   1.887  1.6026 -1.8017  1.8388
 5496SOL    HW228122   3.860   1.536   1.860  0.4132  1.0794  1.0564
 5497SOL     OW28123   0.405   1.525   8.068  0.1461  0.1538 -0.3314
 5497SOL    HW128124   0.324   1.575   8.077  0.1691 -0.0833  1.0659
 5497SOL    HW228125   0.380   1.476   7.990 -0.6942 -0.4183  0.3107
 5498SOL     OW28126   0.065   3.566   5.635  0.0025 -0.0037 -0.1794
 5498SOL    HW128127   0.160   3.568   5.624  0.2179 -2.1540  1.2056
 5498SOL    HW228128   0.049   3.659   5.651  1.1353  0.1639 -0.0622
 5499SOL     OW28129   1.423   1.039  11.897  0.2158 -0.0366  0.3132
 5499SOL    HW128130   1.351   1.045  11.834 -0.2825  1.3294  1.0158
 5499SOL    HW228131   1.458   0.952  11.876 -0.6909 -0.0178 -1.2043
 5500SOL     OW28132   2.835   2.228   1.476 -0.3630 -0.0469 -0.6065
 5500SOL    HW128133   2.906   2.244   1.537 -1.1520  0.3120  0.2190
 5500SOL    HW228134   2.758   2.227   1.533  0.5796  0.4844  0.6616
 5501SOL     OW28135   1.801   3.512   3.465  0.2362  0.0790  0.2943
 5501SOL    HW128136   1.736   3.581   3.453  0.2751  0.1405  0.4321
 5501SOL    HW228137   1.816   3.490   3.373 -2.2423 -2.7704  0.5912
 5502SOL     OW28138   3.656   3.380   5.494 -0.0773 -0.4895 -1.2354
 5502SOL    HW128139   3.717   3.319   5.536  0.9688  1.2743 -0.1891
 5502SOL    HW228140   3.704   3.462   5.482  0.2137 -0.4191  0.3582
 5503SOL     OW28141   1.253   4.404   6.796 -0.1533 -0.1117 -0.1341
 5503SOL    HW128142   1.304   4.438   6.723 -0.2802  1.7137  0.6186
 5503SOL    HW228143   1.248   4.483   6.851 -1.9908 -0.8579  0.7798
 5504SOL     OW28144   4.645   1.317   6.791  0.0568 -0.0826  0.3475
 5504SOL    HW128145   4.592   1.297   6.868 -0.3486  1.6250  0.5224
 5504SOL    HW228146   4.622   1.408   6.771 -0.9890 -0.3595  0.2967
 5505SOL     OW28147   3.425   3.769   2.618  0.9528  0.2441  0.2909
 5505SOL    HW128148   3.391   3.709   2.684  3.0157 -1.6675 -0.3914
 5505SOL    HW228149   3.417   3.848   2.671 -0.8544  0.8805 -0.9207
 5506SOL     OW28150   3.427   1.498  17.242  0.4178  0.3033 -0.2168
 5506SOL    HW128151   3.438   1.476  17.334 -1.0422 -1.7495 -0.5398
 5506SOL    HW228152   3.463   1.587  17.239 -0.9301  0.8289 -0.7849
 5507SOL     OW28153   2.386   1.230   7.037  0.1075 -0.6745  0.2945
 5507SOL    HW128154   2.296   1.208   7.059  0.6962 -1.4904  1.8963
 5507SOL    HW228155   2.417   1.258   7.124  1.0831  1.6963 -0.8074
 5508SOL     OW28156   1.596   0.457   8.511  0.2323  0.4297 -0.3341
 5508SOL    HW128157   1.686   0.467   8.478 -0.2546  1.3718 -1.4065
 5508SOL    HW228158   1.579   0.365   8.492  1.2125  0.0280  0.7654
 5509SOL     OW28159   3.476   4.254   6.428 -0.0243 -0.5775  0.3827
 5509SOL    HW128160   3.384   4.266   6.454  0.3726 -0.4805  1.7410
 5509SOL    HW228161   3.513   4.303   6.502  0.8117  0.5316 -0.7682
 5510SOL     OW28162   0.080   0.456   1.555  0.4612  0.0415 -0.1377
 5510SOL    HW128163   0.153   0.519   1.550 -1.3839  2.3092  1.7032
 5510SOL    HW228164   0.014   0.511   1.597  0.1340  1.5487 -2.6514
 5511SOL     OW28165   3.128   3.367  10.946  0.1043 -0.3495 -0.5484
 5511SOL    HW128166   3.183   3.415  10.885 -0.2302 -2.7809 -2.7550
 5511SOL    HW228167   3.181   3.293  10.976  1.6375  2.2192  3.0562
 5512SOL     OW28168   4.357   0.196   3.963 -0.1890 -0.7989 -0.4072
 5512SOL    HW128169   4.405   0.257   4.018  2.0436 -1.4439 -1.6475
 5512SOL    HW228170   4.290   0.262   3.943 -1.7993 -2.4794 -0.5405
 5513SOL     OW28171   0.939   0.714   2.603 -0.1558  0.2607  0.5935
 5513SOL    HW128172   1.013   0.768   2.576  0.8127 -0.2645  2.1925
 5513SOL    HW228173   0.868   0.776   2.588 -2.0899 -2.2717 -0.6339
 5514SOL     OW28174   0.728   1.764  16.360  0.3779  0.6695  0.1845
 5514SOL    HW128175   0.737   1.856  16.336 -1.1926  0.4786 -1.1642
 5514SOL    HW228176   0.671   1.775  16.435  2.5805 -1.9596  2.2593
 5515SOL     OW28177   0.697   0.783   9.353  0.1907 -0.0176 -0.4199
 5515SOL    HW128178   0.698   0.688   9.339 -0.6939 -0.1211  0.2314
 5515SOL    HW228179   0.624   0.794   9.292 -0.4245 -3.0001 -0.2064
 5516SOL     OW28180   0.290   4.608  11.784  0.3157 -0.0037  0.0327
 5516SOL    HW128181   0.203   4.591  11.819  0.1819  0.4404 -0.0934
 5516SOL    HW228182   0.289   4.679  11.720 -0.9784 -0.8179 -0.8425
 5517SOL     OW28183   1.131   1.799   6.893 -0.4021 -0.0380 -0.2921
 5517SOL    HW128184   1.185   1.860   6.943 -1.3390  1.0085 -0.5430
 5517SOL    HW228185   1.134   1.858   6.818 -0.1408 -0.7990 -0.8858
 5518SOL     OW28186   1.411   0.289   4.850 -0.4445 -0.0411 -0.6256
 5518SOL    HW128187   1.434   0.382   4.845  0.1332  0.0624  3.6823
 5518SOL    HW228188   1.343   0.274   4.785 -1.1472  1.7361 -0.3278
 5519SOL     OW28189   2.756   4.303  16.764 -0.1564  0.0089  0.3020
 5519SOL    HW128190   2.722   4.388  16.737  2.4962  0.8881 -0.1769
 5519SOL    HW228191   2.712   4.249  16.698 -2.9445  1.3744  1.0461
 5520SOL     OW28192   4.311   0.516   2.608 -0.1467  0.6498 -0.3342
 5520SOL    HW128193   4.254   0.593   2.608 -1.8402 -0.5733  0.8917
 5520SOL    HW228194   4.287   0.478   2.524  1.8984 -1.6767  0.1361
 5521SOL     OW28195   3.523   4.375   5.125  0.2053  0.6302  0.3670
 5521SOL    HW128196   3.571   4.335   5.197  1.4244  1.6348  0.1005
 5521SOL    HW228197   3.484   4.294   5.091  0.7231  0.5527 -0.0440
 5522SOL     OW28198   0.976   4.075   0.443 -0.1287 -0.4433 -0.6304
 5522SOL    HW128199   0.999   3.999   0.389  2.5306 -1.0403  1.3642
 5522SOL    HW228200   0.949   4.030   0.523 -1.6055 -0.1092 -0.9456
 5523SOL     OW28201   1.419   3.116   6.981  0.3721 -0.0637 -0.2145
 5523SOL    HW128202   1.510   3.126   7.012 -0.6673  1.6497  2.3294
 5523SOL    HW228203   1.395   3.205   6.957  0.8578  0.2072  0.3024
 5524SOL     OW28204   4.671   1.707   8.170 -0.0384 -0.0228 -0.1488
 5524SOL    HW128205   4.612   1.770   8.211 -1.6933 -1.8701  0.3346
 5524SOL    HW228206   4.633   1.624   8.198  1.6482 -0.3262  1.2166
 5525SOL     OW28207   4.302   4.350   9.515  0.1519 -0.4307  0.2112
 5525SOL    HW128208   4.262   4.435   9.498 -1.8267 -1.1380  1.3013
 5525SOL    HW228209   4.362   4.373   9.586 -0.5900  1.5688  0.1798
 5526SOL     OW28210   2.234   0.566   9.579  0.4784 -0.8103 -0.2380
 5526SOL    HW128211   2.268   0.551   9.491  1.2838  0.2713 -0.1188
 5526SOL    HW228212   2.308   0.562   9.641 -1.7271 -1.3720  2.3475
 5527SOL     OW28213   0.347   3.054   1.846  0.2895 -0.0385 -0.0001
 5527SOL    HW128214   0.274   3.007   1.886  1.5645 -0.2188  2.0887
 5527SOL    HW228215   0.321   3.146   1.858  4.0354  1.3096 -2.2127
 5528SOL     OW28216   4.567   1.539   5.718 -0.3689  0.3755 -0.1062
 5528SOL    HW128217   4.560   1.552   5.623  5.0604 -0.1921 -0.5919
 5528SOL    HW228218   4.607   1.623   5.743  1.3757 -0.5723  0.2491
 5529SOL     OW28219   3.436   3.038   1.997  0.0971  0.0423 -0.1480
 5529SOL    HW128220   3.447   2.960   1.943  1.6161  0.9581 -1.1367
 5529SOL    HW228221   3.518   3.087   1.985 -0.0754  0.7884  1.6032
 5530SOL     OW28222   4.427   1.683   6.013 -0.3808  0.1040 -0.1407
 5530SOL    HW128223   4.385   1.678   5.927 -0.5052  3.3526 -0.2804
 5530SOL    HW228224   4.376   1.759   6.040  1.1586  1.2978 -0.5880
 5531SOL     OW28225   1.342   4.647   7.076 -0.4872  0.5171  0.5022
 5531SOL    HW128226   1.282   4.664   7.003  1.4380 -0.4003 -1.3105
 5531SOL    HW228227   1.408   4.714   7.056  0.5289 -0.8398 -0.6520
 5532SOL     OW28228   4.125   0.730  16.825  0.5061 -0.2992  0.3178
 5532SOL    HW128229   4.076   0.732  16.743  2.6952 -1.5354 -1.0063
 5532SOL    HW228230   4.138   0.636  16.830 -0.9105 -0.6688 -3.3010
 5533SOL     OW28231   0.507   0.591  15.290  0.2283  0.1238 -0.4804
 5533SOL    HW128232   0.421   0.585  15.250 -0.1913 -0.4924  0.5116
 5533SOL    HW228233   0.557   0.527  15.241 -0.1110  0.4449 -1.2442
 5534SOL     OW28234   2.981   2.205  12.149  0.0093  0.6909  0.5780
 5534SOL    HW128235   2.983   2.123  12.099  0.4420  0.9500  0.1764
 5534SOL    HW228236   3.011   2.178  12.236 -0.3644 -1.5304  0.0123
 5535SOL     OW28237   3.422   4.199   3.787 -0.8814  0.5566 -0.1407
 5535SOL    HW128238   3.386   4.160   3.707 -1.2736  1.2027 -0.2798
 5535SOL    HW228239   3.463   4.281   3.759  1.9166 -0.1076  2.0341
 5536SOL     OW28240   1.922   1.929  15.889 -0.0383 -0.9233 -0.2110
 5536SOL    HW128241   1.966   1.883  15.818  0.7949 -1.4304  0.6354
 5536SOL    HW228242   1.846   1.974  15.852  2.1356  0.2798 -3.2704
 5537SOL     OW28243   3.872   3.052   0.113 -0.0936  0.3190 -0.2555
 5537SOL    HW128244   3.963   3.028   0.130 -1.2700 -2.0042  2.7921
 5537SOL    HW228245   3.845   3.079   0.201  2.7676  0.9885  0.4077
 5538SOL     OW28246   0.936   1.478   5.266 -0.3947  0.0994  0.2250
 5538SOL    HW128247   0.863   1.417   5.255 -0.1355 -0.4033  1.2782
 5538SOL    HW228248   0.951   1.476   5.172 -0.3824  0.7638  0.2128
 5539SOL     OW28249   3.788   2.439   3.462 -0.3822  0.1694  0.2783
 5539SOL    HW128250   3.721   2.441   3.393  0.4889 -1.1797 -0.6020
 5539SOL    HW228251   3.773   2.523   3.506  0.2213  0.3140  0.2080
 5540SOL     OW28252   1.412   2.611   3.649 -0.5130  0.8105  0.3306
 5540SOL    HW128253   1.403   2.626   3.555  1.1130 -0.7629 -0.0982
 5540SOL    HW228254   1.443   2.700   3.666 -0.3575  0.8327 -0.0841
 5541SOL     OW28255   2.977   2.352   3.279  1.1931 -1.5271  0.1706
 5541SOL    HW128256   2.928   2.402   3.344 -0.9279 -0.7022 -2.0514
 5541SOL    HW228257   3.059   2.344   3.327 -0.3317  0.8579  3.1393
 5542SOL     OW28258   4.459   1.307  14.108 -0.0571 -0.5272  0.1646
 5542SOL    HW128259   4.458   1.275  14.018 -1.2077  0.4102 -0.1561
 5542SOL    HW228260   4.392   1.376  14.110  1.9331  1.3489  1.4679
 5543SOL     OW28261   2.434   4.412   7.113  0.6424 -0.1137  0.3581
 5543SOL    HW128262   2.462   4.459   7.191  1.8881 -1.6307  0.8319
 5543SOL    HW228263   2.472   4.325   7.125  0.6964  0.1473  2.1179
 5544SOL     OW28264   2.372   2.687   2.867  0.0081 -0.1290 -0.5587
 5544SOL    HW128265   2.278   2.696   2.849 -0.3880  0.3952  1.7507
 5544SOL    HW228266   2.393   2.759   2.926 -0.4183  1.4757 -2.3321
 5545SOL     OW28267   2.932   4.240   8.990  0.2240  0.7603  0.7376
 5545SOL    HW128268   2.963   4.162   9.037 -0.4452  0.9095  1.4243
 5545SOL    HW228269   2.872   4.269   9.058  1.5475 -2.1864  3.1572
 5546SOL     OW28270   4.054   4.128   5.295  0.4399  0.4026  1.0748
 5546SOL    HW128271   4.114   4.201   5.282  0.1935  0.3262 -0.4285
 5546SOL    HW228272   3.966   4.164   5.293 -0.3763 -1.8048 -2.9700
 5547SOL     OW28273   0.422   1.387   2.592  0.3927 -0.2255  0.5028
 5547SOL    HW128274   0.350   1.405   2.653  0.9945  1.8478  0.5815
 5547SOL    HW228275   0.504   1.383   2.642  0.9675  2.3241 -0.2611
 5548SOL     OW28276   1.337   1.945   1.065 -0.1623 -0.2825 -0.0761
 5548SOL    HW128277   1.290   1.864   1.047 -0.6708 -0.3670  1.6785
 5548SOL    HW228278   1.277   2.012   1.033 -0.3327 -0.6082 -0.4290
 5549SOL     OW28279   2.317   1.410   2.577  0.0590  0.6538 -0.0040
 5549SOL    HW128280   2.249   1.367   2.525 -0.0845 -0.0711  0.7837
 5549SOL    HW228281   2.391   1.372   2.529 -0.8897 -2.5001  1.0034
 5550SOL     OW28282   2.093   2.048   2.574 -0.3569 -0.1435 -0.0208
 5550SOL    HW128283   2.022   2.001   2.618  0.2454 -0.7969  0.2645
 5550SOL    HW228284   2.109   1.999   2.493  0.9033 -0.8561  0.6485
 5551SOL     OW28285   0.314   3.615   4.745 -0.1720  0.2989 -0.0450
 5551SOL    HW128286   0.276   3.703   4.755  2.0807  1.2925 -0.2118
 5551SOL    HW228287   0.303   3.606   4.651  0.9058 -0.0275 -0.1333
 5552SOL     OW28288   0.525   1.520  15.687 -0.4955 -0.2028 -0.0817
 5552SOL    HW128289   0.466   1.446  15.702  2.0845 -2.2610 -0.2310
 5552SOL    HW228290   0.614   1.486  15.688  0.4095  2.1551  0.4287
 5553SOL     OW28291   0.816   0.496   3.912 -0.1454  0.1693  0.2726
 5553SOL    HW128292   0.855   0.567   3.963  1.0980 -0.4825  0.2448
 5553SOL    HW228293   0.887   0.486   3.848 -1.3275 -0.1137 -0.9973
 5554SOL     OW28294   0.054   4.576   3.620 -0.3689  0.1959  0.1866
 5554SOL    HW128295   0.063   4.549   3.528 -0.2731  1.0925 -0.0712
 5554SOL    HW228296   0.149   4.590   3.621  0.0520 -2.8125  1.7454
 5555SOL     OW28297   2.890   2.486   4.971 -0.4415 -0.0408  0.3985
 5555SOL    HW128298   2.936   2.402   4.969  0.2793  0.3709 -0.6145
 5555SOL    HW228299   2.945   2.539   5.029  1.5728 -3.7515  1.8628
 5556SOL     OW28300   1.135   3.372   6.635  0.0414  0.4935 -0.0875
 5556SOL    HW128301   1.219   3.327   6.630  0.8385  2.1151 -1.3639
 5556SOL    HW228302   1.150   3.445   6.575 -0.8873 -0.6249 -1.6834
 5557SOL     OW28303   4.638   3.837   4.504 -0.0800  0.1556  0.1725
 5557SOL    HW128304   4.614   3.752   4.467  0.2425  0.3772 -0.5673
 5557SOL    HW228305   4.661   3.824   4.596  0.6778 -0.8176 -0.1515
 5558SOL     OW28306   1.479   0.541   4.796  0.6761  0.2189 -0.0437
 5558SOL    HW128307   1.445   0.630   4.788  2.6051  1.1367  2.2273
 5558SOL    HW228308   1.438   0.516   4.713  2.9231  1.5767 -1.5637
 5559SOL     OW28309   4.540   2.243   6.345  0.0998 -0.0031 -0.1343
 5559SOL    HW128310   4.452   2.281   6.340 -0.3543 -1.0067  0.2358
 5559SOL    HW228311   4.595   2.313   6.308 -1.4394 -0.3128 -3.0129
 5560SOL     OW28312   4.161   4.552   8.982  0.1312 -0.2525 -0.2204
 5560SOL    HW128313   4.229   4.557   9.049  0.3211 -1.3302 -0.3393
 5560SOL    HW228314   4.103   4.484   9.016 -0.7220  0.1895 -0.7735
 5561SOL     OW28315   3.795   2.816   2.606 -0.0772  0.5571 -0.1705
 5561SOL    HW128316   3.726   2.865   2.560 -0.5923 -0.2763 -0.2893
 5561SOL    HW228317   3.870   2.830   2.548  1.3401  0.0086  1.5527
 5562SOL     OW28318   3.202   2.890   5.748 -0.6554  0.3163 -0.2892
 5562SOL    HW128319   3.212   2.905   5.654  2.0547 -0.3179 -0.1086
 5562SOL    HW228320   3.141   2.959   5.773  1.0877  0.7563  2.8117
 5563SOL     OW28321   0.734   0.021   2.296 -0.0006 -0.0609  0.2768
 5563SOL    HW128322   0.828   0.003   2.291 -0.1203 -0.5558 -0.1891
 5563SOL    HW228323   0.711   0.093   2.355 -0.0570 -0.3843  0.6514
 5564SOL     OW28324   1.849   2.404   3.747 -0.0416  0.6492 -0.1752
 5564SOL    HW128325   1.800   2.420   3.827 -0.0692 -1.9951  0.3246
 5564SOL    HW228326   1.779   2.428   3.686  2.8515 -0.2725 -3.8840
 5565SOL     OW28327   0.912   4.700   6.729 -0.3989  0.1129 -0.0940
 5565SOL    HW128328   0.884   0.052   6.751  0.3744  0.1609  0.6834
 5565SOL    HW228329   0.937   4.708   6.637  0.3674  0.4726  0.1465
 5566SOL     OW28330   0.869   1.990   1.169 -0.2393  0.2381 -0.5214
 5566SOL    HW128331   0.806   1.919   1.161  0.6035 -0.5644 -0.0043
 5566SOL    HW228332   0.819   2.071   1.171  2.9374  2.2066  0.1505
 5567SOL     OW28333   0.052   4.072   2.726 -0.4284  0.3463 -0.2869
 5567SOL    HW128334   0.111   4.023   2.669  0.2202  0.8797 -0.0802
 5567SOL    HW228335   0.034   4.010   2.796 -0.2987  1.4796  0.7653
 5568SOL     OW28336   1.818   4.259   8.991 -0.0386 -0.4881  0.2269
 5568SOL    HW128337   1.881   4.274   9.062 -1.6249  1.9208  1.1176
 5568SOL    HW228338   1.780   4.347   8.990  2.6179  0.6491  0.1574
 5569SOL     OW28339   4.076   0.966  12.253 -0.3548 -0.2676 -0.0694
 5569SOL    HW128340   4.044   0.881  12.222 -1.4727  0.0604  0.1988
 5569SOL    HW228341   4.031   0.976  12.337  1.0346 -0.1933  0.6662
 5570SOL     OW28342   0.166   2.219   8.525 -0.4875 -0.3596 -0.0465
 5570SOL    HW128343   0.133   2.270   8.599 -0.2349  2.8179 -2.1454
 5570SOL    HW228344   0.186   2.287   8.461  1.7684 -0.3178  0.7054
 5571SOL     OW28345   3.447   0.692  12.860  0.2355 -0.5424 -0.0267
 5571SOL    HW128346   3.404   0.686  12.945  2.0742  2.2009  1.0825
 5571SOL    HW228347   3.529   0.647  12.881  0.9880 -0.0210 -1.8405
 5572SOL     OW28348   2.980   3.264  13.320 -0.3259  0.0761 -0.0347
 5572SOL    HW128349   2.967   3.170  13.313 -0.3234 -0.0697  2.0807
 5572SOL    HW228350   2.900   3.301  13.356  0.6995  2.7267 -0.4493
 5573SOL     OW28351   3.334   2.850  16.631  0.2007 -0.2531 -0.2186
 5573SOL    HW128352   3.310   2.914  16.564  1.2429  0.7857  0.3935
 5573SOL    HW228353   3.383   2.905  16.692 -0.5344 -1.0340  1.0681
 5574SOL     OW28354   1.018   4.116  10.976  0.1014  0.1502  0.3994
 5574SOL    HW128355   1.082   4.187  10.976  1.7125 -1.2791  0.7076
 5574SOL    HW228356   1.054   4.054  11.040 -1.9434 -1.1875  0.2658
 5575SOL     OW28357   2.639   0.336  14.596  0.2849 -0.2311  0.3848
 5575SOL    HW128358   2.621   0.259  14.542 -1.1518  1.0930 -0.9988
 5575SOL    HW228359   2.578   0.315  14.667  0.8494 -0.4869  0.7973
 5576SOL     OW28360   0.427   1.525   1.360  0.2134  0.1958  0.4615
 5576SOL    HW128361   0.418   1.574   1.443  0.1368  0.3232  0.3781
 5576SOL    HW228362   0.359   1.570   1.310  0.4662 -1.1546 -1.0809
 5577SOL     OW28363   0.934   4.726   3.684  0.1515  0.5319 -0.8313
 5577SOL    HW128364   0.841   4.713   3.703  0.2662  0.8699 -0.0298
 5577SOL    HW228365   0.968   4.642   3.716  0.6794  1.0076 -0.1402
 5578SOL     OW28366   2.927   2.030   5.071  0.1460 -0.1898  0.3236
 5578SOL    HW128367   2.885   2.019   4.985  1.1162 -1.1700 -0.0269
 5578SOL    HW228368   2.983   1.952   5.069  2.3951  1.4280 -1.1899
 5579SOL     OW28369   3.346   3.783   7.136  0.8869  0.3087 -0.1262
 5579SOL    HW128370   3.300   3.853   7.182 -1.8096 -1.6892  0.1892
 5579SOL    HW228371   3.368   3.728   7.211  1.0920  1.3123  0.5622
 5580SOL     OW28372   3.926   1.894  11.385  0.0995  0.7831 -0.1379
 5580SOL    HW128373   3.879   1.948  11.322 -0.6213 -1.0543 -1.1576
 5580SOL    HW228374   3.911   1.805  11.354 -1.4250  1.3110 -0.9522
 5581SOL     OW28375   1.887   2.060   8.072 -0.5282 -0.2053 -0.2993
 5581SOL    HW128376   1.832   2.053   7.994 -2.9362  0.5686  1.3560
 5581SOL    HW228377   1.908   2.154   8.077 -1.7370  0.0505  0.1100
 5582SOL     OW28378   3.533   2.878   5.595  0.2404 -0.3387 -0.2824
 5582SOL    HW128379   3.482   2.888   5.515 -0.4867 -0.3623  0.1768
 5582SOL    HW228380   3.485   2.803   5.630  1.3463 -2.0815 -2.4952
 5583SOL     OW28381   1.709   1.069  11.759  0.2551 -0.5010 -0.2205
 5583SOL    HW128382   1.640   1.085  11.694 -1.3351 -2.1334  1.0670
 5583SOL    HW228383   1.715   0.975  11.740  0.0782 -0.3809 -0.8822
 5584SOL     OW28384   3.366   0.650  15.277  0.3319 -0.2225 -0.5318
 5584SOL    HW128385   3.352   0.688  15.364  0.6094  0.3167 -0.7270
 5584SOL    HW228386   3.315   0.571  15.298 -1.1071  0.3204 -2.0576
 5585SOL     OW28387   3.562   1.829  14.835  0.3855 -0.2981  0.4635
 5585SOL    HW128388   3.632   1.880  14.794  0.0768 -1.1137 -1.0793
 5585SOL    HW228389   3.599   1.740  14.831  0.3166 -0.3052 -0.0078
 5586SOL     OW28390   4.469   3.666   9.267 -0.5358  0.3651 -0.1767
 5586SOL    HW128391   4.460   3.759   9.286  0.9730 -0.1926  3.3142
 5586SOL    HW228392   4.539   3.644   9.328 -0.1906 -0.7707 -0.9826
 5587SOL     OW28393   0.433   0.491   1.551  0.0341  0.6924  0.3205
 5587SOL    HW128394   0.382   0.448   1.620  0.5091  0.7941  0.7307
 5587SOL    HW228395   0.373   0.562   1.529 -2.5124 -1.7122 -0.5115
 5588SOL     OW28396   4.174   0.434   8.663  0.3649 -0.0662 -0.2290
 5588SOL    HW128397   4.206   0.441   8.753  0.3445 -0.7836 -0.1689
 5588SOL    HW228398   4.207   0.350   8.632  1.3046  0.6036 -1.0861
 5589SOL     OW28399   2.877   2.427   5.326  0.4912  0.3105  0.2716
 5589SOL    HW128400   2.928   2.389   5.254  0.2478 -0.4710  0.5163
 5589SOL    HW228401   2.882   2.350   5.382  0.2099 -0.1235 -0.3106
 5590SOL     OW28402   3.485   3.913   3.003  0.1156  0.2016  0.5830
 5590SOL    HW128403   3.472   3.916   3.097  0.1519  0.2895  0.5857
 5590SOL    HW228404   3.406   3.874   2.967  0.3310  0.9786 -0.7647
 5591SOL     OW28405   2.227   0.617   7.421  0.3591 -0.2840  0.2486
 5591SOL    HW128406   2.201   0.664   7.500 -0.5419  0.3460 -0.4169
 5591SOL    HW228407   2.279   0.550   7.465 -0.0903  0.9112  2.6082
 5592SOL     OW28408   1.840   4.598   6.050  0.1235 -0.2717  0.0799
 5592SOL    HW128409   1.787   4.591   5.970 -1.6210 -2.1222  1.3839
 5592SOL    HW228410   1.928   4.612   6.016 -0.2971  3.3743  0.4963
 5593SOL     OW28411   0.541   3.107  17.536 -0.2106  0.1949  0.3778
 5593SOL    HW128412   0.513   3.140  17.622  0.7025 -2.9870  1.8702
 5593SOL    HW228413   0.621   3.062  17.562 -1.6793 -1.0914  2.6711
 5594SOL     OW28414   4.717   0.766  12.481  0.4603  0.6198 -0.5761
 5594SOL    HW128415   4.678   0.732  12.562 -0.2146  1.4900 -0.5306
 5594SOL    HW228416   4.645   0.822  12.450 -1.6677 -0.8476  1.7122
 5595SOL     OW28417   4.437   4.178  10.771  0.1121  0.1242  0.0371
 5595SOL    HW128418   4.477   4.097  10.801 -0.0764 -0.4154 -1.1782
 5595SOL    HW228419   4.475   4.238  10.836  2.5145  0.2825 -1.5325
 5596SOL     OW28420   3.278   4.241   3.451 -0.0816  0.4169  0.0735
 5596SOL    HW128421   3.293   4.327   3.490  1.8049  0.9737 -1.8255
 5596SOL    HW228422   3.366   4.226   3.415 -0.2331 -1.9745  0.7317
 5597SOL     OW28423   0.527   1.184  12.382 -0.1939 -0.9974  0.2388
 5597SOL    HW128424   0.476   1.118  12.430  1.6244 -1.5530  1.4066
 5597SOL    HW228425   0.569   1.231  12.454  0.3634  0.5045 -1.0835
 5598SOL     OW28426   3.134   2.706   8.571 -0.4264  0.1795 -0.0295
 5598SOL    HW128427   3.198   2.777   8.581 -0.6288  0.5698 -1.5811
 5598SOL    HW228428   3.193   2.649   8.522  0.0050 -0.2201  0.9509
 5599SOL     OW28429   2.342   2.276   3.057  0.2601  0.3711  0.7182
 5599SOL    HW128430   2.398   2.207   3.093 -1.1203 -0.3993  1.3582
 5599SOL    HW228431   2.337   2.328   3.138 -0.6947  0.2882  0.7139
 5600SOL     OW28432   1.737   2.976   1.642  0.0686  0.2867  0.4875
 5600SOL    HW128433   1.809   2.958   1.703  0.8794  0.8875 -0.2811
 5600SOL    HW228434   1.721   3.069   1.660  1.3935  0.3845  1.1726
 5601SOL     OW28435   2.818   0.642   1.972 -0.1052  0.4764 -0.2393
 5601SOL    HW128436   2.751   0.608   1.912  1.7076 -1.5642 -1.1117
 5601SOL    HW228437   2.774   0.714   2.017 -2.0694 -0.8890  0.0652
 5602SOL     OW28438   0.192   0.815  15.023 -0.1970  0.4832 -0.0469
 5602SOL    HW128439   0.112   0.763  15.035 -0.6555  1.4923  1.1622
 5602SOL    HW228440   0.158   0.903  15.030 -2.5466 -0.3592 -0.8881
 5603SOL     OW28441   1.174   4.592   2.671 -0.3438 -0.9869 -0.2697
 5603SOL    HW128442   1.212   4.650   2.737  0.5828 -2.6470  0.6418
 5603SOL    HW228443   1.094   4.568   2.718  0.2230  1.4481  1.9310
 5604SOL     OW28444   0.793   3.911   4.542 -0.0400 -0.2498  0.4086
 5604SOL    HW128445   0.780   3.862   4.461  1.5488 -1.2448  0.7681
 5604SOL    HW228446   0.772   3.842   4.604 -0.0702 -3.1404 -2.8142
 5605SOL     OW28447   2.670   0.140  16.629 -0.6595 -0.0879 -0.3141
 5605SOL    HW128448   2.687   0.092  16.548  1.6510  0.7933 -0.3847
 5605SOL    HW228449   2.762   0.161  16.649 -1.0756  0.9562  0.5127
 5606SOL     OW28450   3.349   4.460   3.607 -0.3795  0.0701 -0.7415
 5606SOL    HW128451   3.432   4.489   3.644 -0.9502 -0.2714  0.8175
 5606SOL    HW228452   3.357   4.503   3.523 -1.4303 -0.4231 -1.0952
 5607SOL     OW28453   0.279   4.267   2.949  0.3318  0.4920  0.0444
 5607SOL    HW128454   0.301   4.239   2.860 -0.7013 -1.4350  0.3834
 5607SOL    HW228455   0.353   4.226   2.995  2.2400  1.2802 -2.3429
 5608SOL     OW28456   4.296   2.382   6.230  0.2792  0.5714 -0.1075
 5608SOL    HW128457   4.307   2.465   6.184 -1.6505  1.4675  1.0574
 5608SOL    HW228458   4.265   2.327   6.158 -0.4787  1.1664 -0.2399
 5609SOL     OW28459   2.740   1.055   2.668 -0.1309  0.3313 -0.0473
 5609SOL    HW128460   2.793   1.050   2.748 -0.3151 -1.8970 -0.0605
 5609SOL    HW228461   2.798   1.096   2.604 -0.6726 -1.6495 -1.7762
 5610SOL     OW28462   3.558   2.386  12.472 -0.2041 -0.1656 -0.2206
 5610SOL    HW128463   3.646   2.413  12.497 -0.5725  0.8496 -0.0330
 5610SOL    HW228464   3.500   2.461  12.486  0.3191  0.6503 -2.4332
 5611SOL     OW28465   4.185   0.977   9.844 -0.3782 -0.1298  0.0407
 5611SOL    HW128466   4.153   0.899   9.799  2.3232 -1.2198  0.0375
 5611SOL    HW228467   4.193   1.033   9.767  0.3196  0.5751  0.6369
 5612SOL     OW28468   4.562   4.133   9.861 -0.4506 -0.0860  0.1035
 5612SOL    HW128469   4.648   4.107   9.829  0.3350  1.1271  1.2403
 5612SOL    HW228470   4.512   4.097   9.787  0.2719 -0.2514 -0.3053
 5613SOL     OW28471   4.334   0.774  12.909  0.0792  0.3197 -0.3378
 5613SOL    HW128472   4.266   0.712  12.939  0.9370 -0.1367  0.6709
 5613SOL    HW228473   4.276   0.847  12.888 -1.2884 -0.6525 -0.0131
 5614SOL     OW28474   4.113   3.901   5.477  0.2496  1.2357  0.3524
 5614SOL    HW128475   4.128   3.966   5.545  0.2496 -0.8873  2.3866
 5614SOL    HW228476   4.090   3.958   5.404 -0.5985  1.1739  0.5666
 5615SOL     OW28477   0.425   2.794  17.216 -0.5790 -0.5150  0.7045
 5615SOL    HW128478   0.413   2.872  17.270 -0.3403  0.5316 -0.7570
 5615SOL    HW228479   0.414   2.832  17.128  0.3982  0.9962  1.2358
 5616SOL     OW28480   2.618   3.107   1.344 -0.7753  0.1139  0.1434
 5616SOL    HW128481   2.568   3.189   1.338 -1.8958 -0.7793 -2.8831
 5616SOL    HW228482   2.674   3.096   1.268  1.0410  1.4869  1.2729
 5617SOL     OW28483   3.056   0.067  11.437  0.5105  0.3099  0.0174
 5617SOL    HW128484   2.995   0.050  11.509  0.6197 -2.0100 -0.4200
 5617SOL    HW228485   3.076   4.712  11.417  2.3536  0.3412  1.7168
 5618SOL     OW28486   1.600   4.616   7.523  0.3300 -0.1910  0.3447
 5618SOL    HW128487   1.574   4.578   7.439 -2.1933 -0.5373  1.2931
 5618SOL    HW228488   1.523   4.590   7.574 -0.2877 -2.0347 -1.5212
 5619SOL     OW28489   1.245   3.046   3.097  0.3898 -0.2165  0.5399
 5619SOL    HW128490   1.192   2.971   3.125  0.8941 -0.3498  1.1409
 5619SOL    HW228491   1.280   3.084   3.177 -1.4791  2.8016 -0.0956
 5620SOL     OW28492   4.183   1.496   8.877  0.6984  0.3810  0.1518
 5620SOL    HW128493   4.235   1.418   8.898 -1.2258 -1.2788 -1.3205
 5620SOL    HW228494   4.235   1.537   8.808  1.6423  0.6952  1.0384
 5621SOL     OW28495   3.383   0.279   2.092 -0.2028  0.1443 -0.5466
 5621SOL    HW128496   3.472   0.311   2.074 -0.1000  0.0903 -0.1320
 5621SOL    HW228497   3.401   0.185   2.101  0.1720  0.1908 -0.8140
 5622SOL     OW28498   3.272   3.951   9.037  0.3894 -0.3197 -0.6239
 5622SOL    HW128499   3.228   4.013   9.096 -1.0607  0.0016 -2.0242
 5622SOL    HW228500   3.224   3.875   9.070 -0.9727  0.7811 -0.0520
 5623SOL     OW28501   3.665   0.288   2.038 -0.4381  0.4902  0.3150
 5623SOL    HW128502   3.622   0.232   1.974  1.9083  0.0182 -0.8412
 5623SOL    HW228503   3.755   0.256   2.030 -1.2915 -1.6737 -0.5173
 5624SOL     OW28504   3.080   2.733   6.281  0.0638 -0.4919 -0.0250
 5624SOL    HW128505   2.993   2.696   6.294  0.1193 -0.5760  0.1043
 5624SOL    HW228506   3.107   2.734   6.373 -0.0332  2.4234 -0.0177
 5625SOL     OW28507   3.400   4.731   9.373 -0.3121  0.5268 -0.1103
 5625SOL    HW128508   3.440   4.646   9.392  0.7318  0.9055 -0.6309
 5625SOL    HW228509   3.396   4.723   9.278 -0.9327  0.8861 -0.1184
 5626SOL     OW28510   1.853   4.429   3.443 -0.4771  0.9501  0.2177
 5626SOL    HW128511   1.937   4.449   3.401 -0.5984 -0.6128 -0.7714
 5626SOL    HW228512   1.814   4.358   3.392  0.7433  1.5420 -1.5398
 5627SOL     OW28513   2.701   3.441   3.670  0.1913 -0.8094  0.1177
 5627SOL    HW128514   2.684   3.401   3.755 -1.8262 -0.4723 -0.1391
 5627SOL    HW228515   2.718   3.355   3.633  1.4657 -0.4404 -0.1388
 5628SOL     OW28516   3.084   1.774   9.941  0.1472 -0.2691 -0.1679
 5628SOL    HW128517   3.151   1.843   9.942 -0.0958 -0.0596  1.3341
 5628SOL    HW228518   3.122   1.704   9.888  1.0972  0.5853 -0.6311
 5629SOL     OW28519   0.281   4.380   0.090  0.4741 -0.2639 -0.0351
 5629SOL    HW128520   0.331   4.352   0.013  0.9217  0.2121  0.0787
 5629SOL    HW228521   0.330   4.459   0.111  1.5616 -0.6255 -1.2055
 5630SOL     OW28522   3.775   1.260  14.728  0.1114  0.1265 -0.2113
 5630SOL    HW128523   3.776   1.176  14.681  0.5668 -0.0369  0.0890
 5630SOL    HW228524   3.835   1.307  14.671  2.0355 -0.4063  1.3783
 5631SOL     OW28525   4.630   0.285   3.730 -0.3237 -0.0970 -0.0369
 5631SOL    HW128526   4.676   0.287   3.814  3.6251 -0.6749 -2.2004
 5631SOL    HW228527   4.624   0.190   3.718 -2.0618 -0.0901  0.7441
 5632SOL     OW28528   0.511   2.304   8.010 -0.6141  0.5171 -0.3203
 5632SOL    HW128529   0.473   2.270   8.091  0.2123  0.3723  0.0069
 5632SOL    HW228530   0.542   2.225   7.965  0.5647 -0.3959  2.1397
 5633SOL     OW28531   1.503   4.520   7.287  0.2558 -0.5509  0.2431
 5633SOL    HW128532   1.455   4.569   7.220  2.1284  0.8869 -0.0533
 5633SOL    HW228533   1.548   4.452   7.237  0.8675  0.1236 -0.1286
 5634SOL     OW28534   0.906   3.324   7.682  0.2794 -0.4668 -0.4564
 5634SOL    HW128535   0.962   3.246   7.679 -0.7590 -1.2472  0.1243
 5634SOL    HW228536   0.919   3.354   7.771  0.8158 -1.5547 -0.1653
 5635SOL     OW28537   1.935   1.560   5.934 -0.1013  0.2563 -0.0462
 5635SOL    HW128538   1.944   1.535   5.842 -1.9192  1.4894 -0.5573
 5635SOL    HW228539   1.927   1.470   5.967  1.6586  0.4163  0.7641
 5636SOL     OW28540   0.157   0.501  17.263 -0.3335 -0.2271  0.0159
 5636SOL    HW128541   0.230   0.464  17.311  1.1541  0.9129 -1.3911
 5636SOL    HW228542   0.141   0.587  17.300 -0.4849 -0.0373 -0.4844
 5637SOL     OW28543   3.077   4.160   4.090 -0.4079 -0.0344  0.0886
 5637SOL    HW128544   3.010   4.102   4.127 -0.0755 -0.4820 -0.0077
 5637SOL    HW228545   3.085   4.138   3.998  0.2652  2.0409 -0.3522
 5638SOL     OW28546   3.133   1.841   5.033  0.2889  0.0619 -0.4184
 5638SOL    HW128547   3.108   1.749   5.030 -2.2065  0.7115  0.2524
 5638SOL    HW228548   3.176   1.853   4.948  0.0407  0.3667 -0.5008
 5639SOL     OW28549   3.692   0.812  15.413 -0.7786  0.2477  0.3314
 5639SOL    HW128550   3.664   0.721  15.409 -0.6874  0.1711  1.4584
 5639SOL    HW228551   3.615   0.869  15.424 -0.4181  0.8680 -0.3236
 5640SOL     OW28552   4.167   3.215   8.246  0.3760 -0.1065 -0.1425
 5640SOL    HW128553   4.131   3.138   8.289  0.6000 -1.1879 -1.8660
 5640SOL    HW228554   4.095   3.228   8.184  0.8375  0.1677 -0.6195
 5641SOL     OW28555   0.441   4.067   4.341 -0.0908  0.1292  0.1654
 5641SOL    HW128556   0.527   4.091   4.306 -1.1127  3.2227 -0.2046
 5641SOL    HW228557   0.397   4.046   4.259  2.1476  0.6551 -1.1503
 5642SOL     OW28558   0.630   2.766   2.168 -0.0954 -0.5698 -0.4147
 5642SOL    HW128559   0.540   2.792   2.150  0.0713  0.1853 -0.1768
 5642SOL    HW228560   0.644   2.725   2.083 -0.3497 -0.5081 -0.4854
 5643SOL     OW28561   3.787   4.018   5.361 -0.1712 -0.0419 -0.1689
 5643SOL    HW128562   3.745   4.052   5.441  0.8119  0.1938  0.2499
 5643SOL    HW228563   3.727   3.944   5.359 -0.7006  0.3095  2.1884
 5644SOL     OW28564   2.169   0.889   1.928 -0.2964 -0.2761 -0.3539
 5644SOL    HW128565   2.215   0.935   1.858  1.4764  0.3372  1.2236
 5644SOL    HW228566   2.189   0.802   1.893 -0.4421 -1.2930  2.1481
 5645SOL     OW28567   3.183   0.741   2.096 -0.3161 -0.2126  0.0507
 5645SOL    HW128568   3.110   0.702   2.145 -1.4335  0.0183 -1.4216
 5645SOL    HW228569   3.219   0.805   2.158  1.6942  1.6288 -3.0159
 5646SOL     OW28570   2.021   2.139  15.642 -0.8957 -0.1667  0.3085
 5646SOL    HW128571   1.937   2.108  15.609  0.1692 -4.3510  1.5803
 5646SOL    HW228572   2.054   2.059  15.683  2.1659  0.3759 -1.0706
 5647SOL     OW28573   3.369   0.363  14.881 -0.2429  0.1423 -0.5034
 5647SOL    HW128574   3.330   0.390  14.798  2.7449  3.4291 -0.8354
 5647SOL    HW228575   3.427   0.438  14.893  0.2651  0.0977 -2.6722
 5648SOL     OW28576   3.294   4.444   4.640  0.0033 -0.6290 -1.0749
 5648SOL    HW128577   3.332   4.361   4.613  3.0127  0.4437 -0.1062
 5648SOL    HW228578   3.245   4.474   4.563 -0.6887 -1.7815 -1.0756
 5649SOL     OW28579   3.652   2.932  11.512 -0.5783  0.3871  0.0076
 5649SOL    HW128580   3.739   2.955  11.480 -0.1885 -3.3701 -1.6711
 5649SOL    HW228581   3.678   2.889  11.594 -1.1737  0.8503  0.4450
 5650SOL     OW28582   1.966   4.222   6.496 -0.1627 -0.5272  0.9780
 5650SOL    HW128583   2.049   4.269   6.506 -0.7901  0.4397  1.6235
 5650SOL    HW228584   1.946   4.217   6.589 -1.0314  0.6783  0.8620
 5651SOL     OW28585   0.303   3.987   8.902 -0.3986  0.4070 -0.0295
 5651SOL    HW128586   0.377   4.021   8.952  0.5533 -0.4222 -0.8862
 5651SOL    HW228587   0.227   3.992   8.960 -0.2744  1.3045  0.0511
 5652SOL     OW28588   3.210   4.597   3.805  0.0858 -0.5005 -0.1644
 5652SOL    HW128589   3.203   4.526   3.868  2.6649 -1.9694 -1.5362
 5652SOL    HW228590   3.246   4.551   3.729  0.8853 -0.4103  0.1600
 5653SOL     OW28591   3.858   0.840  16.905 -0.3415  0.7638 -0.0974
 5653SOL    HW128592   3.825   0.930  16.909 -1.4818  0.3530 -0.3019
 5653SOL    HW228593   3.952   0.856  16.917 -0.6331  0.4736  2.4724
 5654SOL     OW28594   2.939   0.013   5.082 -0.5631 -0.4733 -0.5480
 5654SOL    HW128595   3.004   4.710   5.139  0.3244 -0.0438 -1.2505
 5654SOL    HW228596   2.990   0.089   5.055  1.0765 -0.7316  1.8133
 5655SOL     OW28597   1.267   4.128  12.340 -0.0913 -0.6756 -0.2565
 5655SOL    HW128598   1.183   4.108  12.298 -0.1071  0.6587 -0.8632
 5655SOL    HW228599   1.290   4.036  12.353  0.0863 -0.0779  3.7242
 5656SOL     OW28600   1.396   1.126   6.215  0.0066 -0.2636  0.1450
 5656SOL    HW128601   1.345   1.049   6.240 -1.7537  1.2832  1.3030
 5656SOL    HW228602   1.348   1.194   6.262 -0.7536  0.0692 -1.1296
 5657SOL     OW28603   4.733   1.546   3.875  0.2474  0.1405  0.4802
 5657SOL    HW128604   0.049   1.466   3.878 -1.5616 -1.0629  0.2922
 5657SOL    HW228605   4.642   1.516   3.881  0.0311  0.4716 -1.2364
 5658SOL     OW28606   2.613   1.721   1.595  0.3466 -0.3648 -0.7465
 5658SOL    HW128607   2.654   1.719   1.681 -2.1186 -1.7897  0.3947
 5658SOL    HW228608   2.641   1.639   1.552 -1.3354 -0.8982 -0.8397
 5659SOL     OW28609   2.289   2.570  12.621  0.1732 -0.3411 -0.5307
 5659SOL    HW128610   2.291   2.631  12.695 -0.3050  0.2255 -0.9815
 5659SOL    HW228611   2.210   2.522  12.644 -0.5867  1.7029  1.1527
 5660SOL     OW28612   2.417   2.906   3.006  0.0152 -0.4057  0.2502
 5660SOL    HW128613   2.340   2.960   2.985  2.3478  3.0680  0.6264
 5660SOL    HW228614   2.480   2.955   2.953 -0.6699  2.7601  2.2974
 5661SOL     OW28615   3.046   3.023   9.000  0.0087 -0.7636  0.1148
 5661SOL    HW128616   3.120   3.081   8.985  0.7161 -0.6003  4.2161
 5661SOL    HW228617   3.059   2.982   9.085  3.4647 -1.5674 -0.8304
 5662SOL     OW28618   3.003   1.079   3.317 -0.0426 -0.0748 -0.0764
 5662SOL    HW128619   2.981   1.008   3.377  0.1030  0.1637  0.2590
 5662SOL    HW228620   2.930   1.062   3.257  0.4094 -0.4130 -0.5291
 5663SOL     OW28621   1.243   0.914  17.086 -0.7298 -0.1694  0.3516
 5663SOL    HW128622   1.203   0.968  17.017 -1.2615  0.1325  0.9034
 5663SOL    HW228623   1.192   0.833  17.087 -0.9953  0.0167  1.8298
 5664SOL     OW28624   4.276   0.054   6.626 -0.0718  0.4680 -0.0816
 5664SOL    HW128625   4.291   4.729   6.697  0.1932  1.8311  1.0433
 5664SOL    HW228626   4.208   0.105   6.669 -1.2929  0.0783 -1.5179
 5665SOL     OW28627   1.419   2.335   2.202 -0.8158 -0.2838  0.5077
 5665SOL    HW128628   1.452   2.246   2.186  0.4176 -0.1835  2.4528
 5665SOL    HW228629   1.468   2.399   2.151 -1.0815 -0.6183 -0.1643
 5666SOL     OW28630   2.618   3.829   0.688 -0.2157 -0.1444 -0.1212
 5666SOL    HW128631   2.530   3.802   0.663 -0.3833 -0.5164  0.8458
 5666SOL    HW228632   2.665   3.748   0.667 -1.2020 -0.6043 -0.5564
 5667SOL     OW28633   2.196   4.068   3.394 -0.3501 -0.2326  0.1750
 5667SOL    HW128634   2.113   4.079   3.441  0.2156  0.6479  0.9661
 5667SOL    HW228635   2.159   4.017   3.322 -1.5800  0.5672  0.2372
 5668SOL     OW28636   3.753   3.521   9.138 -0.4188 -0.1905 -0.0225
 5668SOL    HW128637   3.733   3.553   9.226 -1.6473 -0.4709 -0.2028
 5668SOL    HW228638   3.773   3.429   9.159 -1.7216 -0.3515  0.4684
 5669SOL     OW28639   1.716   0.328   6.131  0.0110  0.1124  0.1470
 5669SOL    HW128640   1.800   0.352   6.090 -0.1744 -1.2319 -1.0085
 5669SOL    HW228641   1.748   0.346   6.220  1.7072  2.0418 -0.8485
 5670SOL     OW28642   1.885   3.319   3.638  0.1144  0.5583  0.0041
 5670SOL    HW128643   1.849   3.396   3.594 -0.9827  0.6562  1.0934
 5670SOL    HW228644   1.961   3.316   3.579 -0.5912  0.6083 -0.9035
 5671SOL     OW28645   0.135   1.854   2.873  0.3308 -0.0660  0.3813
 5671SOL    HW128646   0.099   1.920   2.814 -2.9547 -1.6927  0.5636
 5671SOL    HW228647   0.112   1.773   2.828  0.5179  0.4566 -0.6524
 5672SOL     OW28648   3.064   3.584   5.137 -0.1916  0.4525  0.2908
 5672SOL    HW128649   3.135   3.637   5.173  0.5919  0.0277 -0.6296
 5672SOL    HW228650   3.099   3.494   5.137 -0.8449  0.2039 -0.8088
 5673SOL     OW28651   0.721   1.547  15.956 -0.2206 -0.3340  0.1492
 5673SOL    HW128652   0.745   1.495  15.879  2.0166  0.0202  0.6096
 5673SOL    HW228653   0.685   1.483  16.017  0.0806 -0.3537  0.3026
 5674SOL     OW28654   2.922   1.841   8.288 -0.1131  0.3440 -0.3251
 5674SOL    HW128655   2.948   1.761   8.243 -0.3565 -0.2627  0.6167
 5674SOL    HW228656   2.832   1.811   8.305 -0.0216  0.7327  0.8565
 5675SOL     OW28657   0.185   1.439   1.033 -0.7944 -0.0201  0.4228
 5675SOL    HW128658   0.217   1.523   1.065  2.0367 -0.7482 -0.4657
 5675SOL    HW228659   0.201   1.383   1.109 -0.0730 -0.2206  0.1252
 5676SOL     OW28660   2.923   1.390   1.639 -0.1941  0.1063 -0.3552
 5676SOL    HW128661   2.842   1.343   1.621  0.4294  0.1379 -3.2193
 5676SOL    HW228662   2.990   1.338   1.594 -0.4899 -1.9687  1.5691
 5677SOL     OW28663   4.089   1.387   6.137  0.3442  0.3092 -0.4040
 5677SOL    HW128664   4.139   1.456   6.180 -0.2914  0.8414 -0.5237
 5677SOL    HW228665   4.015   1.430   6.094 -1.7768 -1.3181  1.6459
 5678SOL     OW28666   2.942   1.745   2.172 -0.4886  0.2348  0.1590
 5678SOL    HW128667   3.037   1.746   2.171 -0.4625 -1.6683  0.2346
 5678SOL    HW228668   2.923   1.797   2.094 -3.3460 -2.7157 -1.1467
 5679SOL     OW28669   2.536   1.731   3.867 -0.1067  0.9212 -0.2687
 5679SOL    HW128670   2.542   1.636   3.878  1.0168  1.0433  0.1678
 5679SOL    HW228671   2.582   1.755   3.947 -0.9597  1.2846  0.1110
 5680SOL     OW28672   2.703   4.542   4.843  0.1357 -0.2400  0.3522
 5680SOL    HW128673   2.656   4.510   4.766  1.2703  2.6109 -1.5181
 5680SOL    HW228674   2.716   4.636   4.829  1.2892 -0.4783 -0.1721
 5681SOL     OW28675   2.800   3.100   3.011  0.4566  0.2780 -0.2328
 5681SOL    HW128676   2.803   3.072   2.920  2.0907 -0.1620 -0.0382
 5681SOL    HW228677   2.855   3.178   3.009  2.0090 -0.7997  0.0635
 5682SOL     OW28678   1.867   2.440   1.623 -0.3113 -0.1818  0.0253
 5682SOL    HW128679   1.905   2.509   1.679  3.1128 -2.0623 -0.0033
 5682SOL    HW228680   1.915   2.363   1.652  2.7286  0.5220 -3.0878
 5683SOL     OW28681   2.105   3.875   5.728 -0.2334 -0.0810  0.2336
 5683SOL    HW128682   2.115   3.871   5.633  1.3662 -0.0660  0.3974
 5683SOL    HW228683   2.081   3.783   5.742  1.6910 -0.3799  1.5955
 5684SOL     OW28684   0.404   3.190   6.495 -0.0799  0.0875  0.0407
 5684SOL    HW128685   0.455   3.134   6.437 -0.4473 -1.5655  1.2880
 5684SOL    HW228686   0.317   3.150   6.494 -0.6602  1.3335  0.3578
 5685SOL     OW28687   2.891   1.663   9.372  0.4118  0.7625 -0.8849
 5685SOL    HW128688   2.883   1.757   9.360  2.5267  1.5692  4.1330
 5685SOL    HW228689   2.975   1.656   9.417 -0.5941 -1.9886  0.5888
 5686SOL     OW28690   1.542   1.514   9.679  0.1006  0.2129 -0.4059
 5686SOL    HW128691   1.587   1.492   9.597 -0.7444  1.5658 -1.2379
 5686SOL    HW228692   1.558   1.608   9.690  0.5577  0.2080 -1.0081
 5687SOL     OW28693   4.054   1.228  15.859  0.6244  0.5642 -0.5190
 5687SOL    HW128694   4.056   1.166  15.786  0.3677  1.4170 -1.2581
 5687SOL    HW228695   4.147   1.248  15.865  1.3066 -2.5426 -0.6501
 5688SOL     OW28696   3.850   3.744  15.679 -0.2564  0.3496 -0.4142
 5688SOL    HW128697   3.866   3.827  15.724  1.5603 -0.3733  0.2573
 5688SOL    HW228698   3.806   3.782  15.603 -0.0828 -1.8082 -1.5731
 5689SOL     OW28699   4.164   3.017   5.289 -0.2933  0.1603  0.1510
 5689SOL    HW128700   4.218   3.095   5.299 -0.4717  0.0115  2.3617
 5689SOL    HW228701   4.225   2.944   5.303  1.5764  1.8558  0.7467
 5690SOL     OW28702   3.123   0.685   9.064  0.6696 -0.3112  0.0431
 5690SOL    HW128703   3.105   0.652   9.151 -0.3294  1.9894  0.7204
 5690SOL    HW228704   3.069   0.764   9.058  0.4024 -0.5983 -1.3371
 5691SOL     OW28705   3.325   0.537   7.471 -0.1060 -0.2860  0.4559
 5691SOL    HW128706   3.279   0.610   7.430 -0.9460 -1.1173 -0.0927
 5691SOL    HW228707   3.393   0.519   7.407 -0.9581  0.0020 -0.5325
 5692SOL     OW28708   0.820   3.731  12.205  0.2247 -0.3167 -0.2604
 5692SOL    HW128709   0.904   3.687  12.192  0.2589 -0.2926 -0.1235
 5692SOL    HW228710   0.817   3.786  12.127  1.8234  1.0781  0.6682
 5693SOL     OW28711   3.624   4.608   4.864 -0.1359  0.0239  0.1598
 5693SOL    HW128712   3.536   4.638   4.842  0.6218  1.8330 -0.3822
 5693SOL    HW228713   3.682   4.650   4.800  0.4235  0.3488  0.8807
 5694SOL     OW28714   0.013   3.279   7.161 -0.3151 -0.5098  0.5955
 5694SOL    HW128715   0.033   3.362   7.203  0.7398 -2.2679  3.5297
 5694SOL    HW228716   4.684   3.244   7.221 -1.3840 -0.8452 -0.7708
 5695SOL     OW28717   4.383   0.276  14.810 -0.4365  1.1010  0.4626
 5695SOL    HW128718   4.304   0.238  14.771  0.7712  1.0800 -1.9713
 5695SOL    HW228719   4.375   0.362  14.767  2.3469  0.5883 -1.0612
 5696SOL     OW28720   3.822   1.621   5.279  0.5971  0.3047 -0.3634
 5696SOL    HW128721   3.844   1.539   5.323 -0.5682  0.2106  0.0507
 5696SOL    HW228722   3.733   1.636   5.313  0.5802  0.4774 -0.4840
 5697SOL     OW28723   1.555   3.390   7.155 -0.0511 -0.2374 -0.0386
 5697SOL    HW128724   1.495   3.353   7.090 -1.5006  0.1434  1.0706
 5697SOL    HW228725   1.484   3.418   7.213 -1.0488  0.7327 -1.7183
 5698SOL     OW28726   2.653   0.572   4.012 -0.1470  0.3151 -0.4187
 5698SOL    HW128727   2.696   0.492   4.040  1.0490  1.2583  0.4285
 5698SOL    HW228728   2.579   0.532   3.966  0.3296  0.6967 -1.5244
 5699SOL     OW28729   1.359   3.182  11.761  0.2310 -0.4662 -0.3619
 5699SOL    HW128730   1.273   3.163  11.724 -0.2474 -2.0774  1.6252
 5699SOL    HW228731   1.384   3.258  11.708 -0.5219  0.0541  0.0154
 5700SOL     OW28732   4.491   3.133   8.513  0.1951  0.7430  0.3609
 5700SOL    HW128733   4.575   3.092   8.493 -1.0930 -2.3966  1.3606
 5700SOL    HW228734   4.464   3.162   8.426 -1.2131  0.6824  0.7785
 5701SOL     OW28735   4.708   0.958   6.253 -0.2948 -0.6830  0.9925
 5701SOL    HW128736   4.692   0.884   6.312  0.9093  0.7384  3.0905
 5701SOL    HW228737   4.629   1.011   6.246  0.3080  0.3808  2.2080
 5702SOL     OW28738   3.165   2.137  16.715  0.1235 -0.3447  0.2550
 5702SOL    HW128739   3.239   2.156  16.774  0.1147  1.4764 -0.3111
 5702SOL    HW228740   3.139   2.228  16.701  1.4592 -0.0459 -0.2807
 5703SOL     OW28741   4.652   0.700   1.625  0.0659 -0.1631  0.4703
 5703SOL    HW128742   4.721   0.726   1.565 -1.4319  0.1357 -1.1398
 5703SOL    HW228743   4.635   0.789   1.656 -0.4895 -0.2487  0.4207
 5704SOL     OW28744   1.012   2.734   2.063  0.3261  0.0592 -0.3096
 5704SOL    HW128745   1.103   2.761   2.074  1.0743 -3.0564  1.1470
 5704SOL    HW228746   1.016   2.660   2.123 -1.5403  0.3100  0.1290
 5705SOL     OW28747   4.396   1.735   7.762 -0.5616  0.0590  0.3295
 5705SOL    HW128748   4.485   1.741   7.797  0.6815  0.0461 -2.8117
 5705SOL    HW228749   4.408   1.741   7.667 -1.5768  0.9195  0.2667
 5706SOL     OW28750   3.503   1.967  12.683  0.3794  0.0457  0.8159
 5706SOL    HW128751   3.479   1.875  12.690  2.6005 -0.6015 -0.1691
 5706SOL    HW228752   3.552   1.980  12.764  1.1059 -0.4213  0.4415
 5707SOL     OW28753   3.886   3.995   0.292 -0.4135 -0.4719 -0.5655
 5707SOL    HW128754   3.861   3.904   0.310 -1.4224 -0.4376 -1.7498
 5707SOL    HW228755   3.844   4.044   0.362  0.4943 -0.6507  0.1064
 5708SOL     OW28756   0.629   1.746   2.131 -0.8645 -0.9191 -0.4569
 5708SOL    HW128757   0.546   1.760   2.086  0.9703  2.2170 -2.8663
 5708SOL    HW228758   0.607   1.803   2.206 -2.4367 -0.5745 -1.1819
 5709SOL     OW28759   0.881   0.555   8.485  0.4856 -0.3725 -0.3923
 5709SOL    HW128760   0.959   0.554   8.429  0.0523  1.4089 -1.0358
 5709SOL    HW228761   0.823   0.529   8.413  1.6018  1.0667 -1.8320
 5710SOL     OW28762   2.925   0.095   1.926 -0.4777  0.5238 -0.4906
 5710SOL    HW128763   2.984   0.049   1.867  0.6945  1.6975 -0.2314
 5710SOL    HW228764   2.941   0.187   1.903  2.3724 -0.4854 -2.4402
 5711SOL     OW28765   4.623   1.572   6.708 -0.5147 -0.3965 -0.1460
 5711SOL    HW128766   4.699   1.588   6.651 -0.6977 -0.4485 -0.4074
 5711SOL    HW228767   4.578   1.656   6.703  1.6563  0.9002  1.9088
 5712SOL     OW28768   2.447   0.496   9.760  0.0854 -0.2887  0.1530
 5712SOL    HW128769   2.528   0.524   9.804 -1.1596  0.3248  2.0576
 5712SOL    HW228770   2.472   0.420   9.708 -0.6680  0.1943 -0.9128
 5713SOL     OW28771   0.461   1.623   8.419  0.3452  0.1913 -0.4058
 5713SOL    HW128772   0.506   1.539   8.424  0.6278  0.2901 -1.4739
 5713SOL    HW228773   0.370   1.593   8.409 -0.2411  1.0976  2.1808
 5714SOL     OW28774   0.514   0.320   9.261  0.1412  0.0780 -0.5561
 5714SOL    HW128775   0.433   0.290   9.302  0.3150  1.7909  1.0035
 5714SOL    HW228776   0.572   0.283   9.327  0.4159  0.4479 -0.5908
 5715SOL     OW28777   2.218   2.768   0.323 -0.0444 -0.0576 -0.2463
 5715SOL    HW128778   2.300   2.740   0.282  0.2719  1.8747 -0.9293
 5715SOL    HW228779   2.239   2.829   0.393 -0.4002  0.3733 -0.5132
 5716SOL     OW28780   2.472   3.551  17.427  0.5954  0.2892 -0.6696
 5716SOL    HW128781   2.393   3.543  17.480  1.0349 -0.6547 -0.1353
 5716SOL    HW228782   2.540   3.503  17.475 -0.6569 -1.0276 -0.2268
 5717SOL     OW28783   3.728   4.550   1.375 -0.1302  0.1972  0.4995
 5717SOL    HW128784   3.763   4.638   1.358  1.1232 -0.2986  0.5760
 5717SOL    HW228785   3.751   4.535   1.466  0.7694 -0.8419  0.0902
 5718SOL     OW28786   3.379   4.235   5.536 -0.4319  0.0696 -0.1390
 5718SOL    HW128787   3.446   4.168   5.547  0.9123  1.6294  1.2094
 5718SOL    HW228788   3.325   4.221   5.614 -2.3486 -0.0482 -1.4896
 5719SOL     OW28789   1.488   1.095   7.361  0.1033  0.0184  0.4285
 5719SOL    HW128790   1.466   1.151   7.286  1.4052  0.4345  0.3481
 5719SOL    HW228791   1.548   1.032   7.321 -0.0505  0.5413 -0.6172
 5720SOL     OW28792   3.164   4.679   5.217 -0.8385  0.2609  0.0206
 5720SOL    HW128793   3.197   4.613   5.277 -0.0081  2.2294  1.7432
 5720SOL    HW228794   3.228   0.012   5.232 -0.1305 -0.8097  1.9745
 5721SOL     OW28795   2.808   4.328   4.988  0.2333 -0.2622  0.3783
 5721SOL    HW128796   2.786   4.407   4.939 -3.5687 -2.7327 -1.8594
 5721SOL    HW228797   2.872   4.290   4.928 -0.7327 -0.5375 -0.4805
 5722SOL     OW28798   1.111   3.518   3.379 -0.1754 -0.4396 -0.4009
 5722SOL    HW128799   1.158   3.531   3.297 -0.1774  1.9908 -0.0109
 5722SOL    HW228800   1.070   3.434   3.356 -0.8190 -0.0055 -0.8357
 5723SOL     OW28801   4.189   3.143   9.421 -0.0289 -0.2635 -0.2232
 5723SOL    HW128802   4.146   3.121   9.503 -1.2883 -1.5018 -1.2112
 5723SOL    HW228803   4.128   3.107   9.356 -1.2367  1.3151  0.0278
 5724SOL     OW28804   3.152   1.999   9.427  0.2094  0.4331  0.3206
 5724SOL    HW128805   3.123   2.042   9.346 -0.3796  1.0570  0.8645
 5724SOL    HW228806   3.155   2.073   9.486  1.3830 -0.1149  0.9361
 5725SOL     OW28807   3.522   3.361   3.891  0.1998 -0.0125  0.3633
 5725SOL    HW128808   3.563   3.395   3.970 -1.0509 -2.1884  1.9925
 5725SOL    HW228809   3.433   3.335   3.917 -0.0229  1.3163  0.9053
 5726SOL     OW28810   3.862   3.411   0.360 -0.1396  0.5902 -0.9437
 5726SOL    HW128811   3.868   3.431   0.454  2.2496 -1.0955 -0.7574
 5726SOL    HW228812   3.941   3.446   0.319  0.9339 -0.5282  0.1874
 5727SOL     OW28813   1.137   0.874   3.489  0.7392  0.7812 -0.1257
 5727SOL    HW128814   1.133   0.823   3.409  2.6018  1.2121 -0.4827
 5727SOL    HW228815   1.165   0.959   3.456  2.4049  0.4999  0.5919
 5728SOL     OW28816   2.854   4.282  15.896  0.5356  0.4071 -0.2757
 5728SOL    HW128817   2.842   4.281  15.801 -1.0228 -0.6735 -0.0772
 5728SOL    HW228818   2.918   4.211  15.905  0.2366  0.5475  2.9583
 5729SOL     OW28819   1.635   1.586   8.183 -0.8369  0.0058  0.0802
 5729SOL    HW128820   1.612   1.655   8.120 -1.1841  0.2420  0.4631
 5729SOL    HW228821   1.545   1.555   8.196 -0.2314 -0.6559  2.6344
 5730SOL     OW28822   3.735   4.275   7.763  0.7582 -0.3782 -0.2296
 5730SOL    HW128823   3.785   4.329   7.824  1.6220  1.1187 -2.2669
 5730SOL    HW228824   3.808   4.216   7.740  1.5902  0.4901  0.2057
 5731SOL     OW28825   3.755   0.417  11.359 -0.1979  0.2915 -0.3694
 5731SOL    HW128826   3.815   0.344  11.343 -1.1297 -0.7087  0.6700
 5731SOL    HW228827   3.815   0.475  11.405  1.3492 -2.2102  0.7692
 5732SOL     OW28828   4.241   2.300   4.303 -0.0503  0.5048  0.1758
 5732SOL    HW128829   4.249   2.211   4.339  1.0250 -0.6861 -3.0021
 5732SOL    HW228830   4.176   2.283   4.235  2.1144 -1.1363 -1.4393
 5733SOL     OW28831   1.991   1.387  13.310 -0.0359 -0.2645  0.1499
 5733SOL    HW128832   2.013   1.295  13.327 -0.3046 -0.2968  0.3225
 5733SOL    HW228833   1.929   1.413  13.379 -2.6167 -0.3920 -2.1301
 5734SOL     OW28834   3.296   2.078   6.673  0.0893  0.1656  0.6937
 5734SOL    HW128835   3.390   2.082   6.689  0.0514 -0.2696  1.0546
 5734SOL    HW228836   3.296   2.075   6.578 -0.2822 -0.9868  0.7327
 5735SOL     OW28837   0.753   0.492   9.199 -0.5716  0.2162 -0.0047
 5735SOL    HW128838   0.772   0.455   9.113 -0.4026 -0.9005  0.5123
 5735SOL    HW228839   0.689   0.431   9.237  1.7788 -1.0686  1.9056
 5736SOL     OW28840   3.690   3.832  15.451 -0.0758 -0.6027 -0.0190
 5736SOL    HW128841   3.636   3.905  15.421  0.7049  0.2682  0.6907
 5736SOL    HW228842   3.741   3.827  15.370  1.3430  1.4543  0.7476
 5737SOL     OW28843   4.223   4.367   2.061 -0.0439 -0.1563  0.2617
 5737SOL    HW128844   4.169   4.386   2.138 -0.1516  0.1637  0.1081
 5737SOL    HW228845   4.238   4.459   2.039 -2.0702  0.1235  0.0182
 5738SOL     OW28846   3.091   3.704  17.447  0.2578  0.1968  0.8682
 5738SOL    HW128847   3.054   3.696  17.359  0.0525 -0.3420  1.0024
 5738SOL    HW228848   3.009   3.684  17.492 -0.3873 -2.7954 -1.5910
 5739SOL     OW28849   0.676   4.266   3.074  0.5884  0.0122  0.0310
 5739SOL    HW128850   0.657   4.233   2.986  0.6016 -1.2847  0.5172
 5739SOL    HW228851   0.724   4.344   3.046  0.9003 -0.5940 -1.1285
 5740SOL     OW28852   1.727   4.629   5.815 -0.0447 -0.2580  0.4668
 5740SOL    HW128853   1.655   4.645   5.754 -0.4170  1.9180  1.4795
 5740SOL    HW228854   1.769   4.555   5.770 -0.9306 -1.1544  1.1157
 5741SOL     OW28855   3.944   1.954  11.657 -0.1610 -0.0921  0.6839
 5741SOL    HW128856   3.883   1.899  11.706  0.8829  0.9440  3.1505
 5741SOL    HW228857   3.926   1.929  11.567 -1.6303 -1.9007  1.4885
 5742SOL     OW28858   1.905   3.221   4.586  0.0633 -0.3180 -0.6816
 5742SOL    HW128859   1.864   3.141   4.619 -1.5812  0.8279  0.1107
 5742SOL    HW228860   1.945   3.240   4.671  0.5014  0.5961 -1.0930
 5743SOL     OW28861   2.532   3.255   0.072  0.0422  0.3363  0.3974
 5743SOL    HW128862   2.579   3.263   0.155  1.0153  2.0434 -0.3073
 5743SOL    HW228863   2.441   3.274   0.098 -0.5109  0.1921 -1.4789
 5744SOL     OW28864   1.381   0.136   9.312  0.0439 -0.1634  0.0428
 5744SOL    HW128865   1.444   0.064   9.311 -0.8331 -0.9249  0.1684
 5744SOL    HW228866   1.315   0.094   9.366  0.4902  0.8789  1.3978
 5745SOL     OW28867   0.104   1.462   6.068  0.2001  0.9037 -0.0061
 5745SOL    HW128868   0.120   1.381   6.020  1.2487  1.6454 -0.9193
 5745SOL    HW228869   0.166   1.523   6.027 -0.0817 -0.2082 -2.1033
 5746SOL     OW28870   0.635   1.830   5.159  0.0125  0.3482  0.4434
 5746SOL    HW128871   0.576   1.873   5.220 -1.0049  0.4578 -0.6122
 5746SOL    HW228872   0.592   1.746   5.139  0.6150 -0.1656  1.2955
 5747SOL     OW28873   2.453   2.664   0.248  0.7099  0.6157 -0.0625
 5747SOL    HW128874   2.541   2.641   0.276  0.4445 -0.5715 -0.1743
 5747SOL    HW228875   2.436   2.600   0.178 -0.8286  1.2056 -0.2238
 5748SOL     OW28876   0.348   1.702  17.372 -0.4960  0.1682  0.0779
 5748SOL    HW128877   0.344   1.797  17.385 -2.6239  0.1695 -0.6438
 5748SOL    HW228878   0.313   1.691  17.284  0.9094  0.7183 -0.5502
 5749SOL     OW28879   3.993   0.134   1.677 -0.3611  0.0034 -0.6394
 5749SOL    HW128880   4.057   0.064   1.692 -1.7940 -1.3305 -0.7411
 5749SOL    HW228881   4.057   0.192   1.636 -1.1271  0.8245 -0.6709
 5750SOL     OW28882   3.502   4.171   3.028 -0.2302  0.1606 -0.3708
 5750SOL    HW128883   3.421   4.208   2.993 -0.7710 -0.1254  0.5771
 5750SOL    HW228884   3.491   4.077   3.017 -0.0180  0.2261 -1.1094
 5751SOL     OW28885   1.080   4.495   2.971 -0.2066  0.8924 -0.5083
 5751SOL    HW128886   1.057   4.588   2.969 -0.7462  0.7468 -1.0138
 5751SOL    HW228887   1.076   4.487   3.067 -0.7877 -0.0131 -0.6146
 5752SOL     OW28888   3.893   1.127   5.256  0.4872  0.5261  0.0207
 5752SOL    HW128889   3.977   1.093   5.226 -1.0742 -2.3543 -1.0975
 5752SOL    HW228890   3.843   1.058   5.213 -0.3838 -1.0381  3.4988
 5753SOL     OW28891   2.651   3.160   8.466  0.4014 -0.5672 -0.2367
 5753SOL    HW128892   2.681   3.079   8.423  1.4481 -0.6928  0.7439
 5753SOL    HW228893   2.608   3.119   8.541  0.5897  0.6322  0.5185
 5754SOL     OW28894   0.846   1.875   3.567  0.6312  0.1256  0.0820
 5754SOL    HW128895   0.874   1.864   3.476 -1.3797 -2.4850 -0.2301
 5754SOL    HW228896   0.839   1.785   3.599  0.6317  1.2349  3.2340
 5755SOL     OW28897   4.592   4.061   4.999 -0.1814  0.0015  0.6590
 5755SOL    HW128898   4.598   3.998   5.072 -0.4796  1.1075  1.6291
 5755SOL    HW228899   4.580   4.001   4.925  1.6437 -2.6392  2.5056
 5756SOL     OW28900   0.439   3.766   8.597 -0.0011 -0.1421  0.3204
 5756SOL    HW128901   0.381   3.841   8.586 -0.9195 -1.1002 -1.2887
 5756SOL    HW228902   0.414   3.737   8.685 -0.6889 -3.1559 -0.8799
 5757SOL     OW28903   4.437   0.255  16.228 -0.1289  0.5212 -0.3731
 5757SOL    HW128904   4.343   0.274  16.229 -0.2906 -0.3152  1.1603
 5757SOL    HW228905   4.438   0.160  16.213 -0.2853  0.2657  1.2277
 5758SOL     OW28906   0.194   2.044   3.459  0.5673  0.1403  0.0643
 5758SOL    HW128907   0.135   2.042   3.534 -1.2912  1.8870 -1.3708
 5758SOL    HW228908   0.248   1.967   3.474 -1.4023 -1.3094 -0.3431
 5759SOL     OW28909   2.129   0.206  14.734  0.0866 -0.4455 -0.2879
 5759SOL    HW128910   2.156   0.288  14.774  1.1291 -0.1961 -1.4892
 5759SOL    HW228911   2.209   0.155  14.718 -0.8036 -1.7805 -0.4858
 5760SOL     OW28912   3.520   1.240   2.186  0.3774 -0.1786 -0.2430
 5760SOL    HW128913   3.432   1.239   2.224 -0.1078  0.1228 -1.3650
 5760SOL    HW228914   3.567   1.286   2.256  3.1133 -3.4633  0.0756
 5761SOL     OW28915   4.578   1.669   2.166 -0.2721 -1.0586 -0.0669
 5761SOL    HW128916   4.557   1.610   2.093 -0.0203 -1.3316  0.0811
 5761SOL    HW228917   4.640   1.617   2.216 -1.3370 -1.1655  1.1331
 5762SOL     OW28918   3.775   0.476  16.124 -0.1992  0.0631 -0.8622
 5762SOL    HW128919   3.706   0.541  16.115  1.2252  1.9297  1.6619
 5762SOL    HW228920   3.832   0.515  16.057 -0.6747  0.0398 -1.2862
 5763SOL     OW28921   0.363   1.873  15.370 -0.0168  0.2396  0.3543
 5763SOL    HW128922   0.417   1.936  15.417  1.1845  0.0250 -0.7317
 5763SOL    HW228923   0.429   1.825  15.319  0.1477  1.1762 -0.3007
 5764SOL     OW28924   1.535   3.578   6.497  0.1792 -0.2794 -0.8201
 5764SOL    HW128925   1.514   3.594   6.589 -1.6203 -1.0670 -1.0936
 5764SOL    HW228926   1.492   3.656   6.463  0.3867  0.0183 -0.3905
 5765SOL     OW28927   0.746   1.444   9.577  0.5651  0.2648  0.3564
 5765SOL    HW128928   0.699   1.449   9.661  3.0606  0.7024  1.7341
 5765SOL    HW228929   0.719   1.528   9.541  0.2145 -0.3674 -0.8631
 5766SOL     OW28930   2.231   3.450   7.639  0.0688  0.5175  0.0692
 5766SOL    HW128931   2.278   3.511   7.696 -0.0338  0.7874 -0.1358
 5766SOL    HW228932   2.262   3.364   7.668 -0.4845  0.0002 -0.8596
 5767SOL     OW28933   2.652   1.844   4.162  0.2100 -0.6217  0.0963
 5767SOL    HW128934   2.705   1.863   4.240  0.5249 -3.9493  0.6633
 5767SOL    HW228935   2.567   1.881   4.187 -0.1825 -2.6860  1.7856
 5768SOL     OW28936   1.959   3.100   5.969  0.0080  0.2608 -0.0911
 5768SOL    HW128937   2.052   3.078   5.967 -0.1692 -0.5378  0.3984
 5768SOL    HW228938   1.963   3.189   6.004  1.2443  0.5555 -0.9752
 5769SOL     OW28939   2.821   4.699   4.385  0.6841  0.0780 -0.8965
 5769SOL    HW128940   2.864   0.044   4.407 -1.2457  0.5060  1.3092
 5769SOL    HW228941   2.731   4.720   4.413  0.5895 -1.7746  0.1690
 5770SOL     OW28942   0.033   3.385   8.150 -0.7260 -0.3413  0.1638
 5770SOL    HW128943   0.128   3.393   8.143 -0.6354 -1.7547 -0.2943
 5770SOL    HW228944   0.026   3.306   8.096 -0.4608 -0.4647  0.3046
 5771SOL     OW28945   1.094   4.329   1.808 -0.0750  0.1990  0.3971
 5771SOL    HW128946   1.037   4.288   1.874 -0.6180  1.8199  0.9372
 5771SOL    HW228947   1.174   4.350   1.857 -0.7014  0.5884  1.2490
 5772SOL     OW28948   2.708   3.724   3.414  0.3832 -0.0084 -0.1323
 5772SOL    HW128949   2.683   3.748   3.324  2.1795  0.7315 -0.4280
 5772SOL    HW228950   2.714   3.628   3.413 -1.0301 -0.1347  3.0181
 5773SOL     OW28951   4.521   2.495   8.380 -0.7880  0.3013 -0.0610
 5773SOL    HW128952   4.535   2.407   8.345  3.4589  0.9483  0.0474
 5773SOL    HW228953   4.427   2.490   8.400 -0.7018 -0.4491  0.1743
 5774SOL     OW28954   2.277   3.177   9.800 -0.1496 -0.1644  0.0727
 5774SOL    HW128955   2.267   3.260   9.754 -0.3486 -1.5431 -2.3847
 5774SOL    HW228956   2.195   3.174   9.850 -0.8932 -0.2501 -1.1529
 5775SOL     OW28957   2.412   3.001   7.019 -0.4600  0.3928 -0.1874
 5775SOL    HW128958   2.400   3.034   7.108  0.6847  0.7290 -0.1606
 5775SOL    HW228959   2.371   3.074   6.973 -1.4166 -1.2884 -1.9928
 5776SOL     OW28960   1.375   1.463   1.534  0.4783  0.1761  0.1955
 5776SOL    HW128961   1.327   1.424   1.460  1.2465 -0.0648 -0.1835
 5776SOL    HW228962   1.306   1.519   1.568  2.7938  1.0386  3.4225
 5777SOL     OW28963   1.179   3.008   9.636  0.2176  0.0450 -0.2224
 5777SOL    HW128964   1.154   2.962   9.716  2.2361  0.1913  0.4889
 5777SOL    HW228965   1.131   3.090   9.642  0.3056 -0.1232  3.0182
 5778SOL     OW28966   2.683   4.481   7.999  0.2254 -0.4456  0.5317
 5778SOL    HW128967   2.694   4.391   7.967  2.7170 -0.4119  1.2580
 5778SOL    HW228968   2.639   4.477   8.084  1.6802 -0.6522  1.2896
 5779SOL     OW28969   2.159   1.184  14.918 -0.5377 -0.2096  0.2710
 5779SOL    HW128970   2.180   1.275  14.939 -1.2458 -0.2833  1.2946
 5779SOL    HW228971   2.133   1.147  15.002 -0.4104  1.2736  0.9690
 5780SOL     OW28972   3.200   1.384  17.506  1.0278 -0.8730 -0.1149
 5780SOL    HW128973   3.133   1.383  17.575  1.4962 -1.3497  0.3332
 5780SOL    HW228974   3.160   1.346  17.428 -2.7764  0.0207  1.3759
 5781SOL     OW28975   1.701   1.636  17.504  0.3229 -0.1537  0.5369
 5781SOL    HW128976   1.731   1.572  17.569  0.6838  0.7425  1.2530
 5781SOL    HW228977   1.731   1.716  17.546  2.9007 -0.7424 -0.1871
 5782SOL     OW28978   4.650   3.621   0.228  0.3656 -0.6194  0.0109
 5782SOL    HW128979   0.007   3.641   0.232  0.2922 -0.9954  3.4117
 5782SOL    HW228980   4.652   3.526   0.238  1.0551 -0.5250  0.7730
 5783SOL     OW28981   1.154   3.164   7.370  0.8595 -0.2499 -0.1443
 5783SOL    HW128982   1.243   3.130   7.362  1.3642  1.2327 -0.7560
 5783SOL    HW228983   1.129   3.120   7.452 -0.3458  0.7415  0.0114
 5784SOL     OW28984   1.006   0.851   7.011 -0.1676 -0.4181  0.1054
 5784SOL    HW128985   1.048   0.776   7.052 -1.4133 -0.4691  1.3113
 5784SOL    HW228986   0.999   0.833   6.918 -0.5391 -0.1048  0.0695
 5785SOL     OW28987   1.617   0.120   7.929  0.0508  0.1220 -0.2268
 5785SOL    HW128988   1.689   0.062   7.906  1.2495  0.5189  2.5604
 5785SOL    HW228989   1.549   0.065   7.890 -0.8546  0.5904  0.6855
 5786SOL     OW28990   1.485   1.190  16.824 -0.0094  0.6682  0.4310
 5786SOL    HW128991   1.448   1.204  16.737  3.0431  0.7566 -0.8630
 5786SOL    HW228992   1.498   1.095  16.819  0.4676  0.7168  0.7982
 5787SOL     OW28993   1.284   0.927  14.967 -0.0844  0.1399 -0.5127
 5787SOL    HW128994   1.244   0.896  14.886  1.4511  0.6732 -1.4787
 5787SOL    HW228995   1.243   0.876  15.037 -2.8077  1.3267 -1.2685
 5788SOL     OW28996   4.673   4.649   9.973 -0.0161  0.3372 -0.3579
 5788SOL    HW128997   4.736   4.594   9.927  1.7034  2.7539 -0.8682
 5788SOL    HW228998   4.595   4.601   9.943  0.0786 -0.4995  0.7225
 5789SOL     OW28999   1.235   0.847   6.279  0.1065 -0.2785  0.0681
 5789SOL    HW129000   1.160   0.787   6.267 -0.0191 -0.3380  1.1452
 5789SOL    HW229001   1.262   0.823   6.367 -0.0672  0.2415  0.2575
 5790SOL     OW29002   4.344   2.144  12.224  0.5008 -0.1220 -0.1884
 5790SOL    HW129003   4.407   2.191  12.170  0.5802  0.2897  0.2556
 5790SOL    HW229004   4.260   2.185  12.205 -0.7672 -1.3362  2.7591
 5791SOL     OW29005   1.039   3.070   2.923 -0.1392  0.3554  0.2459
 5791SOL    HW129006   1.113   3.018   2.953 -1.2549 -0.8508  0.8841
 5791SOL    HW229007   1.059   3.161   2.943 -2.1739  0.8251  0.1932
 5792SOL     OW29008   2.461   1.553  16.681  0.5964  0.3026 -0.2670
 5792SOL    HW129009   2.410   1.604  16.745  1.1230  2.0207 -1.2005
 5792SOL    HW229010   2.455   1.468  16.723  0.5746  0.2357 -0.4063
 5793SOL     OW29011   3.640   2.372   2.983 -0.1944  0.7318  0.3051
 5793SOL    HW129012   3.730   2.399   3.001 -1.0931  2.5611  2.0042
 5793SOL    HW229013   3.611   2.437   2.919  0.3590 -0.5209 -1.2288
 5794SOL     OW29014   2.602   0.133   1.364  0.2286 -0.5155  0.3255
 5794SOL    HW129015   2.681   0.095   1.325 -1.1710 -2.1873 -0.9267
 5794SOL    HW229016   2.596   0.090   1.449 -1.2918  1.2440  1.1213
 5795SOL     OW29017   2.099   2.576   5.315  0.0023 -0.0390 -0.0614
 5795SOL    HW129018   2.164   2.643   5.334  2.5333 -2.2798 -0.7143
 5795SOL    HW229019   2.139   2.501   5.360  1.7288  1.4455  0.8883
 5796SOL     OW29020   2.391   1.493   1.566 -0.3262 -0.5249 -0.2076
 5796SOL    HW129021   2.485   1.477   1.562 -0.0386  0.5406  2.4034
 5796SOL    HW229022   2.360   1.425   1.627 -0.0688 -0.3825  0.0833
 5797SOL     OW29023   1.290   2.526   3.248 -0.6004 -0.7372 -0.7531
 5797SOL    HW129024   1.298   2.433   3.229  0.7541 -0.0453 -3.6623
 5797SOL    HW229025   1.221   2.534   3.314  1.3813 -0.6826  1.2652
 5798SOL     OW29026   4.096   0.007   6.883  0.1113  0.0284  0.0385
 5798SOL    HW129027   4.052   4.691   6.816  0.5307 -0.6031  0.2705
 5798SOL    HW229028   4.081   0.092   6.840 -0.3436  0.3020  0.7421
 5799SOL     OW29029   4.180   3.536   4.339 -0.2087 -0.0665  0.5262
 5799SOL    HW129030   4.241   3.463   4.328 -0.5024 -0.3391  0.7010
 5799SOL    HW229031   4.096   3.492   4.347  0.7473 -2.2667 -1.5755
 5800SOL     OW29032   1.994   0.516   9.214  0.3758 -0.1377  0.1963
 5800SOL    HW129033   1.982   0.533   9.120  1.3105 -0.5235  0.0141
 5800SOL    HW229034   2.086   0.540   9.223  0.3985 -0.0336 -0.3100
 5801SOL     OW29035   1.797   1.963  14.858  0.0438 -0.1992  1.0068
 5801SOL    HW129036   1.800   2.029  14.927 -0.5785  0.4785  0.3887
 5801SOL    HW229037   1.731   1.901  14.888  0.2295 -1.8547 -1.9766
 5802SOL     OW29038   3.953   3.743   8.492  0.2293 -0.0339  0.0747
 5802SOL    HW129039   4.034   3.792   8.505  0.2531 -0.4867  1.6217
 5802SOL    HW229040   3.944   3.721   8.585 -0.8182 -1.4291 -0.3503
 5803SOL     OW29041   0.651   3.428  11.132  0.1673  0.1402  0.0552
 5803SOL    HW129042   0.719   3.495  11.137  0.0995  0.0923  1.5910
 5803SOL    HW229043   0.612   3.420  11.219 -0.6250  1.9497 -0.1267
 5804SOL     OW29044   0.043   4.002   9.220 -0.0234  0.1850  0.1708
 5804SOL    HW129045   4.734   4.060   9.158  0.8058  2.0784  1.3517
 5804SOL    HW229046   0.062   3.934   9.155  1.3599 -1.2980  2.1569
 5805SOL     OW29047   1.064   4.592   1.200 -0.1835  0.0870  0.0908
 5805SOL    HW129048   1.001   4.533   1.241 -2.8669  1.2233 -2.3545
 5805SOL    HW229049   1.140   4.549   1.240  0.4208 -1.7522 -2.9791
 5806SOL     OW29050   1.408   2.609  13.078  0.0886 -0.6807 -0.3467
 5806SOL    HW129051   1.345   2.663  13.126 -0.0515  0.5994 -1.9492
 5806SOL    HW229052   1.401   2.525  13.122 -1.3382  0.4507  1.5697
 5807SOL     OW29053   4.169   2.126   5.619  0.4830  0.3741  0.4834
 5807SOL    HW129054   4.173   2.222   5.626  1.3850  0.4095 -0.3858
 5807SOL    HW229055   4.188   2.106   5.710  2.5285 -0.1806 -0.0582
 5808SOL     OW29056   2.248   2.224   4.381  0.3253  0.3994  0.4023
 5808SOL    HW129057   2.306   2.154   4.411 -0.3575 -0.1767  0.3627
 5808SOL    HW229058   2.317   2.276   4.339 -1.1439  2.0315  0.0106
 5809SOL     OW29059   2.903   0.253   5.361 -0.0163  0.4856 -0.3376
 5809SOL    HW129060   2.975   0.295   5.409 -1.1518  1.5464  0.4272
 5809SOL    HW229061   2.919   0.162   5.383 -2.5325  0.0710 -0.2508
 5810SOL     OW29062   1.526   1.730   5.988  0.0620 -0.2979  0.4791
 5810SOL    HW129063   1.564   1.663   5.931  1.4590  1.5205 -0.7211
 5810SOL    HW229064   1.436   1.731   5.955  0.1760 -2.0999  0.1283
 5811SOL     OW29065   0.703   4.406   8.278 -0.5200  0.2118  0.0887
 5811SOL    HW129066   0.650   4.353   8.218 -0.7305 -0.3465  0.7682
 5811SOL    HW229067   0.635   4.465   8.308  0.1944 -0.7169  3.5874
 5812SOL     OW29068   3.914   1.237   7.129  0.9011  0.7123 -0.2331
 5812SOL    HW129069   3.999   1.196   7.118  0.9770  0.4123  1.3999
 5812SOL    HW229070   3.877   1.254   7.042  0.8343 -2.4080 -0.8132
 5813SOL     OW29071   0.049   3.516   7.267 -0.2030  0.1673  0.1909
 5813SOL    HW129072   0.025   3.590   7.211  1.1897  0.5826  0.1373
 5813SOL    HW229073   0.020   3.545   7.353 -1.5490 -1.4495  0.2912
 5814SOL     OW29074   1.494   1.042   4.307  0.4680 -0.1131 -0.2901
 5814SOL    HW129075   1.509   1.028   4.213  0.3345 -1.1281 -0.1620
 5814SOL    HW229076   1.438   1.120   4.300  0.7791  0.1537  0.2225
 5815SOL     OW29077   1.871   2.414   2.551 -0.1779  0.2528 -0.4660
 5815SOL    HW129078   1.856   2.385   2.641 -0.6286 -1.4596 -1.0954
 5815SOL    HW229079   1.779   2.419   2.525  0.4973  2.2281 -2.5157
 5816SOL     OW29080   0.079   1.848  11.541 -0.0242  0.1194 -0.1985
 5816SOL    HW129081   0.065   1.837  11.446 -1.9173  0.1692  0.0664
 5816SOL    HW229082   0.144   1.779  11.555 -1.1109 -1.3914 -2.5518
 5817SOL     OW29083   3.090   1.311   3.965 -0.0988 -0.9561 -0.4996
 5817SOL    HW129084   3.011   1.350   4.001 -0.5845 -2.7175  0.3211
 5817SOL    HW229085   3.137   1.285   4.044  0.5409 -3.6040 -1.7430
 5818SOL     OW29086   3.850   1.818   8.992 -0.4355 -0.1321 -0.0317
 5818SOL    HW129087   3.890   1.795   9.076 -0.4087  0.4906  0.1218
 5818SOL    HW229088   3.811   1.735   8.964  1.8938 -0.4840 -2.2121
 5819SOL     OW29089   0.328   4.584   1.127 -0.6382 -0.3101 -0.2332
 5819SOL    HW129090   0.331   4.631   1.043 -2.0832  0.9773  0.4334
 5819SOL    HW229091   0.394   4.516   1.112 -1.1447 -0.9388  0.4200
 5820SOL     OW29092   2.435   3.483   8.291  0.1150 -0.0614  0.4359
 5820SOL    HW129093   2.399   3.567   8.321  2.5027  1.4035 -0.8080
 5820SOL    HW229094   2.357   3.450   8.245 -1.0568  2.7112  0.3709
 5821SOL     OW29095   4.354   3.951   3.339  0.1159 -0.0403  0.6065
 5821SOL    HW129096   4.374   3.890   3.410  1.4558 -0.2003  0.0941
 5821SOL    HW229097   4.259   3.955   3.334  0.0025 -0.0595  2.6352
 5822SOL     OW29098   2.276   3.953   5.947  0.5500 -0.3600 -0.3466
 5822SOL    HW129099   2.333   3.877   5.939  0.4422 -0.5627  0.8226
 5822SOL    HW229100   2.239   3.956   5.858 -0.7222 -1.9708  0.1229
 5823SOL     OW29101   1.736   0.187   1.932 -0.4785 -0.3628  0.2612
 5823SOL    HW129102   1.692   0.109   1.967  0.2630 -0.1241  1.7576
 5823SOL    HW229103   1.668   0.223   1.876 -0.1815  0.7506  0.6108
 5824SOL     OW29104   1.140   2.174   8.925  0.3689  0.3386  0.3846
 5824SOL    HW129105   1.179   2.090   8.898  1.1425  0.9126 -0.2894
 5824SOL    HW229106   1.181   2.195   9.009  0.2936 -0.8526  0.7257
 5825SOL     OW29107   3.856   2.695   3.581 -0.0261  0.1348  0.0119
 5825SOL    HW129108   3.810   2.778   3.567 -1.1665 -0.8094 -1.8446
 5825SOL    HW229109   3.922   2.709   3.514 -0.0688  3.1460  0.5970
 5826SOL     OW29110   0.678   0.684   5.885  0.6475  0.2977  0.1792
 5826SOL    HW129111   0.675   0.713   5.794  1.0017 -1.5722 -0.4167
 5826SOL    HW229112   0.761   0.720   5.916 -0.7199  3.4891  0.1747
 5827SOL     OW29113   0.646   3.749   3.517 -0.4094 -0.0661  0.5703
 5827SOL    HW129114   0.633   3.660   3.550 -1.4354 -0.0526  0.2034
 5827SOL    HW229115   0.734   3.728   3.486 -1.1558  0.3759 -1.8669
 5828SOL     OW29116   1.179   2.139   0.930  0.1087 -0.3375  0.9833
 5828SOL    HW129117   1.132   2.177   0.856  1.9884 -0.1569 -0.1205
 5828SOL    HW229118   1.189   2.215   0.988 -0.5186  1.2673 -0.9891
 5829SOL     OW29119   3.166   0.437  13.237  0.0713 -0.1565  0.0421
 5829SOL    HW129120   3.111   0.359  13.245 -2.0440  1.1715 -1.5807
 5829SOL    HW229121   3.192   0.440  13.145 -1.9542  0.5451 -0.5225
 5830SOL     OW29122   1.075   4.318   9.136  0.5568  0.0594 -0.1803
 5830SOL    HW129123   0.993   4.297   9.180 -0.0732  1.7298 -0.5564
 5830SOL    HW229124   1.096   4.236   9.090  0.9976  0.6047 -0.9567
 5831SOL     OW29125   0.865   4.239   5.735 -0.7444 -0.3487  0.0920
 5831SOL    HW129126   0.889   4.210   5.647 -1.4724  1.1581 -0.6136
 5831SOL    HW229127   0.943   4.288   5.760 -0.2302 -0.2883 -1.6635
 5832SOL     OW29128   3.032   3.923   0.303  0.8033 -0.1089  1.2107
 5832SOL    HW129129   2.942   3.913   0.334 -0.6541  2.0134 -2.3226
 5832SOL    HW229130   3.011   3.922   0.209 -4.3919  3.0397  2.3379
 5833SOL     OW29131   0.724   3.798   4.181 -0.4408 -0.1037  0.6209
 5833SOL    HW129132   0.719   3.733   4.251 -0.7630  0.8566  1.4949
 5833SOL    HW229133   0.681   3.749   4.111  0.7227  0.0604 -0.1997
 5834SOL     OW29134   3.374   4.115   8.831  0.3113  0.5426  0.1968
 5834SOL    HW129135   3.370   4.208   8.855  0.3701  0.8325 -0.8926
 5834SOL    HW229136   3.343   4.073   8.911  0.6032  1.0985  0.6014
 5835SOL     OW29137   1.065   1.830   7.878  0.1424  0.1662  0.5574
 5835SOL    HW129138   0.975   1.798   7.882 -0.7332  2.2941 -1.7473
 5835SOL    HW229139   1.070   1.875   7.963 -0.4898 -1.1084  1.2774
 5836SOL     OW29140   1.774   3.285   6.879 -0.3342 -0.4227  0.5354
 5836SOL    HW129141   1.809   3.355   6.823  2.1048 -0.5007  1.9281
 5836SOL    HW229142   1.779   3.334   6.961  1.2862  3.5962 -1.9750
 5837SOL     OW29143   1.794   0.406   7.203  0.0176  0.0839  0.0875
 5837SOL    HW129144   1.846   0.371   7.276  0.9822  0.9074 -0.1871
 5837SOL    HW229145   1.756   0.481   7.250 -0.4677  1.2081 -2.0971
 5838SOL     OW29146   3.151   3.049   3.082  0.6726  0.7494  0.1718
 5838SOL    HW129147   3.079   3.048   3.145  0.8806  1.4494  0.4222
 5838SOL    HW229148   3.153   3.144   3.066 -0.5643  0.8657  0.7536
 5839SOL     OW29149   3.288   1.050  10.313 -0.6689  0.0050 -0.0771
 5839SOL    HW129150   3.257   0.959  10.318  0.1753 -0.1452  2.1277
 5839SOL    HW229151   3.231   1.082  10.243  0.2449 -1.0525 -1.3203
 5840SOL     OW29152   4.357   4.125   4.042 -0.0573 -0.3084  0.6893
 5840SOL    HW129153   4.414   4.165   3.976  2.9465 -0.4605  3.2391
 5840SOL    HW229154   4.378   4.175   4.121 -0.5544  0.0673  0.5890
 5841SOL     OW29155   0.501   2.255   7.415  0.4744 -0.3472  0.1518
 5841SOL    HW129156   0.410   2.233   7.437  0.3932  1.2885  1.4657
 5841SOL    HW229157   0.528   2.294   7.498  0.3090  0.5018 -0.1851
 5842SOL     OW29158   2.860   4.052   8.502 -0.1305 -0.0881 -0.0663
 5842SOL    HW129159   2.808   3.974   8.483 -1.6327  0.6297  1.0677
 5842SOL    HW229160   2.898   4.096   8.426 -2.2104  0.3031 -0.8878
 5843SOL     OW29161   0.847   4.032  12.409 -0.2511  0.2778  0.0016
 5843SOL    HW129162   0.923   3.979  12.433 -1.1806 -0.5472  1.1509
 5843SOL    HW229163   0.853   4.102  12.475  1.7852  1.6074 -1.6153
 5844SOL     OW29164   3.318   3.791   3.600  0.8665  0.7321 -0.0964
 5844SOL    HW129165   3.318   3.721   3.665 -0.8285  0.8423  0.0364
 5844SOL    HW229166   3.350   3.750   3.520  2.7949  1.7683  0.1291
 5845SOL     OW29167   4.397   3.470   2.248  0.4446  0.4022 -0.0634
 5845SOL    HW129168   4.485   3.500   2.270  1.5542 -1.5367 -1.8062
 5845SOL    HW229169   4.346   3.551   2.250  1.2409  0.7853  3.2288
 5846SOL     OW29170   2.526   2.245  12.087 -1.1438  0.1549 -0.0666
 5846SOL    HW129171   2.526   2.300  12.166 -3.7047  2.3887 -1.6421
 5846SOL    HW229172   2.466   2.297  12.035 -1.9198 -0.1568  0.5188
 5847SOL     OW29173   0.038   2.340   6.014 -0.2909  0.0193  0.0849
 5847SOL    HW129174   0.102   2.270   6.001  0.8886  0.9510  0.8813
 5847SOL    HW229175   0.064   2.357   6.105 -2.0257  1.0551  0.3831
 5848SOL     OW29176   0.925   4.368   1.299  0.5406  0.1677 -0.3454
 5848SOL    HW129177   0.934   4.306   1.372 -3.3811  0.3204  0.2491
 5848SOL    HW229178   0.854   4.414   1.343  0.5297  1.0420 -1.2781
 5849SOL     OW29179   3.572   1.978  12.962  0.0342 -0.6778 -0.9052
 5849SOL    HW129180   3.598   1.982  13.054 -1.1916 -1.9138 -0.5142
 5849SOL    HW229181   3.642   1.920  12.931  0.2384 -0.3934 -0.9796
 5850SOL     OW29182   2.186   4.119  16.595 -0.0658 -0.1602  0.3587
 5850SOL    HW129183   2.171   4.175  16.519  2.2789 -0.5350 -0.3798
 5850SOL    HW229184   2.097   4.089  16.612  0.1506 -0.6973  0.5642
 5851SOL     OW29185   4.654   3.732   4.195 -0.3077  0.6145  0.4604
 5851SOL    HW129186   4.594   3.805   4.210  2.3384  2.5747  1.3465
 5851SOL    HW229187   4.645   3.677   4.273  1.8230  0.7709  0.7993
 5852SOL     OW29188   1.742   4.200   3.308  0.1366 -0.2604 -0.1057
 5852SOL    HW129189   1.773   4.223   3.221  0.8044  2.1457  0.7600
 5852SOL    HW229190   1.750   4.105   3.311 -4.5405 -0.5988  1.1987
 5853SOL     OW29191   1.950   3.732  13.564  1.0573  0.6435 -0.2967
 5853SOL    HW129192   1.884   3.662  13.568 -0.4741  2.1716  1.0378
 5853SOL    HW229193   1.888   3.797  13.530  2.9903  1.9438 -1.3113
 5854SOL     OW29194   3.680   3.135  11.802 -0.4664 -0.3302  0.2479
 5854SOL    HW129195   3.617   3.074  11.764 -0.6524  0.2489 -0.3738
 5854SOL    HW229196   3.673   3.207  11.739 -0.1662  2.3574  3.2332
 5855SOL     OW29197   0.596   1.495   1.999 -0.3248 -0.4035 -0.4542
 5855SOL    HW129198   0.642   1.426   2.048  0.6668  0.4257 -0.2189
 5855SOL    HW229199   0.616   1.574   2.050  1.8759 -0.0412 -1.8785
 5856SOL     OW29200   3.189   3.342   3.650 -0.1098  0.1578 -0.1905
 5856SOL    HW129201   3.110   3.395   3.641 -0.0790  0.0295 -1.2249
 5856SOL    HW229202   3.201   3.309   3.561 -0.1981 -0.6073  0.0735
 5857SOL     OW29203   3.051   3.486   7.011 -0.2070 -0.4831 -0.4571
 5857SOL    HW129204   2.957   3.487   6.994 -0.3921  0.5526  0.6049
 5857SOL    HW229205   3.051   3.513   7.103 -2.2581 -0.6659 -0.4076
 5858SOL     OW29206   4.088   2.330  12.215  0.2854 -0.2380  0.5020
 5858SOL    HW129207   4.048   2.256  12.170  0.8591 -0.8407  0.9920
 5858SOL    HW229208   4.012   2.388  12.214  0.6143  0.1502 -1.5706
 5859SOL     OW29209   2.922   3.060   6.578 -0.5009 -0.0618  0.2655
 5859SOL    HW129210   2.886   3.049   6.666  1.3951 -0.5546  0.9941
 5859SOL    HW229211   3.009   3.024   6.599 -0.9460 -0.6704  1.0638
 5860SOL     OW29212   3.875   2.010   3.564  0.9095  0.3870 -0.0461
 5860SOL    HW129213   3.903   2.099   3.586 -0.0815  0.4538  0.8803
 5860SOL    HW229214   3.810   1.976   3.625  0.7747 -2.0201 -1.5083
 5861SOL     OW29215   2.198   0.735   3.426  0.2366  0.0057  0.3911
 5861SOL    HW129216   2.183   0.829   3.432 -0.0251  0.1535 -2.6113
 5861SOL    HW229217   2.141   0.710   3.353  0.1592 -2.2780  1.2279
 5862SOL     OW29218   2.865   1.497   7.685  0.2134  0.0354  0.5663
 5862SOL    HW129219   2.852   1.532   7.773 -0.0293 -1.5067  1.1391
 5862SOL    HW229220   2.933   1.555   7.649 -1.1138 -1.2246 -3.9380
 5863SOL     OW29221   1.811   3.264   5.441 -0.0862 -0.1964  0.0879
 5863SOL    HW129222   1.748   3.193   5.445  0.5488 -0.7365  0.5705
 5863SOL    HW229223   1.873   3.225   5.380  0.1672  0.9333 -0.3750
 5864SOL     OW29224   0.689   4.219   6.759 -0.0569 -0.1901  0.3652
 5864SOL    HW129225   0.740   4.291   6.796 -1.0149 -0.1583  1.6192
 5864SOL    HW229226   0.600   4.256   6.760  0.0716  0.1519 -1.3231
 5865SOL     OW29227   2.004   3.634   5.769  0.0638 -0.1281 -0.2163
 5865SOL    HW129228   1.948   3.556   5.765 -1.2120  0.6049  3.4587
 5865SOL    HW229229   2.073   3.588   5.817 -1.6015 -1.5357  0.8234
 5866SOL     OW29230   1.127   2.049   2.330  0.1235 -0.4173 -0.3472
 5866SOL    HW129231   1.127   2.095   2.414 -2.0312 -0.8717 -0.0993
 5866SOL    HW229232   1.061   1.982   2.349  1.1342 -0.8327  1.6713
 5867SOL     OW29233   4.315   2.258   3.779  0.0800 -0.0985  0.2962
 5867SOL    HW129234   4.248   2.209   3.827 -0.6816  2.6531  1.9938
 5867SOL    HW229235   4.363   2.304   3.847 -0.0603 -1.7661  1.5141
 5868SOL     OW29236   0.212   2.119   5.612 -0.1604  0.3923 -0.0189
 5868SOL    HW129237   0.247   2.206   5.596 -0.0853  0.0806 -1.5528
 5868SOL    HW229238   0.244   2.109   5.702 -1.4833 -0.9787  0.3126
 5869SOL     OW29239   4.345   4.352  10.091 -0.2754 -0.0169  0.0688
 5869SOL    HW129240   4.324   4.303  10.012  1.1001 -0.8100  0.1859
 5869SOL    HW229241   4.302   4.302  10.160 -1.0904  0.7310  0.0989
 5870SOL     OW29242   4.370   1.397   9.457 -0.2597 -0.7870  0.0603
 5870SOL    HW129243   4.349   1.440   9.540  0.4277  0.6402 -0.5041
 5870SOL    HW229244   4.419   1.320   9.487 -1.1332 -1.4842 -0.2924
 5871SOL     OW29245   0.891   3.389   5.044 -0.2492 -0.2283  0.0034
 5871SOL    HW129246   0.980   3.412   5.068 -0.1106 -0.0852 -0.6471
 5871SOL    HW229247   0.841   3.445   5.103 -1.8623 -2.4765  0.8068
 5872SOL     OW29248   3.390   2.411   4.853 -0.3562  0.2455  0.1226
 5872SOL    HW129249   3.325   2.446   4.914  0.1665 -1.3183  1.5628
 5872SOL    HW229250   3.416   2.336   4.905  0.4199 -2.4888 -4.2137
 5873SOL     OW29251   4.434   3.207   7.810  0.4021  0.0843  0.4678
 5873SOL    HW129252   4.472   3.120   7.822 -0.7200 -0.3428  0.9148
 5873SOL    HW229253   4.431   3.231   7.903  0.4296 -3.0888  1.2705
 5874SOL     OW29254   3.375   3.652   5.883 -0.4788 -0.4398 -0.3557
 5874SOL    HW129255   3.407   3.595   5.814  0.1057 -1.2972  0.6245
 5874SOL    HW229256   3.455   3.699   5.907 -0.8250 -0.6601  1.2577
 5875SOL     OW29257   3.268   1.502   8.788 -0.3670 -0.2076 -0.6616
 5875SOL    HW129258   3.305   1.430   8.839  0.8696  1.5983  0.9891
 5875SOL    HW229259   3.287   1.562   8.859  0.0328  1.5123 -2.2370
 5876SOL     OW29260   2.725   3.860   6.153 -0.1623 -0.1902 -0.2864
 5876SOL    HW129261   2.752   3.914   6.227  0.6045  2.6281 -2.6145
 5876SOL    HW229262   2.653   3.814   6.196 -1.1556 -0.4134 -2.2134
 5877SOL     OW29263   0.769   0.475  12.055 -0.0225 -0.1090  0.1085
 5877SOL    HW129264   0.684   0.464  12.012 -0.2652  1.6468  0.1468
 5877SOL    HW229265   0.747   0.536  12.125  1.7893 -0.8233  1.3089
 5878SOL     OW29266   0.299   4.486  11.016  0.0831 -0.2422  0.2654
 5878SOL    HW129267   0.293   4.563  10.960 -0.4175 -0.9587 -0.6548
 5878SOL    HW229268   0.385   4.513  11.048  0.2533  0.3360 -0.6692
 5879SOL     OW29269   0.612   4.440   6.274  0.2545  0.4703  0.0307
 5879SOL    HW129270   0.549   4.507   6.248  0.3563 -0.1155 -1.7011
 5879SOL    HW229271   0.616   4.459   6.368 -2.7526 -1.0574  0.4385
 5880SOL     OW29272   1.615   1.355   6.631 -0.6465 -0.4030 -0.2697
 5880SOL    HW129273   1.638   1.285   6.569 -1.7723 -1.9435  1.0452
 5880SOL    HW229274   1.695   1.408   6.627 -0.0428 -1.3651 -0.9779
 5881SOL     OW29275   1.559   2.817  16.623 -0.1865  0.3542  0.3532
 5881SOL    HW129276   1.472   2.843  16.653 -0.8924 -1.6943  0.0541
 5881SOL    HW229277   1.530   2.809  16.532 -0.8472 -0.8156  0.6654
 5882SOL     OW29278   3.164   1.168  16.421 -0.6261 -0.3866  0.3715
 5882SOL    HW129279   3.200   1.200  16.338 -0.7255 -0.5742  0.2566
 5882SOL    HW229280   3.097   1.235  16.431 -0.5931 -0.4837  1.2508
 5883SOL     OW29281   0.349   0.076  14.774 -0.1553 -0.5920  0.0707
 5883SOL    HW129282   0.435   0.116  14.788 -0.4393  0.0466  0.0295
 5883SOL    HW229283   0.305   0.134  14.837  0.0270 -0.7029  0.2956
 5884SOL     OW29284   1.543   4.036   5.547  0.1070 -0.4314  0.0742
 5884SOL    HW129285   1.511   4.097   5.614  0.6620  3.0869 -2.8110
 5884SOL    HW229286   1.563   3.962   5.603  0.4613  0.5625  1.2666
 5885SOL     OW29287   0.404   0.277  11.725  0.2654  0.3414  0.1447
 5885SOL    HW129288   0.472   0.342  11.708 -0.1822  0.2304 -2.0606
 5885SOL    HW229289   0.432   0.209  11.665 -0.5461 -0.4528  0.6600
 5886SOL     OW29290   0.365   1.698   9.284  0.1854  0.4414  0.4529
 5886SOL    HW129291   0.445   1.685   9.233  1.4689 -1.9697  3.0770
 5886SOL    HW229292   0.398   1.763   9.346  2.1403 -0.4098  0.3161
 5887SOL     OW29293   4.002   1.115  17.337  0.4029 -0.2542  0.3529
 5887SOL    HW129294   3.957   1.179  17.281  1.0355 -0.6386 -0.5996
 5887SOL    HW229295   4.093   1.108  17.307  0.1608  0.2033 -0.4936
 5888SOL     OW29296   1.159   1.118   6.804 -0.1230 -0.4717 -0.9976
 5888SOL    HW129297   1.092   1.110   6.872  0.5233  1.1744 -0.1692
 5888SOL    HW229298   1.108   1.096   6.726  1.3282  0.0051 -2.0782
 5889SOL     OW29299   0.406   4.496   2.174 -0.4361  0.1586 -0.1829
 5889SOL    HW129300   0.369   4.418   2.215  2.7477 -0.3294  1.7402
 5889SOL    HW229301   0.485   4.459   2.135  1.6316  1.7117  2.5259
 5890SOL     OW29302   3.189   0.837   2.369  0.4631 -0.2393 -0.4600
 5890SOL    HW129303   3.117   0.894   2.342  0.5250  1.3246  2.7771
 5890SOL    HW229304   3.146   0.751   2.370  0.5144 -0.2163  1.7482
 5891SOL     OW29305   3.992   3.082   9.190  0.1420 -0.8801 -0.0511
 5891SOL    HW129306   3.954   3.048   9.108 -1.8175  1.7543 -0.2232
 5891SOL    HW229307   4.042   3.160   9.167 -0.4068 -0.7615 -0.8772
 5892SOL     OW29308   0.275   4.351   4.501  0.3031 -0.1108 -0.2370
 5892SOL    HW129309   0.326   4.271   4.515 -0.9448 -0.7465  0.6467
 5892SOL    HW229310   0.229   4.356   4.585  0.6203 -0.6401 -0.0258
 5893SOL     OW29311   2.202   3.835   5.203 -0.6354  0.2693 -0.1038
 5893SOL    HW129312   2.155   3.895   5.145 -0.6676 -0.5823 -0.9644
 5893SOL    HW229313   2.283   3.886   5.201 -1.6039  1.8222  0.1499
 5894SOL     OW29314   1.346   4.314  10.312  0.7421 -0.2587  0.3250
 5894SOL    HW129315   1.422   4.372  10.306 -0.4291  1.2097 -0.3331
 5894SOL    HW229316   1.315   4.324  10.402  1.2165  0.7412  0.3777
 5895SOL     OW29317   4.164   2.933  13.551  0.0977 -0.8308  0.1505
 5895SOL    HW129318   4.203   3.019  13.541 -0.2398 -0.9299 -2.0545
 5895SOL    HW229319   4.072   2.958  13.565 -0.1206 -0.6274 -1.6681
 5896SOL     OW29320   4.613   3.278   6.174 -0.4967 -0.2176 -0.5883
 5896SOL    HW129321   4.628   3.284   6.080 -1.6309 -0.0781 -0.7695
 5896SOL    HW229322   4.654   3.363   6.192 -0.6460 -0.0489 -1.0337
 5897SOL     OW29323   2.319   3.819   7.268 -0.0670 -0.1002 -0.0311
 5897SOL    HW129324   2.294   3.753   7.332 -0.2461 -2.0703 -2.1289
 5897SOL    HW229325   2.379   3.771   7.211  0.9162 -1.1925  1.9323
 5898SOL     OW29326   0.122   1.173  11.860  0.0148 -0.4023 -0.5682
 5898SOL    HW129327   0.153   1.133  11.942  1.7996 -1.1108 -1.5989
 5898SOL    HW229328   0.203   1.166  11.811 -0.2109 -1.7880 -0.7618
 5899SOL     OW29329   0.479   2.201  15.937 -0.6627 -0.4959  0.0055
 5899SOL    HW129330   0.384   2.190  15.937 -0.7996  0.8706 -2.4127
 5899SOL    HW229331   0.495   2.109  15.959  0.3155 -0.4295 -0.4513
 5900SOL     OW29332   4.193   2.825   8.198  0.4928 -0.0618  0.4728
 5900SOL    HW129333   4.158   2.894   8.255  1.8983  1.7352 -0.8369
 5900SOL    HW229334   4.156   2.749   8.243  1.1452  0.2535  1.5634
 5901SOL     OW29335   2.654   0.312  10.981 -0.9801  0.0774  0.2428
 5901SOL    HW129336   2.640   0.378  10.913 -0.2668 -0.1316 -0.1077
 5901SOL    HW229337   2.710   0.358  11.043  1.4561 -1.3022 -0.9229
 5902SOL     OW29338   0.328   0.091   3.809 -0.1923  0.4662  0.3059
 5902SOL    HW129339   0.243   0.070   3.848 -0.8339 -1.0503 -1.9577
 5902SOL    HW229340   0.321   0.186   3.817 -0.1443  0.6261 -1.7320
 5903SOL     OW29341   2.744   0.567  11.762 -0.1313 -0.1504 -0.2259
 5903SOL    HW129342   2.706   0.553  11.675  0.8079 -2.5401 -0.2485
 5903SOL    HW229343   2.667   0.550  11.816 -0.6794  0.0392 -0.9493
 5904SOL     OW29344   4.731   0.385  12.100 -0.0597  0.5162 -0.5648
 5904SOL    HW129345   4.691   0.310  12.144  0.1747  0.4540 -0.4584
 5904SOL    HW229346   4.651   0.429  12.071 -1.6898 -0.9101  1.7918
 5905SOL     OW29347   4.685   2.744   3.388 -0.1588 -0.0370  0.0394
 5905SOL    HW129348   4.660   2.703   3.471 -3.3922  0.4469 -0.6868
 5905SOL    HW229349   4.622   2.693   3.336  1.1347 -1.9232  0.3087
 5906SOL     OW29350   4.440   1.361  15.711 -0.4978  0.7510 -0.1122
 5906SOL    HW129351   4.450   1.399  15.624 -1.7109 -0.5160 -0.7939
 5906SOL    HW229352   4.526   1.326  15.734 -2.0023 -2.2544  0.9478
 5907SOL     OW29353   1.326   3.540   4.427 -0.2266 -0.1669 -0.1608
 5907SOL    HW129354   1.350   3.596   4.501 -0.9225 -2.0410  1.4847
 5907SOL    HW229355   1.254   3.488   4.463  0.7026  0.9847  3.3780
 5908SOL     OW29356   1.213   4.604   3.548  0.1979 -0.1811 -0.1984
 5908SOL    HW129357   1.201   4.543   3.620 -1.5229 -1.1630 -1.3077
 5908SOL    HW229358   1.189   4.691   3.580 -2.9630 -1.3324  0.6476
 5909SOL     OW29359   2.520   0.233   7.652 -0.2333 -0.1558 -0.3359
 5909SOL    HW129360   2.564   0.176   7.716  0.7344  1.0813  0.1068
 5909SOL    HW229361   2.438   0.186   7.639 -1.3912  1.1964  2.0938
 5910SOL     OW29362   1.870   4.695   6.980  0.6617  0.3028 -0.1789
 5910SOL    HW129363   1.931   0.025   6.948 -1.4971  1.6959 -1.3432
 5910SOL    HW229364   1.930   4.642   7.033  1.6045  3.3357  1.7651
 5911SOL     OW29365   2.581   1.639  12.966  0.2432 -0.3969  0.6959
 5911SOL    HW129366   2.581   1.650  12.871  0.1800  1.0104  0.8474
 5911SOL    HW229367   2.519   1.567  12.979  1.9255 -1.8576  0.6115
 5912SOL     OW29368   3.860   3.577   5.981  0.2422  0.0108 -0.5946
 5912SOL    HW129369   3.941   3.533   6.006 -0.1507  1.2160  2.8015
 5912SOL    HW229370   3.796   3.514   6.014  0.1038  0.0284 -0.8237
 5913SOL     OW29371   2.303   4.017   1.956 -0.5923  0.1656 -0.1904
 5913SOL    HW129372   2.283   3.929   1.924  0.5005 -1.0513  2.5580
 5913SOL    HW229373   2.396   4.030   1.939 -0.4413 -0.2877  0.2778
 5914SOL     OW29374   3.654   0.695   6.465 -0.1405  0.7569  0.5963
 5914SOL    HW129375   3.571   0.652   6.486  1.3633 -1.3557  2.2434
 5914SOL    HW229376   3.628   0.785   6.444 -0.2051 -0.0566 -2.7775
 5915SOL     OW29377   1.466   3.502   6.747  0.3170 -0.3026 -0.3334
 5915SOL    HW129378   1.549   3.479   6.790  0.4934 -1.4828 -1.2840
 5915SOL    HW229379   1.403   3.479   6.816  2.1188 -0.0580  1.3964
 5916SOL     OW29380   0.474   4.457  11.944  0.1838  0.1207 -0.3035
 5916SOL    HW129381   0.397   4.500  11.905  1.2097  0.7847 -1.5888
 5916SOL    HW229382   0.535   4.456  11.870  0.7217 -1.1274  0.1536
 5917SOL     OW29383   4.221   0.010   4.226 -0.0332  0.3883  0.2762
 5917SOL    HW129384   4.189   0.093   4.260 -0.2343  0.8234 -0.9979
 5917SOL    HW229385   4.310   0.043   4.213 -0.0966  0.9959  1.3576
 5918SOL     OW29386   2.726   2.333  17.407 -0.2721  0.3508  0.4026
 5918SOL    HW129387   2.813   2.317  17.371  0.7131  0.5607  2.6920
 5918SOL    HW229388   2.713   2.423  17.380 -0.3535  0.5739  1.1864
 5919SOL     OW29389   0.022   4.709   2.077 -0.0659 -0.1539 -0.2545
 5919SOL    HW129390   0.101   4.732   2.126 -0.8070 -0.2769  0.9689
 5919SOL    HW229391   4.732   4.637   2.134  0.9435 -0.2981  0.0442
 5920SOL     OW29392   3.449   1.147   6.853  0.0680 -0.2682  0.1614
 5920SOL    HW129393   3.460   1.205   6.777  0.7913 -0.3242  0.2260
 5920SOL    HW229394   3.446   1.207   6.927  0.3053 -0.5725  0.4154
 5921SOL     OW29395   2.624   0.095   4.894 -0.4967  0.0354 -0.0549
 5921SOL    HW129396   2.532   0.109   4.918  0.0951  3.4262  0.1438
 5921SOL    HW229397   2.665   0.101   4.980  0.3508  0.1235 -0.4654
 5922SOL     OW29398   2.128   2.086   6.597 -0.3951 -0.1406  0.6601
 5922SOL    HW129399   2.194   2.133   6.545 -1.5801 -0.1463 -0.8650
 5922SOL    HW229400   2.060   2.153   6.608  0.1811  0.5591 -0.0205
 5923SOL     OW29401   2.672   3.454  15.235  0.4279 -0.6185 -0.2582
 5923SOL    HW129402   2.605   3.454  15.167  0.2915 -2.4122 -0.1326
 5923SOL    HW229403   2.683   3.544  15.264  2.1828 -0.6923 -0.7226
 5924SOL     OW29404   0.030   4.652   8.945  0.3871 -0.1419  0.1877
 5924SOL    HW129405   0.075   4.733   8.919 -0.1606  0.4825  1.1953
 5924SOL    HW229406   4.684   4.677   8.906 -0.8870 -0.8167  2.5052
 5925SOL     OW29407   1.421   1.609   0.014  0.1388 -0.2085  0.4427
 5925SOL    HW129408   1.429   1.541  17.693 -1.6518  0.0974 -0.0748
 5925SOL    HW229409   1.334   1.595   0.050  0.1822  0.5029  0.8150
 5926SOL     OW29410   3.366   0.640   2.740 -0.2506  0.4556 -0.0567
 5926SOL    HW129411   3.414   0.592   2.672 -1.0388 -0.3308 -0.0523
 5926SOL    HW229412   3.275   0.621   2.720 -0.0518  1.2118 -1.6791
 5927SOL     OW29413   0.152   0.251   8.691  0.0758 -0.3609 -0.2323
 5927SOL    HW129414   0.179   0.211   8.774  0.7063  0.9081  0.1694
 5927SOL    HW229415   0.192   0.188   8.631 -1.0759 -1.6645  0.3688
 5928SOL     OW29416   3.636   4.565   6.330 -0.7813 -0.8802  0.1781
 5928SOL    HW129417   3.682   4.520   6.260  0.4691  0.2465  0.2749
 5928SOL    HW229418   3.691   4.574   6.408 -1.1019  1.2078  0.1602
 5929SOL     OW29419   2.682   2.916  10.471 -0.2285 -0.2830  0.3051
 5929SOL    HW129420   2.600   2.871  10.488 -0.7209  0.3805 -0.3110
 5929SOL    HW229421   2.678   2.999  10.520  2.1408 -0.1800  0.3039
 5930SOL     OW29422   2.806   2.063   2.750  0.0237 -0.5784  0.0278
 5930SOL    HW129423   2.864   2.114   2.806 -0.6866 -0.6300  0.8084
 5930SOL    HW229424   2.767   2.004   2.814  0.8381  1.7993  2.7258
 5931SOL     OW29425   4.645   2.852   6.213  0.5065 -0.0908 -0.1330
 5931SOL    HW129426   4.584   2.840   6.141 -0.1382  1.9756  0.0788
 5931SOL    HW229427   4.672   2.760   6.203 -0.6293 -0.7587  2.8227
 5932SOL     OW29428   1.229   1.587   7.508  0.0655  0.2833  0.2983
 5932SOL    HW129429   1.246   1.634   7.589 -0.6001  0.2778  0.4384
 5932SOL    HW229430   1.135   1.602   7.497 -0.1493  0.4775  2.3679
 5933SOL     OW29431   3.464   3.528   4.284  0.2604  0.2654  0.3733
 5933SOL    HW129432   3.405   3.599   4.307 -0.2010  0.4978 -1.5351
 5933SOL    HW229433   3.450   3.464   4.354  1.5439 -2.0948 -1.5325
 5934SOL     OW29434   0.745   0.393   0.070 -0.2427  0.2934  0.4401
 5934SOL    HW129435   0.721   0.476   0.031  1.2787  0.7608  0.4971
 5934SOL    HW229436   0.661   0.347   0.074  0.2972 -0.7770 -0.3720
 5935SOL     OW29437   3.381   3.121  13.999  0.4186 -0.1256  0.3910
 5935SOL    HW129438   3.344   3.058  13.939 -2.6551  3.3022 -1.2799
 5935SOL    HW229439   3.341   3.197  13.958  0.4018  0.0695  0.7619
 5936SOL     OW29440   3.053   3.604  16.578 -0.7750 -0.4549 -0.3736
 5936SOL    HW129441   3.044   3.540  16.648  0.4035  0.8286  0.9607
 5936SOL    HW229442   3.041   3.545  16.504  1.7201 -0.6590 -0.6264
 5937SOL     OW29443   0.039   1.681   8.566 -0.5164 -0.1933  0.1123
 5937SOL    HW129444   4.731   1.596   8.569 -0.0897 -0.4292 -0.1233
 5937SOL    HW229445   4.708   1.744   8.589 -0.5744  0.4332 -1.7739
 5938SOL     OW29446   2.930   3.495   2.112 -0.6050  0.2518  0.4327
 5938SOL    HW129447   3.025   3.509   2.104 -0.1005 -2.5889  1.2908
 5938SOL    HW229448   2.930   3.425   2.178  1.7683 -0.1474  0.0378
 5939SOL     OW29449   2.751   3.260  14.467  0.4170 -0.4382 -0.0826
 5939SOL    HW129450   2.715   3.174  14.445 -1.9795  0.5441 -0.0077
 5939SOL    HW229451   2.827   3.235  14.519  1.1881 -0.9055 -1.4241
 5940SOL     OW29452   0.462   3.484   3.760 -0.3156 -0.4154  0.4315
 5940SOL    HW129453   0.492   3.402   3.800 -1.2586 -2.2580 -2.5881
 5940SOL    HW229454   0.528   3.497   3.692  0.1425  0.0759  0.9746
 5941SOL     OW29455   4.187   3.383   5.022  0.0784  0.9417  0.7504
 5941SOL    HW129456   4.184   3.468   4.979  0.4219  0.0399 -1.0291
 5941SOL    HW229457   4.114   3.344   4.974  0.8402  0.5435 -0.0949
 5942SOL     OW29458   4.424   2.472   4.172 -0.1951 -0.5543 -0.3581
 5942SOL    HW129459   4.425   2.563   4.201 -3.4108 -0.3597 -0.8538
 5942SOL    HW229460   4.339   2.434   4.192 -0.2280  0.0140  0.5251
 5943SOL     OW29461   3.600   4.236   5.823 -0.4647 -0.1636 -0.6576
 5943SOL    HW129462   3.527   4.297   5.832  0.6651  0.9932  0.5243
 5943SOL    HW229463   3.548   4.159   5.797  1.0890 -1.1646 -0.7524
 5944SOL     OW29464   2.808   3.427   6.625 -0.1346 -0.1660 -0.0798
 5944SOL    HW129465   2.840   3.373   6.553  1.3224  0.5905 -0.0038
 5944SOL    HW229466   2.885   3.434   6.681  0.5840  0.7109 -1.1702
 5945SOL     OW29467   1.035   2.561  10.085 -0.1479 -0.3489 -0.3293
 5945SOL    HW129468   0.941   2.548  10.098  0.3536 -1.8783  1.6476
 5945SOL    HW229469   1.074   2.592  10.167 -0.3359  0.1569 -0.4297
 5946SOL     OW29470   3.781   3.394   2.660 -0.1873 -0.1819 -0.5721
 5946SOL    HW129471   3.856   3.379   2.718  1.2177 -3.6480 -3.2586
 5946SOL    HW229472   3.817   3.343   2.588 -0.1341  0.8969 -1.3149
 5947SOL     OW29473   1.171   3.845   3.365  0.7498 -0.3676 -0.2498
 5947SOL    HW129474   1.157   3.804   3.280 -0.0643 -0.8738  0.1371
 5947SOL    HW229475   1.135   3.932   3.347 -0.9267 -1.2039 -0.8523
 5948SOL     OW29476   1.447   3.614  12.525  0.4383  0.4570  0.5199
 5948SOL    HW129477   1.521   3.648  12.575  0.1188  1.2173  0.4710
 5948SOL    HW229478   1.479   3.545  12.467 -1.6291 -0.4754  0.4728
 5949SOL     OW29479   2.198   3.099   1.442  0.6446 -0.4910 -0.4143
 5949SOL    HW129480   2.143   3.142   1.376 -0.4480 -0.1651  0.7004
 5949SOL    HW229481   2.140   3.023   1.455  3.4784 -2.3947  1.0915
 5950SOL     OW29482   3.503   1.543   3.803  0.8240 -0.0859  0.1359
 5950SOL    HW129483   3.441   1.572   3.870 -0.0206  0.1292 -0.7365
 5950SOL    HW229484   3.453   1.494   3.737  1.1682  0.9398 -0.8817
 5951SOL     OW29485   4.193   4.489   7.962  0.0227 -0.4982  0.4228
 5951SOL    HW129486   4.249   4.457   7.891 -0.5289 -0.0108 -0.2159
 5951SOL    HW229487   4.205   4.584   7.961 -2.6245 -0.1748 -0.0360
 5952SOL     OW29488   1.827   4.243   6.989 -0.0986  0.3426  0.6960
 5952SOL    HW129489   1.813   4.317   7.047 -2.7599  1.3771 -1.2921
 5952SOL    HW229490   1.802   4.171   7.048 -0.1325 -1.0602 -1.0105
 5953SOL     OW29491   1.729   1.371   7.183 -0.2888 -0.6152 -0.5324
 5953SOL    HW129492   1.653   1.335   7.229  0.6101 -2.8775 -0.7980
 5953SOL    HW229493   1.725   1.323   7.100 -1.6553  0.3964 -1.0382
 5954SOL     OW29494   1.268   2.233  14.314 -0.4072  0.1854 -0.0069
 5954SOL    HW129495   1.186   2.202  14.353 -1.1853  0.7763 -1.1544
 5954SOL    HW229496   1.250   2.302  14.249  0.5471  0.1392 -0.3240
 5955SOL     OW29497   2.113   1.628   7.548 -0.1606 -0.4480 -0.3445
 5955SOL    HW129498   2.165   1.640   7.628 -2.2088  3.1168  0.4331
 5955SOL    HW229499   2.032   1.585   7.574  1.4580 -1.9667  2.2804
 5956SOL     OW29500   3.066   1.188  15.151  0.3590 -0.1693 -0.3827
 5956SOL    HW129501   3.044   1.214  15.241 -0.7811 -2.2043 -0.0923
 5956SOL    HW229502   3.037   1.097  15.153 -3.1302  0.9676  0.0870
 5957SOL     OW29503   2.667   0.583   6.491  0.0119  0.4097  0.4032
 5957SOL    HW129504   2.662   0.678   6.493 -0.5444  0.4036 -0.9120
 5957SOL    HW229505   2.661   0.565   6.397 -1.3585 -1.7156  0.8763
 5958SOL     OW29506   0.640   0.048   3.681 -0.2788 -0.7835 -0.2127
 5958SOL    HW129507   0.670   0.136   3.704  0.9113 -0.4010 -3.3002
 5958SOL    HW229508   0.593   0.076   3.603 -1.2335  0.7520  0.9001
 5959SOL     OW29509   2.567   3.807  13.028  1.0937 -0.0295 -0.2139
 5959SOL    HW129510   2.568   3.721  13.070 -0.6942  0.9940  1.9529
 5959SOL    HW229511   2.598   3.785  12.940 -0.5329 -2.6422 -0.1440
 5960SOL     OW29512   3.005   0.920   7.110 -0.0914  0.4611  0.2511
 5960SOL    HW129513   3.002   0.841   7.057  1.0579  1.1972 -0.9118
 5960SOL    HW229514   2.967   0.883   7.189 -0.7497 -1.1791 -0.8465
 5961SOL     OW29515   0.394   4.388   2.493  0.7818  0.3174  0.0196
 5961SOL    HW129516   0.342   4.468   2.487 -0.6858 -0.5725  1.1006
 5961SOL    HW229517   0.372   4.350   2.408 -0.9892  3.1687 -0.8151
 5962SOL     OW29518   4.488   2.699   5.063 -0.2712  0.8743  0.0362
 5962SOL    HW129519   4.562   2.657   5.019 -0.3935 -1.1245  1.7312
 5962SOL    HW229520   4.525   2.711   5.150 -0.0529  0.9378 -0.0656
 5963SOL     OW29521   0.474   0.115   4.468 -0.0285 -0.5889 -0.5974
 5963SOL    HW129522   0.535   0.127   4.541 -0.2403 -1.7293 -0.2337
 5963SOL    HW229523   0.506   0.029   4.442  1.1736 -0.1813 -0.4858
 5964SOL     OW29524   4.002   1.231   8.030  0.5179 -0.3588  0.2485
 5964SOL    HW129525   3.946   1.175   7.976 -1.0146  0.9787  0.4553
 5964SOL    HW229526   4.074   1.224   7.967  0.6716 -0.9855  0.4976
 5965SOL     OW29527   0.336   4.240   6.248 -0.6311 -0.7969 -0.2281
 5965SOL    HW129528   0.382   4.232   6.165 -1.2984 -0.3939 -0.6341
 5965SOL    HW229529   0.402   4.207   6.309 -1.2815 -0.8036  0.4743
 5966SOL     OW29530   4.195   3.730   1.002  0.3902  0.0580 -0.6990
 5966SOL    HW129531   4.207   3.648   0.954  0.1405 -0.8665  0.8224
 5966SOL    HW229532   4.113   3.706   1.043  0.4120 -1.4455 -1.5424
 5967SOL     OW29533   3.561   4.249  16.496 -0.3514 -0.2496  0.1697
 5967SOL    HW129534   3.541   4.318  16.559  0.7080  1.0680 -0.9356
 5967SOL    HW229535   3.623   4.200  16.549 -1.4206 -1.4552  0.3172
 5968SOL     OW29536   1.009   1.553   6.817 -0.3317 -0.2835  0.3404
 5968SOL    HW129537   1.039   1.520   6.733  2.1097 -1.6338  1.7357
 5968SOL    HW229538   1.057   1.635   6.829 -1.9393  0.8294 -0.9107
 5969SOL     OW29539   2.707   1.747   6.203 -0.5069  0.2933 -0.1435
 5969SOL    HW129540   2.702   1.721   6.295 -2.2331 -1.2639 -0.6741
 5969SOL    HW229541   2.657   1.829   6.208  0.7420  0.9268  1.9158
 5970SOL     OW29542   1.963   2.219   3.572  0.2338 -0.1446 -0.1227
 5970SOL    HW129543   2.052   2.249   3.553 -0.0210  2.4132  2.8063
 5970SOL    HW229544   1.924   2.280   3.635  0.6384 -1.6017  1.5306
 5971SOL     OW29545   0.613   1.836   2.792  0.3389  0.3090 -0.3920
 5971SOL    HW129546   0.635   1.750   2.828 -0.3159  0.9866  1.6388
 5971SOL    HW229547   0.670   1.830   2.716  1.0506  3.4929 -0.1163
 5972SOL     OW29548   1.808   2.709   2.021 -0.0504 -0.0344  0.2686
 5972SOL    HW129549   1.745   2.658   2.071 -0.2551 -1.5579 -1.5572
 5972SOL    HW229550   1.891   2.662   2.030 -0.0605  0.0230  0.6603
 5973SOL     OW29551   1.099   3.438  17.669 -0.8518 -0.4331 -0.1447
 5973SOL    HW129552   1.123   3.507  17.731 -0.2063 -0.4236 -0.4045
 5973SOL    HW229553   1.026   3.395  17.712 -0.2122 -3.1386 -1.6989
 5974SOL     OW29554   3.431   2.472  15.178  0.5249 -0.2475  0.0879
 5974SOL    HW129555   3.479   2.525  15.115 -0.3462 -1.2982 -1.4712
 5974SOL    HW229556   3.458   2.515  15.259 -1.1278 -1.1825  1.1423
 5975SOL     OW29557   1.390   1.957   2.380  0.2223  0.5180  0.1162
 5975SOL    HW129558   1.400   1.953   2.475  0.9160  1.8683  0.1051
 5975SOL    HW229559   1.300   1.977   2.352  1.3148  2.5301 -2.0156
 5976SOL     OW29560   2.102   0.240   3.681  0.1724  0.3754 -0.3469
 5976SOL    HW129561   2.153   0.185   3.622  0.3786  2.2803 -1.9671
 5976SOL    HW229562   2.091   0.192   3.763 -0.2157  1.6843  0.3754
 5977SOL     OW29563   3.081   1.082   9.138 -0.2817  1.0556 -0.8487
 5977SOL    HW129564   3.162   1.062   9.185 -1.1587 -1.4835 -0.4181
 5977SOL    HW229565   3.063   1.172   9.165 -1.7691  0.2087  0.9757
 5978SOL     OW29566   1.954   1.329  15.724 -0.4466 -0.0458  0.1124
 5978SOL    HW129567   1.927   1.389  15.655  0.6544 -1.1755 -1.3018
 5978SOL    HW229568   1.965   1.246  15.678 -0.3964 -1.5089  2.7197
 5979SOL     OW29569   3.248   3.363   6.869 -0.5049  0.3060 -0.1845
 5979SOL    HW129570   3.311   3.348   6.939 -2.7451  1.1420  1.9758
 5979SOL    HW229571   3.177   3.404   6.916  0.3337  0.8912  0.5709
 5980SOL     OW29572   0.563   0.629   5.462  0.4138  0.3825 -0.3982
 5980SOL    HW129573   0.607   0.554   5.424 -0.8484 -0.1853 -0.7246
 5980SOL    HW229574   0.473   0.607   5.439  0.6463  1.3186 -2.2334
 5981SOL     OW29575   4.702   3.290   7.627  0.1907 -0.5183 -0.0891
 5981SOL    HW129576   0.042   3.334   7.662  0.8007 -0.9954 -0.8284
 5981SOL    HW229577   4.654   3.270   7.708  0.7787 -1.5945 -0.0112
 5982SOL     OW29578   2.110   3.690  15.561 -0.2431 -0.1360 -0.0489
 5982SOL    HW129579   2.077   3.737  15.485  0.7615 -2.5472 -1.9896
 5982SOL    HW229580   2.061   3.608  15.553 -0.7366  0.2482 -1.0264
 5983SOL     OW29581   3.956   3.156  12.048 -0.0099 -0.2212  0.0059
 5983SOL    HW129582   3.962   3.113  12.134  0.1529  0.4842  0.3508
 5983SOL    HW229583   4.025   3.112  11.999  0.3718  0.8287 -0.4033
 5984SOL     OW29584   3.886   0.866  15.593 -0.0234 -1.0044 -0.4192
 5984SOL    HW129585   3.811   0.834  15.543 -0.6000 -0.9803  0.4338
 5984SOL    HW229586   3.857   0.846  15.682  1.1216  0.3620  0.2810
 5985SOL     OW29587   1.176   4.681   6.858 -0.1952 -0.1931  0.1523
 5985SOL    HW129588   1.200   0.007   6.790  0.8181 -0.9125 -0.1584
 5985SOL    HW229589   1.087   4.664   6.829  0.3745 -1.3198 -0.9428
 5986SOL     OW29590   2.146   0.710   6.851 -0.4252  0.2132  0.0988
 5986SOL    HW129591   2.215   0.767   6.818 -1.8875  1.1206 -1.3965
 5986SOL    HW229592   2.186   0.624   6.856  1.7273  1.3089  1.7353
 5987SOL     OW29593   1.977   0.452   6.998  0.1954  0.2940 -0.2842
 5987SOL    HW129594   1.907   0.405   7.042  0.6535  0.3385  0.4913
 5987SOL    HW229595   2.016   0.504   7.068 -0.2507 -2.7866  2.2266
 5988SOL     OW29596   3.249   1.901   4.776 -0.0864  0.7427  0.1252
 5988SOL    HW129597   3.338   1.930   4.757  0.0194  1.5028  1.8906
 5988SOL    HW229598   3.223   1.866   4.690  1.4686  0.6946 -0.3309
 5989SOL     OW29599   4.456   1.129   3.428 -0.7565 -0.2232  0.2827
 5989SOL    HW129600   4.367   1.152   3.401 -1.0374  0.2511  1.6135
 5989SOL    HW229601   4.514   1.192   3.385  2.8381 -1.6604  3.0044
 5990SOL     OW29602   0.488   3.868   3.908 -0.7992  0.2328 -0.2149
 5990SOL    HW129603   0.452   3.865   3.996 -1.6557  2.0307 -0.4986
 5990SOL    HW229604   0.548   3.942   3.913 -2.2263  1.5595 -2.7855
 5991SOL     OW29605   3.439   3.120   7.451  0.3772  0.4872 -0.2908
 5991SOL    HW129606   3.510   3.065   7.485  0.9748  0.6099 -1.3260
 5991SOL    HW229607   3.372   3.116   7.519 -0.4541 -0.9003 -1.1832
 5992SOL     OW29608   2.085   1.863   6.449 -0.5910 -0.3142 -0.0920
 5992SOL    HW129609   2.102   1.941   6.502  0.3110  0.2923 -1.2744
 5992SOL    HW229610   1.990   1.861   6.450 -0.6376  2.0001 -0.6600
 5993SOL     OW29611   4.515   4.195  15.086 -0.2682 -0.7058 -0.7392
 5993SOL    HW129612   4.603   4.226  15.063 -1.0282  1.2657 -1.0102
 5993SOL    HW229613   4.496   4.141  15.009  1.3847 -1.9757 -0.2527
 5994SOL     OW29614   4.567   2.415   2.086 -0.2496  0.0385 -0.4952
 5994SOL    HW129615   4.528   2.330   2.104 -0.6933  0.0247 -1.5276
 5994SOL    HW229616   4.652   2.411   2.131  0.1564 -0.9358 -1.3517
 5995SOL     OW29617   1.150   4.583   9.067  0.2141  0.0084 -0.1347
 5995SOL    HW129618   1.135   4.489   9.074 -2.0753  0.4422  0.6244
 5995SOL    HW229619   1.243   4.573   9.046  0.0366 -0.4030 -0.7280
 5996SOL     OW29620   4.458   1.387  16.243 -0.4288 -0.3480 -0.3296
 5996SOL    HW129621   4.366   1.392  16.268 -0.5031  1.4079 -0.9057
 5996SOL    HW229622   4.451   1.401  16.148 -2.2206  2.1207  0.1648
 5997SOL     OW29623   0.308   1.553   5.716 -0.2595 -0.5764 -0.3008
 5997SOL    HW129624   0.261   1.471   5.701 -0.9968 -0.2370  0.1691
 5997SOL    HW229625   0.398   1.527   5.699  0.3640  0.1428  1.8954
 5998SOL     OW29626   4.657   0.527   8.043  0.1886  0.2343  0.2117
 5998SOL    HW129627   4.697   0.568   7.966  0.8773 -1.1652 -0.1679
 5998SOL    HW229628   4.731   0.499   8.097 -0.8666  1.4064  2.3201
 5999SOL     OW29629   2.887   1.725   5.983 -0.0156 -0.1643  0.1606
 5999SOL    HW129630   2.812   1.740   6.039  0.3797  2.2295  0.0652
 5999SOL    HW229631   2.945   1.781   6.034  0.3578 -0.5759  0.1865
 6000SOL     OW29632   1.279   3.730   4.260  0.2898 -0.1077  0.1395
 6000SOL    HW129633   1.289   3.704   4.169  0.0525 -0.8410  0.3217
 6000SOL    HW229634   1.313   3.648   4.298  0.3022 -0.7149 -1.2067
 6001SOL     OW29635   2.354   3.850   2.767  0.2396 -0.2275  0.0085
 6001SOL    HW129636   2.367   3.942   2.791 -0.6313  0.1837 -1.0616
 6001SOL    HW229637   2.441   3.827   2.737 -0.0560  0.8602 -1.7415
 6002SOL     OW29638   1.184   3.426  12.470  0.1362 -0.1613 -0.2074
 6002SOL    HW129639   1.180   3.382  12.384  1.4473 -1.9603  0.6605
 6002SOL    HW229640   1.242   3.501  12.467  1.1715 -1.0237 -1.9123
 6003SOL     OW29641   3.046   0.222   3.764  0.4963  0.3671 -0.2890
 6003SOL    HW129642   3.070   0.190   3.677  0.8952 -1.8917  0.6640
 6003SOL    HW229643   2.956   0.190   3.763  1.0138 -1.1338  2.1389
 6004SOL     OW29644   4.335   4.617   8.413  0.8477  0.4589  0.7326
 6004SOL    HW129645   4.382   4.533   8.413 -0.0333 -0.0392  0.3979
 6004SOL    HW229646   4.406   4.681   8.412  2.5134 -1.4000 -0.1098
 6005SOL     OW29647   3.424   3.284   4.872  0.1086  0.3408  0.2059
 6005SOL    HW129648   3.496   3.256   4.816 -2.1180  1.4173 -3.2436
 6005SOL    HW229649   3.366   3.210   4.854  0.9415  0.3057 -2.3640
 6006SOL     OW29650   3.922   3.321   2.896  0.3791  0.2013 -0.4281
 6006SOL    HW129651   3.934   3.235   2.856  0.3647 -0.4823  1.0746
 6006SOL    HW229652   3.932   3.286   2.984 -0.6228 -0.2177 -0.4816
 6007SOL     OW29653   0.450   0.604   9.218  0.4286  0.4014  0.2312
 6007SOL    HW129654   0.483   0.515   9.212 -1.6039 -0.3954  0.7010
 6007SOL    HW229655   0.498   0.643   9.145 -1.3680 -0.2968 -1.3373
 6008SOL     OW29656   2.060   1.869   5.629 -0.2782 -0.0115 -0.1302
 6008SOL    HW129657   2.061   1.911   5.543 -1.7029  0.2885 -0.0063
 6008SOL    HW229658   2.132   1.806   5.628 -0.9523 -0.7388 -2.9810
 6009SOL     OW29659   1.688   2.699   4.826  0.1692 -0.1109 -0.2572
 6009SOL    HW129660   1.704   2.608   4.801 -1.2659 -0.8971  1.6961
 6009SOL    HW229661   1.705   2.702   4.920 -2.4307  1.1208  0.1744
 6010SOL     OW29662   4.185   0.990   2.340  0.0118 -0.5443  0.0687
 6010SOL    HW129663   4.257   0.985   2.277 -0.2760  0.0452 -0.2986
 6010SOL    HW229664   4.167   1.083   2.350  4.0704  0.0795  1.5362
 6011SOL     OW29665   0.521   3.882   4.867  0.3998  1.1723  0.0128
 6011SOL    HW129666   0.541   3.975   4.874  1.0267  0.9601  1.0188
 6011SOL    HW229667   0.433   3.893   4.830  0.1915 -0.1307  0.1106
 6012SOL     OW29668   2.795   0.815   4.710  0.7160  0.3232 -0.0830
 6012SOL    HW129669   2.817   0.781   4.797 -1.6789  0.4782  0.5829
 6012SOL    HW229670   2.843   0.757   4.651  0.6700  0.1163  0.0804
 6013SOL     OW29671   1.800   0.870   4.757 -0.1133 -0.2821  0.2549
 6013SOL    HW129672   1.881   0.872   4.808 -0.4378  1.2834  0.7070
 6013SOL    HW229673   1.840   0.895   4.674  0.1765  0.9428  0.7542
 6014SOL     OW29674   3.057   3.838   1.103 -0.3250  0.4377 -0.6907
 6014SOL    HW129675   3.043   3.932   1.094  2.2395  1.3205  4.5235
 6014SOL    HW229676   3.049   3.830   1.198  0.1104 -1.3110 -0.7906
 6015SOL     OW29677   0.896   3.252  12.761 -0.3165 -0.0031  0.1056
 6015SOL    HW129678   0.805   3.266  12.735 -0.0670 -1.6182 -1.6569
 6015SOL    HW229679   0.934   3.269  12.675 -0.6025  0.9522  0.1655
 6016SOL     OW29680   2.592   0.642   9.492  0.5424  0.0477 -0.7676
 6016SOL    HW129681   2.616   0.595   9.412 -2.5847 -1.9083 -0.5707
 6016SOL    HW229682   2.568   0.564   9.542 -2.4925  2.2878  1.2521
 6017SOL     OW29683   4.480   4.305   3.883 -0.1330 -0.2670 -0.2797
 6017SOL    HW129684   4.434   4.316   3.799 -0.4279  0.0598 -0.0718
 6017SOL    HW229685   4.523   4.391   3.882 -0.0639 -0.2978  0.5974
 6018SOL     OW29686   1.409   2.583   4.869 -0.0699  0.1658 -0.2596
 6018SOL    HW129687   1.486   2.641   4.863  0.0991 -0.0479 -0.1587
 6018SOL    HW229688   1.398   2.585   4.964  2.6830 -0.4783  0.0912
 6019SOL     OW29689   2.672   1.694   7.152 -0.4271 -0.0560  0.0685
 6019SOL    HW129690   2.610   1.680   7.080 -0.9266  2.4391  0.0089
 6019SOL    HW229691   2.724   1.615   7.142 -0.7019 -0.0825 -1.2735
 6020SOL     OW29692   0.840   0.353   3.513 -0.1047 -0.2124  0.5396
 6020SOL    HW129693   0.892   0.414   3.566 -0.9381 -0.1508  1.2870
 6020SOL    HW229694   0.770   0.330   3.574 -2.4680  0.0882 -2.0498
 6021SOL     OW29695   0.737   0.210  13.527 -0.0982  0.5892  0.1286
 6021SOL    HW129696   0.687   0.290  13.508 -1.8255 -0.6296 -0.4843
 6021SOL    HW229697   0.727   0.159  13.446  0.1466  2.1315 -0.8688
 6022SOL     OW29698   4.323   2.252   6.577 -0.3886  0.8320 -0.6320
 6022SOL    HW129699   4.230   2.274   6.569 -0.2530  1.6747  0.0536
 6022SOL    HW229700   4.356   2.338   6.552  0.2197  1.0131  0.7773
 6023SOL     OW29701   1.052   0.810   9.337  0.3062  0.7293  0.3793
 6023SOL    HW129702   0.992   0.736   9.346 -0.1099  0.6304 -3.2578
 6023SOL    HW229703   1.135   0.766   9.324  0.7298  1.6702 -0.1410
 6024SOL     OW29704   1.093   0.751   4.284 -0.3700 -0.0802 -0.6275
 6024SOL    HW129705   1.161   0.744   4.351  1.4285 -0.2458 -2.4667
 6024SOL    HW229706   1.029   0.808   4.327 -0.8452 -1.7847  0.9682
 6025SOL     OW29707   0.699   1.505   2.593 -0.1082  0.2630 -0.0395
 6025SOL    HW129708   0.679   1.414   2.573 -3.2706  0.9877 -0.1406
 6025SOL    HW229709   0.760   1.523   2.521  0.5670  3.3315  1.3208
 6026SOL     OW29710   3.304   0.504  15.567 -0.4235 -0.1463  0.0359
 6026SOL    HW129711   3.309   0.599  15.559  2.0121 -0.2630  0.0316
 6026SOL    HW229712   3.378   0.483  15.625 -0.7137  1.4456  0.9760
 6027SOL     OW29713   3.462   0.415   9.349 -0.4193  0.1890 -0.0937
 6027SOL    HW129714   3.389   0.467   9.313 -0.9067 -1.4463 -1.4653
 6027SOL    HW229715   3.451   0.338   9.293  0.2647 -0.3512  0.5230
 6028SOL     OW29716   3.385   2.920   6.939  0.1665 -0.0909 -0.0509
 6028SOL    HW129717   3.377   2.876   6.854  0.0950  0.6850 -0.4452
 6028SOL    HW229718   3.313   2.983   6.932  0.5730  0.2701 -1.0089
 6029SOL     OW29719   1.026   4.109  12.203 -0.4611  0.0601  0.1904
 6029SOL    HW129720   0.975   4.090  12.282 -2.0058 -3.0377 -1.5710
 6029SOL    HW229721   0.954   4.108  12.141  0.5870  2.2771 -1.0807
 6030SOL     OW29722   4.682   0.902  12.940 -0.4050  0.3249 -0.3923
 6030SOL    HW129723   0.008   0.941  13.001  1.6068  0.4483 -2.5317
 6030SOL    HW229724   4.634   0.856  13.009 -0.8410  0.7331 -0.4234
 6031SOL     OW29725   4.521   0.308   9.778  0.9039 -0.2058 -0.1894
 6031SOL    HW129726   4.542   0.249   9.706 -1.4355 -0.1194 -0.9203
 6031SOL    HW229727   4.597   0.318   9.836  0.2310  1.3284  0.4485
 6032SOL     OW29728   1.614   0.515   0.998 -0.0749 -0.0645  0.2638
 6032SOL    HW129729   1.705   0.494   0.975 -0.7395 -0.1218 -2.2478
 6032SOL    HW229730   1.602   0.607   0.976 -1.5515 -0.5181 -0.8013
 6033SOL     OW29731   2.455   3.740  11.331 -0.0183  0.1421  0.3735
 6033SOL    HW129732   2.464   3.647  11.308 -2.2333 -0.2823  1.2539
 6033SOL    HW229733   2.393   3.733  11.403 -0.1721 -1.6233  0.0679
 6034SOL     OW29734   0.841   0.244   2.858  0.4988 -0.1493  0.1568
 6034SOL    HW129735   0.782   0.318   2.840  0.8610 -0.6584 -3.0319
 6034SOL    HW229736   0.774   0.184   2.891  1.3734 -0.8908  0.5802
 6035SOL     OW29737   1.745   4.218   5.861  0.4518  0.0010 -0.0785
 6035SOL    HW129738   1.786   4.296   5.824  0.6303 -0.0756 -0.0459
 6035SOL    HW229739   1.805   4.196   5.932 -0.5118 -0.0379  0.7201
 6036SOL     OW29740   4.357   0.207  13.555 -0.1587  0.0717  0.0980
 6036SOL    HW129741   4.418   0.223  13.627 -1.3234 -1.4667  1.4198
 6036SOL    HW229742   4.347   0.298  13.526 -0.4437 -0.7503 -2.4031
 6037SOL     OW29743   0.185   3.038   6.520  0.2068  0.0280 -0.1442
 6037SOL    HW129744   0.101   3.045   6.474  0.5875  0.4515 -0.7812
 6037SOL    HW229745   0.170   3.023   6.613 -0.2910  0.2502 -0.1902
 6038SOL     OW29746   2.297   4.319   6.067  0.9518 -0.6242 -0.0572
 6038SOL    HW129747   2.302   4.329   5.972 -1.5225  2.0023  0.0980
 6038SOL    HW229748   2.337   4.232   6.071 -0.6964 -1.3799  0.0016
 6039SOL     OW29749   0.641   1.198   8.333 -0.2193  0.1607  0.5924
 6039SOL    HW129750   0.547   1.194   8.313 -0.4939  0.6949  1.7660
 6039SOL    HW229751   0.663   1.109   8.361 -1.8962 -0.4047  0.1464
 6040SOL     OW29752   4.568   3.895   3.827  0.0992  0.0806  0.5533
 6040SOL    HW129753   4.635   3.844   3.782  2.5519  3.7575 -0.0187
 6040SOL    HW229754   4.547   3.832   3.895  0.2898  3.6433  3.9114
 6041SOL     OW29755   2.691   0.856   2.491  0.0231  0.5733 -0.4316
 6041SOL    HW129756   2.751   0.783   2.498  2.2398  2.7540  3.0455
 6041SOL    HW229757   2.719   0.896   2.573  1.1180  1.2305 -1.1252
 6042SOL     OW29758   1.392   3.052   0.842  0.1515 -0.2269 -0.0157
 6042SOL    HW129759   1.422   3.102   0.766  1.0720  0.3537  0.7502
 6042SOL    HW229760   1.317   3.102   0.874 -0.7474 -2.3207  1.1779
 6043SOL     OW29761   1.362   2.382  11.118 -0.0038 -0.4097 -0.6364
 6043SOL    HW129762   1.304   2.336  11.057 -0.7721 -0.5599  0.2081
 6043SOL    HW229763   1.441   2.364  11.068  1.3445  0.1872  1.2707
 6044SOL     OW29764   3.878   3.502  15.264 -0.5833  0.1577 -0.1666
 6044SOL    HW129765   3.815   3.431  15.253 -0.7919  0.6484 -2.1026
 6044SOL    HW229766   3.859   3.566  15.195 -0.1146 -0.1171 -0.5481
 6045SOL     OW29767   3.619   0.090  11.782 -0.3535 -0.1677 -0.6013
 6045SOL    HW129768   3.586   0.014  11.831  0.0703  0.5204  0.7466
 6045SOL    HW229769   3.596   0.073  11.691 -0.7588  0.9284 -0.7011
 6046SOL     OW29770   0.324   0.878   6.970 -0.4435  0.0721 -0.7509
 6046SOL    HW129771   0.264   0.949   6.994  0.0668 -0.3100  1.6310
 6046SOL    HW229772   0.290   0.846   6.887 -0.2054 -0.5091 -0.6196
 6047SOL     OW29773   3.340   3.553   3.735 -0.7341  0.5930  0.1522
 6047SOL    HW129774   3.411   3.535   3.674 -0.8221  0.5839  0.0512
 6047SOL    HW229775   3.301   3.466   3.722 -1.4743  0.7235  1.5010
 6048SOL     OW29776   4.541   2.805   1.021 -0.2070  0.1206  0.7143
 6048SOL    HW129777   4.551   2.853   1.103  3.6503  0.2593  0.1963
 6048SOL    HW229778   4.451   2.772   1.026 -0.8314  1.9262  1.1237
 6049SOL     OW29779   4.709   3.479   9.169  0.2175 -0.7354 -0.4940
 6049SOL    HW129780   0.048   3.436   9.210 -0.5982 -1.6441  0.0632
 6049SOL    HW229781   4.663   3.503   9.249  0.3428 -2.1669  0.0057
 6050SOL     OW29782   4.625   2.256  16.036 -0.1137  0.1945 -0.1719
 6050SOL    HW129783   4.603   2.176  16.082 -0.2844  1.2813  1.6366
 6050SOL    HW229784   4.691   2.220  15.977 -0.0211 -1.0143  0.6809
 6051SOL     OW29785   0.189   2.925  15.943  0.7170 -0.0090 -0.3021
 6051SOL    HW129786   0.104   2.959  15.971  0.6334  2.2576 -3.3509
 6051SOL    HW229787   0.229   2.906  16.028 -0.1932  0.4553  0.2349
 6052SOL     OW29788   2.365   2.965   6.047 -0.1458  0.2630  0.0528
 6052SOL    HW129789   2.445   2.927   6.010  0.2793 -0.8360  2.1325
 6052SOL    HW229790   2.334   3.005   5.965  0.1162  1.2239  0.4137
 6053SOL     OW29791   0.404   0.972   5.452 -0.8259  0.0880  0.1149
 6053SOL    HW129792   0.317   1.012   5.455 -0.8078  0.0703  0.8528
 6053SOL    HW229793   0.385   0.886   5.414 -3.5729  0.8537 -0.2014
 6054SOL     OW29794   3.268   3.842  10.596 -0.9419 -0.6208 -0.1524
 6054SOL    HW129795   3.317   3.806  10.522  2.2356  0.4476  1.4277
 6054SOL    HW229796   3.190   3.787  10.608 -1.6718 -0.0688 -2.2506
 6055SOL     OW29797   2.761   0.236  16.933 -0.4745 -0.4210  0.0686
 6055SOL    HW129798   2.744   0.328  16.913  3.8841  0.3732  0.0478
 6055SOL    HW229799   2.804   0.247  17.018  1.0135  3.2348 -1.1535
 6056SOL     OW29800   4.727   4.111   3.798  0.1161 -0.1940  0.0793
 6056SOL    HW129801   4.673   4.181   3.834 -1.5742 -0.9393 -0.9797
 6056SOL    HW229802   4.669   4.036   3.809  0.3837 -0.2139  1.3376
 6057SOL     OW29803   4.409   0.728   6.819  0.2191  0.1841  0.6011
 6057SOL    HW129804   4.329   0.697   6.862  0.1482  1.7602  1.6007
 6057SOL    HW229805   4.408   0.666   6.746 -0.1684  0.3617  0.4555
 6058SOL     OW29806   2.559   4.069   1.978  0.3414  0.0414  0.3410
 6058SOL    HW129807   2.580   4.008   2.048 -1.2528  0.4420  1.1860
 6058SOL    HW229808   2.640   4.079   1.929 -1.3258  1.7022 -2.0829
 6059SOL     OW29809   3.277   1.921   5.747  0.3669 -0.2317 -0.2428
 6059SOL    HW129810   3.310   1.832   5.761  2.0055  0.5710  1.0050
 6059SOL    HW229811   3.303   1.967   5.827 -3.9289 -1.0062  1.6124
 6060SOL     OW29812   0.233   2.191  14.197 -0.2374 -0.0341 -0.2197
 6060SOL    HW129813   0.320   2.222  14.172  0.1540  1.6012  3.1673
 6060SOL    HW229814   0.254   2.098  14.205  3.5201  0.7334 -0.8561
 6061SOL     OW29815   1.919   3.951  12.464  0.3540 -0.2901  0.1494
 6061SOL    HW129816   2.009   3.947  12.432 -0.9811  2.2153 -3.8621
 6061SOL    HW229817   1.938   3.952  12.558 -3.2070  0.6493  0.8277
 6062SOL     OW29818   0.996   3.049   2.428 -0.4365 -0.3953 -0.0861
 6062SOL    HW129819   1.031   3.082   2.345 -0.0032  0.7509  0.5598
 6062SOL    HW229820   0.937   3.123   2.445  0.2488  0.6557 -2.3000
 6063SOL     OW29821   2.974   2.082  11.725  0.3340  0.0971 -0.5057
 6063SOL    HW129822   2.929   2.004  11.757 -1.2963  1.6690  1.0052
 6063SOL    HW229823   2.900   2.124  11.682 -0.1797  0.7356  1.0047
 6064SOL     OW29824   0.895   2.787  12.008  0.0934  0.1247  0.4066
 6064SOL    HW129825   0.952   2.715  11.981 -0.9431 -0.1012 -1.2075
 6064SOL    HW229826   0.958   2.849  12.044  1.0941 -0.6251 -0.0447
 6065SOL     OW29827   3.079   2.334   7.324  0.2971 -0.2705  0.0708
 6065SOL    HW129828   3.062   2.240   7.322  2.5810 -0.7051  1.2630
 6065SOL    HW229829   2.992   2.367   7.345 -0.3415 -0.8553 -1.6381
 6066SOL     OW29830   4.503   1.171   1.769  0.2473  0.1148 -0.0460
 6066SOL    HW129831   4.492   1.187   1.862  1.5060  0.8602 -0.0258
 6066SOL    HW229832   4.410   1.169   1.749  0.2987 -1.8062 -0.0863
 6067SOL     OW29833   0.166   1.973  14.460 -0.2510 -0.0051  0.0261
 6067SOL    HW129834   0.135   1.884  14.477  1.4341 -0.5152  0.3848
 6067SOL    HW229835   0.259   1.954  14.468 -0.3320  0.1513  1.3149
 6068SOL     OW29836   2.625   4.562   6.570  0.0918 -0.2723  0.4728
 6068SOL    HW129837   2.622   4.554   6.666 -1.1494  0.4294  0.4791
 6068SOL    HW229838   2.536   4.540   6.543 -0.1606 -0.3279  1.3503
 6069SOL     OW29839   4.550   1.959  16.020 -0.4342 -0.2165 -0.1809
 6069SOL    HW129840   4.480   1.978  16.083  0.3104  3.2562 -0.3714
 6069SOL    HW229841   4.548   1.864  16.013  0.6577 -0.1176 -1.6881
 6070SOL     OW29842   2.673   1.606   4.096  0.2347  0.4108 -0.4842
 6070SOL    HW129843   2.672   1.701   4.112  2.8155 -0.1372  3.0355
 6070SOL    HW229844   2.641   1.578   4.182  0.7828 -1.2866 -0.8352
 6071SOL     OW29845   2.898   3.959   4.636 -0.4423 -0.3257 -0.0901
 6071SOL    HW129846   2.907   3.928   4.726 -1.4903 -1.7613 -0.4800
 6071SOL    HW229847   2.982   4.002   4.621 -0.3981  0.0310  1.1497
 6072SOL     OW29848   4.508   1.002   2.216 -0.5543  0.8689 -0.1876
 6072SOL    HW129849   4.555   1.030   2.294  1.6963 -1.4447 -0.6937
 6072SOL    HW229850   4.574   0.944   2.178 -1.4710 -0.4053  0.1192
 6073SOL     OW29851   3.775   2.213   0.747 -0.1725 -0.2719  0.2845
 6073SOL    HW129852   3.744   2.248   0.830 -0.5156  0.9549 -0.3565
 6073SOL    HW229853   3.805   2.127   0.776 -0.1274  0.3907  2.2226
 6074SOL     OW29854   0.216   2.264   7.180  0.1182 -0.4448  0.4642
 6074SOL    HW129855   0.230   2.351   7.216 -0.1343 -0.5144  0.7341
 6074SOL    HW229856   0.233   2.212   7.259  1.1284 -1.2256 -0.2749
 6075SOL     OW29857   2.883   3.873   4.373 -0.5175  0.3629 -0.4308
 6075SOL    HW129858   2.862   3.941   4.309 -1.7246  1.1085  0.7720
 6075SOL    HW229859   2.869   3.932   4.447  4.8854 -1.5670  2.1913
 6076SOL     OW29860   1.392   2.977   6.224 -0.1101  0.0383 -0.2667
 6076SOL    HW129861   1.342   3.051   6.256  0.2164  0.6491 -1.1682
 6076SOL    HW229862   1.444   3.004   6.148  1.3847 -1.9241  0.0395
 6077SOL     OW29863   2.825   3.268   7.105  0.1654  0.0712 -0.1455
 6077SOL    HW129864   2.878   3.205   7.155  1.6777  1.5725  0.1748
 6077SOL    HW229865   2.779   3.309   7.178  2.8714  1.3272  0.8850
 6078SOL     OW29866   2.033   2.188   1.345 -0.1824 -0.7235 -0.3074
 6078SOL    HW129867   2.020   2.207   1.438  2.2896  1.2339 -0.3325
 6078SOL    HW229868   2.097   2.253   1.315 -1.7059  1.1228  0.4647
 6079SOL     OW29869   3.821   0.401   1.528  0.3423 -0.9852 -0.0956
 6079SOL    HW129870   3.761   0.339   1.570  0.6157  0.4590  2.3862
 6079SOL    HW229871   3.794   0.487   1.560 -0.9429 -1.0936 -0.8874
 6080SOL     OW29872   0.285   0.509   8.458 -0.0182 -1.1026  0.4971
 6080SOL    HW129873   0.283   0.595   8.418 -1.8641 -1.3544  0.0336
 6080SOL    HW229874   0.215   0.519   8.524 -1.7483 -0.9544 -1.3530
 6081SOL     OW29875   3.555   3.551  16.329 -0.6835 -0.4582 -0.8501
 6081SOL    HW129876   3.484   3.614  16.317  0.4985  0.9204 -0.4623
 6081SOL    HW229877   3.521   3.474  16.282  1.2054 -0.9878 -1.3168
 6082SOL     OW29878   3.912   2.947  11.425  0.2887  0.4413 -0.1853
 6082SOL    HW129879   3.981   2.996  11.380  1.0077 -2.0041 -1.7571
 6082SOL    HW229880   3.971   2.887  11.471  2.2265 -0.3007 -3.6203
 6083SOL     OW29881   0.458   2.284   2.790 -0.5421  0.1093  0.3424
 6083SOL    HW129882   0.388   2.348   2.774  0.8213  1.7458  0.8076
 6083SOL    HW229883   0.412   2.201   2.790 -1.1866  0.4618 -0.1939
 6084SOL     OW29884   0.983   1.938  15.122  0.1041 -0.1329 -0.0576
 6084SOL    HW129885   0.956   1.963  15.034 -0.8075 -1.0003 -0.0188
 6084SOL    HW229886   1.004   2.024  15.158 -0.9037 -0.5716  1.5589
 6085SOL     OW29887   2.052   3.788   1.536 -0.0421  0.6762 -0.2936
 6085SOL    HW129888   2.031   3.881   1.545 -0.6913  0.3855  1.2645
 6085SOL    HW229889   2.022   3.758   1.622 -1.1365 -0.0336 -0.9197
 6086SOL     OW29890   2.010   1.416   2.767  0.1849  0.0100  0.3266
 6086SOL    HW129891   2.031   1.424   2.674  0.7795 -3.0742  0.2071
 6086SOL    HW229892   1.980   1.506   2.778  0.5662  0.0271  1.1829
 6087SOL     OW29893   1.191   1.874   6.152  0.2998  0.3335  0.2688
 6087SOL    HW129894   1.236   1.790   6.154  1.5353  1.0061  0.7113
 6087SOL    HW229895   1.211   1.911   6.066  3.3042  1.7627  1.5847
 6088SOL     OW29896   1.824   2.403  13.189 -0.2138 -0.0553  0.2920
 6088SOL    HW129897   1.773   2.483  13.177 -0.8053 -0.4637  0.0914
 6088SOL    HW229898   1.909   2.446  13.191  0.8396 -1.9966 -2.6074
 6089SOL     OW29899   2.587   2.762   1.126 -0.4282  0.0879 -0.4094
 6089SOL    HW129900   2.500   2.765   1.164 -0.4470  0.5760 -0.4856
 6089SOL    HW229901   2.598   2.669   1.110  3.5974  0.5084 -0.1110
 6090SOL     OW29902   3.994   1.162   6.315  0.0562 -0.2396 -0.3478
 6090SOL    HW129903   3.941   1.218   6.259 -2.2611 -2.6909 -0.5857
 6090SOL    HW229904   4.075   1.179   6.267  0.3925  4.1911  1.7659
 6091SOL     OW29905   2.689   3.205   8.837  0.3381  0.0603  0.2839
 6091SOL    HW129906   2.611   3.170   8.795 -0.0759  0.3002  0.8500
 6091SOL    HW229907   2.730   3.126   8.873  1.8197  1.5380  1.8136
 6092SOL     OW29908   2.552   4.302  17.039  0.4946 -0.2344 -0.8372
 6092SOL    HW129909   2.635   4.257  17.053  2.0566  1.7633 -3.6527
 6092SOL    HW229910   2.567   4.348  16.956  0.5449 -0.0042 -0.7005
 6093SOL     OW29911   0.524   3.673   9.984  0.5194 -0.3707  0.2915
 6093SOL    HW129912   0.496   3.673  10.075  1.9797  1.2925  0.7291
 6093SOL    HW229913   0.574   3.754   9.970 -0.2563  0.1512  0.5172
 6094SOL     OW29914   1.288   4.519   3.831  0.5035 -0.2679  0.2922
 6094SOL    HW129915   1.307   4.432   3.796  0.2528 -1.3660  2.8566
 6094SOL    HW229916   1.245   4.498   3.914  1.4936  0.2340  0.9231
 6095SOL     OW29917   2.244   2.488   7.767 -0.0950  0.6070  0.0572
 6095SOL    HW129918   2.220   2.416   7.708 -0.5301  1.3591 -0.6973
 6095SOL    HW229919   2.250   2.441   7.850  0.5284  0.1376 -0.2526
 6096SOL     OW29920   1.457   1.318   0.029  0.2270  0.2971  0.2189
 6096SOL    HW129921   1.486   1.236   0.069 -0.3214 -0.6595 -1.3372
 6096SOL    HW229922   1.368   1.302  17.744  0.5984 -1.1342 -0.0989
 6097SOL     OW29923   0.065   0.570   9.705  0.0394  0.6156 -0.0750
 6097SOL    HW129924   0.040   0.556   9.797  1.3976 -1.8538 -0.0829
 6097SOL    HW229925   0.127   0.641   9.720  2.2092 -1.5586  1.2235
 6098SOL     OW29926   4.455   0.336   4.731 -0.3970  0.3281  0.4991
 6098SOL    HW129927   4.413   0.290   4.658  1.9582  0.4672 -0.9253
 6098SOL    HW229928   4.536   0.287   4.745 -0.8787 -0.2709  1.1752
 6099SOL     OW29929   2.385   3.232   0.485 -0.6007 -0.5915  0.5476
 6099SOL    HW129930   2.416   3.277   0.407 -3.9037 -0.2553 -0.5977
 6099SOL    HW229931   2.409   3.143   0.459  1.6406 -0.6016  2.6940
 6100SOL     OW29932   2.989   4.090   7.946  0.4095  0.3289 -0.2030
 6100SOL    HW129933   3.055   4.037   7.990 -1.6418 -2.0954 -0.0685
 6100SOL    HW229934   3.044   4.144   7.890  0.3155 -0.9196 -1.5005
 6101SOL     OW29935   1.868   4.425   5.342  0.2387 -0.0490  0.1565
 6101SOL    HW129936   1.930   4.353   5.348  1.5163  0.9465 -1.2045
 6101SOL    HW229937   1.921   4.503   5.359  0.3457 -0.1445  0.2511
 6102SOL     OW29938   3.960   1.154   5.549 -0.3573  0.5093  0.0403
 6102SOL    HW129939   3.938   1.121   5.462  1.7491 -0.5387 -0.0932
 6102SOL    HW229940   4.052   1.168   5.527 -0.6111 -0.9047 -1.9499
 6103SOL     OW29941   0.788   1.992  11.068 -0.2217 -0.6569 -0.1240
 6103SOL    HW129942   0.745   1.980  10.984  1.1174 -0.7849 -0.7908
 6103SOL    HW229943   0.723   2.057  11.095  1.2577  0.2954  1.1563
 6104SOL     OW29944   4.549   2.717   3.152  0.1844 -0.2538 -0.3020
 6104SOL    HW129945   4.634   2.759   3.145 -0.8796  2.0135  0.2733
 6104SOL    HW229946   4.516   2.731   3.063 -2.9719  0.1722  0.9339
 6105SOL     OW29947   0.278   3.985  10.890  0.0519  0.5596  0.0262
 6105SOL    HW129948   0.299   3.945  10.806 -0.8296  1.2464 -0.5196
 6105SOL    HW229949   0.266   4.079  10.872  0.1661  0.3325 -1.2386
 6106SOL     OW29950   0.712   4.042   1.747  0.3277 -0.0398  0.3049
 6106SOL    HW129951   0.768   4.024   1.822  0.5561  1.8564  0.5754
 6106SOL    HW229952   0.683   3.950   1.745  1.3598 -0.3422 -0.8575
 6107SOL     OW29953   1.716   0.192   7.063 -0.3754  0.2475 -0.3257
 6107SOL    HW129954   1.743   0.274   7.105  1.2963 -1.2978  1.6159
 6107SOL    HW229955   1.793   0.136   7.071 -0.9758 -0.6896 -1.0905
 6108SOL     OW29956   4.230   1.500  17.337 -0.3017  0.2522 -0.1924
 6108SOL    HW129957   4.156   1.470  17.284 -0.7813 -0.0930  0.6636
 6108SOL    HW229958   4.287   1.550  17.279  0.6333  0.7234  1.1334
 6109SOL     OW29959   0.643   4.405   1.356 -0.1195  0.0258  0.1461
 6109SOL    HW129960   0.566   4.430   1.408 -1.1795 -2.1311 -0.3949
 6109SOL    HW229961   0.649   4.484   1.302 -1.6330  0.6736  0.9021
 6110SOL     OW29962   1.480   1.091   9.378  0.3605  0.6663 -0.0361
 6110SOL    HW129963   1.439   1.007   9.397  0.3816  0.4829 -0.7710
 6110SOL    HW229964   1.448   1.140   9.454 -0.8730 -0.1463 -0.0259
 6111SOL     OW29965   0.244   3.511  16.703  0.0704  0.1628  0.0892
 6111SOL    HW129966   0.182   3.439  16.693 -0.4305  0.6314 -0.1197
 6111SOL    HW229967   0.215   3.565  16.777  2.0664  1.5784 -0.1492
 6112SOL     OW29968   1.850   2.399  14.445 -0.7871  0.0832 -0.1400
 6112SOL    HW129969   1.919   2.398  14.511  0.3580  2.1850 -1.3308
 6112SOL    HW229970   1.885   2.451  14.373 -0.0255 -0.3827 -0.1168
 6113SOL     OW29971   1.643   4.361  15.886  0.4784  0.4161  0.7622
 6113SOL    HW129972   1.670   4.446  15.851  0.6651 -0.2824 -0.8118
 6113SOL    HW229973   1.719   4.333  15.938  1.6669  2.5775  0.1814
 6114SOL     OW29974   0.746   1.715  15.735 -0.3241  0.3846 -0.0550
 6114SOL    HW129975   0.713   1.658  15.805  0.3799  1.7328  1.3672
 6114SOL    HW229976   0.838   1.727  15.758 -0.7571  0.3818  1.6785
 6115SOL     OW29977   1.262   0.795   3.960 -0.1236 -0.0851 -0.2540
 6115SOL    HW129978   1.196   0.836   3.905  0.6230  1.7103  0.1713
 6115SOL    HW229979   1.338   0.815   3.905 -0.9921  2.6151 -0.4341
 6116SOL     OW29980   1.438   4.066   7.106  0.3903  0.0439  0.0429
 6116SOL    HW129981   1.485   4.149   7.101  0.9735 -0.3048 -0.3168
 6116SOL    HW229982   1.353   4.084   7.065  1.5225  0.2427 -2.2183
 6117SOL     OW29983   1.574   2.694  13.414  0.3519  0.4617 -0.1581
 6117SOL    HW129984   1.620   2.699  13.330  0.8072 -1.3434 -0.0037
 6117SOL    HW229985   1.514   2.768  13.412 -0.2229 -0.0047 -0.0809
 6118SOL     OW29986   2.353   2.700  12.370  0.1328 -0.3069 -0.3224
 6118SOL    HW129987   2.319   2.671  12.455 -1.5204  1.6389 -0.3210
 6118SOL    HW229988   2.418   2.631  12.356 -1.2049 -1.6096 -0.1081
 6119SOL     OW29989   1.141   4.016   1.938 -0.0797 -0.0703  0.2571
 6119SOL    HW129990   1.072   4.081   1.954 -0.0509 -0.4746  2.0747
 6119SOL    HW229991   1.140   4.009   1.843 -1.4492  0.4132  0.2339
 6120SOL     OW29992   4.336   0.042   5.235 -0.1354  0.1840  0.9419
 6120SOL    HW129993   4.274   0.026   5.306  0.6178 -0.2093  1.5132
 6120SOL    HW229994   4.353   0.133   5.259 -0.2927 -0.0054  1.7900
 6121SOL     OW29995   4.047   3.930   6.058 -0.5704  0.2359 -0.3575
 6121SOL    HW129996   4.045   3.960   6.149  1.2836  0.2714 -0.3294
 6121SOL    HW229997   4.116   3.864   6.064 -0.7636  0.1201  0.4768
 6122SOL     OW29998   0.488   2.558  10.583 -0.3115 -0.5715 -0.0978
 6122SOL    HW129999   0.488   2.463  10.569  1.0020 -0.5453 -0.2405
 6122SOL    HW230000   0.567   2.589  10.539 -0.5092  1.0715  0.7224
 6123SOL     OW30001   4.104   2.755   6.918 -0.1922  0.0843  0.2027
 6123SOL    HW130002   4.145   2.774   7.003  0.6379 -1.3239  0.1270
 6123SOL    HW230003   4.171   2.723   6.857 -0.7727  1.3804 -1.0956
 6124SOL     OW30004   3.272   4.470   5.340 -0.0888  0.6160  0.1640
 6124SOL    HW130005   3.263   4.414   5.417 -1.1432 -0.5521 -0.8065
 6124SOL    HW230006   3.292   4.408   5.271  0.3299  0.8998  0.0293
 6125SOL     OW30007   2.328   3.498  10.846  0.4977  0.1304  0.1609
 6125SOL    HW130008   2.386   3.574  10.842 -1.2870  1.4935  0.1777
 6125SOL    HW230009   2.320   3.484  10.941  1.5781 -2.6517 -0.1530
 6126SOL     OW30010   0.378   0.892  14.829 -0.3508 -0.0384  0.2752
 6126SOL    HW130011   0.328   0.853  14.901  0.1462 -0.9567  0.1181
 6126SOL    HW230012   0.385   0.806  14.788  0.9346 -1.2246  2.9155
 6127SOL     OW30013   1.514   0.324   8.931 -0.1965 -0.2089 -0.2716
 6127SOL    HW130014   1.575   0.369   8.872  0.3798  1.6506  1.7450
 6127SOL    HW230015   1.481   0.394   8.987  0.7851  0.4090 -0.4580
 6128SOL     OW30016   2.659   2.134  10.023 -0.2165 -0.7313 -0.2956
 6128SOL    HW130017   2.753   2.146  10.019 -0.4119  1.2870  1.0742
 6128SOL    HW230018   2.645   2.183  10.104  0.0714 -2.4504  0.7820
 6129SOL     OW30019   2.374   2.457  14.599 -0.1999  0.6503  0.2948
 6129SOL    HW130020   2.364   2.378  14.651 -1.0725  0.6920  0.1752
 6129SOL    HW230021   2.469   2.471  14.598 -0.1761  0.4741  0.0668
 6130SOL     OW30022   0.664   1.710   7.694  0.1894 -0.2657  0.0112
 6130SOL    HW130023   0.590   1.650   7.702 -0.2406  0.4678  1.4643
 6130SOL    HW230024   0.693   1.687   7.605  0.3356  1.3771 -0.3556
 6131SOL     OW30025   3.999   3.605   1.630 -0.4330 -0.1883  0.0108
 6131SOL    HW130026   3.996   3.509   1.638  0.0073 -0.4609 -3.1094
 6131SOL    HW230027   4.029   3.626   1.718  0.0677  1.2752 -0.5133
 6132SOL     OW30028   0.361   0.987   5.733  0.2722  0.0222  0.3488
 6132SOL    HW130029   0.381   0.938   5.654  0.1457 -0.0042  0.3328
 6132SOL    HW230030   0.333   1.070   5.694 -3.1686 -0.5874  1.4808
 6133SOL     OW30031   2.620   2.489   1.094 -0.2947 -0.4683 -0.1933
 6133SOL    HW130032   2.586   2.407   1.129  0.0393 -0.0924  1.0405
 6133SOL    HW230033   2.710   2.475   1.124 -0.3574 -0.1484  0.1416
 6134SOL     OW30034   1.595   0.754  15.832 -0.0603  0.0152 -0.6150
 6134SOL    HW130035   1.582   0.717  15.745 -0.2416  0.9601 -0.9898
 6134SOL    HW230036   1.664   0.821  15.826  0.1269  0.0410  1.6062
 6135SOL     OW30037   2.351   4.712  16.996 -0.0931  0.5791  0.5471
 6135SOL    HW130038   2.429   4.723  16.942 -1.0141 -0.6690 -1.0575
 6135SOL    HW230039   2.316   0.063  16.983 -1.8060 -0.1828 -0.0208
 6136SOL     OW30040   1.429   1.227   7.095 -1.0858 -0.0142  0.4471
 6136SOL    HW130041   1.337   1.248   7.112 -0.8992  0.8497  0.3883
 6136SOL    HW230042   1.430   1.205   7.002  1.6001  1.3786  0.1596
 6137SOL     OW30043   3.764   3.989   6.077  0.4765 -0.4239  0.2085
 6137SOL    HW130044   3.702   3.997   6.149 -0.6953 -0.9794 -0.7377
 6137SOL    HW230045   3.847   4.001   6.122 -0.1338  1.0363  0.9658
 6138SOL     OW30046   2.475   2.618   1.935 -0.2677  0.0046  0.1781
 6138SOL    HW130047   2.504   2.652   1.851 -2.7284 -1.7410 -1.3781
 6138SOL    HW230048   2.509   2.529   1.935  0.2105  0.1901  0.0745
 6139SOL     OW30049   2.844   3.286   5.637  0.3244 -0.3148  0.1156
 6139SOL    HW130050   2.808   3.224   5.701  3.6370 -0.5798  1.7325
 6139SOL    HW230051   2.864   3.368   5.682 -0.7763 -0.9076  1.6878
 6140SOL     OW30052   1.326   1.142   1.350  0.3899 -0.2528 -0.3889
 6140SOL    HW130053   1.301   1.229   1.321 -0.3776 -0.7323 -1.1706
 6140SOL    HW230054   1.299   1.087   1.277  0.7303 -0.8797 -0.0523
 6141SOL     OW30055   0.045   3.306   3.246  0.1655  0.0600 -0.0112
 6141SOL    HW130056   4.696   3.297   3.205 -0.4615 -0.7214  1.4719
 6141SOL    HW230057   0.039   3.398   3.273  0.1581  0.1731 -0.3956
 6142SOL     OW30058   1.889   0.808   2.548 -0.0684 -0.3662 -0.2632
 6142SOL    HW130059   1.815   0.766   2.592 -0.1426  1.9148  1.7762
 6142SOL    HW230060   1.842   0.822   2.465 -0.7993 -0.6003  0.1103
 6143SOL     OW30061   1.926   0.942   4.510  0.2981 -0.0421  0.0491
 6143SOL    HW130062   1.927   1.032   4.543  1.9533 -1.0712  2.8055
 6143SOL    HW230063   1.957   0.958   4.421  0.4145  1.0524  0.2792
 6144SOL     OW30064   0.028   3.625  12.926 -0.2253  0.1804  0.1594
 6144SOL    HW130065   0.002   3.692  12.863 -1.2535 -1.8044 -1.5119
 6144SOL    HW230066   0.034   3.670  13.011 -0.2024  0.5825 -0.0541
 6145SOL     OW30067   3.728   4.242   7.439 -0.2477 -0.4826  0.1622
 6145SOL    HW130068   3.771   4.293   7.371 -1.7429  1.0561  0.3732
 6145SOL    HW230069   3.744   4.153   7.409 -1.3623 -0.6335  0.0299
 6146SOL     OW30070   0.612   1.178  16.356 -0.1399 -0.3961 -0.2000
 6146SOL    HW130071   0.593   1.249  16.295  0.3311  0.6579  0.8670
 6146SOL    HW230072   0.529   1.131  16.345 -1.5399  1.9507  0.3692
 6147SOL     OW30073   3.065   1.303  13.827 -0.2299 -0.4293  0.2662
 6147SOL    HW130074   3.009   1.374  13.855 -0.6653 -0.3446 -0.8293
 6147SOL    HW230075   3.093   1.261  13.908  1.0743  0.2038  0.1373
 6148SOL     OW30076   4.501   1.485   5.055 -0.0362 -0.4478 -0.4545
 6148SOL    HW130077   4.437   1.535   5.106 -0.7377 -0.6593 -1.1373
 6148SOL    HW230078   4.454   1.441   4.984 -0.7091  0.0945 -0.3485
 6149SOL     OW30079   1.198   4.063  11.964 -0.5715  0.2112  0.3081
 6149SOL    HW130080   1.134   4.128  11.935  0.0085  0.5158 -0.2803
 6149SOL    HW230081   1.166   4.050  12.054 -2.3297  0.0411 -0.3441
 6150SOL     OW30082   3.750   3.007   3.147 -0.2750  0.3393  0.1668
 6150SOL    HW130083   3.683   3.036   3.209 -0.0781  2.6404 -0.7171
 6150SOL    HW230084   3.815   3.077   3.150  2.0747 -1.7964 -0.8632
 6151SOL     OW30085   3.065   4.498  13.334 -0.9209 -0.3733  0.0953
 6151SOL    HW130086   3.010   4.544  13.270 -1.7981 -2.8559 -0.9204
 6151SOL    HW230087   3.028   4.411  13.326  0.4221 -0.8379 -0.9553
 6152SOL     OW30088   2.982   3.809   8.203 -0.2116  0.2527  0.1966
 6152SOL    HW130089   3.006   3.789   8.294  1.4849 -1.7983 -0.7155
 6152SOL    HW230090   2.972   3.722   8.166  1.5723 -0.4583  1.3696
 6153SOL     OW30091   3.887   3.796   2.865 -0.1595 -0.1822 -0.5837
 6153SOL    HW130092   3.898   3.782   2.771 -2.1910  0.0920 -0.8649
 6153SOL    HW230093   3.979   3.797   2.892  0.1059 -1.0939 -1.4487
 6154SOL     OW30094   2.725   1.761   5.104  0.0989  0.2452 -0.1497
 6154SOL    HW130095   2.679   1.828   5.154  1.0401  0.9797 -0.2661
 6154SOL    HW230096   2.816   1.776   5.130 -0.8802  2.1593  2.1339
 6155SOL     OW30097   4.098   0.802   3.957 -0.0241 -0.1868 -0.0737
 6155SOL    HW130098   4.165   0.848   3.905  0.9508 -0.8565  0.5877
 6155SOL    HW230099   4.040   0.876   3.974  2.2235  1.7465 -0.7187
 6156SOL     OW30100   3.214   2.008   7.077 -0.6276 -0.3519  0.0232
 6156SOL    HW130101   3.148   2.016   7.146  0.1586 -0.6274  0.8020
 6156SOL    HW230102   3.291   2.045   7.119  0.7520 -0.2700 -2.5947
 6157SOL     OW30103   1.390   3.667   4.672 -0.0849 -0.2687  0.1629
 6157SOL    HW130104   1.308   3.659   4.720  0.0597  0.8670  0.5904
 6157SOL    HW230105   1.436   3.593   4.710  1.6886 -0.3056 -2.0571
 6158SOL     OW30106   2.626   0.086   6.193  0.1409 -0.4877 -0.5075
 6158SOL    HW130107   2.710   0.086   6.238 -0.7595  0.4820  1.2153
 6158SOL    HW230108   2.644   0.110   6.103  0.3150  0.9478 -0.0893
 6159SOL     OW30109   2.252   3.834  10.563 -0.6052  0.6452 -0.4001
 6159SOL    HW130110   2.157   3.837  10.577 -0.3155 -1.2528  1.9960
 6159SOL    HW230111   2.278   3.841  10.655 -1.5302  1.8433 -0.2328
 6160SOL     OW30112   1.076   1.572  17.314 -0.1574  0.6581 -0.0586
 6160SOL    HW130113   1.089   1.556  17.220  0.1365  1.2983 -0.1252
 6160SOL    HW230114   1.080   1.486  17.357  0.5052  0.9909  0.5368
 6161SOL     OW30115   2.208   4.412  12.717 -0.3154  0.2724  0.2028
 6161SOL    HW130116   2.175   4.373  12.798  0.3359  0.8300  0.7416
 6161SOL    HW230117   2.174   4.352  12.651  1.6670 -0.6837  0.0339
 6162SOL     OW30118   2.722   4.006   3.955 -0.1655  0.4481 -0.8357
 6162SOL    HW130119   2.758   3.977   3.871 -1.2065 -0.7634 -0.8548
 6162SOL    HW230120   2.654   3.942   3.975 -1.1000  1.3276 -1.1892
 6163SOL     OW30121   2.216   3.764   3.867  0.1592 -0.0016  0.5375
 6163SOL    HW130122   2.155   3.784   3.938 -1.1179  2.3397 -1.2334
 6163SOL    HW230123   2.271   3.686   3.882 -1.1759 -1.4926 -2.4383
 6164SOL     OW30124   1.111   3.822   3.119 -0.3678  0.3744 -0.3720
 6164SOL    HW130125   1.024   3.830   3.082 -0.1353 -0.1260 -1.0315
 6164SOL    HW230126   1.155   3.903   3.094  0.6169 -1.1876 -3.6685
 6165SOL     OW30127   1.904   1.955   4.805  0.3703  0.7591  0.2340
 6165SOL    HW130128   1.963   2.025   4.778  1.3925  0.2457  1.1308
 6165SOL    HW230129   1.937   1.943   4.894  0.7752  3.0557  0.3960
 6166SOL     OW30130   2.735   3.412  13.299  0.1716  0.2401 -0.3918
 6166SOL    HW130131   2.640   3.419  13.291 -0.2296 -1.5308  2.9713
 6166SOL    HW230132   2.773   3.490  13.259 -0.5401  0.0380 -1.4896
 6167SOL     OW30133   4.586   0.690   9.563  0.4277 -0.4834 -0.1194
 6167SOL    HW130134   4.656   0.663   9.623  1.0210  3.2430  0.8831
 6167SOL    HW230135   4.632   0.750   9.505 -1.1074  1.3405  0.5484
 6168SOL     OW30136   1.432   4.611   8.926 -0.1466 -0.1712 -0.2477
 6168SOL    HW130137   1.436   4.693   8.877 -0.2329 -0.9917 -1.6410
 6168SOL    HW230138   1.415   4.553   8.851  0.3549 -2.7536  1.6337
 6169SOL     OW30139   0.555   4.170   7.284 -0.2605 -0.3504 -0.2789
 6169SOL    HW130140   0.583   4.176   7.193 -1.9467  1.2781 -0.6762
 6169SOL    HW230141   0.471   4.123   7.282 -0.3985 -0.0656 -1.0294
 6170SOL     OW30142   4.438   1.031   6.167 -0.1045  0.6950 -0.0932
 6170SOL    HW130143   4.444   1.097   6.236  1.8341 -0.9145  1.2812
 6170SOL    HW230144   4.396   1.083   6.099  0.3000 -0.1499 -0.9941
 6171SOL     OW30145   1.508   1.832  14.570 -0.3177  0.0833  0.2614
 6171SOL    HW130146   1.415   1.857  14.569 -0.1489  0.6927 -0.1706
 6171SOL    HW230147   1.501   1.759  14.508  0.5738  0.0008  0.2662
 6172SOL     OW30148   2.321   0.810   4.946 -0.2484 -0.0708  0.7278
 6172SOL    HW130149   2.286   0.765   5.022 -1.4645  0.3637  0.4191
 6172SOL    HW230150   2.246   0.800   4.888  0.0239 -1.9576  0.6901
 6173SOL     OW30151   1.508   4.289   3.764 -0.3401  0.1383  0.3101
 6173SOL    HW130152   1.571   4.223   3.738  0.5028  1.5933 -1.3701
 6173SOL    HW230153   1.518   4.303   3.858 -1.0745 -0.2161  0.4436
 6174SOL     OW30154   3.284   0.626   9.362  0.3391  0.2420 -0.0130
 6174SOL    HW130155   3.331   0.659   9.438 -1.1009  0.0539  0.9739
 6174SOL    HW230156   3.202   0.674   9.375  1.3644  2.6493 -2.5327
 6175SOL     OW30157   1.980   3.601   5.046  0.2172  0.2252  0.1116
 6175SOL    HW130158   1.989   3.564   5.134 -0.5430 -3.0392 -1.2016
 6175SOL    HW230159   1.913   3.553   4.998  1.8512 -0.4898 -1.5014
 6176SOL     OW30160   0.240   4.640   6.257 -0.1838 -0.1175 -0.5196
 6176SOL    HW130161   0.332   4.663   6.244 -0.6993  3.1847  1.8192
 6176SOL    HW230162   0.205   4.729   6.263  1.6565  0.5456  0.0979
 6177SOL     OW30163   2.750   0.587   5.916  0.0348 -0.1097 -0.2200
 6177SOL    HW130164   2.774   0.511   5.970 -1.3868 -0.0332  0.5112
 6177SOL    HW230165   2.741   0.546   5.830 -0.1423 -0.2525 -0.1356
 6178SOL     OW30166   1.965   3.007  16.628  0.6256 -0.1603 -0.8632
 6178SOL    HW130167   1.875   3.031  16.606  0.6672  0.4594 -0.3429
 6178SOL    HW230168   1.982   3.051  16.711  0.8638 -0.4374 -0.7636
 6179SOL     OW30169   2.068   3.467   4.421 -0.1726  0.5687  0.0120
 6179SOL    HW130170   1.984   3.433   4.391  0.9370 -0.0642 -2.3522
 6179SOL    HW230171   2.112   3.389   4.457 -0.1721  0.1473 -0.9064
 6180SOL     OW30172   3.500   0.429  15.748  0.4542  0.1751  0.1559
 6180SOL    HW130173   3.573   0.491  15.748  1.6820 -1.2689 -1.3018
 6180SOL    HW230174   3.539   0.369  15.812  1.8197 -1.7710 -2.4911
 6181SOL     OW30175   3.869   0.565   6.575 -0.5502  0.4477  0.3344
 6181SOL    HW130176   3.802   0.612   6.526 -0.3704  2.4826  2.0584
 6181SOL    HW230177   3.814   0.512   6.633  1.5007 -2.4583 -0.4067
 6182SOL     OW30178   1.408   3.753   0.209 -0.6689  0.5492  0.1530
 6182SOL    HW130179   1.461   3.709   0.275  2.2696  1.7450 -1.3597
 6182SOL    HW230180   1.404   3.687   0.140 -0.0475 -0.5719  1.1876
 6183SOL     OW30181   2.606   2.810   8.879 -0.0511 -0.1700 -0.0971
 6183SOL    HW130182   2.684   2.863   8.889 -0.4554  0.8902 -2.5771
 6183SOL    HW230183   2.635   2.755   8.805 -4.3898  0.0192 -1.9583
 6184SOL     OW30184   0.169   1.018  15.845  0.4031 -0.8317 -0.3430
 6184SOL    HW130185   0.220   1.033  15.925  0.3187 -1.2801 -0.2024
 6184SOL    HW230186   0.183   1.098  15.795  0.4822 -1.1787 -0.8666
 6185SOL     OW30187   3.291   2.702   0.759 -0.6664 -0.1238  0.5923
 6185SOL    HW130188   3.327   2.671   0.842 -0.4598 -0.5272  0.3508
 6185SOL    HW230189   3.341   2.660   0.689  3.4407  1.7527  2.3857
 6186SOL     OW30190   4.694   3.530   6.924  0.1616  0.0299  0.5064
 6186SOL    HW130191   0.023   3.543   6.992  0.9245 -1.4472  0.0476
 6186SOL    HW230192   0.015   3.482   6.865 -1.2336  0.2698 -1.0444
 6187SOL     OW30193   0.549   0.546   4.444  0.2554 -0.7349  0.2188
 6187SOL    HW130194   0.552   0.512   4.533  1.7689 -1.9689 -0.3032
 6187SOL    HW230195   0.555   0.464   4.394 -2.4928 -1.3900  0.9413
 6188SOL     OW30196   1.428   3.855   5.352 -0.4612 -0.2291 -0.1236
 6188SOL    HW130197   1.465   3.917   5.415 -1.2882 -0.8065  0.9481
 6188SOL    HW230198   1.449   3.890   5.266 -2.6870  0.5819 -0.3445
 6189SOL     OW30199   0.658   0.318   3.713  0.1272 -0.3201 -0.3199
 6189SOL    HW130200   0.626   0.306   3.802  2.1151 -3.2137  0.0193
 6189SOL    HW230201   0.628   0.407   3.698 -0.5186 -0.4491  0.2181
 6190SOL     OW30202   1.224   0.512   7.453 -0.1319 -0.2508 -0.1000
 6190SOL    HW130203   1.212   0.419   7.469  2.0850 -0.7974 -1.6159
 6190SOL    HW230204   1.306   0.535   7.498 -0.5977 -0.4741  0.8584
 6191SOL     OW30205   1.031   0.425   0.154 -0.4560 -0.4223 -0.0029
 6191SOL    HW130206   1.049   0.332   0.141 -0.1059 -0.4094  0.4207
 6191SOL    HW230207   0.935   0.421   0.154 -0.4817  0.4290  3.1616
 6192SOL     OW30208   0.284   0.714  13.635  0.5738 -0.6814  0.4902
 6192SOL    HW130209   0.308   0.762  13.556 -0.2389  1.0049  1.2723
 6192SOL    HW230210   0.288   0.772  13.711 -0.2970  0.1720 -0.1218
 6193SOL     OW30211   1.959   0.941   1.201 -0.2587  0.4548  0.0361
 6193SOL    HW130212   2.010   1.021   1.191  1.9132 -1.3362 -3.2978
 6193SOL    HW230213   1.956   0.939   1.296 -0.9566 -0.8125 -0.0102
 6194SOL     OW30214   2.834   0.030   1.280  0.2225  0.5204  0.2495
 6194SOL    HW130215   2.880   0.080   1.212  1.3133  0.5417  1.0067
 6194SOL    HW230216   2.844   4.677   1.250 -1.6827  0.5097 -0.3709
 6195SOL     OW30217   1.098   3.108  10.866 -0.2264  0.2393  0.1480
 6195SOL    HW130218   1.023   3.075  10.915  0.3003 -1.4667 -0.2116
 6195SOL    HW230219   1.103   3.195  10.907 -1.8206 -0.2375  1.3446
 6196SOL     OW30220   3.011   3.439  12.386  0.2277 -0.7345 -0.2289
 6196SOL    HW130221   3.042   3.502  12.322 -0.8789  0.3578  0.3207
 6196SOL    HW230222   2.917   3.438  12.368  0.3258 -0.7101 -0.7488
 6197SOL     OW30223   2.989   1.450   2.285 -0.4132  0.0914 -0.4670
 6197SOL    HW130224   2.935   1.484   2.357 -4.5934 -0.9966 -3.0419
 6197SOL    HW230225   3.006   1.530   2.236 -2.8238  0.6371 -0.4381
 6198SOL     OW30226   1.881   2.526   3.435 -0.2866  0.1499  0.0633
 6198SOL    HW130227   1.830   2.534   3.355 -0.3787  0.1444  0.1205
 6198SOL    HW230228   1.804   2.509   3.490  0.5952 -0.5187  1.0983
 6199SOL     OW30229   1.570   4.056  12.544 -0.2086  0.5949 -0.5101
 6199SOL    HW130230   1.599   4.114  12.474 -0.0153  0.6902 -0.3495
 6199SOL    HW230231   1.595   3.971  12.506  1.3388  0.3225  1.1317
 6200SOL     OW30232   0.468   1.556  14.171 -0.1559  0.0113 -0.2243
 6200SOL    HW130233   0.438   1.586  14.257 -0.4332  0.7458 -0.5803
 6200SOL    HW230234   0.547   1.509  14.197  0.4336  0.8189 -0.5799
 6201SOL     OW30235   1.492   4.330   6.948  0.8917 -0.3446 -0.0677
 6201SOL    HW130236   1.404   4.346   6.914  1.6387  1.0266 -1.3357
 6201SOL    HW230237   1.518   4.255   6.895  0.4259 -0.9379  0.5394
 6202SOL     OW30238   0.260   3.170   5.129  0.1705  0.6337  0.5537
 6202SOL    HW130239   0.248   3.080   5.098 -0.9901  0.7573  0.6690
 6202SOL    HW230240   0.321   3.154   5.202  1.5690 -0.2282 -0.7864
 6203SOL     OW30241   3.675   0.447   4.295 -0.1707  0.4297  0.7447
 6203SOL    HW130242   3.631   0.378   4.245 -0.1409  2.3326 -1.9301
 6203SOL    HW230243   3.648   0.453   4.386 -0.3146 -2.4814  0.8633
 6204SOL     OW30244   2.237   2.840  15.724 -0.3176 -0.2918 -0.9207
 6204SOL    HW130245   2.172   2.904  15.752  0.2660  0.8506 -2.1567
 6204SOL    HW230246   2.318   2.891  15.719 -0.5029  0.2600  1.6387
 6205SOL     OW30247   0.538   3.052   8.322 -1.1320  0.1794 -0.2243
 6205SOL    HW130248   0.557   3.139   8.357 -2.0220 -0.1225  1.0074
 6205SOL    HW230249   0.628   3.035   8.294 -0.5717  0.5643  1.3469
 6206SOL     OW30250   4.201   2.020   7.870 -0.2631  0.5621  0.0968
 6206SOL    HW130251   4.156   2.095   7.831  1.7459  1.3347 -0.7510
 6206SOL    HW230252   4.269   2.011   7.804 -1.3676 -0.9774 -0.8328
 6207SOL     OW30253   2.196   0.368   6.147  0.1895 -0.4889  0.0191
 6207SOL    HW130254   2.271   0.315   6.120 -0.1557 -0.1770 -1.5587
 6207SOL    HW230255   2.151   0.372   6.063 -2.0139  0.8006  1.2639
 6208SOL     OW30256   2.916   0.783   8.704  0.4168  1.0170  0.4039
 6208SOL    HW130257   2.843   0.733   8.667  1.2247  0.0864  0.0687
 6208SOL    HW230258   2.971   0.708   8.729 -3.3420 -0.5622  3.8825
 6209SOL     OW30259   2.587   0.056  12.781 -0.0103  0.4051  0.1554
 6209SOL    HW130260   2.659   0.013  12.735 -0.3347 -1.5243  1.4785
 6209SOL    HW230261   2.611   0.147  12.795 -1.3473  0.7391  0.2937
 6210SOL     OW30262   0.480   2.660   7.890  0.1871  0.2196 -0.6444
 6210SOL    HW130263   0.498   2.725   7.958 -0.8454  0.3288 -0.4719
 6210SOL    HW230264   0.559   2.664   7.836 -0.8887  2.1666 -2.0581
 6211SOL     OW30265   4.162   1.907   8.125  0.0795  0.5809  0.3457
 6211SOL    HW130266   4.081   1.953   8.145  0.0985  1.1580 -0.9146
 6211SOL    HW230267   4.190   1.948   8.044  0.8514 -0.0891  0.2697
 6212SOL     OW30268   1.095   4.151   8.281  0.4597 -0.0572 -0.2659
 6212SOL    HW130269   1.029   4.106   8.229  2.0190 -0.8416 -1.5935
 6212SOL    HW230270   1.062   4.240   8.290 -0.2481 -0.4645  1.2347
 6213SOL     OW30271   2.633   1.960   3.660 -0.1502 -0.0287 -0.5616
 6213SOL    HW130272   2.599   1.877   3.694 -0.5580 -0.4052 -1.9226
 6213SOL    HW230273   2.578   1.975   3.583  1.2851  2.1839 -1.1499
 6214SOL     OW30274   4.536   1.494   3.500 -0.4229 -0.2522 -0.0330
 6214SOL    HW130275   4.534   1.512   3.406  0.6644 -1.0129 -0.1956
 6214SOL    HW230276   4.588   1.568   3.531 -0.6945  0.7780 -2.0258
 6215SOL     OW30277   1.826   3.375   7.142  0.5550 -0.2650 -0.5217
 6215SOL    HW130278   1.851   3.454   7.191 -0.1749 -0.3857  0.0432
 6215SOL    HW230279   1.732   3.389   7.150  0.6434 -0.9776  1.8594
 6216SOL     OW30280   3.275   2.835   8.252  0.4754 -0.5634 -0.3028
 6216SOL    HW130281   3.331   2.828   8.329  1.1380  3.8530 -0.4180
 6216SOL    HW230282   3.324   2.800   8.178  0.7791  0.7375 -0.7112
 6217SOL     OW30283   2.767   0.772   5.438 -0.2810 -0.0057  0.1563
 6217SOL    HW130284   2.779   0.699   5.498 -0.2734  0.7412  1.0698
 6217SOL    HW230285   2.672   0.768   5.424 -0.4116 -2.4101  1.8248
 6218SOL     OW30286   2.670   0.098   8.863 -0.3923 -0.0593 -0.1762
 6218SOL    HW130287   2.647   0.168   8.801  0.1731  0.2322 -0.0522
 6218SOL    HW230288   2.607   0.032   8.835 -0.9364  0.5773 -0.4611
 6219SOL     OW30289   4.190   3.720   6.729 -0.5477  0.3872 -0.3903
 6219SOL    HW130290   4.188   3.631   6.762 -2.7774  0.4277 -0.4548
 6219SOL    HW230291   4.260   3.713   6.664  0.3516 -2.3792  0.8824
 6220SOL     OW30292   4.427   0.951   4.554 -0.1004 -0.7026  0.0925
 6220SOL    HW130293   4.466   0.897   4.485 -0.5334  0.0560 -0.7289
 6220SOL    HW230294   4.375   0.881   4.594  0.4654 -0.4656  1.2319
 6221SOL     OW30295   2.405   2.103   0.052 -0.2949 -1.0222  0.0839
 6221SOL    HW130296   2.341   2.119  17.730  0.4958  0.3101 -0.3305
 6221SOL    HW230297   2.466   2.176   0.042 -0.9798 -0.4827 -0.1356
 6222SOL     OW30298   1.489   4.104   4.102  0.0833 -0.0245 -0.3735
 6222SOL    HW130299   1.526   4.183   4.063 -2.2577  0.5485 -1.3931
 6222SOL    HW230300   1.444   4.142   4.177 -0.3243  0.3820 -0.8262
 6223SOL     OW30301   4.452   0.163   6.299  0.8375 -0.4350  0.1696
 6223SOL    HW130302   4.429   0.095   6.235 -0.6480  0.8504 -0.6807
 6223SOL    HW230303   4.532   0.203   6.265 -1.1450  2.0474 -1.6264
 6224SOL     OW30304   4.676   0.092   1.835 -0.3094  0.5236  0.3022
 6224SOL    HW130305   4.727   0.068   1.913  0.9110  0.6859 -0.4506
 6224SOL    HW230306   0.009   0.123   1.778 -0.2575  2.0550  1.2014
 6225SOL     OW30307   3.863   1.724   6.875 -0.0271  0.5743  0.2595
 6225SOL    HW130308   3.809   1.752   6.949 -1.8552  1.1385 -1.3304
 6225SOL    HW230309   3.809   1.747   6.800 -1.2714  0.6134  1.1656
 6226SOL     OW30310   0.015   2.550   8.272  0.1536 -0.4393  0.4308
 6226SOL    HW130311   0.045   2.463   8.248  1.5164 -0.6002  2.7393
 6226SOL    HW230312   4.682   2.534   8.335  0.5524 -0.6453  0.8167
 6227SOL     OW30313   3.369   4.604  15.531 -0.2545 -0.7991  0.0383
 6227SOL    HW130314   3.358   4.659  15.454 -2.3631 -0.1688  0.7787
 6227SOL    HW230315   3.461   4.624  15.548 -0.3608 -0.7341  0.5425
 6228SOL     OW30316   0.587   4.228   8.106 -0.2445  0.0645  0.7038
 6228SOL    HW130317   0.527   4.226   8.181  0.9674 -1.9095  1.6336
 6228SOL    HW230318   0.599   4.136   8.085  1.9705  0.3789  0.5757
 6229SOL     OW30319   4.525   3.109   5.048  0.5415 -0.2726  0.0696
 6229SOL    HW130320   4.589   3.072   4.987  1.1416  0.1178  0.4790
 6229SOL    HW230321   4.459   3.043   5.025  0.8618  0.0338 -1.7090
 6230SOL     OW30322   2.627   2.247  16.195 -0.4694 -0.1982  0.3034
 6230SOL    HW130323   2.560   2.262  16.129 -0.7120 -3.7114 -0.2035
 6230SOL    HW230324   2.701   2.226  16.137  0.8100  0.2376  1.7811
 6231SOL     OW30325   3.333   4.621   3.378  0.2816  0.0142 -0.2157
 6231SOL    HW130326   3.423   4.643   3.400 -0.2400  1.2623  0.7074
 6231SOL    HW230327   3.344   4.617   3.283  2.0005  1.3929 -0.0708
 6232SOL     OW30328   0.411   2.000   2.789  0.1231  0.0568 -0.2128
 6232SOL    HW130329   0.341   1.963   2.843 -0.3049  0.6464 -0.3690
 6232SOL    HW230330   0.486   1.941   2.792  0.8177  0.8857 -1.0998
 6233SOL     OW30331   1.125   2.995  12.080 -0.0107 -0.2985  0.4014
 6233SOL    HW130332   1.086   3.028  12.000 -0.1840 -2.5440 -0.4476
 6233SOL    HW230333   1.161   2.913  12.044  3.0156  0.2513  2.1387
 6234SOL     OW30334   0.373   2.932   3.147  0.5119  0.1821  0.2223
 6234SOL    HW130335   0.424   2.890   3.217  2.1293 -2.6329 -2.6235
 6234SOL    HW230336   0.392   2.868   3.079 -0.1669  0.2200 -0.0028
 6235SOL     OW30337   4.259   0.612   3.353  0.4261  0.1281 -0.0297
 6235SOL    HW130338   4.174   0.647   3.379  0.3958  1.7458 -2.3342
 6235SOL    HW230339   4.246   0.540   3.291 -0.6723 -0.2686  0.6724
 6236SOL     OW30340   0.332   0.082  12.907 -0.2866 -0.2297  0.1581
 6236SOL    HW130341   0.417   0.039  12.913 -0.9582 -1.6036 -0.2097
 6236SOL    HW230342   0.348   0.164  12.953 -1.9149  0.4444 -0.4903
 6237SOL     OW30343   1.994   3.853   3.555  0.2528  0.0010  0.7315
 6237SOL    HW130344   2.064   3.892   3.502  1.2450 -1.1927  1.1735
 6237SOL    HW230345   1.924   3.875   3.493  1.6293 -1.4742 -1.3583
 6238SOL     OW30346   4.402   4.722  16.245 -0.0541  0.0733 -0.8951
 6238SOL    HW130347   4.497   4.711  16.248 -0.1069 -0.5126 -1.4058
 6238SOL    HW230348   4.379   4.715  16.338 -0.0510 -2.7435 -1.1028
 6239SOL     OW30349   0.333   3.918   3.039  0.1303 -0.1934  0.5349
 6239SOL    HW130350   0.266   3.939   2.974 -1.0747  1.4447  2.3270
 6239SOL    HW230351   0.282   3.933   3.118  0.8321 -1.7113  1.2686
 6240SOL     OW30352   3.350   3.624   6.199  0.3228 -0.4684  0.0537
 6240SOL    HW130353   3.310   3.613   6.113  0.7501 -0.6925 -0.1199
 6240SOL    HW230354   3.361   3.537   6.239  2.0751 -1.2279 -2.0325
 6241SOL     OW30355   1.936   1.701   4.614 -0.1203  0.4303 -0.9064
 6241SOL    HW130356   1.908   1.790   4.635  1.2199  0.0079  2.7334
 6241SOL    HW230357   1.853   1.667   4.581  0.2078 -0.9589 -0.2880
 6242SOL     OW30358   0.753   1.956   6.222  0.4141 -0.1263 -0.0629
 6242SOL    HW130359   0.709   1.914   6.296 -1.3305 -0.2143 -1.1647
 6242SOL    HW230360   0.787   1.883   6.171  2.1001  0.5233  0.0985
 6243SOL     OW30361   2.020   3.120   5.274  0.6852 -0.3282 -0.8060
 6243SOL    HW130362   2.115   3.109   5.264  0.5041 -2.8521  0.2697
 6243SOL    HW230363   1.988   3.052   5.216 -1.1700  0.6458 -0.9161
 6244SOL     OW30364   4.185   3.614   4.867  0.2745  0.1673 -0.6799
 6244SOL    HW130365   4.192   3.559   4.789 -1.5326  1.1443 -1.5272
 6244SOL    HW230366   4.148   3.694   4.830  0.0102  2.3780  4.3956
 6245SOL     OW30367   0.913   0.961  13.621 -0.1293 -0.2561 -0.1630
 6245SOL    HW130368   0.913   0.873  13.659 -1.4196 -1.2852 -2.5635
 6245SOL    HW230369   0.819   0.972  13.608 -0.1073  2.8578  2.4121
 6246SOL     OW30370   0.908   1.704   7.067 -0.0638  0.2141 -0.3475
 6246SOL    HW130371   0.947   1.773   7.122  0.4429  1.8591 -2.7770
 6246SOL    HW230372   0.957   1.721   6.987  0.9051  1.5967  0.5338
 6247SOL     OW30373   3.506   3.629  17.235 -0.3487 -0.6870 -0.4053
 6247SOL    HW130374   3.590   3.611  17.275 -0.2556 -0.9676 -0.7219
 6247SOL    HW230375   3.448   3.632  17.311 -1.7043 -1.4380 -1.4125
 6248SOL     OW30376   0.938   2.360   7.469 -0.0227 -0.3772 -0.3223
 6248SOL    HW130377   0.898   2.273   7.458 -0.1702 -0.2350 -0.9202
 6248SOL    HW230378   0.905   2.389   7.384  0.9494  0.3485 -0.4451
 6249SOL     OW30379   2.120   1.331   4.932 -0.0479 -0.5566 -0.2403
 6249SOL    HW130380   2.196   1.288   4.894  0.2180 -1.5248  1.3995
 6249SOL    HW230381   2.124   1.424   4.907 -1.8399  0.5075  3.4355
 6250SOL     OW30382   1.706   3.932   5.151 -0.6462  0.2379  0.1879
 6250SOL    HW130383   1.719   4.027   5.154 -2.2545  0.4348  0.6029
 6250SOL    HW230384   1.620   3.914   5.113 -0.9054  1.4564  0.2161
 6251SOL     OW30385   3.396   3.041   5.971  0.0717 -0.3050  0.4076
 6251SOL    HW130386   3.459   2.979   5.934  0.9564  1.6039 -1.2690
 6251SOL    HW230387   3.320   3.019   5.916  0.9872  1.9939 -1.7817
 6252SOL     OW30388   4.464   2.002   1.847  0.2465 -0.4437 -1.1043
 6252SOL    HW130389   4.390   1.942   1.859 -0.7237  0.8032 -0.9288
 6252SOL    HW230390   4.412   2.081   1.861 -1.0687 -1.6168  0.5862
 6253SOL     OW30391   3.990   1.997   8.399 -0.4255 -0.3092 -0.0518
 6253SOL    HW130392   3.917   2.046   8.435 -1.0438 -0.0334 -1.6610
 6253SOL    HW230393   3.938   1.947   8.336 -1.4383 -0.4838  0.9230
 6254SOL     OW30394   3.394   0.716  16.395 -1.1297  0.5548 -0.2820
 6254SOL    HW130395   3.302   0.698  16.373 -1.9156  0.7719  2.7120
 6254SOL    HW230396   3.431   0.639  16.352  1.0509  1.8530 -0.6857
 6255SOL     OW30397   3.192   2.912   0.618  0.0745 -0.5683 -0.1671
 6255SOL    HW130398   3.221   2.827   0.650 -1.4858 -1.0026  0.1211
 6255SOL    HW230399   3.257   2.930   0.551  0.2204  0.1201  0.1604
 6256SOL     OW30400   0.558   0.646  13.646  0.0657 -0.5741 -0.0234
 6256SOL    HW130401   0.593   0.569  13.690 -0.2466 -1.3212 -1.0955
 6256SOL    HW230402   0.468   0.641  13.675  0.1394  1.0541  0.4677
 6257SOL     OW30403   4.634   1.174   7.204 -0.2013 -0.4155  0.0458
 6257SOL    HW130404   4.589   1.233   7.144 -0.0865 -1.2541 -0.8620
 6257SOL    HW230405   4.680   1.239   7.257 -1.3528  1.4066 -1.1741
 6258SOL     OW30406   3.719   3.119   9.251 -0.3517 -0.3130 -0.3112
 6258SOL    HW130407   3.721   3.187   9.184 -0.2150 -1.2777 -1.2867
 6258SOL    HW230408   3.810   3.088   9.245 -0.2401  0.0201 -0.3216
 6259SOL     OW30409   1.443   2.704   3.396  0.1610  0.2958  0.4536
 6259SOL    HW130410   1.521   2.715   3.342  0.1103  4.0056  1.1227
 6259SOL    HW230411   1.388   2.647   3.343  2.1887 -1.5558  0.3068
 6260SOL     OW30412   4.313   2.499   6.465 -0.0356 -0.1166  0.1977
 6260SOL    HW130413   4.357   2.538   6.390 -3.9774  2.0984 -0.9602
 6260SOL    HW230414   4.251   2.443   6.418 -1.3416  1.6118 -0.1337
 6261SOL     OW30415   0.997   0.341   4.069 -0.6021  0.5559 -0.3309
 6261SOL    HW130416   1.012   0.265   4.011 -1.0933  0.0570  0.1994
 6261SOL    HW230417   0.920   0.376   4.025 -1.1396 -0.5451 -0.2785
 6262SOL     OW30418   1.218   4.231   5.387 -0.2398  0.0380 -0.3728
 6262SOL    HW130419   1.192   4.322   5.396  0.6859  0.2270  0.4291
 6262SOL    HW230420   1.193   4.207   5.298  2.4358  1.9406 -1.6333
 6263SOL     OW30421   2.017   0.734   4.266  0.5161  0.5689 -0.7028
 6263SOL    HW130422   1.970   0.806   4.224  0.3223  1.6273  1.2830
 6263SOL    HW230423   2.085   0.708   4.204 -0.2641 -1.9275 -0.5047
 6264SOL     OW30424   0.641   0.887   0.760  0.0492  0.2923 -0.0686
 6264SOL    HW130425   0.728   0.858   0.785  0.8902  0.5842 -2.7447
 6264SOL    HW230426   0.635   0.981   0.774  1.6054  0.3526  0.1610
 6265SOL     OW30427   4.655   4.708  15.984 -0.5066  0.5177 -0.5500
 6265SOL    HW130428   4.725   0.036  15.986  0.9151 -1.0297  0.0664
 6265SOL    HW230429   4.698   4.636  15.939 -0.3163  0.6841 -0.6349
 6266SOL     OW30430   1.764   2.072   5.500 -0.1455 -0.0548 -0.2443
 6266SOL    HW130431   1.681   2.040   5.463  0.8682 -1.0351 -1.6822
 6266SOL    HW230432   1.741   2.064   5.592  1.6195  2.4047  0.4042
 6267SOL     OW30433   0.733   2.735   9.953 -0.2110 -0.4671  0.0433
 6267SOL    HW130434   0.727   2.788  10.033  1.0604  0.1376 -0.2754
 6267SOL    HW230435   0.752   2.794   9.880  3.9694 -2.4802 -0.4816
 6268SOL     OW30436   1.640   0.150   8.440  0.0413  0.2018 -0.1807
 6268SOL    HW130437   1.645   0.140   8.345 -0.2679  1.2947 -0.3123
 6268SOL    HW230438   1.710   0.092   8.469  0.5696  0.6102 -0.6372
 6269SOL     OW30439   4.245   4.253   7.724  0.5446 -0.4837  0.4213
 6269SOL    HW130440   4.313   4.219   7.665  0.9529 -0.3766  0.8262
 6269SOL    HW230441   4.244   4.344   7.695  0.3805  0.4856  3.4239
 6270SOL     OW30442   2.284   0.500   5.806 -0.4852 -0.0578 -0.0317
 6270SOL    HW130443   2.370   0.459   5.793  0.2888  1.3975  0.5085
 6270SOL    HW230444   2.226   0.432   5.771 -0.5223  0.4668 -1.0103
 6271SOL     OW30445   4.610   0.178   9.004  0.0612  0.1772 -0.0655
 6271SOL    HW130446   4.675   0.236   9.044 -0.1912  1.4452 -1.5114
 6271SOL    HW230447   4.530   0.225   9.024 -0.1318 -0.6696  1.1200
 6272SOL     OW30448   0.252   2.014   4.919 -0.3565 -0.1115  0.1077
 6272SOL    HW130449   0.195   2.087   4.895  0.4467  0.2914 -0.5746
 6272SOL    HW230450   0.313   2.012   4.845 -0.3548 -2.8869  0.1905
 6273SOL     OW30451   2.501   4.042   1.287 -0.2465 -0.0809  0.0116
 6273SOL    HW130452   2.428   3.982   1.301 -0.1815 -0.4874 -1.3534
 6273SOL    HW230453   2.457   4.123   1.313  0.6732  0.2295  0.5752
 6274SOL     OW30454   4.451   3.463  11.073 -0.2476 -0.2429  0.4304
 6274SOL    HW130455   4.507   3.489  11.000 -0.4519 -1.9811 -0.3459
 6274SOL    HW230456   4.378   3.522  11.054 -1.2600 -1.9856 -1.0334
 6275SOL     OW30457   4.693   1.120   2.556  0.0522 -0.2998 -0.0460
 6275SOL    HW130458   4.638   1.043   2.570  0.0171  0.0532  1.6810
 6275SOL    HW230459   0.023   1.102   2.490  1.9477  1.3734  1.4475
 6276SOL     OW30460   2.953   1.033   2.861 -0.5411  0.0480 -0.3505
 6276SOL    HW130461   3.046   1.009   2.852 -0.2495  1.5167 -1.3112
 6276SOL    HW230462   2.960   1.127   2.879  0.9380  0.0899 -1.1317
 6277SOL     OW30463   3.128   2.118   9.683 -0.1646  0.3622  0.4248
 6277SOL    HW130464   3.186   2.183   9.722  1.3571 -0.7008 -0.0878
 6277SOL    HW230465   3.173   2.034   9.690 -0.0432  0.3178 -0.8666
 6278SOL     OW30466   2.487   4.632   8.823  0.2135  0.2602 -0.0532
 6278SOL    HW130467   2.491   4.578   8.901 -0.0902 -1.1517 -1.0119
 6278SOL    HW230468   2.392   4.641   8.823  0.2974  1.2176 -0.9332
 6279SOL     OW30469   4.102   1.458   9.277  0.6307 -0.9205  0.3496
 6279SOL    HW130470   4.107   1.443   9.183 -0.9336  0.5928  0.0338
 6279SOL    HW230471   4.186   1.423   9.305  1.2391  1.1459  1.1275
 6280SOL     OW30472   4.388   1.743   1.197 -0.7070  1.0585 -0.4379
 6280SOL    HW130473   4.425   1.793   1.270 -0.3139 -0.5627  0.4620
 6280SOL    HW230474   4.293   1.744   1.209 -0.6168 -1.2232  0.4148
 6281SOL     OW30475   0.949   2.448   3.965 -0.3468  0.0938 -0.7179
 6281SOL    HW130476   0.955   2.530   3.915 -1.3596  1.1590  0.9282
 6281SOL    HW230477   0.983   2.380   3.907 -0.5162  0.3888 -1.1626
 6282SOL     OW30478   4.159   1.444   1.866  1.0753 -0.2592 -0.0883
 6282SOL    HW130479   4.182   1.522   1.917  1.2151  0.7692 -1.7180
 6282SOL    HW230480   4.156   1.377   1.934  0.4150  0.9200  1.0549
 6283SOL     OW30481   0.136   0.736   8.405  0.2305 -0.3737 -0.4324
 6283SOL    HW130482   0.169   0.756   8.318  0.7047  1.3543  0.1555
 6283SOL    HW230483   0.115   0.824   8.436  0.1867  0.2626 -2.2950
 6284SOL     OW30484   3.853   1.736  17.464  0.4918  0.0386  0.4926
 6284SOL    HW130485   3.890   1.744  17.376 -2.7310  1.5851 -0.7390
 6284SOL    HW230486   3.896   1.810  17.505  1.4225  0.7876 -1.8302
 6285SOL     OW30487   3.554   2.616   3.622 -0.4490 -0.1433  0.2743
 6285SOL    HW130488   3.565   2.697   3.672 -0.7706 -0.1319  0.3232
 6285SOL    HW230489   3.541   2.547   3.687  1.7200 -0.5800  0.2658
 6286SOL     OW30490   3.887   4.272   2.857  0.0226  0.4768  0.0598
 6286SOL    HW130491   3.849   4.273   2.945  2.6364 -1.0850  1.1987
 6286SOL    HW230492   3.935   4.355   2.862  1.8353 -0.5895  0.6652
 6287SOL     OW30493   3.804   2.464  10.480  0.4523  0.0761 -0.3499
 6287SOL    HW130494   3.873   2.421  10.531  0.2731 -0.9896 -1.0091
 6287SOL    HW230495   3.751   2.498  10.552  1.4771  2.5225 -0.7605
 6288SOL     OW30496   2.081   1.926   3.040 -0.3080  0.1189 -0.2505
 6288SOL    HW130497   2.149   1.860   3.052 -0.3796  0.1534  0.3303
 6288SOL    HW230498   2.126   1.999   2.997  0.2765 -0.1261 -0.0493
 6289SOL     OW30499   1.431   0.374   4.224  0.3536  0.5117  0.4441
 6289SOL    HW130500   1.345   0.415   4.226 -0.6663 -1.6098 -0.0702
 6289SOL    HW230501   1.472   0.426   4.154  0.8166 -0.5390 -0.0678
 6290SOL     OW30502   0.221   2.151  14.706 -0.2988 -0.2819 -0.2105
 6290SOL    HW130503   0.305   2.106  14.706 -0.3952 -0.4718  0.5272
 6290SOL    HW230504   0.175   2.110  14.633 -2.6719  2.5922 -0.3453
 6291SOL     OW30505   0.103   4.687  10.449  0.2363 -0.0760 -0.2133
 6291SOL    HW130506   0.047   4.686  10.371  1.3675 -2.3060 -1.0036
 6291SOL    HW230507   0.049   4.641  10.512  0.2007 -0.9822 -0.9024
 6292SOL     OW30508   2.995   4.196   8.291 -0.0505 -0.2532 -0.6936
 6292SOL    HW130509   3.050   4.176   8.215  0.8795 -0.9032  0.1429
 6292SOL    HW230510   3.055   4.238   8.352  1.5864 -1.3011 -1.5693
 6293SOL     OW30511   0.369   1.076  13.253  0.1512  0.7288  1.0513
 6293SOL    HW130512   0.319   1.157  13.260  0.2896  0.9239 -0.2563
 6293SOL    HW230513   0.438   1.094  13.317  1.2754 -1.6925  0.5407
 6294SOL     OW30514   4.735   1.335   5.044 -0.2901 -0.5493  0.9079
 6294SOL    HW130515   0.004   1.349   4.949  1.6863  2.7962  1.5520
 6294SOL    HW230516   4.656   1.386   5.061 -1.9563 -3.2503  1.3892
 6295SOL     OW30517   2.046   2.677  11.940 -0.1099  0.2281 -0.0158
 6295SOL    HW130518   2.140   2.690  11.947 -0.4918  2.1816  1.4530
 6295SOL    HW230519   2.012   2.761  11.971  1.5826  0.6566  0.6574
 6296SOL     OW30520   1.757   1.073  16.244  0.6442  0.3273  0.5050
 6296SOL    HW130521   1.796   1.086  16.331 -0.4294  0.1574  1.0159
 6296SOL    HW230522   1.835   1.094  16.193  0.6344 -1.4232 -0.2067
 6297SOL     OW30523   3.681   2.807   6.845  0.2806  0.3939 -0.9385
 6297SOL    HW130524   3.758   2.751   6.855 -0.7540 -0.6504  1.3561
 6297SOL    HW230525   3.719   2.895   6.839 -0.2928  0.5610 -2.0556
 6298SOL     OW30526   2.510   2.183   3.754  0.4506  0.1733  0.2172
 6298SOL    HW130527   2.562   2.103   3.745  0.8019  0.4385 -0.0649
 6298SOL    HW230528   2.452   2.153   3.824  0.5859  1.9906  1.1003
 6299SOL     OW30529   0.550   2.293   3.998  0.5455 -0.4462  0.0645
 6299SOL    HW130530   0.479   2.253   3.947 -1.0577 -0.4388  2.2912
 6299SOL    HW230531   0.617   2.310   3.932 -1.5780 -1.1456 -2.2910
 6300SOL     OW30532   0.631   3.018   2.990 -0.3871  0.6826  0.0784
 6300SOL    HW130533   0.585   3.056   2.915 -0.5163 -1.7769 -1.0820
 6300SOL    HW230534   0.603   2.926   2.986  3.2692 -0.3702 -1.5067
 6301SOL     OW30535   2.802   1.319   3.713 -0.1070  0.2394  0.2363
 6301SOL    HW130536   2.812   1.224   3.715 -1.9870  0.0541  0.9229
 6301SOL    HW230537   2.894   1.341   3.695  0.5187 -4.0438 -1.8016
 6302SOL     OW30538   1.463   4.226   3.369 -0.0372 -0.0348 -0.6750
 6302SOL    HW130539   1.537   4.241   3.311 -0.7614  2.3864 -0.9626
 6302SOL    HW230540   1.505   4.160   3.424  0.2310 -0.8498 -1.8615
 6303SOL     OW30541   2.408   2.363   5.155 -0.0948  0.0657 -0.2848
 6303SOL    HW130542   2.382   2.325   5.071  0.8991  0.0062 -0.5664
 6303SOL    HW230543   2.437   2.452   5.137  0.8242 -0.1758 -0.0094
 6304SOL     OW30544   0.625   1.899   4.355  0.7272 -0.5141 -0.1096
 6304SOL    HW130545   0.559   1.863   4.296 -1.5367 -0.6647  2.5196
 6304SOL    HW230546   0.685   1.828   4.375  0.2699 -0.6217  0.8523
 6305SOL     OW30547   0.457   0.761   6.699 -0.8564 -0.0258  0.4874
 6305SOL    HW130548   0.367   0.790   6.713 -1.1017 -0.1662 -0.8421
 6305SOL    HW230549   0.511   0.838   6.682 -0.2005 -0.5178  0.3664
 6306SOL     OW30550   0.794   2.387   8.766 -0.6144  0.2910 -0.2698
 6306SOL    HW130551   0.821   2.335   8.842 -0.8814  2.6288  1.4469
 6306SOL    HW230552   0.743   2.321   8.718 -1.8393 -0.3219  1.8647
 6307SOL     OW30553   4.156   4.197   2.436 -0.2215  0.5866  0.0666
 6307SOL    HW130554   4.079   4.163   2.482  0.2984 -1.6485 -0.7370
 6307SOL    HW230555   4.115   4.273   2.394 -1.5584 -1.0649 -1.6307
 6308SOL     OW30556   1.370   4.080  13.528 -0.7527  0.4048 -0.1168
 6308SOL    HW130557   1.379   4.158  13.475  0.0823  0.0249 -0.5319
 6308SOL    HW230558   1.460   4.069  13.559 -0.0842 -0.0129 -2.2075
 6309SOL     OW30559   0.250   2.996   7.044  0.5179 -0.7716  0.0430
 6309SOL    HW130560   0.309   2.929   7.079  0.7454 -0.4617  0.2512
 6309SOL    HW230561   0.221   3.021   7.132 -0.1091 -0.7713 -0.1660
 6310SOL     OW30562   4.693   2.323   6.834 -0.1486 -0.1475 -0.1025
 6310SOL    HW130563   4.705   2.288   6.746  3.5834 -1.5180  0.9594
 6310SOL    HW230564   4.645   2.404   6.817  0.7438  0.5217  0.5430
 6311SOL     OW30565   3.278   2.862   9.497  0.0363  0.3094  0.1766
 6311SOL    HW130566   3.216   2.934   9.507  0.0964  0.1418  1.7025
 6311SOL    HW230567   3.290   2.838   9.589  1.5806 -1.0312 -0.3663
 6312SOL     OW30568   4.679   3.836   8.692 -0.4257 -0.0719  0.2839
 6312SOL    HW130569   4.717   3.916   8.727 -0.3805  0.7919 -1.7728
 6312SOL    HW230570   0.014   3.788   8.651  0.2433  0.8167  0.4230
 6313SOL     OW30571   3.992   0.629   6.188  0.6239  0.3898  0.6823
 6313SOL    HW130572   3.974   0.708   6.240 -0.6739  1.1660 -0.9841
 6313SOL    HW230573   4.003   0.561   6.255  1.6550  1.0038  1.1409
 6314SOL     OW30574   2.242   4.534  14.501 -0.3580 -0.0801  0.1731
 6314SOL    HW130575   2.320   4.584  14.479 -0.8262  0.0150 -1.2652
 6314SOL    HW230576   2.186   4.579  14.438 -0.9458  2.3703  2.4440
 6315SOL     OW30577   1.401   2.670  14.918 -0.1658  0.1384 -0.0248
 6315SOL    HW130578   1.464   2.630  14.859  3.4696  0.5008  3.5982
 6315SOL    HW230579   1.443   2.637  14.998  0.0980  0.2482 -0.1198
 6316SOL     OW30580   0.726   1.983   4.069  0.4150 -0.8404  0.3241
 6316SOL    HW130581   0.699   2.072   4.091  1.4194 -0.1297 -1.3158
 6316SOL    HW230582   0.649   1.940   4.106 -1.7747  2.1206 -0.8480
 6317SOL     OW30583   1.333   2.013   0.042  0.1137  0.6200 -1.5661
 6317SOL    HW130584   1.280   1.952  17.737  0.2748 -0.1066 -0.8814
 6317SOL    HW230585   1.411   1.963   0.067 -2.2607 -0.3426  4.0355
 6318SOL     OW30586   2.688   4.073  17.495 -0.4626  0.3206 -0.1605
 6318SOL    HW130587   2.617   4.012  17.472  0.5839 -0.6898 -0.7199
 6318SOL    HW230588   2.647   4.151  17.459  1.0748  0.9725 -0.4732
 6319SOL     OW30589   1.919   2.553  14.160  0.7410  0.0935 -0.0243
 6319SOL    HW130590   1.973   2.474  14.156 -2.5820 -2.1124 -0.9068
 6319SOL    HW230591   1.839   2.530  14.112  0.7663 -0.6705  0.2968
 6320SOL     OW30592   1.011   0.470   1.902 -0.0798 -0.5237  0.1883
 6320SOL    HW130593   1.047   0.474   1.813 -1.1892 -0.7331 -0.2716
 6320SOL    HW230594   0.920   0.496   1.887 -0.0592  0.0607  1.1203
 6321SOL     OW30595   0.352   2.077   7.007  0.2027 -0.3060 -0.5181
 6321SOL    HW130596   0.335   2.151   7.066 -0.3731 -0.6482 -0.2599
 6321SOL    HW230597   0.270   2.067   6.958 -1.0858 -1.1460  1.8195
 6322SOL     OW30598   0.075   2.675   3.674  0.2710  0.6310 -0.2856
 6322SOL    HW130599   0.135   2.678   3.748 -0.1664 -1.1100  0.1447
 6322SOL    HW230600   0.124   2.726   3.610  0.8032  1.5512  0.8605
 6323SOL     OW30601   3.323   3.339   2.555 -0.4776  0.0290 -0.0070
 6323SOL    HW130602   3.313   3.434   2.547  0.3472  0.2128  1.2164
 6323SOL    HW230603   3.363   3.321   2.470  0.0723 -0.2408  0.3090
 6324SOL     OW30604   3.278   1.131   7.483  0.7032 -0.3699  1.1269
 6324SOL    HW130605   3.256   1.105   7.394  2.0895  0.0152  0.6716
 6324SOL    HW230606   3.215   1.076   7.531 -1.1807  1.1531  0.3990
 6325SOL     OW30607   0.714   3.129   4.646 -0.0085 -0.0216  0.4478
 6325SOL    HW130608   0.732   3.197   4.582  0.8906 -0.9203 -0.2642
 6325SOL    HW230609   0.756   3.168   4.724 -0.4730 -0.5291  0.9542
 6326SOL     OW30610   3.618   1.963  17.421 -0.5379 -0.4456 -0.0453
 6326SOL    HW130611   3.700   1.936  17.463 -0.0415  0.2170 -0.5714
 6326SOL    HW230612   3.568   1.990  17.498  0.5760  1.2514  0.0864
 6327SOL     OW30613   0.189   4.208   9.280 -0.2564 -0.0875  0.5366
 6327SOL    HW130614   0.127   4.139   9.259  2.8379 -3.1531  1.5487
 6327SOL    HW230615   0.245   4.150   9.332 -1.2929 -1.7746 -0.2217
 6328SOL     OW30616   1.030   0.143   0.210 -0.0728 -0.3411 -0.0864
 6328SOL    HW130617   1.060   0.062   0.170  4.1456  1.0415  0.3097
 6328SOL    HW230618   1.016   0.111   0.299  0.2419  1.2448  0.5323
 6329SOL     OW30619   1.206   4.125  17.715 -0.6346 -0.2378  0.0976
 6329SOL    HW130620   1.239   4.180  17.645 -0.5750  0.8690  0.9938
 6329SOL    HW230621   1.289   4.100   0.009  0.2922 -0.8285 -2.2060
 6330SOL     OW30622   0.550   0.153   8.341 -0.1421 -0.1705 -0.4332
 6330SOL    HW130623   0.595   0.145   8.425  0.9650 -1.8886 -1.1921
 6330SOL    HW230624   0.555   0.067   8.298 -0.4628  0.3694 -1.5659
 6331SOL     OW30625   4.220   3.163   2.968  0.2411 -0.9738  0.3269
 6331SOL    HW130626   4.293   3.211   2.927 -0.5642 -0.6317 -0.7142
 6331SOL    HW230627   4.185   3.111   2.896  2.1071 -1.1288 -0.4842
 6332SOL     OW30628   1.218   3.179   0.445  0.7076 -0.0093 -0.3746
 6332SOL    HW130629   1.154   3.128   0.395  1.3367 -2.1833  1.0359
 6332SOL    HW230630   1.162   3.241   0.493 -0.0369  0.1289 -1.4290
 6333SOL     OW30631   2.809   2.623   7.890  0.1814 -0.0292  0.3424
 6333SOL    HW130632   2.832   2.655   7.978 -0.8817 -0.2000  0.6822
 6333SOL    HW230633   2.714   2.629   7.893  0.0776 -1.5072 -0.0580
 6334SOL     OW30634   3.311   4.292   8.297  0.1618  0.5195  0.0989
 6334SOL    HW130635   3.298   4.201   8.324 -0.2761  0.7299  0.5940
 6334SOL    HW230636   3.382   4.326   8.351  0.6189 -0.4335  0.0992
 6335SOL     OW30637   1.896   3.474  10.972  0.2168 -0.0883  0.6246
 6335SOL    HW130638   1.871   3.566  10.957  2.2399  0.2133 -0.8384
 6335SOL    HW230639   1.929   3.462  10.883 -1.2401 -1.0125  0.2038
 6336SOL     OW30640   3.474   4.401  10.606  0.0460  0.0479 -0.3029
 6336SOL    HW130641   3.490   4.376  10.515 -0.6333  0.5304 -0.5627
 6336SOL    HW230642   3.454   4.494  10.597 -0.1048 -0.0014 -0.4822
 6337SOL     OW30643   2.023   1.740   3.755  0.1942 -0.0721 -0.2576
 6337SOL    HW130644   2.008   1.710   3.844 -1.5865 -1.3224 -0.9782
 6337SOL    HW230645   2.077   1.815   3.782 -1.0632 -0.4632  3.2650
 6338SOL     OW30646   2.591   2.552  10.717  0.5624  1.0007  0.1189
 6338SOL    HW130647   2.532   2.545  10.641  0.5467  2.4364 -0.0093
 6338SOL    HW230648   2.531   2.516  10.783  1.0746 -0.7695 -0.3971
 6339SOL     OW30649   4.129   3.988   1.361 -0.5492  0.5023  0.5438
 6339SOL    HW130650   4.112   3.997   1.268 -0.3306  0.0567  0.4596
 6339SOL    HW230651   4.072   3.915   1.387  1.2413 -1.3925 -0.8829
 6340SOL     OW30652   4.229   2.296   5.091  0.8154 -0.6454 -0.4008
 6340SOL    HW130653   4.281   2.371   5.119  0.4901 -0.6331  0.1612
 6340SOL    HW230654   4.186   2.282   5.175  2.0674 -0.4491  0.2624
 6341SOL     OW30655   2.484   3.776   6.263  0.2083  0.3532  0.5294
 6341SOL    HW130656   2.429   3.756   6.187 -0.7132 -0.3213  1.3864
 6341SOL    HW230657   2.432   3.840   6.310 -0.0392  1.2941 -1.0228
 6342SOL     OW30658   3.550   4.294   6.971 -0.0122  0.1429  0.1720
 6342SOL    HW130659   3.615   4.280   6.902  1.5964 -0.9205  1.8846
 6342SOL    HW230660   3.483   4.352   6.934  1.1868  1.8626  0.7176
 6343SOL     OW30661   2.194   1.335   8.391 -0.1829 -0.1868 -0.2103
 6343SOL    HW130662   2.104   1.341   8.357 -1.1977 -1.0847  2.2528
 6343SOL    HW230663   2.211   1.428   8.401 -0.5075 -0.2788  1.2930
 6344SOL     OW30664   1.257   0.359   5.183 -0.3276 -0.5027 -0.2084
 6344SOL    HW130665   1.198   0.405   5.123  0.3581  0.5393 -0.1060
 6344SOL    HW230666   1.250   0.269   5.153 -1.9101 -0.8636  1.2403
 6345SOL     OW30667   4.569   2.739   1.947 -0.5771  0.4253  1.3187
 6345SOL    HW130668   4.557   2.777   1.860  1.0457 -2.2987 -0.0990
 6345SOL    HW230669   4.478   2.711   1.959 -0.2746 -1.3894 -0.8013
 6346SOL     OW30670   1.502   1.707   7.802  0.1237 -0.4198  0.5639
 6346SOL    HW130671   1.560   1.631   7.791  1.1339  0.2331  1.4029
 6346SOL    HW230672   1.421   1.676   7.761  1.5185 -0.6230 -2.0158
 6347SOL     OW30673   1.808   4.357   6.177  0.4195  0.1438 -0.1317
 6347SOL    HW130674   1.827   4.441   6.134  1.9932 -1.5327 -2.7525
 6347SOL    HW230675   1.893   4.312   6.169  0.8107  1.5092 -3.7898
 6348SOL     OW30676   0.637   4.094   3.914  0.3384 -0.2894 -0.0322
 6348SOL    HW130677   0.563   4.148   3.940 -0.3489 -0.5280 -1.5091
 6348SOL    HW230678   0.658   4.148   3.838 -0.5771 -0.1541 -0.1835
 6349SOL     OW30679   3.070   1.840   4.262 -0.0452  0.2446  0.1789
 6349SOL    HW130680   3.099   1.929   4.242  2.7457 -0.8424 -0.7083
 6349SOL    HW230681   3.138   1.835   4.330 -0.6169  1.2108  0.8107
 6350SOL     OW30682   0.537   3.134   5.649 -0.0169  0.2050  0.0906
 6350SOL    HW130683   0.497   3.134   5.562  0.5673  0.7289 -0.1711
 6350SOL    HW230684   0.581   3.049   5.649  0.0133  0.2209 -1.3157
 6351SOL     OW30685   0.514   1.349  10.145  0.1474 -0.9520  0.6416
 6351SOL    HW130686   0.597   1.396  10.154  0.0100 -0.1051 -2.3624
 6351SOL    HW230687   0.497   1.322  10.235  2.5199  0.3145  1.4737
 6352SOL     OW30688   2.762   1.908   7.287  0.5910  0.4046 -0.0511
 6352SOL    HW130689   2.719   1.847   7.347 -2.5776  0.5954 -2.1267
 6352SOL    HW230690   2.756   1.856   7.207 -0.4699 -0.6494  0.7053
 6353SOL     OW30691   2.388   2.849  16.912  0.0918  0.8526 -0.1330
 6353SOL    HW130692   2.380   2.810  16.825 -0.1945  0.0925  0.2330
 6353SOL    HW230693   2.382   2.768  16.962 -0.7463 -0.6091 -2.6065
 6354SOL     OW30694   2.356   0.450   7.640  0.5912  0.2635 -0.0225
 6354SOL    HW130695   2.439   0.497   7.638  1.5461 -1.4417 -0.3824
 6354SOL    HW230696   2.387   0.361   7.660 -1.5753 -0.3594  0.5657
 6355SOL     OW30697   4.689   2.099  15.838 -0.7714  0.3850  0.2637
 6355SOL    HW130698   4.628   2.061  15.900 -0.6862  1.1842  0.8398
 6355SOL    HW230699   4.644   2.165  15.786 -2.1541 -1.6278 -1.0831
 6356SOL     OW30700   2.909   3.325   9.272 -0.0330  0.1493  0.0116
 6356SOL    HW130701   2.881   3.243   9.313 -2.5624  0.7743 -0.4413
 6356SOL    HW230702   2.866   3.325   9.186  1.1845 -0.1449 -0.6038
 6357SOL     OW30703   3.255   3.977   6.090 -0.6804  0.2551 -0.7548
 6357SOL    HW130704   3.287   3.922   6.161 -1.0685  0.0227 -0.7606
 6357SOL    HW230705   3.203   4.042   6.136  1.8721  2.4269 -0.9678
 6358SOL     OW30706   3.202   0.289  11.015 -0.3219 -0.1801 -0.1931
 6358SOL    HW130707   3.186   0.202  10.977 -1.1244 -1.1832  2.4400
 6358SOL    HW230708   3.195   0.273  11.109 -0.1264 -0.1557 -0.1732
 6359SOL     OW30709   2.566   3.450  13.595 -0.8520 -0.1904  0.0941
 6359SOL    HW130710   2.573   3.475  13.503  0.7492 -2.3374 -0.3730
 6359SOL    HW230711   2.503   3.379  13.582  0.9074 -1.6417 -0.6112
 6360SOL     OW30712   1.846   4.142   8.740 -0.4502 -0.3112  0.2441
 6360SOL    HW130713   1.833   4.187   8.823  1.1061  0.2164  0.1880
 6360SOL    HW230714   1.760   4.099   8.740 -0.4201 -0.3867  1.6108
 6361SOL     OW30715   2.393   2.681   6.690  0.0639  0.0262  0.4828
 6361SOL    HW130716   2.456   2.713   6.625  0.0789  1.1908  1.0634
 6361SOL    HW230717   2.455   2.617   6.725 -0.0280 -0.3635 -0.0693
 6362SOL     OW30718   1.161   2.979   8.193  0.0495  0.1239  0.0670
 6362SOL    HW130719   1.203   2.931   8.122  0.7010  1.2449 -0.3043
 6362SOL    HW230720   1.070   2.963   8.168  0.1858  0.8945 -0.9197
 6363SOL     OW30721   2.143   1.009   3.387 -0.1974  0.0627  1.3238
 6363SOL    HW130722   2.079   1.029   3.455 -1.6500  0.5155 -0.1599
 6363SOL    HW230723   2.141   1.087   3.331 -0.1908 -2.2769 -1.8926
 6364SOL     OW30724   2.182   2.085   8.760 -0.0195 -0.0440  0.0419
 6364SOL    HW130725   2.256   2.031   8.731  0.3757  1.1146 -1.1117
 6364SOL    HW230726   2.173   2.079   8.855 -0.0533  0.2514  0.0569
 6365SOL     OW30727   1.580   2.878   4.225  0.5630 -0.3049 -0.1400
 6365SOL    HW130728   1.657   2.839   4.183  0.6544 -1.3901  1.0560
 6365SOL    HW230729   1.613   2.910   4.309 -1.5158 -2.2034  1.3908
 6366SOL     OW30730   3.316   1.229   8.622  0.3982 -0.3401  0.1654
 6366SOL    HW130731   3.325   1.134   8.614  2.0395 -0.4786  3.6120
 6366SOL    HW230732   3.243   1.235   8.683  0.2424  1.9632 -0.2312
 6367SOL     OW30733   3.040   0.749   8.455 -0.6991  0.5645 -0.5590
 6367SOL    HW130734   2.982   0.799   8.513 -1.7434 -1.8239  0.4717
 6367SOL    HW230735   3.121   0.799   8.452 -2.3985  3.1733 -2.2868
 6368SOL     OW30736   4.331   1.220  15.924  0.4849 -0.0187 -0.1688
 6368SOL    HW130737   4.403   1.162  15.949 -1.1406 -1.1313  1.9111
 6368SOL    HW230738   4.384   1.272  15.864  1.4054  0.1209  0.7521
 6369SOL     OW30739   0.269   4.026   8.635  0.3261  0.1653 -0.2578
 6369SOL    HW130740   0.299   4.017   8.725 -1.4943 -0.6001  0.2480
 6369SOL    HW230741   0.205   4.096   8.648 -0.8283 -0.7355 -1.1646
 6370SOL     OW30742   3.801   1.525   4.392  0.1445 -0.7806  1.0149
 6370SOL    HW130743   3.779   1.499   4.481  1.0263  1.5671  1.9116
 6370SOL    HW230744   3.765   1.449   4.346  2.5555 -2.3913  1.8206
 6371SOL     OW30745   0.539   3.211  11.585  0.4482 -0.3839 -0.8067
 6371SOL    HW130746   0.500   3.285  11.540 -1.1734 -0.0794  1.0678
 6371SOL    HW230747   0.461   3.156  11.581  1.2530 -1.4475 -1.9206
 6372SOL     OW30748   2.658   0.472   7.576 -0.0011  0.1189 -0.3927
 6372SOL    HW130749   2.744   0.467   7.618 -0.3476 -1.6459  0.0808
 6372SOL    HW230750   2.618   0.391   7.606 -1.4978 -0.0132 -2.7177
 6373SOL     OW30751   3.033   3.778   3.618  0.8040  0.4617  0.7136
 6373SOL    HW130752   3.124   3.749   3.607  0.2269 -0.8788 -0.5140
 6373SOL    HW230753   2.989   3.694   3.631  0.6839  0.0254 -2.3014
 6374SOL     OW30754   2.829   3.095  12.250  0.0403  0.3006  0.2587
 6374SOL    HW130755   2.899   3.104  12.314  2.1793 -0.9687 -1.8665
 6374SOL    HW230756   2.860   3.148  12.177 -2.8514 -1.4580 -2.3010
 6375SOL     OW30757   2.184   0.689   8.222  0.2032 -0.0960 -0.1334
 6375SOL    HW130758   2.247   0.628   8.185  0.5156  1.0562 -1.5191
 6375SOL    HW230759   2.242   0.746   8.272  0.1659  0.0101 -0.2109
 6376SOL     OW30760   2.304   0.089   6.951  0.0949 -0.7013 -0.0653
 6376SOL    HW130761   2.359   0.151   6.999  1.4140 -0.7570 -1.5171
 6376SOL    HW230762   2.334   0.112   6.863 -1.1999 -3.4345 -1.2335
 6377SOL     OW30763   2.991   4.556   4.894 -0.7323  0.5517 -0.1503
 6377SOL    HW130764   2.972   4.595   4.809  1.1060  0.1294 -0.7537
 6377SOL    HW230765   2.977   4.631   4.952  2.0850 -0.1323  1.3927
 6378SOL     OW30766   0.771   4.527  12.286 -0.3641 -0.2603 -0.2715
 6378SOL    HW130767   0.822   4.608  12.283 -0.8915  0.2454  4.3724
 6378SOL    HW230768   0.717   4.554  12.360  0.7035  0.9989  0.0386
 6379SOL     OW30769   3.415   1.763   9.481  0.3392  0.2169 -0.0325
 6379SOL    HW130770   3.391   1.807   9.562  0.9099  2.4154 -1.0506
 6379SOL    HW230771   3.507   1.784   9.466  0.3514 -2.0750 -3.2884
 6380SOL     OW30772   1.471   3.031   8.830 -0.5993  0.1055  0.0018
 6380SOL    HW130773   1.384   3.067   8.849 -0.5310  0.5689 -0.5364
 6380SOL    HW230774   1.497   3.075   8.749 -1.7484 -1.1102 -1.0196
 6381SOL     OW30775   2.445   3.729   4.330 -0.4447 -0.3832  0.0852
 6381SOL    HW130776   2.532   3.701   4.361 -0.8100  0.9599  2.3468
 6381SOL    HW230777   2.446   3.813   4.376 -0.5643  0.4816 -1.4698
 6382SOL     OW30778   3.715   2.031   8.626 -0.1671 -0.3071  0.2523
 6382SOL    HW130779   3.684   2.041   8.717  2.8545 -1.1242  1.3723
 6382SOL    HW230780   3.757   1.945   8.631  1.4996  0.6422  2.5422
 6383SOL     OW30781   0.791   2.641  14.700  0.9916 -0.0351 -0.1017
 6383SOL    HW130782   0.769   2.685  14.782  1.0515 -0.6770  0.2602
 6383SOL    HW230783   0.752   2.707  14.642 -2.1987  1.3362  3.6197
 6384SOL     OW30784   4.166   2.385   9.673 -0.0930 -0.3329 -0.3322
 6384SOL    HW130785   4.214   2.386   9.590 -0.9529  0.8348 -0.8025
 6384SOL    HW230786   4.093   2.442   9.650  0.2231  0.1599 -0.1077
 6385SOL     OW30787   1.724   3.069   5.815 -0.0292 -0.6263  0.4481
 6385SOL    HW130788   1.781   3.033   5.746 -0.2457  0.9250 -0.5548
 6385SOL    HW230789   1.787   3.127   5.858 -1.2471  1.7231 -0.8864
 6386SOL     OW30790   1.164   0.781  15.837 -0.7060 -0.0986  0.2480
 6386SOL    HW130791   1.087   0.757  15.888 -1.3252 -2.8977 -1.9908
 6386SOL    HW230792   1.174   0.697  15.791 -0.0328  0.1887 -0.1276
 6387SOL     OW30793   1.818   3.151   7.613 -0.5468  0.0359 -0.5866
 6387SOL    HW130794   1.740   3.143   7.667  0.3050 -1.0604  0.4719
 6387SOL    HW230795   1.866   3.227   7.645 -1.1920  1.3920 -2.8333
 6388SOL     OW30796   2.420   2.348   4.217  0.3080 -0.0796  0.4665
 6388SOL    HW130797   2.482   2.322   4.149 -2.5983 -0.0357 -2.2223
 6388SOL    HW230798   2.387   2.427   4.175 -0.3997  0.3822  1.9029
 6389SOL     OW30799   1.760   1.423   9.903  0.3020 -0.2912 -0.2041
 6389SOL    HW130800   1.792   1.343   9.862  1.6181  0.4820 -0.6983
 6389SOL    HW230801   1.819   1.423   9.978  0.1985 -0.0974 -0.1234
 6390SOL     OW30802   2.357   3.080   7.270 -0.6926  0.7796 -0.3058
 6390SOL    HW130803   2.296   3.151   7.289 -0.7999  0.7420 -0.5002
 6390SOL    HW230804   2.358   3.038   7.356  0.1530  0.8236 -0.2921
 6391SOL     OW30805   3.622   3.806   5.355 -0.0190  0.0766  0.1452
 6391SOL    HW130806   3.571   3.749   5.296 -1.1409 -0.5502  1.7211
 6391SOL    HW230807   3.673   3.741   5.403  0.7853  0.7923  0.2505
 6392SOL     OW30808   4.508   0.891   2.493 -0.4344 -0.0841  0.3301
 6392SOL    HW130809   4.424   0.846   2.480  0.0087 -0.9496  0.4992
 6392SOL    HW230810   4.551   0.832   2.555  1.2439  1.1329  0.3062
 6393SOL     OW30811   4.127   4.039   8.447 -0.3922  0.3289  0.4724
 6393SOL    HW130812   4.174   3.965   8.486  0.5843  0.7582  0.1084
 6393SOL    HW230813   4.116   4.009   8.357  0.2355 -0.5773  0.6966
 6394SOL     OW30814   1.323   0.653  10.176 -0.1261 -0.1804  0.2015
 6394SOL    HW130815   1.383   0.698  10.116 -0.4184  1.2697  1.0059
 6394SOL    HW230816   1.381   0.635  10.250  0.9231  1.3287 -0.2670
 6395SOL     OW30817   0.520   3.296   5.330  0.0826 -0.6734  0.1583
 6395SOL    HW130818   0.508   3.391   5.324 -0.4938 -0.7677 -0.1282
 6395SOL    HW230819   0.605   3.280   5.289  0.8960  1.2841  1.0912
 6396SOL     OW30820   3.254   3.953   7.674 -0.9269  0.3278  0.0122
 6396SOL    HW130821   3.186   3.902   7.719  0.3207  1.2481  2.9024
 6396SOL    HW230822   3.323   3.944   7.740 -0.4182 -0.5604 -0.6363
 6397SOL     OW30823   0.165   0.775   3.746 -0.2568  0.0134 -0.1345
 6397SOL    HW130824   0.123   0.700   3.787 -0.1406  0.7106  1.2659
 6397SOL    HW230825   0.258   0.756   3.759  0.1074  1.2294 -0.8915
 6398SOL     OW30826   4.638   2.789   7.614  0.3561  0.2988 -0.0041
 6398SOL    HW130827   4.576   2.851   7.575  0.6482  0.8093  0.3567
 6398SOL    HW230828   4.646   2.717   7.551 -2.5618  2.2419 -2.5671
 6399SOL     OW30829   0.982   1.920  14.038  0.1660  0.1325 -0.1954
 6399SOL    HW130830   0.965   1.825  14.034 -1.0439  0.2391  2.4660
 6399SOL    HW230831   1.074   1.919  14.012  0.2882 -0.7818  0.2467
 6400SOL     OW30832   1.740   2.072  10.773 -0.3260 -0.0883 -0.2158
 6400SOL    HW130833   1.820   2.116  10.801  0.3929 -1.3222 -0.3204
 6400SOL    HW230834   1.717   2.118  10.693  2.4694  0.2516 -0.8094
 6401SOL     OW30835   0.470   2.449   2.124  0.1994 -0.2185  0.1448
 6401SOL    HW130836   0.561   2.422   2.113  0.3441 -0.4333  1.7612
 6401SOL    HW230837   0.453   2.461   2.218  0.3067  2.1295 -0.1492
 6402SOL     OW30838   1.996   4.465   3.206  0.6282  0.0992  0.2144
 6402SOL    HW130839   1.946   4.414   3.143 -2.4365  1.6306  1.3639
 6402SOL    HW230840   2.060   4.520   3.162  2.5093 -2.5903 -0.3649
 6403SOL     OW30841   2.173   2.126  11.012  0.1032 -0.0849  0.7146
 6403SOL    HW130842   2.175   2.222  11.015  1.0016 -0.1278  1.6017
 6403SOL    HW230843   2.145   2.111  11.102 -0.6602  1.4526  0.7458
 6404SOL     OW30844   4.371   0.976   6.984  0.4853  0.1543  0.1476
 6404SOL    HW130845   4.394   0.936   6.900 -0.6342  2.3857 -1.2162
 6404SOL    HW230846   4.370   0.902   7.045  0.7698 -2.1922 -2.6705
 6405SOL     OW30847   2.276   2.852  14.545  0.3624  0.0591 -0.2525
 6405SOL    HW130848   2.281   2.888  14.634  2.4508 -1.7871  0.3572
 6405SOL    HW230849   2.197   2.897  14.515  0.8932  1.3792  0.3120
 6406SOL     OW30850   1.276   2.532   6.789  0.5173  0.3956  0.4368
 6406SOL    HW130851   1.314   2.551   6.703 -0.0089  1.4870  0.4485
 6406SOL    HW230852   1.185   2.553   6.766  0.3056  1.0644  1.8806
 6407SOL     OW30853   0.846   3.914   3.937 -0.2446  0.4791  0.0336
 6407SOL    HW130854   0.760   3.946   3.908 -0.9295 -1.1396  0.2916
 6407SOL    HW230855   0.827   3.896   4.029  2.9803  2.3676  1.0533
 6408SOL     OW30856   0.758   2.364  17.669 -0.6230 -0.5411  0.1757
 6408SOL    HW130857   0.843   2.395  17.638 -0.1361 -1.9626  0.1066
 6408SOL    HW230858   0.725   2.327  17.587  0.2115 -1.3579  0.2060
 6409SOL     OW30859   1.565   0.987   8.166 -0.4363 -0.0105 -0.0251
 6409SOL    HW130860   1.593   0.897   8.153 -3.1374 -0.6301 -1.4904
 6409SOL    HW230861   1.481   0.964   8.207  0.1850 -0.9092  0.7385
 6410SOL     OW30862   1.058   1.238   8.870 -0.2373 -0.3936 -0.2221
 6410SOL    HW130863   1.004   1.248   8.792 -1.4343  1.4466  0.8581
 6410SOL    HW230864   1.083   1.329   8.883 -0.8178 -0.2618 -0.0419
 6411SOL     OW30865   4.644   4.395   9.806 -0.1913 -1.3158 -0.2070
 6411SOL    HW130866   4.597   4.316   9.832 -1.5884 -0.6087 -0.5769
 6411SOL    HW230867   4.726   4.354   9.778 -0.3395 -1.2243 -0.7762
 6412SOL     OW30868   1.712   2.133   5.009 -0.2925 -0.0183  0.1143
 6412SOL    HW130869   1.799   2.121   5.047  0.2467  1.8486 -0.4965
 6412SOL    HW230870   1.701   2.042   4.983 -0.2185  0.5443 -1.8847
 6413SOL     OW30871   2.743   4.305   7.137  0.4804  0.4741 -0.3182
 6413SOL    HW130872   2.761   4.369   7.206  0.7757  0.2311 -0.1676
 6413SOL    HW230873   2.831   4.269   7.126  0.0944 -1.3144  2.4279
 6414SOL     OW30874   2.161   0.337   1.075 -0.9324 -0.5270  0.4217
 6414SOL    HW130875   2.194   0.359   1.162  0.7839 -0.5252 -0.2251
 6414SOL    HW230876   2.220   0.393   1.024  0.8715 -3.3278 -0.5514
 6415SOL     OW30877   1.637   0.313  11.082 -0.5349  0.2447  0.0884
 6415SOL    HW130878   1.670   0.228  11.110  0.0437 -0.8851 -4.0771
 6415SOL    HW230879   1.660   0.373  11.153  0.9969  1.2883 -1.3070
 6416SOL     OW30880   3.383   3.998   1.709 -0.6899 -0.1771  0.0260
 6416SOL    HW130881   3.423   4.066   1.656 -2.8065 -0.4506 -1.9141
 6416SOL    HW230882   3.383   3.925   1.647 -0.1992  1.0698 -1.4232
 6417SOL     OW30883   2.558   2.587   1.400  0.3721  0.3284 -0.3358
 6417SOL    HW130884   2.609   2.564   1.323  1.6989  1.9707  0.0659
 6417SOL    HW230885   2.466   2.591   1.373  0.4041  0.9967 -0.3541
 6418SOL     OW30886   3.627   2.872   7.573  0.4008 -0.2984 -0.7020
 6418SOL    HW130887   3.714   2.865   7.613  0.0753 -0.7635 -0.0908
 6418SOL    HW230888   3.646   2.845   7.483  0.5016  0.7197 -0.9960
 6419SOL     OW30889   1.012   1.961   1.398  0.0418 -0.1861  0.9697
 6419SOL    HW130890   0.972   1.977   1.313 -0.8079  0.1339  1.4317
 6419SOL    HW230891   0.940   1.904   1.425  0.4953 -1.5285 -0.6376
 6420SOL     OW30892   2.779   0.053   1.610 -0.4180  0.7844 -0.0754
 6420SOL    HW130893   2.867   0.087   1.598 -1.0337  2.3339 -0.2690
 6420SOL    HW230894   2.788   4.703   1.648  0.6699 -0.0803 -2.3393
 6421SOL     OW30895   2.463   3.634   1.275  0.4409  0.7839  0.0491
 6421SOL    HW130896   2.461   3.684   1.193  1.5788 -1.1891 -1.1921
 6421SOL    HW230897   2.438   3.705   1.333  3.3526  1.1952  0.7911
 6422SOL     OW30898   2.218   2.309   1.753 -0.1995  0.1331 -0.4273
 6422SOL    HW130899   2.291   2.249   1.770 -0.0648 -0.3056 -2.4396
 6422SOL    HW230900   2.196   2.322   1.845 -2.3566 -2.7244 -0.5419
 6423SOL     OW30901   4.197   1.831   6.124 -0.4545  0.2182 -0.1164
 6423SOL    HW130902   4.135   1.835   6.196 -3.0819 -1.2166 -2.3311
 6423SOL    HW230903   4.259   1.902   6.143 -0.0116 -0.2095  0.0136
 6424SOL     OW30904   2.934   0.675   3.042 -0.2937 -0.1443  0.3635
 6424SOL    HW130905   3.021   0.702   3.015  0.2464 -1.7712  0.4979
 6424SOL    HW230906   2.959   0.583   3.050 -2.1726 -0.7292 -0.3007
 6425SOL     OW30907   3.730   2.031   8.890 -0.0237 -0.2309  0.8875
 6425SOL    HW130908   3.720   2.087   8.967 -1.3462  2.7245 -1.4010
 6425SOL    HW230909   3.789   1.963   8.922  2.1060  0.1962 -2.0595
 6426SOL     OW30910   0.062   2.334   4.461  0.1463  0.1546  0.2690
 6426SOL    HW130911   0.017   2.255   4.430 -1.1676  0.0749  2.4007
 6426SOL    HW230912   0.139   2.295   4.503  0.3623  2.0649  1.6264
 6427SOL     OW30913   0.453   0.898   9.254  0.0980 -0.2054 -0.3248
 6427SOL    HW130914   0.404   0.958   9.197 -0.4381 -0.1566  0.1851
 6427SOL    HW230915   0.451   0.818   9.200 -1.8619  0.1049 -0.7219
 6428SOL     OW30916   1.246   0.597   7.840 -0.6853 -0.3718 -0.4423
 6428SOL    HW130917   1.279   0.507   7.835  3.1177  1.1739 -3.1683
 6428SOL    HW230918   1.209   0.600   7.928 -1.1473  3.2967 -0.7432
 6429SOL     OW30919   2.548   0.636  17.313  0.3978 -0.2141  0.1742
 6429SOL    HW130920   2.603   0.695  17.262 -1.4695  2.7904  1.6435
 6429SOL    HW230921   2.590   0.556  17.282  3.0441  1.2832 -0.1751
 6430SOL     OW30922   0.606   0.659  10.561  0.1348 -0.0120  0.3116
 6430SOL    HW130923   0.701   0.662  10.551  0.1752  1.6809  1.3034
 6430SOL    HW230924   0.594   0.639  10.653 -0.7375 -0.9402 -0.0005
 6431SOL     OW30925   0.841   2.625   4.967  0.1611 -0.3471 -0.6951
 6431SOL    HW130926   0.747   2.623   4.947 -0.1230  0.8353  0.5612
 6431SOL    HW230927   0.851   2.557   5.034 -2.6043  0.1110  0.1771
 6432SOL     OW30928   2.700   3.282   0.795  0.2326 -0.2551 -0.6645
 6432SOL    HW130929   2.678   3.259   0.704 -3.2326 -0.1580  0.1355
 6432SOL    HW230930   2.640   3.352   0.819  1.3972  0.5603 -0.1387
 6433SOL     OW30931   0.921   4.188   1.986 -0.2708 -0.5598  0.0279
 6433SOL    HW130932   0.901   4.233   2.068  0.1980  1.4093 -0.9632
 6433SOL    HW230933   0.875   4.107   2.010 -3.6100  0.8748 -1.5595
 6434SOL     OW30934   1.044   3.235   9.571 -0.6045 -0.4089 -0.1162
 6434SOL    HW130935   1.010   3.324   9.581 -1.6691 -0.7928 -0.3449
 6434SOL    HW230936   1.106   3.232   9.499 -1.5024 -2.5240 -0.8079
 6435SOL     OW30937   4.058   4.033  10.303 -0.1050  0.3624 -0.0585
 6435SOL    HW130938   4.031   3.957  10.355 -0.1146 -1.5359 -2.8555
 6435SOL    HW230939   3.995   4.041  10.231  0.8594  0.2652 -0.9035
 6436SOL     OW30940   4.583   4.446   5.624 -1.0528  0.2386  0.1679
 6436SOL    HW130941   4.586   4.426   5.718 -1.5081 -1.0235 -0.0941
 6436SOL    HW230942   4.489   4.453   5.610 -0.9291  1.8257  0.0430
 6437SOL     OW30943   4.204   1.074  11.494 -0.2264  0.0753  0.6293
 6437SOL    HW130944   4.195   1.022  11.573 -0.8273  0.2347  0.6662
 6437SOL    HW230945   4.154   1.025  11.429  1.1816  0.4992 -0.7746
 6438SOL     OW30946   0.258   3.261   3.489  0.1948 -0.1862  0.7491
 6438SOL    HW130947   0.318   3.206   3.540 -0.7051  0.1233  2.1164
 6438SOL    HW230948   0.321   3.285   3.420 -0.2514  1.1956  0.8313
 6439SOL     OW30949   2.890   2.515  11.888  0.8115 -0.3105 -0.8703
 6439SOL    HW130950   2.959   2.485  11.828  1.2439  0.5246 -0.7953
 6439SOL    HW230951   2.920   2.484  11.974  1.0122  1.1992 -0.3898
 6440SOL     OW30952   3.958   0.109   8.093  0.4530  0.4166 -0.0172
 6440SOL    HW130953   4.039   0.071   8.059 -0.0942 -0.2081 -0.6173
 6440SOL    HW230954   3.898   0.036   8.078  1.7371 -1.0416  1.9874
 6441SOL     OW30955   4.509   2.225   1.359  0.0753 -0.3391  0.5131
 6441SOL    HW130956   4.589   2.275   1.378  0.4876 -1.9337  2.9045
 6441SOL    HW230957   4.455   2.245   1.435 -1.3456  1.3787 -0.9455
 6442SOL     OW30958   4.294   1.963   8.791  0.4424 -0.1997  0.1538
 6442SOL    HW130959   4.283   1.938   8.699  0.8331  1.5257 -0.3668
 6442SOL    HW230960   4.223   1.918   8.835  0.2341 -0.2415 -0.2243
 6443SOL     OW30961   0.650   0.137   5.348  0.0356 -0.0259  0.0450
 6443SOL    HW130962   0.706   0.101   5.417  1.4232 -1.3240 -1.7328
 6443SOL    HW230963   0.573   0.085   5.370 -0.2844  0.4731  0.0967
 6444SOL     OW30964   0.872   2.394   7.210 -0.0895 -0.1018  0.3079
 6444SOL    HW130965   0.816   2.375   7.135  1.9106  0.1481 -1.2515
 6444SOL    HW230966   0.956   2.366   7.173  0.9492  1.3223  1.5810
 6445SOL     OW30967   3.744   4.670  12.397 -0.6409  0.5096 -0.4159
 6445SOL    HW130968   3.705   4.715  12.472  1.9397  1.3112  0.4505
 6445SOL    HW230969   3.702   4.586  12.380 -3.1473  1.6590  0.1757
 6446SOL     OW30970   0.283   0.971  12.547  0.1545  0.2592 -0.1239
 6446SOL    HW130971   0.230   0.986  12.625  0.8670  0.3565  0.3473
 6446SOL    HW230972   0.334   0.894  12.572  0.0374 -0.3550 -1.7533
 6447SOL     OW30973   0.232   3.554   2.948  0.0269  0.2708  0.0330
 6447SOL    HW130974   0.173   3.479   2.942  0.8985 -0.5964  2.4182
 6447SOL    HW230975   0.252   3.563   2.855 -0.0578 -2.8522 -0.2745
 6448SOL     OW30976   4.463   2.802   1.674  0.5793  0.1341  0.4386
 6448SOL    HW130977   4.408   2.724   1.682 -0.8099  1.2423  1.6006
 6448SOL    HW230978   4.490   2.791   1.583 -3.2313 -0.8939 -0.5682
 6449SOL     OW30979   1.645   0.826   9.093  0.4792 -0.4450  0.3076
 6449SOL    HW130980   1.642   0.841   9.188  1.2949  3.8017 -0.3345
 6449SOL    HW230981   1.641   0.731   9.083 -1.7900 -0.5314  2.0127
 6450SOL     OW30982   2.562   4.547   9.053 -0.5641  0.2000 -0.1426
 6450SOL    HW130983   2.649   4.532   9.016  0.3224  1.6408  1.3610
 6450SOL    HW230984   2.569   4.579   9.143 -0.1006 -1.1675  0.3219
 6451SOL     OW30985   3.846   4.473   7.599  0.0444  0.1836  0.3906
 6451SOL    HW130986   3.801   4.394   7.569 -1.4622  0.8737  0.8528
 6451SOL    HW230987   3.794   4.542   7.561  1.8674  1.2852 -0.1139
 6452SOL     OW30988   0.844   1.549   8.333 -0.0394  0.2054  0.1448
 6452SOL    HW130989   0.899   1.547   8.255  1.8631  0.9011  1.4613
 6452SOL    HW230990   0.761   1.573   8.292 -0.4280 -1.6229 -0.0988
 6453SOL     OW30991   0.125   3.327  11.313 -0.5967 -0.1499 -0.0265
 6453SOL    HW130992   0.100   3.369  11.231 -0.5585 -1.5654 -0.7579
 6453SOL    HW230993   0.071   3.249  11.312  1.3840 -1.4619 -3.0613
 6454SOL     OW30994   3.428   0.577   6.866 -0.4459  0.1637  0.4212
 6454SOL    HW130995   3.433   0.564   6.961 -0.3662 -0.9320  0.2668
 6454SOL    HW230996   3.516   0.562   6.830 -1.1776  1.0908 -1.7696
 6455SOL     OW30997   1.257   4.085  10.209 -0.0611  0.0596  0.7206
 6455SOL    HW130998   1.171   4.084  10.251 -1.2550 -1.7461 -1.8221
 6455SOL    HW230999   1.301   4.161  10.248  1.1026  1.3026 -3.0317
 6456SOL     OW31000   0.325   3.161   4.290  0.4399 -0.2771 -0.5561
 6456SOL    HW131001   0.331   3.243   4.241  0.1069  1.4589  2.3634
 6456SOL    HW231002   0.408   3.117   4.269  0.3188  0.2675 -2.2330
 6457SOL     OW31003   0.865   1.666   9.240  0.3110  0.1407 -0.1614
 6457SOL    HW131004   0.797   1.715   9.286  1.0752  0.0013  1.1327
 6457SOL    HW231005   0.823   1.580   9.246 -1.9494  1.3506  1.1373
 6458SOL     OW31006   3.500   3.383   7.371 -0.6210 -0.8458  0.8535
 6458SOL    HW131007   3.490   3.291   7.395  0.4224 -1.2655 -0.3461
 6458SOL    HW231008   3.514   3.409   7.462 -0.5543 -0.2109  0.6612
 6459SOL     OW31009   2.314   2.680  17.660  0.2720 -0.2679  0.3877
 6459SOL    HW131010   2.219   2.676  17.653  0.2129 -1.7075  2.0420
 6459SOL    HW231011   2.341   2.671  17.569  1.3422  0.8945  0.5793
 6460SOL     OW31012   2.349   1.730   2.298 -0.3733  0.0977 -0.1172
 6460SOL    HW131013   2.425   1.742   2.241  0.3076 -0.6991  0.6148
 6460SOL    HW231014   2.307   1.815   2.307  0.1138  0.3524 -0.2017
 6461SOL     OW31015   0.025   3.758   7.107  0.2541 -0.2742  0.2551
 6461SOL    HW131016   0.106   3.756   7.157  1.7748 -1.6285 -2.3107
 6461SOL    HW231017   0.064   3.768   7.020  1.0373  0.1661  0.6590
 6462SOL     OW31018   3.951   4.609   5.241 -1.2673  0.2910  0.2502
 6462SOL    HW131019   3.858   4.594   5.256 -1.5422  1.2324 -0.5413
 6462SOL    HW231020   3.981   4.558   5.165  0.3268 -0.4928  1.4050
 6463SOL     OW31021   0.954   3.882   0.621 -0.0670 -0.6477 -0.0854
 6463SOL    HW131022   0.966   3.849   0.533 -2.3489 -0.0022 -0.6496
 6463SOL    HW231023   0.869   3.841   0.638 -1.0317  0.1468 -3.1053
 6464SOL     OW31024   2.293   1.142  16.889  0.0532  0.0272 -0.3224
 6464SOL    HW131025   2.364   1.079  16.902  0.3675  0.2074 -1.1780
 6464SOL    HW231026   2.233   1.091  16.835  2.7778 -1.5014 -1.8993
 6465SOL     OW31027   2.405   0.986   1.715 -0.2043  0.3328 -0.1794
 6465SOL    HW131028   2.485   0.943   1.747  0.0648  0.7915 -0.2352
 6465SOL    HW231029   2.380   0.928   1.643 -0.1734  0.3133 -0.1745
 6466SOL     OW31030   1.634   1.683  17.250 -0.1518  0.1074 -0.5421
 6466SOL    HW131031   1.624   1.778  17.245 -2.3322 -0.1242 -0.3581
 6466SOL    HW231032   1.650   1.656  17.340 -1.8975 -1.3737 -0.6934
 6467SOL     OW31033   0.073   0.951   5.994 -0.0175 -0.1516  0.5842
 6467SOL    HW131034   0.144   0.888   5.980  1.0362  1.4040 -1.1216
 6467SOL    HW231035   0.051   0.928   6.084  2.2821  0.7252  1.3577
 6468SOL     OW31036   3.081   0.304   8.853  0.4278 -0.2472  0.7712
 6468SOL    HW131037   3.037   0.275   8.933 -0.4235 -2.1037 -0.3659
 6468SOL    HW231038   3.100   0.397   8.867 -0.3190 -0.1197  0.9038
 6469SOL     OW31039   2.415   2.591   5.675  0.1605  0.6693 -0.1741
 6469SOL    HW131040   2.464   2.535   5.735 -3.2631 -1.7993  0.3540
 6469SOL    HW231041   2.427   2.544   5.592  0.3268  2.0451 -0.9227
 6470SOL     OW31042   3.527   4.193   1.904 -0.2996 -0.2034 -0.0937
 6470SOL    HW131043   3.471   4.135   1.852 -3.4667  0.6995  2.2939
 6470SOL    HW231044   3.469   4.212   1.977  0.6389  0.4754  0.4673
 6471SOL     OW31045   2.337   3.561   0.881  0.1037  0.5964  0.5928
 6471SOL    HW131046   2.366   3.652   0.873  0.8952  0.2095 -0.9513
 6471SOL    HW231047   2.411   3.524   0.833 -0.5004 -1.5522  1.3509
 6472SOL     OW31048   3.499   2.034   0.470 -0.8458  0.0670  0.3714
 6472SOL    HW131049   3.541   1.948   0.463  3.7125  2.0707  3.2644
 6472SOL    HW231050   3.406   2.012   0.463 -0.2677 -2.0616 -0.6639
 6473SOL     OW31051   3.587   1.270   3.989  0.3583  0.4784 -0.1829
 6473SOL    HW131052   3.551   1.342   3.938  1.3120  0.3060 -1.1101
 6473SOL    HW231053   3.681   1.290   3.988  0.8325 -1.7372  0.1981
 6474SOL     OW31054   2.616   3.712   4.595  0.0124 -0.7882 -0.0711
 6474SOL    HW131055   2.664   3.674   4.521  0.4593  1.5112 -0.9539
 6474SOL    HW231056   2.646   3.654   4.665  4.2301  2.2826  0.6777
 6475SOL     OW31057   1.737   2.262  13.595 -0.3785  0.6799  0.6771
 6475SOL    HW131058   1.804   2.330  13.593  0.9188 -0.5833  1.0083
 6475SOL    HW231059   1.723   2.256  13.500  2.2207  0.8279  0.2778
 6476SOL     OW31060   0.011   2.286   4.057  0.5546  0.8872  0.7997
 6476SOL    HW131061   0.030   2.235   3.978 -0.1267  0.8141  0.6824
 6476SOL    HW231062   0.070   2.361   4.049 -2.3903  2.9708 -1.9969
 6477SOL     OW31063   3.574   0.084   1.586 -0.4352 -0.1910  0.5260
 6477SOL    HW131064   3.623   0.084   1.504 -1.3805 -0.2732 -0.0345
 6477SOL    HW231065   3.504   0.031   1.548  1.6365 -1.6897 -1.1437
 6478SOL     OW31066   3.431   3.001   1.078  0.5709  0.2993  0.2367
 6478SOL    HW131067   3.476   2.920   1.054 -3.5928 -1.2734 -2.1138
 6478SOL    HW231068   3.346   2.995   1.035  0.7184 -0.3627  0.0390
 6479SOL     OW31069   3.095   1.331   9.464  0.5748  0.1128 -0.2725
 6479SOL    HW131070   3.094   1.426   9.448 -0.7764  0.0525 -0.5591
 6479SOL    HW231071   3.140   1.331   9.548 -1.5297 -0.4632  0.8403
 6480SOL     OW31072   3.097   4.296   3.243 -0.2424  0.5354  0.2869
 6480SOL    HW131073   3.025   4.238   3.268 -0.1069 -0.2002 -1.0458
 6480SOL    HW231074   3.166   4.270   3.305  1.5595  1.8896 -1.1826
 6481SOL     OW31075   1.014   0.431   7.671  0.2081  0.0106  0.2945
 6481SOL    HW131076   1.060   0.348   7.682 -1.8037 -1.0389  0.8764
 6481SOL    HW231077   1.084   0.491   7.646  0.3015 -0.2945 -0.1917
 6482SOL     OW31078   2.074   1.856   1.545  0.2399  0.6329  0.4418
 6482SOL    HW131079   1.993   1.890   1.508  0.4123  0.3675 -0.1845
 6482SOL    HW231080   2.045   1.765   1.552  0.9989  0.2109 -2.0027
 6483SOL     OW31081   2.404   0.859   6.374 -0.1963  0.6736  0.5760
 6483SOL    HW131082   2.385   0.897   6.288 -1.1960  0.7233  0.8163
 6483SOL    HW231083   2.499   0.861   6.380 -0.1613  1.4464 -0.2086
 6484SOL     OW31084   2.452   1.590   1.928 -0.1447 -0.1554  0.2216
 6484SOL    HW131085   2.404   1.511   1.905 -0.9190  0.3462  0.1079
 6484SOL    HW231086   2.470   1.569   2.019 -0.7394 -0.6415  0.2252
 6485SOL     OW31087   0.437   2.562   3.892 -0.0966  0.4003 -0.3852
 6485SOL    HW131088   0.494   2.638   3.903 -1.1322  1.2538 -0.8369
 6485SOL    HW231089   0.477   2.501   3.953 -1.5776  1.5883  1.7564
 6486SOL     OW31090   1.745   2.172   7.172 -0.0054 -1.0291  0.5014
 6486SOL    HW131091   1.699   2.097   7.209  0.4938 -0.8757  1.4271
 6486SOL    HW231092   1.801   2.121   7.113 -2.0874 -1.8759 -0.7581
 6487SOL     OW31093   4.475   3.593  12.165  0.6014 -0.1018 -0.4116
 6487SOL    HW131094   4.451   3.521  12.224  1.4049 -0.3812 -0.4260
 6487SOL    HW231095   4.445   3.667  12.217 -1.4917 -0.9605 -0.3819
 6488SOL     OW31096   0.230   3.142   4.535 -0.5361  0.0010 -0.3016
 6488SOL    HW131097   0.285   3.132   4.457 -1.1148 -0.1187 -0.6949
 6488SOL    HW231098   0.267   3.080   4.597 -3.7965 -0.4291  1.2189
 6489SOL     OW31099   3.806   1.732   2.949  0.0564  0.8402 -0.0858
 6489SOL    HW131100   3.822   1.706   2.859  1.0191 -0.4773  0.4737
 6489SOL    HW231101   3.763   1.817   2.934 -0.2573  0.5717 -0.7238
 6490SOL     OW31102   3.361   2.017  16.543  0.3752  0.7993  0.0982
 6490SOL    HW131103   3.388   1.968  16.620  0.8333  1.7989  0.5724
 6490SOL    HW231104   3.279   2.054  16.575 -0.4699 -1.5035  0.5229
 6491SOL     OW31105   0.355   4.528  16.200 -0.4538 -0.7207 -0.2760
 6491SOL    HW131106   0.342   4.577  16.119  0.8461  1.4065  0.7986
 6491SOL    HW231107   0.405   4.449  16.181 -1.3546 -1.1781 -0.7201
 6492SOL     OW31108   1.357   1.609   9.959  0.2883 -0.3182 -0.3009
 6492SOL    HW131109   1.323   1.618   9.870  1.6332 -1.0352 -0.8862
 6492SOL    HW231110   1.268   1.601   9.994  0.6480 -2.3633  0.1433
 6493SOL     OW31111   0.175   0.618  14.776 -0.4260 -0.4059 -0.4269
 6493SOL    HW131112   0.197   0.661  14.693 -2.7317  2.2037  0.3174
 6493SOL    HW231113   0.265   0.606  14.809  0.0119  0.8556 -1.1831
 6494SOL     OW31114   0.220   0.676   1.552 -0.5395  0.6118  0.1464
 6494SOL    HW131115   0.230   0.729   1.472  1.4403 -1.5691 -1.0650
 6494SOL    HW231116   0.234   0.742   1.619 -2.1377  0.6878  0.3914
 6495SOL     OW31117   4.712   1.846   7.637 -0.4093  0.2625 -0.0691
 6495SOL    HW131118   0.037   1.802   7.695  1.0591 -0.1840 -1.9435
 6495SOL    HW231119   4.706   1.934   7.674  0.2067 -0.5128  1.8528
 6496SOL     OW31120   4.192   1.663   8.224 -0.3735 -0.3241  0.4308
 6496SOL    HW131121   4.262   1.617   8.178 -2.2840 -3.6237  0.8471
 6496SOL    HW231122   4.192   1.748   8.179  1.5833 -0.1965  0.6659
 6497SOL     OW31123   2.322   2.928  12.190  0.0855 -0.7717  0.1423
 6497SOL    HW131124   2.414   2.944  12.167  0.1690 -2.1305 -0.4136
 6497SOL    HW231125   2.325   2.838  12.220  0.4776 -0.1614  1.9498
 6498SOL     OW31126   3.175   3.458   8.819 -0.6848  0.0526  0.0234
 6498SOL    HW131127   3.181   3.550   8.792 -3.0243 -0.4844 -2.3516
 6498SOL    HW231128   3.105   3.428   8.761 -0.9468  0.2994  0.2126
 6499SOL     OW31129   3.076   2.267  10.488  0.5717  0.0775  0.1619
 6499SOL    HW131130   2.992   2.266  10.534  1.4296 -1.4814  1.6949
 6499SOL    HW231131   3.060   2.224  10.405 -2.7053 -2.9387  2.3304
 6500SOL     OW31132   0.213   3.473   8.416  0.2561  0.1498  0.5456
 6500SOL    HW131133   0.232   3.443   8.505  1.0437  0.2568  0.4207
 6500SOL    HW231134   0.289   3.498   8.363  0.1524  0.1168  0.3824
 6501SOL     OW31135   3.061   1.673   6.594 -1.0593  0.2643 -0.0754
 6501SOL    HW131136   3.138   1.730   6.593 -1.0846  0.3074  1.2144
 6501SOL    HW231137   3.006   1.720   6.531  0.3772  0.0346 -1.5099
 6502SOL     OW31138   3.706   4.307   2.636  0.4566  0.3025 -0.4009
 6502SOL    HW131139   3.749   4.304   2.721 -1.3914 -1.0015  0.4918
 6502SOL    HW231140   3.711   4.401   2.621 -0.4201  0.7611  2.2166
 6503SOL     OW31141   4.269   1.481  12.412  0.0274  0.0026  0.0205
 6503SOL    HW131142   4.226   1.535  12.346 -0.5894  0.7565  1.0544
 6503SOL    HW231143   4.210   1.406  12.398  1.2792 -1.0051  0.0998
 6504SOL     OW31144   3.914   3.215   8.151 -0.0138  0.0318  0.2840
 6504SOL    HW131145   3.947   3.199   8.063 -0.3168  0.3904  0.1059
 6504SOL    HW231146   3.868   3.297   8.132 -0.3289 -0.2323 -0.0902
 6505SOL     OW31147   1.803   3.768   5.618  0.1682  0.7456  0.1070
 6505SOL    HW131148   1.876   3.741   5.674 -2.5387 -2.5913  1.9959
 6505SOL    HW231149   1.832   3.771   5.526  1.4286  2.1497  0.5512
 6506SOL     OW31150   4.066   2.921   2.494 -0.2574  0.0427 -0.1062
 6506SOL    HW131151   4.054   2.982   2.421 -2.1152 -0.4509 -0.2015
 6506SOL    HW231152   4.118   2.845   2.465  1.2635  1.4047 -0.9526
 6507SOL     OW31153   1.460   0.974   1.170 -0.1063  0.1234  0.8885
 6507SOL    HW131154   1.394   1.002   1.106 -2.6850  2.7322  4.6988
 6507SOL    HW231155   1.539   0.990   1.119 -0.1460 -0.1304  0.7466
 6508SOL     OW31156   2.273   0.894   8.453 -0.4482  0.1797  0.3778
 6508SOL    HW131157   2.353   0.945   8.460 -0.6328  0.1567  2.7771
 6508SOL    HW231158   2.200   0.952   8.473 -0.4157 -0.1035  1.3180
 6509SOL     OW31159   1.340   4.162   5.917 -0.0139 -0.0294 -0.1161
 6509SOL    HW131160   1.391   4.205   5.985 -1.4041 -0.0269  0.9230
 6509SOL    HW231161   1.255   4.196   5.945 -0.0545 -0.1249 -0.1275
 6510SOL     OW31162   3.470   2.420   5.200 -0.1927  0.2929  0.4316
 6510SOL    HW131163   3.470   2.342   5.145 -0.8831  1.4597 -1.2247
 6510SOL    HW231164   3.561   2.445   5.187  0.1291 -1.3249 -0.4606
 6511SOL     OW31165   2.117   2.160   6.908 -0.0858 -0.1373 -0.1904
 6511SOL    HW131166   2.147   2.126   6.992  0.8234 -0.1446 -0.5148
 6511SOL    HW231167   2.164   2.101   6.849  1.0600 -0.5007  1.0843
 6512SOL     OW31168   2.356   1.889  14.120 -0.5235 -0.2321  0.2550
 6512SOL    HW131169   2.390   1.976  14.141 -1.7358  0.5281 -0.8985
 6512SOL    HW231170   2.377   1.834  14.195 -0.7078  0.3146  0.7095
 6513SOL     OW31171   0.835   1.453  15.421 -0.4173 -0.3464  0.3169
 6513SOL    HW131172   0.906   1.461  15.357 -0.6901 -2.5865 -0.2491
 6513SOL    HW231173   0.866   1.375  15.467 -1.4174 -1.5918 -1.0901
 6514SOL     OW31174   0.574   0.286   0.960 -0.6352  0.4445  0.5404
 6514SOL    HW131175   0.625   0.367   0.955 -0.9027  0.4912 -1.5397
 6514SOL    HW231176   0.493   0.315   0.917  1.4021  2.2649 -2.1024
 6515SOL     OW31177   4.706   2.028   1.508  0.0928 -0.6958 -0.3590
 6515SOL    HW131178   4.722   2.121   1.491  1.6344 -0.7184  1.0004
 6515SOL    HW231179   0.033   2.016   1.578 -1.3441  0.5832  1.1574
 6516SOL     OW31180   2.069   0.397   6.375 -0.9928 -0.2211  0.1481
 6516SOL    HW131181   2.100   0.380   6.286 -3.3871  1.0280 -0.9229
 6516SOL    HW231182   2.136   0.464   6.391  0.9254 -2.2978  0.8482
 6517SOL     OW31183   1.048   2.044  12.095  0.8216  0.3053  0.0445
 6517SOL    HW131184   0.970   1.989  12.097  0.3498  1.0700  1.8831
 6517SOL    HW231185   1.062   2.039  12.189 -1.9017 -3.5261  0.2581
 6518SOL     OW31186   0.870   0.128  15.461  0.5446  0.1912  0.5297
 6518SOL    HW131187   0.919   0.046  15.462 -2.3858 -1.5853 -0.2612
 6518SOL    HW231188   0.932   0.198  15.441 -1.1906  1.2466 -1.1581
 6519SOL     OW31189   1.770   1.155   7.686  0.2266  0.2973 -0.3455
 6519SOL    HW131190   1.812   1.071   7.671  0.0828 -0.3517  2.7655
 6519SOL    HW231191   1.718   1.132   7.763  0.3340 -0.0030 -0.3647
 6520SOL     OW31192   4.613   2.894   5.473 -0.2918 -0.3233  0.8442
 6520SOL    HW131193   4.593   2.975   5.427 -0.4670 -0.8297  0.0283
 6520SOL    HW231194   4.693   2.880   5.421  2.1943 -1.5742  4.9781
 6521SOL     OW31195   0.175   4.324   7.326  0.4357  0.0915  0.5920
 6521SOL    HW131196   0.220   4.260   7.270  1.3307  0.9692  0.3308
 6521SOL    HW231197   0.088   4.289   7.305 -0.2658  1.5427  1.1100
 6522SOL     OW31198   2.142   0.246  11.778  0.0958 -0.4623 -0.0314
 6522SOL    HW131199   2.204   0.185  11.740  1.5275  0.0122  1.5413
 6522SOL    HW231200   2.186   0.331  11.787  0.4308 -0.5652 -0.6865
 6523SOL     OW31201   0.971   4.276   2.593 -0.3233 -0.1718  0.4556
 6523SOL    HW131202   0.936   4.229   2.669 -0.6059  2.0784  1.7471
 6523SOL    HW231203   1.051   4.224   2.591 -1.2283 -1.6287  2.0794
 6524SOL     OW31204   0.177   0.769   1.933 -0.8287  0.2644 -0.6097
 6524SOL    HW131205   0.153   0.684   1.895 -0.3851 -0.5967  1.0114
 6524SOL    HW231206   0.198   0.826   1.859 -0.3202  0.6732 -0.1549
 6525SOL     OW31207   1.874   3.274   8.334 -0.5236  0.2799  0.1638
 6525SOL    HW131208   1.841   3.341   8.394  1.3499 -1.9928  3.7285
 6525SOL    HW231209   1.800   3.213   8.337 -1.9121  1.9545 -0.2814
 6526SOL     OW31210   4.238   0.070  11.466  0.2556 -0.0653 -0.0701
 6526SOL    HW131211   4.212   0.000  11.525  0.7146  0.2304  0.4764
 6526SOL    HW231212   4.253   0.139  11.531 -1.2218  1.4615 -1.3279
 6527SOL     OW31213   2.687   3.601   7.483 -0.2169 -0.4900  0.3010
 6527SOL    HW131214   2.779   3.624   7.496 -0.5137  1.2745 -0.7688
 6527SOL    HW231215   2.649   3.684   7.508  2.0307  0.3870  0.8192
 6528SOL     OW31216   3.152   0.491   2.420  0.4133  0.1690  0.4010
 6528SOL    HW131217   3.235   0.486   2.372  0.8526  1.1370  1.0598
 6528SOL    HW231218   3.097   0.508   2.344  2.1919  0.5470 -0.7840
 6529SOL     OW31219   0.737   2.135   2.844 -0.1072  0.2351  0.1336
 6529SOL    HW131220   0.651   2.176   2.855 -0.6610 -0.5707 -1.2862
 6529SOL    HW231221   0.721   2.061   2.786 -0.1819  0.3849 -0.0327
 6530SOL     OW31222   2.190   2.668   2.535  0.7611  0.8842 -0.2462
 6530SOL    HW131223   2.179   2.689   2.628  1.2777  0.0186  0.0129
 6530SOL    HW231224   2.189   2.572   2.540 -0.7299  0.8856 -0.5890
 6531SOL     OW31225   1.873   0.035  11.465 -0.4590 -0.3876  0.5983
 6531SOL    HW131226   1.872   4.724  11.548  0.4185 -2.7630 -0.7582
 6531SOL    HW231227   1.845   0.122  11.492 -1.5055 -0.3962 -0.4531
 6532SOL     OW31228   0.925   4.702   1.543 -0.4799  0.4500  0.3657
 6532SOL    HW131229   0.935   0.036   1.606  0.2091  0.6419  0.0447
 6532SOL    HW231230   0.889   0.014   1.469  1.3111 -0.0995 -0.8787
 6533SOL     OW31231   2.402   4.056   6.308 -0.6415  0.2784 -0.2059
 6533SOL    HW131232   2.425   4.062   6.216 -1.5924 -0.3915 -0.4826
 6533SOL    HW231233   2.448   4.128   6.351 -0.0660  0.4808 -1.1654
 6534SOL     OW31234   3.699   1.088  16.953 -0.4507 -0.7837 -0.8406
 6534SOL    HW131235   3.706   1.175  16.913 -2.2828 -0.1657  0.1706
 6534SOL    HW231236   3.704   1.107  17.047 -1.6747 -2.2218 -0.4805
 6535SOL     OW31237   3.083   4.718   6.437  0.1823 -0.3105 -0.7370
 6535SOL    HW131238   3.106   4.627   6.420 -0.6655 -1.2227  3.0306
 6535SOL    HW231239   3.055   4.706   6.527  1.7841  1.2096 -0.0354
 6536SOL     OW31240   4.096   1.973   6.876 -0.0010 -0.0482  0.4151
 6536SOL    HW131241   4.184   1.936   6.884  0.5011  1.7707  3.6267
 6536SOL    HW231242   4.051   1.928   6.948 -1.6456  1.2104  0.1742
 6537SOL     OW31243   0.321   1.655   1.116 -0.0882  0.2081  0.2045
 6537SOL    HW131244   0.392   1.675   1.054 -0.8840  0.5890 -0.5798
 6537SOL    HW231245   0.318   1.741   1.158 -0.9281 -0.1915  0.9579
 6538SOL     OW31246   1.261   3.825   1.267  0.0695  0.1574  0.2874
 6538SOL    HW131247   1.237   3.765   1.196 -0.9486  0.7122  0.1561
 6538SOL    HW231248   1.293   3.895   1.210 -1.8811  1.5423  0.9100
 6539SOL     OW31249   1.692   4.460   3.657 -0.4781  0.0920 -0.3937
 6539SOL    HW131250   1.669   4.367   3.661  1.6412 -0.3971  0.2751
 6539SOL    HW231251   1.759   4.460   3.589 -1.1961  1.0486 -1.0941
 6540SOL     OW31252   2.599   1.787   5.905 -0.3327 -0.6345  0.2128
 6540SOL    HW131253   2.566   1.706   5.944 -1.5879  0.7086  1.9630
 6540SOL    HW231254   2.517   1.809   5.860  0.7581  1.7448 -0.6537
 6541SOL     OW31255   0.870   2.316   2.598  0.0039 -0.1491  0.0843
 6541SOL    HW131256   0.826   2.312   2.683 -0.7595 -0.1174 -0.3035
 6541SOL    HW231257   0.847   2.408   2.582  2.5223  0.2615 -1.0092
 6542SOL     OW31258   0.483   1.668   2.485 -0.5559 -0.6558  0.1008
 6542SOL    HW131259   0.544   1.722   2.536 -1.7956 -0.7790  1.7239
 6542SOL    HW231260   0.511   1.577   2.495 -2.2324 -1.4823 -2.7176
 6543SOL     OW31261   0.224   3.331   5.914  0.4459 -0.0175 -0.2652
 6543SOL    HW131262   0.247   3.395   5.982  1.0333  0.2473 -0.7182
 6543SOL    HW231263   0.265   3.379   5.842  2.2574  0.8901  1.3432
 6544SOL     OW31264   2.139   1.879  15.683 -0.3323  0.0806 -0.2626
 6544SOL    HW131265   2.173   1.893  15.595 -0.2677  0.0833 -0.2371
 6544SOL    HW231266   2.205   1.819  15.717 -0.3973 -0.5363 -1.2335
 6545SOL     OW31267   3.451   1.546   6.000  1.5225 -0.1725 -0.1846
 6545SOL    HW131268   3.497   1.545   6.084  0.5728 -1.7114  0.3229
 6545SOL    HW231269   3.442   1.452   5.981  1.2929  0.0449 -1.1244
 6546SOL     OW31270   2.008   2.697  10.300 -0.3439  0.1399 -0.0692
 6546SOL    HW131271   2.030   2.623  10.356 -0.4811 -0.0946 -0.3251
 6546SOL    HW231272   2.022   2.656  10.214  1.0706  1.1501 -0.3210
 6547SOL     OW31273   3.560   2.571   8.305  0.2482 -0.2202 -0.0616
 6547SOL    HW131274   3.537   2.530   8.388  1.4144  1.0882  0.9123
 6547SOL    HW231275   3.521   2.658   8.312  0.2955 -0.3163  1.4536
 6548SOL     OW31276   3.158   3.588   4.605  0.0060 -0.3980  0.4025
 6548SOL    HW131277   3.200   3.675   4.607  0.1648 -0.5015  1.5118
 6548SOL    HW231278   3.227   3.538   4.649 -1.4257 -1.2356  1.6717
 6549SOL     OW31279   3.863   0.956   4.863  0.4932 -0.3444 -0.3744
 6549SOL    HW131280   3.861   0.863   4.886  1.2341 -0.2908 -0.0938
 6549SOL    HW231281   3.783   0.948   4.811  1.0301  0.0649 -1.2733
 6550SOL     OW31282   3.890   0.701  11.634  0.3632  0.2979  0.0382
 6550SOL    HW131283   3.916   0.756  11.708 -2.7040 -0.0963  1.4039
 6550SOL    HW231284   3.806   0.735  11.603  0.1799  0.2084  0.4454
 6551SOL     OW31285   4.624   1.764   8.868 -0.4726  0.3886 -0.0864
 6551SOL    HW131286   4.566   1.832   8.903  1.2032  2.5104 -1.4269
 6551SOL    HW231287   4.603   1.767   8.774  0.6626 -1.2700 -0.3873
 6552SOL     OW31288   0.264   0.487  12.070  0.0698  0.6389 -0.6960
 6552SOL    HW131289   0.225   0.570  12.098  0.3789  0.8508 -0.9004
 6552SOL    HW231290   0.181   0.439  12.073  1.9637 -2.6053 -0.6520
 6553SOL     OW31291   1.083   4.363   7.218 -0.0712  0.2568 -0.4738
 6553SOL    HW131292   0.997   4.335   7.248  1.2002 -0.9599  2.0636
 6553SOL    HW231293   1.066   4.456   7.201 -1.8141 -0.4845 -2.7500
 6554SOL     OW31294   1.447   0.264   0.415  0.3683  0.4963 -0.2510
 6554SOL    HW131295   1.396   0.294   0.339  0.3749  1.5088  0.1500
 6554SOL    HW231296   1.392   0.289   0.488 -0.4818 -0.7199 -0.4917
 6555SOL     OW31297   3.430   2.167  16.316 -0.3965 -0.1668  0.0080
 6555SOL    HW131298   3.442   2.105  16.388  0.4382 -1.1656 -0.9826
 6555SOL    HW231299   3.348   2.212  16.337  0.3922  0.2489  2.1321
 6556SOL     OW31300   0.796   1.307   0.188  0.3890 -0.0445  0.0868
 6556SOL    HW131301   0.734   1.361   0.139 -0.1467 -0.1148  0.6915
 6556SOL    HW231302   0.822   1.242   0.122  0.7988  0.3105 -0.0984
 6557SOL     OW31303   3.600   3.804   5.945 -0.7803  0.1998 -0.2959
 6557SOL    HW131304   3.661   3.868   5.981  1.7334 -2.1041 -0.4580
 6557SOL    HW231305   3.667   3.746   5.911 -0.6026  0.2145  0.0324
 6558SOL     OW31306   3.909   2.455   5.984 -0.6461 -0.1748 -0.1052
 6558SOL    HW131307   3.825   2.499   5.997 -0.4569 -0.1155  0.9090
 6558SOL    HW231308   3.884   2.412   5.902 -0.0807  1.4638 -1.1321
 6559SOL     OW31309   1.030   0.022   7.381  0.0428 -0.0539 -0.1109
 6559SOL    HW131310   1.029   4.695   7.309 -0.0867  2.1638 -2.1000
 6559SOL    HW231311   1.055   0.096   7.325  2.3919 -0.6358  0.1832
 6560SOL     OW31312   2.148   3.204   4.442 -0.0458 -0.2645 -0.3630
 6560SOL    HW131313   2.058   3.214   4.473 -0.4291  0.7874 -1.8112
 6560SOL    HW231314   2.148   3.118   4.399  2.0295 -0.8337  0.7749
 6561SOL     OW31315   0.055   4.004   6.693 -0.2235  0.0514  0.0104
 6561SOL    HW131316   0.141   3.979   6.659  0.1264 -0.2304  1.1132
 6561SOL    HW231317   4.734   3.958   6.632 -0.7603 -1.1290  1.4117
 6562SOL     OW31318   0.510   1.273   2.350  0.3168  0.6171 -0.2365
 6562SOL    HW131319   0.561   1.309   2.277  0.3262  1.1729  0.0447
 6562SOL    HW231320   0.527   1.332   2.423 -1.0784 -0.9995  1.3860
 6563SOL     OW31321   2.756   1.045   3.695 -0.3486 -0.1992 -0.1831
 6563SOL    HW131322   2.689   0.978   3.686 -2.4915  1.8899  0.2245
 6563SOL    HW231323   2.843   1.005   3.701  0.5597  1.7201 -0.7131
 6564SOL     OW31324   1.374   4.466   9.268  0.3127  0.1559 -0.5655
 6564SOL    HW131325   1.395   4.399   9.203  0.8879 -0.0387 -0.1869
 6564SOL    HW231326   1.448   4.525   9.253  0.7892 -0.0122  1.0701
 6565SOL     OW31327   2.694   0.379   3.634  0.1171  0.4020  0.0985
 6565SOL    HW131328   2.609   0.342   3.609 -0.7029  1.0838  1.9192
 6565SOL    HW231329   2.675   0.391   3.726  0.8698 -2.7383  0.6867
 6566SOL     OW31330   4.719   2.102  14.242 -0.2055 -0.4027 -0.3983
 6566SOL    HW131331   0.065   2.141  14.269 -0.9285  0.8788 -0.0319
 6566SOL    HW231332   4.726   2.018  14.289  1.8215 -0.5458 -0.9707
 6567SOL     OW31333   0.578   1.640   6.654  0.0280 -0.1009  0.0699
 6567SOL    HW131334   0.612   1.551   6.645  0.2337  0.1050 -1.1190
 6567SOL    HW231335   0.616   1.650   6.741  2.4615 -0.3744 -0.9613
 6568SOL     OW31336   2.649   2.130  14.294  0.0539  0.3839  0.1856
 6568SOL    HW131337   2.576   2.145  14.233  0.4663  0.4575 -0.2854
 6568SOL    HW231338   2.659   2.035  14.293  0.9348  0.4711  1.0928
 6569SOL     OW31339   3.487   3.490   1.877  0.3215 -0.2972 -0.0391
 6569SOL    HW131340   3.518   3.473   1.788 -1.7745  1.3780 -1.0991
 6569SOL    HW231341   3.394   3.474   1.860  0.1325  0.2707  0.4584
 6570SOL     OW31342   3.575   0.288   6.499  0.1361  0.2619  0.2095
 6570SOL    HW131343   3.523   0.211   6.522 -0.4870  0.3145 -0.9873
 6570SOL    HW231344   3.641   0.275   6.566  1.1929 -0.9316 -1.0489
 6571SOL     OW31345   4.251   3.700   9.096  0.0861 -0.9040  0.1083
 6571SOL    HW131346   4.185   3.730   9.159  3.1894  1.9662  2.0020
 6571SOL    HW231347   4.319   3.673   9.157 -1.5545  0.1318  2.3981
 6572SOL     OW31348   0.895   0.203  17.595  0.4906 -0.1647 -0.2340
 6572SOL    HW131349   0.803   0.228  17.593  0.5864  0.0610 -1.9798
 6572SOL    HW231350   0.897   0.170  17.684  3.1523  0.0503 -0.2276
 6573SOL     OW31351   2.219   4.403   4.498  0.2786  0.4340 -0.1749
 6573SOL    HW131352   2.129   4.400   4.531 -0.0966 -0.6287 -1.2903
 6573SOL    HW231353   2.265   4.333   4.543  0.3662 -1.0979 -2.6411
 6574SOL     OW31354   2.689   3.581   5.473  0.1260 -0.0955 -0.1051
 6574SOL    HW131355   2.747   3.633   5.418 -1.2318 -0.5859 -1.9950
 6574SOL    HW231356   2.723   3.594   5.561  0.0886  1.3401 -0.3122
 6575SOL     OW31357   4.119   0.501   4.783 -0.2215 -0.1836 -0.2067
 6575SOL    HW131358   4.110   0.460   4.869 -2.9879  0.8232 -0.0177
 6575SOL    HW231359   4.154   0.430   4.730  2.7469  1.1419  0.0159
 6576SOL     OW31360   2.860   0.621   4.535  0.2526  0.1837  0.1597
 6576SOL    HW131361   2.945   0.664   4.530  0.0432  0.3867 -1.6388
 6576SOL    HW231362   2.874   0.564   4.460  1.6209  0.4640  0.1998
 6577SOL     OW31363   4.502   0.002   5.867 -0.9145  0.4353 -0.0504
 6577SOL    HW131364   4.506   4.644   5.869  0.3844  0.4392 -2.6466
 6577SOL    HW231365   4.471   0.021   5.955 -0.4080  1.9577 -0.1946
 6578SOL     OW31366   1.884   1.071   3.987  0.1252  0.0328 -0.3148
 6578SOL    HW131367   1.900   1.158   3.950  1.4053 -0.8562 -1.8698
 6578SOL    HW231368   1.907   1.006   3.920 -2.4070  0.3088 -1.4313
 6579SOL     OW31369   0.452   4.705   4.711 -0.0027  0.5101  0.0936
 6579SOL    HW131370   0.380   4.702   4.648  0.0125 -1.2069  0.1487
 6579SOL    HW231371   0.422   4.641   4.776 -2.3376  0.9878 -0.5118
 6580SOL     OW31372   2.736   3.300  15.748 -0.2857  0.0441 -0.2987
 6580SOL    HW131373   2.775   3.361  15.811  0.8307 -2.1990  1.1669
 6580SOL    HW231374   2.670   3.358  15.710  0.4007  1.0804  0.1023
 6581SOL     OW31375   3.897   2.706  13.055 -0.0691 -0.1932 -0.2383
 6581SOL    HW131376   3.820   2.736  13.104 -0.2628 -1.8941  0.4952
 6581SOL    HW231377   3.970   2.706  13.117 -2.7384  0.7567  2.8744
 6582SOL     OW31378   3.673   2.177   9.080  0.7325 -0.0821 -0.3244
 6582SOL    HW131379   3.616   2.254   9.070 -1.4953 -1.6946  0.1144
 6582SOL    HW231380   3.755   2.208   9.118  0.6412  0.0953 -0.2713
 6583SOL     OW31381   3.969   4.217  13.326  0.3196  0.8288  0.6871
 6583SOL    HW131382   3.959   4.305  13.290 -5.4049  0.5291  1.5874
 6583SOL    HW231383   3.883   4.181  13.345 -0.0630  1.0832 -0.6268
 6584SOL     OW31384   2.701   1.515   8.013 -0.5802  0.2048  0.1802
 6584SOL    HW131385   2.786   1.555   7.996 -0.3176 -1.0235 -1.3856
 6584SOL    HW231386   2.653   1.596   8.031 -2.3271 -1.3123  2.3376
 6585SOL     OW31387   0.367   1.882   5.749  0.3508  0.5545 -0.4410
 6585SOL    HW131388   0.280   1.841   5.750 -0.0397  1.3006 -2.7214
 6585SOL    HW231389   0.389   1.891   5.841  0.9910  1.8618 -0.7319
 6586SOL     OW31390   4.407   0.449  15.864 -0.0492  0.3824  0.5789
 6586SOL    HW131391   4.479   0.468  15.804 -0.3791 -1.5004 -0.4157
 6586SOL    HW231392   4.334   0.510  15.856  0.4553  0.9196  0.1023
 6587SOL     OW31393   0.581   4.710  12.865 -0.3867 -0.1645  0.0237
 6587SOL    HW131394   0.673   4.689  12.855 -0.6150  0.3656 -3.3064
 6587SOL    HW231395   0.565   0.018  12.782 -1.6031 -1.9273 -0.6930
 6588SOL     OW31396   2.916   0.133   3.177 -0.3973 -0.7183 -0.3765
 6588SOL    HW131397   3.003   0.163   3.152 -0.9200  2.3164  1.4028
 6588SOL    HW231398   2.863   0.202   3.137  3.0670  1.2799 -1.4360
 6589SOL     OW31399   2.965   4.415   4.073 -0.6261 -1.2077  0.0457
 6589SOL    HW131400   2.925   4.398   3.988 -0.0221 -1.7067 -0.1399
 6589SOL    HW231401   3.015   4.335   4.088  0.8755  0.2132  2.7870
 6590SOL     OW31402   4.034   0.499  10.375 -0.2700 -0.3674  0.2923
 6590SOL    HW131403   4.101   0.470  10.314  0.1234  0.2071  0.4548
 6590SOL    HW231404   4.031   0.591  10.350 -1.3639  0.2175  2.5582
 6591SOL     OW31405   4.726   2.066   8.371  0.2757 -0.0085 -0.0337
 6591SOL    HW131406   0.052   2.095   8.437  0.5527  0.2956 -0.4311
 6591SOL    HW231407   0.030   1.981   8.354 -0.9185 -0.3872 -1.0639
 6592SOL     OW31408   4.193   1.218   7.839  0.3775 -0.5801  0.3461
 6592SOL    HW131409   4.280   1.194   7.868  0.0784  0.4135  2.0249
 6592SOL    HW231410   4.201   1.313   7.847 -0.2318 -0.4886 -0.0555
 6593SOL     OW31411   0.033   1.959  15.629 -0.2109 -0.2441 -0.3635
 6593SOL    HW131412   4.733   1.994  15.710 -1.1066  2.3265 -1.8744
 6593SOL    HW231413   0.047   2.047  15.594 -1.3325  0.9264  2.1573
 6594SOL     OW31414   2.399   4.506   1.525  0.7853  0.2274 -0.0442
 6594SOL    HW131415   2.483   4.463   1.508  0.9436  0.7723 -0.6340
 6594SOL    HW231416   2.371   4.446   1.595  0.1507  2.4935  1.6465
 6595SOL     OW31417   3.753   4.137   5.591  0.3208  0.1355 -0.7917
 6595SOL    HW131418   3.743   4.170   5.680  2.5820 -0.0824 -0.4542
 6595SOL    HW231419   3.827   4.078   5.604 -0.5239 -0.8351 -0.4185
 6596SOL     OW31420   2.340   4.380   3.632 -0.1330 -0.3134  0.1591
 6596SOL    HW131421   2.420   4.433   3.626  0.5087 -0.8292  4.0835
 6596SOL    HW231422   2.356   4.340   3.718  1.1744  2.6334  1.2996
 6597SOL     OW31423   3.257   3.097  13.558 -0.2560  0.5071  0.0520
 6597SOL    HW131424   3.287   3.137  13.476 -1.2372  0.2275 -0.4346
 6597SOL    HW231425   3.334   3.051  13.592 -1.2740 -0.7964  0.6028
 6598SOL     OW31426   1.437   0.105  12.869  0.4120 -0.0728 -0.4903
 6598SOL    HW131427   1.453   0.021  12.912 -0.2228 -0.3872 -0.8604
 6598SOL    HW231428   1.478   0.170  12.926 -0.4433 -0.1846  0.2466
 6599SOL     OW31429   3.479   2.122   8.466  0.1715 -0.5411 -0.4044
 6599SOL    HW131430   3.399   2.080   8.498  1.1735  0.2377  3.0818
 6599SOL    HW231431   3.545   2.081   8.523 -1.4521  0.8163  2.4652
 6600SOL     OW31432   1.830   0.448   8.375 -0.3608  0.0489  0.2716
 6600SOL    HW131433   1.874   0.364   8.362 -2.5184 -1.0540  0.0988
 6600SOL    HW231434   1.834   0.477   8.284 -0.4814 -2.8152 -0.6554
 6601SOL     OW31435   2.223   3.646   8.628  0.1204  0.1728  0.0507
 6601SOL    HW131436   2.161   3.695   8.681  1.1779  1.3633  0.1901
 6601SOL    HW231437   2.196   3.555   8.639 -0.5443  0.2764 -0.7122
 6602SOL     OW31438   4.515   3.050   2.938 -0.5793  0.4680  0.2997
 6602SOL    HW131439   4.556   3.070   2.854 -0.4772 -2.6707 -0.4109
 6602SOL    HW231440   4.494   2.960   2.911  1.9243  0.5478 -1.9326
 6603SOL     OW31441   3.443   4.206   4.574 -0.1260 -0.4814  0.1770
 6603SOL    HW131442   3.507   4.135   4.584  0.0682 -0.3650 -0.2446
 6603SOL    HW231443   3.408   4.183   4.488  3.9010 -0.8608 -1.3580
 6604SOL     OW31444   1.677   0.760   4.021 -0.4402 -0.4464  0.1245
 6604SOL    HW131445   1.696   0.696   3.952  0.3181 -0.1255  0.0338
 6604SOL    HW231446   1.724   0.716   4.092  0.7407  0.1582 -0.2866
 6605SOL     OW31447   0.827   2.566   5.479  0.2111  0.1044  0.3487
 6605SOL    HW131448   0.883   2.640   5.500  0.2329  0.0344  0.5319
 6605SOL    HW231449   0.763   2.577   5.550  2.5119  0.6902  2.3179
 6606SOL     OW31450   4.179   3.865   4.721 -0.0559 -0.0423  0.3915
 6606SOL    HW131451   4.248   3.930   4.731  0.7262 -0.5020 -1.9997
 6606SOL    HW231452   4.209   3.825   4.639 -2.0924 -2.8343  0.9873
 6607SOL     OW31453   3.904   4.566   8.558  0.4137  0.4747 -0.7457
 6607SOL    HW131454   3.854   4.645   8.580  1.9342  1.2243  0.0162
 6607SOL    HW231455   3.957   4.581   8.479  1.4209  2.3817  0.2825
 6608SOL     OW31456   2.559   1.686   4.577  0.2800 -0.1887 -0.0891
 6608SOL    HW131457   2.570   1.778   4.602 -3.6180  0.7179 -1.8056
 6608SOL    HW231458   2.610   1.645   4.647  0.2522 -2.5316 -1.4548
 6609SOL     OW31459   3.876   0.879   1.055 -1.0122 -0.7864  0.0843
 6609SOL    HW131460   3.941   0.843   0.995 -1.3842 -0.6475 -0.4021
 6609SOL    HW231461   3.797   0.870   1.002 -1.0829  1.0102 -0.0866
 6610SOL     OW31462   1.028   0.690   6.228 -0.0772  0.2493 -0.5647
 6610SOL    HW131463   0.933   0.691   6.229 -0.1016 -0.2079 -1.8870
 6610SOL    HW231464   1.054   0.601   6.207  1.5336  0.6177 -0.2065
 6611SOL     OW31465   3.077   1.188   2.292  0.5219  0.3031 -0.4120
 6611SOL    HW131466   3.048   1.279   2.289 -1.8313 -0.3713  2.0545
 6611SOL    HW231467   3.013   1.150   2.232  0.6772 -0.3458 -0.1653
 6612SOL     OW31468   1.942   0.372  15.960  0.0797  0.4186 -0.1585
 6612SOL    HW131469   2.015   0.320  15.927  0.4085 -0.0703  1.3457
 6612SOL    HW231470   1.895   0.394  15.879 -1.3903  0.6873  0.7606
 6613SOL     OW31471   0.179   2.098   4.218  0.4930  0.2475  0.4039
 6613SOL    HW131472   0.114   2.029   4.210  0.6923  0.1070 -0.0049
 6613SOL    HW231473   0.161   2.166   4.153  0.0078  0.0151  0.2914
 6614SOL     OW31474   4.192   3.331   8.800 -0.3960  0.0999 -0.0089
 6614SOL    HW131475   4.198   3.404   8.739 -1.8389  0.7002  0.5807
 6614SOL    HW231476   4.143   3.385   8.862 -1.8347 -0.7532 -0.4100
 6615SOL     OW31477   4.099   3.352   3.387 -0.0575  0.2822 -0.0317
 6615SOL    HW131478   4.189   3.335   3.359 -1.1867  0.5879 -3.8608
 6615SOL    HW231479   4.113   3.355   3.481 -0.1973 -2.9754  0.0606
 6616SOL     OW31480   3.417   1.076   5.047 -0.2779  0.3922  0.0464
 6616SOL    HW131481   3.402   1.003   4.987  0.5477 -0.6711  1.1191
 6616SOL    HW231482   3.326   1.091   5.072 -0.1415  1.5081 -0.1342
 6617SOL     OW31483   3.265   4.103   4.351  0.4110  0.5029  0.1549
 6617SOL    HW131484   3.215   4.021   4.355  0.6393  0.4009  0.8940
 6617SOL    HW231485   3.317   4.084   4.273  1.5735 -1.4546  1.4119
 6618SOL     OW31486   1.812   3.304   2.349  0.4360  0.1830  0.1677
 6618SOL    HW131487   1.906   3.297   2.335  0.0320 -1.8525 -1.5349
 6618SOL    HW231488   1.772   3.318   2.263 -1.1399 -2.2108  0.5106
 6619SOL     OW31489   4.280   3.294  14.081 -0.6138 -0.4011 -0.1313
 6619SOL    HW131490   4.370   3.292  14.050 -1.4824  0.5967 -2.7624
 6619SOL    HW231491   4.257   3.205  14.055  1.9777 -0.6281 -1.6320
 6620SOL     OW31492   4.464   0.131   4.251  0.2073  0.2201 -0.0387
 6620SOL    HW131493   4.454   0.215   4.205 -0.1083  0.7275  0.9503
 6620SOL    HW231494   4.552   0.136   4.287  1.3784 -0.5735 -2.7945
 6621SOL     OW31495   4.447   4.340  12.245 -0.5327 -0.8332 -0.1488
 6621SOL    HW131496   4.371   4.286  12.268 -0.4972 -1.3828 -1.3290
 6621SOL    HW231497   4.403   4.425  12.248  1.7106  0.3054  0.5177
 6622SOL     OW31498   0.246   3.049   9.323  0.1219  0.2963 -0.3843
 6622SOL    HW131499   0.240   3.120   9.387  0.2125  0.4766 -0.5764
 6622SOL    HW231500   0.341   3.044   9.316  0.3674  3.4930  0.6253
 6623SOL     OW31501   1.163   3.526   5.028  0.5941 -0.2166 -0.1897
 6623SOL    HW131502   1.220   3.599   5.051 -0.3823  1.0781 -1.9043
 6623SOL    HW231503   1.178   3.471   5.105  0.5258 -1.1153 -0.8168
 6624SOL     OW31504   3.266   1.620  12.020  0.1342 -0.5787 -0.4898
 6624SOL    HW131505   3.227   1.680  11.957 -1.2253 -1.8680 -0.8699
 6624SOL    HW231506   3.355   1.653  12.016 -0.4800  0.8537 -2.3114
 6625SOL     OW31507   3.962   4.326   6.850  0.0168 -0.4216 -0.1313
 6625SOL    HW131508   4.022   4.277   6.906  2.9712  3.2649 -0.0973
 6625SOL    HW231509   4.013   4.338   6.770  1.8592 -0.6362  1.0119
 6626SOL     OW31510   0.796   1.243   6.142  0.2540  0.1730  0.0278
 6626SOL    HW131511   0.881   1.265   6.104  0.1964 -1.5503 -1.0549
 6626SOL    HW231512   0.740   1.304   6.095  1.5772  0.8263 -0.6952
 6627SOL     OW31513   1.789   3.559  10.592  0.3478 -0.0134 -0.2632
 6627SOL    HW131514   1.743   3.519  10.666 -0.2553 -2.8319 -2.1143
 6627SOL    HW231515   1.878   3.569  10.625  0.2736 -1.0771  0.2801
 6628SOL     OW31516   4.492   1.009   5.397  0.7744  0.3635 -0.3800
 6628SOL    HW131517   4.568   1.036   5.345  0.8006 -0.0324 -0.5502
 6628SOL    HW231518   4.454   0.938   5.345  3.2326 -1.7062  0.6719
 6629SOL     OW31519   0.326   2.293   4.554  0.1528  0.0328  0.2401
 6629SOL    HW131520   0.333   2.208   4.512  0.7766 -0.1056  0.6376
 6629SOL    HW231521   0.393   2.339   4.504  1.3618 -0.0850  1.7562
 6630SOL     OW31522   0.978   1.715   7.493 -0.4965 -0.4503  0.8154
 6630SOL    HW131523   0.898   1.713   7.441  0.1401 -0.8790 -0.1650
 6630SOL    HW231524   0.997   1.808   7.488 -1.3311 -0.4148 -1.4568
 6631SOL     OW31525   4.275   0.434  11.009 -0.4105  0.0765  0.6047
 6631SOL    HW131526   4.316   0.360  11.054  1.2099  0.5230 -0.1658
 6631SOL    HW231527   4.186   0.439  11.044 -0.7067 -0.2163 -0.1127
 6632SOL     OW31528   2.389   0.325   5.278 -0.2601 -0.3208  0.1309
 6632SOL    HW131529   2.319   0.371   5.232  0.0534 -0.8883 -0.9224
 6632SOL    HW231530   2.423   0.274   5.204  1.5072 -0.4235  1.0119
 6633SOL     OW31531   0.974   1.256  14.266  0.7998 -0.5265  0.4455
 6633SOL    HW131532   0.929   1.312  14.202  0.0117  0.2118  1.6663
 6633SOL    HW231533   0.911   1.251  14.338  2.8115 -1.4849  2.1129
 6634SOL     OW31534   1.219   2.786  14.789 -0.6013  0.5454  0.0378
 6634SOL    HW131535   1.277   2.732  14.843 -0.4427  1.6386  0.9587
 6634SOL    HW231536   1.274   2.809  14.714  0.4953  0.9498  0.9709
 6635SOL     OW31537   0.227   2.832  17.591 -0.1022  0.1014  0.2139
 6635SOL    HW131538   0.269   2.888  17.525  2.9056 -1.2314  1.0275
 6635SOL    HW231539   0.300   2.805  17.646 -0.7214 -2.7526 -0.3525
 6636SOL     OW31540   2.627   3.993   9.195  0.4329 -0.1118 -0.1519
 6636SOL    HW131541   2.639   4.080   9.158 -0.6458 -0.0575 -0.3747
 6636SOL    HW231542   2.561   3.969   9.130 -1.1904  1.0549  1.0753
 6637SOL     OW31543   4.723   1.813   9.655 -0.0340 -0.2884 -0.2507
 6637SOL    HW131544   4.676   1.883   9.611  0.5175 -0.1056 -0.5448
 6637SOL    HW231545   0.032   1.765   9.586 -0.3843 -0.8392 -0.1013
 6638SOL     OW31546   4.557   1.179   4.553 -0.1059  0.4860 -0.4679
 6638SOL    HW131547   4.515   1.093   4.544  0.9257  0.0641 -1.2799
 6638SOL    HW231548   4.622   1.178   4.482 -1.0796 -0.9513 -1.3562
 6639SOL     OW31549   1.436   0.079   4.572 -0.6473  0.9493 -0.0463
 6639SOL    HW131550   1.504   0.135   4.534 -1.5964  2.8455  1.0444
 6639SOL    HW231551   1.369   0.079   4.504 -0.7750  0.8316  0.0796
 6640SOL     OW31552   2.237   0.747  10.822  0.3326  0.0886  0.2356
 6640SOL    HW131553   2.282   0.759  10.739 -2.4892  0.7262 -1.1868
 6640SOL    HW231554   2.148   0.765  10.794 -0.4286 -0.0104  2.5480
 6641SOL     OW31555   1.867   4.432   7.323  0.2828  0.9388  0.3551
 6641SOL    HW131556   1.776   4.415   7.296  0.5086  1.1539 -0.5366
 6641SOL    HW231557   1.907   4.476   7.248  0.1266 -1.6913 -1.2847
 6642SOL     OW31558   1.781   3.995   7.182 -0.0673  0.3808  0.0746
 6642SOL    HW131559   1.722   3.930   7.220 -0.0586 -0.0927 -0.7290
 6642SOL    HW231560   1.865   3.954   7.203 -0.3063 -0.6101 -0.9087
 6643SOL     OW31561   2.717   1.184   6.545  0.4931  0.1380 -0.6525
 6643SOL    HW131562   2.704   1.118   6.613 -0.4801  1.4849  0.4491
 6643SOL    HW231563   2.658   1.156   6.475  2.7843 -0.5391 -2.3242
 6644SOL     OW31564   1.361   2.098   6.241  0.1617 -0.4815  0.2170
 6644SOL    HW131565   1.430   2.103   6.174  1.3550  0.4171  1.5263
 6644SOL    HW231566   1.326   2.013   6.213  0.3071 -0.1195 -1.0869
 6645SOL     OW31567   1.402   3.854   2.205 -0.5703 -0.6968  0.2288
 6645SOL    HW131568   1.335   3.820   2.146  1.0262  1.8415 -3.0375
 6645SOL    HW231569   1.364   3.939   2.228 -0.8759 -0.4124 -1.3737
 6646SOL     OW31570   2.646   3.702   3.669 -0.2692 -0.2471 -0.0047
 6646SOL    HW131571   2.639   3.608   3.655  1.9075 -0.3482 -0.3594
 6646SOL    HW231572   2.646   3.737   3.580  2.6333  1.4314  0.6601
 6647SOL     OW31573   3.315   3.430   6.389  0.9338 -0.0392  0.5028
 6647SOL    HW131574   3.298   3.355   6.445 -0.2998  0.0095  0.1972
 6647SOL    HW231575   3.267   3.498   6.437  3.5425  1.2174  1.3191
 6648SOL     OW31576   1.925   0.442   5.992 -0.1218  0.2769  0.3348
 6648SOL    HW131577   1.908   0.533   5.971 -0.3026  0.0740 -0.4252
 6648SOL    HW231578   1.917   0.402   5.905  1.1823  0.6143  0.0584
 6649SOL     OW31579   3.808   3.738   1.924 -0.0486  0.2628  0.3054
 6649SOL    HW131580   3.839   3.649   1.938 -0.0841  0.6622  3.0709
 6649SOL    HW231581   3.891   3.786   1.926  0.0930  0.0018  0.9359
 6650SOL     OW31582   0.966   1.087   8.438 -0.1204  0.0059  0.1436
 6650SOL    HW131583   0.971   1.126   8.350  2.1375 -0.5614  0.0073
 6650SOL    HW231584   1.057   1.056   8.443 -0.2351 -0.3054  0.2675
 6651SOL     OW31585   4.581   1.579   9.345 -0.3274 -0.1022  0.0823
 6651SOL    HW131586   4.654   1.541   9.393 -0.3711  2.4766  2.1454
 6651SOL    HW231587   4.510   1.535   9.392 -1.0125  0.7014 -0.1882
 6652SOL     OW31588   0.626   2.861   6.950 -0.1669 -0.4281 -0.5468
 6652SOL    HW131589   0.594   2.786   7.000 -0.0871  0.1585  0.3815
 6652SOL    HW231590   0.713   2.826   6.929  0.0991  0.6311 -1.2068
 6653SOL     OW31591   4.468   4.372   0.663 -0.7332  0.1121 -0.0796
 6653SOL    HW131592   4.482   4.430   0.738 -0.3648 -2.5923  1.9581
 6653SOL    HW231593   4.527   4.417   0.603  1.0038  1.1284  2.3594
 6654SOL     OW31594   2.886   0.650   3.320  0.2145  0.0102 -0.1418
 6654SOL    HW131595   2.964   0.610   3.281  0.1012  0.8738 -1.2524
 6654SOL    HW231596   2.870   0.709   3.246 -0.3719  0.8020  0.6173
 6655SOL     OW31597   0.231   3.043   3.919  0.1831 -0.3843  0.2916
 6655SOL    HW131598   0.238   3.007   4.007  1.0432 -2.7300 -0.7262
 6655SOL    HW231599   0.258   2.971   3.862 -0.2036 -2.2987  2.5236
 6656SOL     OW31600   4.216   1.743  10.116  0.2712 -0.1326  0.2536
 6656SOL    HW131601   4.275   1.819  10.116 -1.9337  1.5670 -0.6681
 6656SOL    HW231602   4.228   1.709  10.205  1.9661  0.5208  0.2862
 6657SOL     OW31603   1.578   2.129   2.231 -0.0909  0.5188 -0.4243
 6657SOL    HW131604   1.599   2.044   2.194  0.3971 -0.4618  2.1177
 6657SOL    HW231605   1.544   2.100   2.316 -2.4964  1.2969 -1.1207
 6658SOL     OW31606   0.340   3.654   9.742  0.3193  0.2903  0.3851
 6658SOL    HW131607   0.360   3.563   9.722 -0.8816 -0.0056  0.5437
 6658SOL    HW231608   0.385   3.667   9.826  1.4821  1.5730 -0.4402
 6659SOL     OW31609   2.602   1.785  14.025 -0.3965 -0.7593 -0.1159
 6659SOL    HW131610   2.624   1.812  14.115 -0.2483  0.3594 -0.4886
 6659SOL    HW231611   2.522   1.735  14.043 -1.3639  1.2299  1.1401
 6660SOL     OW31612   0.249   0.599   3.519 -0.5585  0.0500 -0.1584
 6660SOL    HW131613   0.219   0.689   3.526 -0.5210  0.0873 -0.4848
 6660SOL    HW231614   0.291   0.597   3.605  0.0150 -1.3774 -0.4673
 6661SOL     OW31615   2.872   2.391   1.176  0.0442  0.2679  0.3687
 6661SOL    HW131616   2.947   2.341   1.145 -0.4605 -0.1616 -0.1597
 6661SOL    HW231617   2.897   2.394   1.269 -0.0991 -0.7858  0.4455
 6662SOL     OW31618   3.027   3.707   0.514  0.1152 -0.5151  0.0576
 6662SOL    HW131619   3.084   3.753   0.575  0.4022 -1.8995  0.8251
 6662SOL    HW231620   3.008   3.776   0.450 -2.1879 -0.9596  0.2390
 6663SOL     OW31621   4.030   0.744  10.256  0.2583  0.3290  0.0702
 6663SOL    HW131622   4.083   0.818  10.224 -1.2114  0.6712 -1.6014
 6663SOL    HW231623   4.029   0.762  10.350  2.6114  0.6642  0.0239
 6664SOL     OW31624   2.494   0.517   2.050  0.0458  0.4388  0.3656
 6664SOL    HW131625   2.578   0.475   2.071  0.2002  0.4902 -0.1461
 6664SOL    HW231626   2.438   0.440   2.061  1.2424 -0.7662 -1.9359
 6665SOL     OW31627   2.618   2.916  13.154 -0.0592 -0.1055 -0.7147
 6665SOL    HW131628   2.600   2.995  13.206  0.5518 -0.9656  0.8026
 6665SOL    HW231629   2.651   2.853  13.218 -0.8838  1.4032  1.1749
 6666SOL     OW31630   1.765   3.139  14.598  0.2495  0.4819 -0.3685
 6666SOL    HW131631   1.742   3.228  14.624 -0.2611 -0.5501  2.7108
 6666SOL    HW231632   1.697   3.095  14.649  1.0052  0.1493  0.3549
 6667SOL     OW31633   1.845   3.963   3.906  0.2544 -0.6040  0.0250
 6667SOL    HW131634   1.795   3.887   3.933 -0.0145 -0.9794 -1.5109
 6667SOL    HW231635   1.915   3.961   3.970  1.8864 -2.2095 -1.8107
 6668SOL     OW31636   3.920   4.275  10.839 -0.3280 -0.1625  0.3636
 6668SOL    HW131637   3.890   4.293  10.928  2.1408  0.3103  1.1075
 6668SOL    HW231638   3.843   4.293  10.785  0.9907  0.1378 -1.3889
 6669SOL     OW31639   4.396   3.081  14.518 -0.0211 -0.1772  0.3403
 6669SOL    HW131640   4.374   2.992  14.489  1.4007 -0.9516  1.5815
 6669SOL    HW231641   4.397   3.138  14.442 -1.3868  1.0072  1.2103
 6670SOL     OW31642   2.808   3.972  14.864 -0.0481  0.2768 -0.2335
 6670SOL    HW131643   2.839   3.912  14.795 -1.3130 -0.9121  0.2289
 6670SOL    HW231644   2.746   4.024  14.814 -0.5996 -0.5699 -0.4354
 6671SOL     OW31645   0.623   3.266   8.460 -0.2898 -0.2798  0.6015
 6671SOL    HW131646   0.597   3.358   8.461  1.3587  0.1835 -0.6771
 6671SOL    HW231647   0.717   3.268   8.447 -0.2278 -1.0880  0.9380
 6672SOL     OW31648   4.543   1.773   1.681  0.0644 -0.1758  0.2072
 6672SOL    HW131649   4.537   1.825   1.601  0.6253  0.5994  0.6679
 6672SOL    HW231650   4.486   1.816   1.745 -0.1273  1.2868 -0.9280
 6673SOL     OW31651   0.300   1.176  11.659  0.1671 -0.4732 -0.1174
 6673SOL    HW131652   0.225   1.166  11.601 -0.7368  1.6473  0.6729
 6673SOL    HW231653   0.349   1.245  11.614 -0.1744  1.3321  2.2380
 6674SOL     OW31654   4.417   3.295   8.295  0.3073  0.1297  0.5237
 6674SOL    HW131655   4.331   3.253   8.285 -0.1267  0.6632  1.9562
 6674SOL    HW231656   4.398   3.388   8.307  1.6956  0.5636 -0.6800
 6675SOL     OW31657   1.648   2.470   1.840  0.3427 -0.0783 -0.0274
 6675SOL    HW131658   1.602   2.498   1.919 -0.6748  0.2021 -0.7303
 6675SOL    HW231659   1.636   2.553   1.794  1.0434  0.2460  0.3711
 6676SOL     OW31660   0.465   3.588  16.547 -0.0357 -0.3252  0.0750
 6676SOL    HW131661   0.487   3.512  16.494 -0.2537 -0.5348  0.2868
 6676SOL    HW231662   0.401   3.563  16.613 -0.8324  1.8743  0.1235
 6677SOL     OW31663   3.172   0.316   5.543 -0.4110 -0.4136 -0.1595
 6677SOL    HW131664   3.138   0.337   5.630  1.0600  0.1999  0.2700
 6677SOL    HW231665   3.200   0.226   5.558 -0.3416 -0.7372 -2.1519
 6678SOL     OW31666   4.260   0.034  11.951 -0.1738 -0.4374  0.5711
 6678SOL    HW131667   4.227   0.088  11.879 -0.1898 -2.0454 -0.6008
 6678SOL    HW231668   4.338   0.004  11.904  0.6200  0.6433  1.1974
 6679SOL     OW31669   2.671   2.128   8.005 -0.1498 -0.1538 -0.2145
 6679SOL    HW131670   2.669   2.218   8.036  0.0459 -0.7912  1.6328
 6679SOL    HW231671   2.710   2.134   7.918 -1.6577 -0.7378 -0.9426
 6680SOL     OW31672   3.215   1.623   9.745  0.1620 -0.4094  0.5914
 6680SOL    HW131673   3.310   1.611   9.738  0.2186  1.5051 -1.9311
 6680SOL    HW231674   3.187   1.537   9.775 -0.2862 -0.2812  0.5309
 6681SOL     OW31675   3.254   2.531  11.024 -0.0170 -0.1226  0.1086
 6681SOL    HW131676   3.186   2.482  10.978 -0.5011 -0.9799  1.7831
 6681SOL    HW231677   3.321   2.535  10.955  2.5142 -1.0073  2.5381
 6682SOL     OW31678   4.548   4.342  14.507  0.0267 -0.0776  0.1908
 6682SOL    HW131679   4.469   4.298  14.538 -0.2462 -0.7293 -1.4054
 6682SOL    HW231680   4.602   4.360  14.584 -0.0349 -2.5764  0.8092
 6683SOL     OW31681   4.302   4.615   2.330  0.0496  0.7780  0.4799
 6683SOL    HW131682   4.280   4.637   2.240 -0.4571 -0.6194  0.2541
 6683SOL    HW231683   4.215   4.638   2.364 -1.5992 -2.0189 -1.7960
 6684SOL     OW31684   3.027   1.601   8.689 -0.4900 -0.2894 -0.0254
 6684SOL    HW131685   3.098   1.552   8.731 -1.7277 -0.4922  1.8105
 6684SOL    HW231686   3.006   1.681   8.737 -0.6945  0.3276 -1.1233
 6685SOL     OW31687   2.202   4.357   6.490 -0.3197  0.7404 -0.4044
 6685SOL    HW131688   2.212   4.388   6.400  1.7654  1.5323  0.0993
 6685SOL    HW231689   2.249   4.419   6.545 -2.8971  2.3386  0.0060
 6686SOL     OW31690   0.664   0.889   7.842  0.6363  0.6882 -0.3085
 6686SOL    HW131691   0.610   0.962   7.872  0.9093  0.6020  0.3957
 6686SOL    HW231692   0.751   0.928   7.832  1.2029  0.0244  1.8053
 6687SOL     OW31693   2.274   0.723   1.260 -0.0461 -0.4425 -0.3001
 6687SOL    HW131694   2.195   0.671   1.273 -0.8675  0.6419 -0.8862
 6687SOL    HW231695   2.272   0.747   1.167 -0.3519  1.1461  0.1147
 6688SOL     OW31696   2.840   3.110   1.198 -0.0034  0.7478  0.3004
 6688SOL    HW131697   2.864   3.106   1.105 -1.0476  1.5577 -0.0005
 6688SOL    HW231698   2.925   3.094   1.238  0.9822  0.9614 -1.6732
 6689SOL     OW31699   2.188   1.320   5.948  0.5985 -0.6743  0.0805
 6689SOL    HW131700   2.163   1.334   6.039  1.0897 -1.2038  0.2980
 6689SOL    HW231701   2.102   1.316   5.906  0.0084  1.4336  1.1599
 6690SOL     OW31702   3.319   0.827   6.286  0.1011 -0.0672  0.3372
 6690SOL    HW131703   3.378   0.857   6.355 -1.1027  0.8683  0.9688
 6690SOL    HW231704   3.235   0.820   6.332 -0.6445  3.1531 -0.5488
 6691SOL     OW31705   3.986   0.002   4.929  0.0849 -0.7986  0.1377
 6691SOL    HW131706   3.938   4.657   4.915 -1.7246  0.2429  0.1748
 6691SOL    HW231707   4.051   4.724   4.861 -2.5624  1.8117 -2.9845
 6692SOL     OW31708   1.757   0.436   2.567 -0.2231 -0.4545 -0.1002
 6692SOL    HW131709   1.729   0.399   2.650 -0.8307 -0.0402 -0.1200
 6692SOL    HW231710   1.729   0.527   2.567  2.0313  0.2534  0.6386
 6693SOL     OW31711   4.254   1.106  17.220  0.2537  0.6290 -0.8785
 6693SOL    HW131712   4.334   1.153  17.196  1.6705 -0.6441  1.4149
 6693SOL    HW231713   4.258   1.029  17.164 -1.3511  0.7188 -1.1305
 6694SOL     OW31714   0.916   3.685   3.499 -0.1827 -0.9420  0.0623
 6694SOL    HW131715   0.987   3.644   3.449 -0.4919  1.8011 -2.6184
 6694SOL    HW231716   0.957   3.730   3.572  0.5825  0.6110 -1.3351
 6695SOL     OW31717   2.464   4.696   9.966  0.1242  0.3789  0.0493
 6695SOL    HW131718   2.389   4.640   9.987  0.5792 -1.0228 -2.0174
 6695SOL    HW231719   2.505   4.643   9.898 -1.0630 -0.8100  0.2579
 6696SOL     OW31720   4.409   1.105   2.701  0.2757  0.3238 -0.0224
 6696SOL    HW131721   4.414   1.064   2.614  1.0246  2.2881 -0.8911
 6696SOL    HW231722   4.413   1.034   2.765  1.0648 -0.6293 -1.1211
 6697SOL     OW31723   3.524   0.126   1.841  0.1179  0.3745  0.3124
 6697SOL    HW131724   3.435   0.149   1.815  0.2560 -0.1030 -0.5868
 6697SOL    HW231725   3.556   0.107   1.752 -0.8301  0.0169  0.0444
 6698SOL     OW31726   3.905   2.163   3.204 -0.4119 -0.8389  0.2719
 6698SOL    HW131727   3.850   2.121   3.270  0.2898 -1.8874  0.1955
 6698SOL    HW231728   3.967   2.205   3.264  1.8837  2.2872 -4.3024
 6699SOL     OW31729   1.035   2.169  13.858  0.1662  0.5438 -0.5409
 6699SOL    HW131730   0.998   2.093  13.903 -0.7211  1.1446 -0.2520
 6699SOL    HW231731   0.985   2.179  13.777  1.0563  0.0318 -1.1604
 6700SOL     OW31732   1.057   4.444   7.780  0.1680  0.1965  0.2926
 6700SOL    HW131733   0.967   4.446   7.746  0.0534  0.4413  0.6016
 6700SOL    HW231734   1.047   4.380   7.850  0.7112 -0.9274 -0.6616
 6701SOL     OW31735   4.407   3.124   7.549  0.1939 -0.4951  0.0965
 6701SOL    HW131736   4.414   3.167   7.634  0.0809  0.5033 -0.4083
 6701SOL    HW231737   4.337   3.178   7.512  1.1371 -0.1745 -1.2093
 6702SOL     OW31738   3.077   2.740  12.819 -0.1631 -0.4608 -0.0345
 6702SOL    HW131739   2.982   2.735  12.834 -0.5753  1.9548 -1.8500
 6702SOL    HW231740   3.084   2.652  12.783  0.2037  0.1327 -1.4096
 6703SOL     OW31741   0.444   3.844  16.460  0.3605 -0.5223 -0.0859
 6703SOL    HW131742   0.360   3.867  16.500  0.8418 -1.1941  1.3218
 6703SOL    HW231743   0.456   3.751  16.482 -0.4949 -0.4482  0.7211
 6704SOL     OW31744   2.385   4.311   7.735 -0.5439 -0.1176  0.0124
 6704SOL    HW131745   2.456   4.297   7.797 -0.1686 -0.2146 -0.4460
 6704SOL    HW231746   2.428   4.320   7.650 -0.4188 -0.3218  0.0534
 6705SOL     OW31747   0.044   3.709   6.311 -0.3639 -0.4796  0.3638
 6705SOL    HW131748   0.043   3.634   6.369 -0.6259 -0.6033  0.1981
 6705SOL    HW231749   0.138   3.712   6.292 -0.3971  0.2909  0.3223
 6706SOL     OW31750   3.183   4.368   7.404 -0.0317  0.0283  0.0753
 6706SOL    HW131751   3.239   4.339   7.332  1.1841  0.9104  0.6690
 6706SOL    HW231752   3.101   4.389   7.358  0.3618 -0.1792 -0.7242
 6707SOL     OW31753   0.768   3.037   9.140 -0.6977  0.3145  0.6026
 6707SOL    HW131754   0.798   3.127   9.127 -1.6735  0.3384 -1.5774
 6707SOL    HW231755   0.802   3.013   9.226  0.7209  1.1968  0.3027
 6708SOL     OW31756   3.410   4.716  17.578  0.8541  0.3743 -0.2649
 6708SOL    HW131757   3.437   0.003  17.490 -1.0257  3.4882  0.0290
 6708SOL    HW231758   3.455   4.631  17.586 -2.8552 -1.7117 -1.3340
 6709SOL     OW31759   1.545   0.514   2.895  0.1130 -0.5711 -0.2500
 6709SOL    HW131760   1.511   0.464   2.969  1.2919 -1.1324 -0.0791
 6709SOL    HW231761   1.463   0.535   2.850  1.3166  2.0277 -1.2365
 6710SOL     OW31762   1.406   3.376   9.125  0.1020 -0.1975  0.2490
 6710SOL    HW131763   1.497   3.348   9.113  0.7581  1.7141  0.5899
 6710SOL    HW231764   1.414   3.456   9.072  1.0302  0.0431  0.7429
 6711SOL     OW31765   2.518   0.735  11.036 -0.0612  0.0019 -0.6940
 6711SOL    HW131766   2.531   0.665  10.973  0.3894 -0.1507 -0.4352
 6711SOL    HW231767   2.460   0.697  11.102  0.8804  0.6015  0.4867
 6712SOL     OW31768   4.633   4.317   2.485  0.1248 -0.5139 -0.6529
 6712SOL    HW131769   4.571   4.385   2.511  2.6622  0.3592  3.0488
 6712SOL    HW231770   4.683   4.299   2.564 -1.7142 -0.1420  0.5748
 6713SOL     OW31771   0.729   3.430   3.283  0.1198  0.0108  0.1218
 6713SOL    HW131772   0.688   3.398   3.363  2.5076 -1.1355  0.9040
 6713SOL    HW231773   0.816   3.389   3.283  0.9825  1.8329 -0.8991
 6714SOL     OW31774   2.366   0.476  12.015  0.3953 -0.0524  0.6895
 6714SOL    HW131775   2.434   0.544  12.014 -0.1051  0.4398 -0.4773
 6714SOL    HW231776   2.383   0.453  11.924 -0.0043  1.2564  0.2830
 6715SOL     OW31777   1.170   1.722   8.569 -0.1957  0.3405 -0.0417
 6715SOL    HW131778   1.253   1.728   8.616  0.2472  1.4491 -0.9643
 6715SOL    HW231779   1.117   1.755   8.642  1.6467 -0.4768  1.6674
 6716SOL     OW31780   1.767   0.535   7.739 -0.0696  0.1407 -0.4130
 6716SOL    HW131781   1.735   0.618   7.774 -1.2404 -0.8661  0.8542
 6716SOL    HW231782   1.829   0.556   7.669  0.6111  2.7936  0.9734
 6717SOL     OW31783   3.235   1.669  15.759  0.5782  0.2676  0.0817
 6717SOL    HW131784   3.291   1.739  15.793  0.1270  0.7423 -0.1508
 6717SOL    HW231785   3.157   1.676  15.815 -0.9187  0.6442 -2.0685
 6718SOL     OW31786   4.216   2.747   4.990 -0.0634 -0.1506 -0.5628
 6718SOL    HW131787   4.309   2.726   5.003  0.1791  1.2409  0.0077
 6718SOL    HW231788   4.193   2.690   4.918 -1.8639  0.7867 -0.7258
 6719SOL     OW31789   1.436   3.178   1.154  0.0837  0.1414  0.2673
 6719SOL    HW131790   1.513   3.128   1.180  1.4729  1.3232 -1.6106
 6719SOL    HW231791   1.470   3.230   1.081 -1.0702  0.5547  0.0302
 6720SOL     OW31792   2.068   0.633   1.821 -0.7706  0.1405 -0.2656
 6720SOL    HW131793   2.058   0.553   1.872  0.9977 -0.3746 -0.7285
 6720SOL    HW231794   1.985   0.671   1.852 -1.2743  0.3602 -1.9215
 6721SOL     OW31795   3.198   4.731   0.228  0.8111 -0.3684  0.1224
 6721SOL    HW131796   3.206   4.643   0.190  3.0096 -0.9103  1.8090
 6721SOL    HW231797   3.105   4.728   0.252  0.8268 -2.5490 -0.1029
 6722SOL     OW31798   2.239   3.771   1.905 -0.0774  0.5161 -0.0833
 6722SOL    HW131799   2.295   3.728   1.840 -1.2497 -0.2202 -0.6008
 6722SOL    HW231800   2.156   3.762   1.859 -0.3834  0.5993  0.4459
 6723SOL     OW31801   1.655   2.231  13.864 -0.3432 -0.3370  0.2314
 6723SOL    HW131802   1.630   2.140  13.880  0.3334 -0.8413 -1.5934
 6723SOL    HW231803   1.689   2.225  13.775 -0.4219 -1.2783  0.2653
 6724SOL     OW31804   1.581   3.512   4.202  0.2218 -0.2208 -0.0413
 6724SOL    HW131805   1.593   3.472   4.116  0.2137 -0.9034  0.2788
 6724SOL    HW231806   1.525   3.588   4.184  0.0249 -0.1727  0.8130
 6725SOL     OW31807   2.222   4.164  11.956 -0.0424 -0.7955 -0.3604
 6725SOL    HW131808   2.195   4.073  11.961 -0.8593 -0.5479 -0.2987
 6725SOL    HW231809   2.316   4.181  11.946 -0.5739  1.6424 -1.1455
 6726SOL     OW31810   4.328   3.790   9.566 -0.4122  0.0565 -0.2461
 6726SOL    HW131811   4.347   3.696   9.566 -0.5587  0.0303 -1.8377
 6726SOL    HW231812   4.233   3.787   9.556 -0.6969  1.7471  1.9365
 6727SOL     OW31813   4.495   0.585   4.665 -0.3320  0.0734 -0.4839
 6727SOL    HW131814   4.478   0.499   4.702  2.3357  0.5681  1.8491
 6727SOL    HW231815   4.582   0.570   4.628  0.0798 -2.1905  1.4352
 6728SOL     OW31816   4.303   4.625   2.046  1.2797  0.2772 -0.6802
 6728SOL    HW131817   4.305   4.712   2.005  0.4130 -0.1025 -1.5304
 6728SOL    HW231818   4.386   4.584   2.023  0.4551 -1.7434 -0.0658
 6729SOL     OW31819   2.174   1.818   4.936  0.1773 -0.4664 -0.3202
 6729SOL    HW131820   2.205   1.785   5.021  2.3871 -0.5761 -1.1857
 6729SOL    HW231821   2.184   1.914   4.940  0.3787 -0.4942 -0.1375
 6730SOL     OW31822   2.273   1.469   2.869  0.3547  0.1849  0.1193
 6730SOL    HW131823   2.286   1.462   2.774 -1.0199  0.7400 -0.1052
 6730SOL    HW231824   2.187   1.431   2.888  1.1339 -1.1931  0.9152
 6731SOL     OW31825   1.910   4.000   4.206 -0.6114 -0.1986  0.7742
 6731SOL    HW131826   1.830   4.003   4.259 -1.7792 -0.4258 -0.9660
 6731SOL    HW231827   1.903   4.085   4.161  0.1043 -0.7399 -0.3593
 6732SOL     OW31828   1.318   2.734   6.286  0.2613 -0.2435 -0.2697
 6732SOL    HW131829   1.387   2.690   6.235 -1.3563  0.3539 -2.9700
 6732SOL    HW231830   1.328   2.823   6.253 -1.8365  0.2059  0.2937
 6733SOL     OW31831   0.703   4.480   4.961 -0.0898  0.2794 -0.0204
 6733SOL    HW131832   0.637   4.484   5.030 -1.3339 -0.2503 -1.1916
 6733SOL    HW231833   0.753   4.400   4.980  1.0155  0.8695 -0.4852
 6734SOL     OW31834   4.288   0.998   0.722  0.2449 -0.1404 -0.0818
 6734SOL    HW131835   4.321   1.069   0.776 -1.6014 -1.3888  2.7000
 6734SOL    HW231836   4.316   1.028   0.635  0.3343  0.9739  0.3324
 6735SOL     OW31837   3.245   1.141  12.786 -0.1950 -0.1203  0.1990
 6735SOL    HW131838   3.203   1.058  12.808 -3.3241  1.7408  1.4413
 6735SOL    HW231839   3.207   1.159  12.700  0.9813 -0.1568 -0.3122
 6736SOL     OW31840   0.488   2.575   2.668 -0.0313 -0.3300  0.0037
 6736SOL    HW131841   0.393   2.567   2.664  0.2420 -2.3790 -2.4390
 6736SOL    HW231842   0.504   2.628   2.590 -1.1823 -1.3780 -0.9466
 6737SOL     OW31843   2.480   2.303   7.266  0.2320 -0.4669 -1.0384
 6737SOL    HW131844   2.469   2.338   7.354 -1.7476 -2.8579 -0.3364
 6737SOL    HW231845   2.535   2.374   7.234  0.3101  1.1177  2.6374
 6738SOL     OW31846   1.189   3.852   2.836 -0.3090  0.1832  0.1082
 6738SOL    HW131847   1.143   3.920   2.786  0.1400  0.3801 -0.0374
 6738SOL    HW231848   1.246   3.906   2.892  0.4437 -2.1795  1.6059
 6739SOL     OW31849   2.928   4.684  14.857  0.6657 -0.4646 -0.2463
 6739SOL    HW131850   2.933   4.594  14.888  0.5677  0.2498  1.8428
 6739SOL    HW231851   2.982   4.687  14.778  2.9012  0.0307  1.2756
 6740SOL     OW31852   2.552   4.079   1.648 -0.3269 -0.2177  0.4361
 6740SOL    HW131853   2.630   4.082   1.704  0.3529 -0.8765 -0.4695
 6740SOL    HW231854   2.563   3.999   1.597  1.3342  0.2137  0.1083
 6741SOL     OW31855   0.213   3.576   3.742  0.0064 -0.8223 -0.4536
 6741SOL    HW131856   0.209   3.584   3.838 -0.1526  1.4748 -0.6461
 6741SOL    HW231857   0.300   3.537   3.733  0.6494  0.4604  0.2066
 6742SOL     OW31858   3.125   1.628   7.620 -0.2057  0.0214 -0.0469
 6742SOL    HW131859   3.174   1.579   7.685  0.6054  1.6646  0.5761
 6742SOL    HW231860   3.190   1.697   7.603 -0.3673 -0.0589 -1.0071
 6743SOL     OW31861   3.657   1.854   1.806 -0.3389 -0.0592 -1.3489
 6743SOL    HW131862   3.639   1.862   1.712 -1.0024  0.4288 -1.1756
 6743SOL    HW231863   3.602   1.779   1.828  0.5927  0.1237  1.5331
 6744SOL     OW31864   0.739   0.977   8.525  0.1071  0.0606  0.1889
 6744SOL    HW131865   0.733   1.027   8.606 -0.2412  1.0677 -0.4606
 6744SOL    HW231866   0.825   0.997   8.488 -0.1322  1.6210  0.4828
 6745SOL     OW31867   4.151   3.680   3.820 -0.0430 -0.1593 -0.2285
 6745SOL    HW131868   4.170   3.662   3.728 -1.3775  1.2402 -0.7774
 6745SOL    HW231869   4.190   3.767   3.825  1.5487 -0.9218  0.5693
 6746SOL     OW31870   4.549   3.600  17.599  0.2713  0.2813 -0.6464
 6746SOL    HW131871   4.599   3.670  17.641  1.2663  0.3257 -1.8663
 6746SOL    HW231872   4.565   3.618  17.506 -0.5463  0.0670 -0.8308
 6747SOL     OW31873   4.465   3.890  16.224  0.0786  0.4332  0.2964
 6747SOL    HW131874   4.427   3.969  16.185 -1.3009 -0.5913 -0.4730
 6747SOL    HW231875   4.468   3.831  16.149 -0.4102  0.6211  0.1257
 6748SOL     OW31876   1.956   3.241  12.138 -0.1960  0.3474 -0.1287
 6748SOL    HW131877   2.032   3.194  12.103  1.2751  0.9186  2.3415
 6748SOL    HW231878   1.969   3.330  12.105  1.6640  0.4396  0.8752
 6749SOL     OW31879   0.579   3.142   3.585  0.5748 -0.0169  0.2218
 6749SOL    HW131880   0.615   3.097   3.509 -0.5274  0.8125 -0.8079
 6749SOL    HW231881   0.516   3.078   3.617 -1.1148  0.3005 -2.3980
 6750SOL     OW31882   2.891   3.143   7.439  0.5429  0.1565  0.3612
 6750SOL    HW131883   2.928   3.119   7.523  1.5335 -1.4440 -0.5388
 6750SOL    HW231884   2.899   3.061   7.389  2.0294  0.7680 -0.4048
 6751SOL     OW31885   4.088   0.059   6.402  0.7083  0.1913 -0.2035
 6751SOL    HW131886   4.161   0.110   6.438 -0.6560  1.0555  1.3686
 6751SOL    HW231887   4.053   0.117   6.334  0.1305  1.1178  0.8730
 6752SOL     OW31888   1.418   3.784   3.497  0.0783  0.3385 -0.2639
 6752SOL    HW131889   1.386   3.795   3.586 -0.3633 -0.2443 -0.3513
 6752SOL    HW231890   1.338   3.804   3.449 -0.8370  1.7637  1.8638
 6753SOL     OW31891   1.044   0.180   0.792 -0.2115  0.1640 -0.1557
 6753SOL    HW131892   0.955   0.203   0.765 -0.6182 -3.1562 -1.7484
 6753SOL    HW231893   1.029   0.154   0.883  0.0171 -3.3882 -1.1108
 6754SOL     OW31894   2.505   1.163   0.491 -0.1232  0.3775 -0.1742
 6754SOL    HW131895   2.475   1.142   0.403  2.3861 -1.9854 -0.4683
 6754SOL    HW231896   2.541   1.251   0.485  1.4511 -0.0852  2.2994
 6755SOL     OW31897   2.970   1.906  12.149  0.2046  0.4094  0.4586
 6755SOL    HW131898   2.986   1.846  12.221 -1.9729 -0.4208  0.2559
 6755SOL    HW231899   3.062   1.915  12.122 -0.2865  0.6479 -1.1278
 6756SOL     OW31900   1.510   3.842   6.751  0.1874  0.0467 -0.4526
 6756SOL    HW131901   1.426   3.850   6.706 -0.8039 -1.2662  1.1680
 6756SOL    HW231902   1.531   3.934   6.767 -1.3282  0.4020 -0.5052
 6757SOL     OW31903   0.797   2.722   7.301 -0.0074  0.2056 -0.4410
 6757SOL    HW131904   0.873   2.777   7.282  1.2121 -1.6241 -0.9485
 6757SOL    HW231905   0.837   2.663   7.365  1.2791 -0.4055 -1.7965
 6758SOL     OW31906   3.333   2.230   4.312 -0.4363 -0.2274 -0.2693
 6758SOL    HW131907   3.281   2.302   4.346 -0.7676 -0.4492 -0.3078
 6758SOL    HW231908   3.417   2.260   4.347 -0.9264  0.6871  0.1254
 6759SOL     OW31909   2.759   0.512   8.023 -0.1235  0.0370 -0.4567
 6759SOL    HW131910   2.774   0.435   7.968 -0.2039  0.5346 -1.1770
 6759SOL    HW231911   2.840   0.562   8.013 -0.9578  1.3759 -0.4948
 6760SOL     OW31912   4.655   3.549   2.253 -0.0687 -0.3437  0.3687
 6760SOL    HW131913   4.712   3.513   2.185 -1.4726 -2.5665  0.3491
 6760SOL    HW231914   4.690   3.500   2.327 -1.4053  1.2668  2.0724
 6761SOL     OW31915   1.366   1.765  15.288 -0.1299 -0.1701  0.1338
 6761SOL    HW131916   1.279   1.766  15.250 -0.5035  1.9487  1.0217
 6761SOL    HW231917   1.357   1.678  15.327 -1.7155  0.6979  1.6854
 6762SOL     OW31918   2.439   4.731   7.951  0.5333 -0.6141 -0.0155
 6762SOL    HW131919   2.527   4.711   7.920  1.0696 -2.7163  2.9042
 6762SOL    HW231920   2.424   4.663   8.016  0.1135  0.6464  1.2145
 6763SOL     OW31921   4.380   3.945   0.927  0.2548  0.1554  0.2619
 6763SOL    HW131922   4.310   3.882   0.947 -0.1222  1.1542  2.1146
 6763SOL    HW231923   4.361   3.965   0.835  4.3110  1.2166 -0.3536
 6764SOL     OW31924   0.422   1.019   4.514 -0.8228 -0.1630  0.0751
 6764SOL    HW131925   0.445   1.088   4.576  0.3214 -0.4417 -0.0319
 6764SOL    HW231926   0.342   0.982   4.552 -1.3593 -0.1374 -1.0398
 6765SOL     OW31927   3.798   3.854  13.934 -0.4579  0.2519 -0.3274
 6765SOL    HW131928   3.775   3.771  13.892 -0.0658  0.0146 -0.0718
 6765SOL    HW231929   3.716   3.904  13.939  1.1240  2.9677 -1.4508
 6766SOL     OW31930   1.852   0.162   6.598 -0.6953  0.1338  0.1033
 6766SOL    HW131931   1.780   0.126   6.649 -0.2415  0.2493  0.8218
 6766SOL    HW231932   1.886   0.233   6.652 -0.8251  1.0893 -1.0445
 6767SOL     OW31933   1.599   1.403   4.614  0.6509  0.2393 -0.1360
 6767SOL    HW131934   1.560   1.372   4.532  1.1381 -0.4423 -0.1082
 6767SOL    HW231935   1.657   1.334   4.646  0.1301 -0.1216  0.0255
 6768SOL     OW31936   3.607   3.388  15.192 -0.2942  0.1385  0.5906
 6768SOL    HW131937   3.649   3.336  15.123  1.9209 -0.9576  2.7253
 6768SOL    HW231938   3.515   3.364  15.186 -0.3541  0.6492 -0.4448
 6769SOL     OW31939   1.275   3.015   4.587  0.5918 -0.3890 -0.2943
 6769SOL    HW131940   1.243   3.058   4.507  1.8092  2.3744  0.6862
 6769SOL    HW231941   1.368   3.006   4.565  0.5115 -1.2288 -0.2753
 6770SOL     OW31942   0.557   0.667   0.192  0.1660  0.2586  0.0614
 6770SOL    HW131943   0.466   0.646   0.175  0.2280 -0.0588  0.1080
 6770SOL    HW231944   0.575   0.657   0.286  0.2877  2.4216  0.2694
 6771SOL     OW31945   2.939   0.855   1.870  0.2652  0.0707  0.0150
 6771SOL    HW131946   3.029   0.826   1.858  0.4461 -0.5941  2.8282
 6771SOL    HW231947   2.898   0.778   1.909  0.8408  0.1360  0.7652
 6772SOL     OW31948   2.149   3.225   7.340 -0.1534  0.0322  0.1125
 6772SOL    HW131949   2.142   3.320   7.335  0.8381  0.0096 -1.9404
 6772SOL    HW231950   2.110   3.192   7.421  0.1347  0.6349  0.4935
 6773SOL     OW31951   3.921   1.148   3.210 -0.9026  0.4073  0.2549
 6773SOL    HW131952   3.908   1.186   3.297  0.5803  1.6877 -0.0740
 6773SOL    HW231953   3.912   1.225   3.153 -1.4968 -0.6737 -1.0908
 6774SOL     OW31954   1.216   1.158   7.511  0.5776  0.5331  0.0585
 6774SOL    HW131955   1.239   1.089   7.449 -1.0047  1.4483 -1.5274
 6774SOL    HW231956   1.306   1.184   7.532  1.2545 -0.3575 -1.7832
 6775SOL     OW31957   4.168   2.425   3.540  0.5425  0.0001  0.1656
 6775SOL    HW131958   4.237   2.376   3.585 -0.5877 -1.9016 -0.1766
 6775SOL    HW231959   4.184   2.512   3.577 -1.0287  0.2553  0.2386
 6776SOL     OW31960   3.561   3.159   1.258  0.4488 -0.2743 -0.1748
 6776SOL    HW131961   3.539   3.104   1.183 -2.7204  0.9586 -0.1443
 6776SOL    HW231962   3.594   3.241   1.222  3.7760 -1.1140  1.0212
 6777SOL     OW31963   0.140   1.004   5.427 -0.3427 -0.0663  0.3953
 6777SOL    HW131964   0.118   1.052   5.348 -1.2534 -2.9462 -1.1013
 6777SOL    HW231965   0.058   0.960   5.449 -0.3565  0.2241  0.9351
 6778SOL     OW31966   2.256   3.110   4.975 -0.2817 -0.0373 -0.4690
 6778SOL    HW131967   2.325   3.152   4.923 -0.4845 -0.2945 -0.9402
 6778SOL    HW231968   2.221   3.190   5.015  0.9747 -1.7798  4.1610
 6779SOL     OW31969   4.733   2.350   5.089 -0.2629  0.2431 -0.5638
 6779SOL    HW131970   4.727   2.366   4.995 -1.7546  1.2042 -0.3088
 6779SOL    HW231971   0.089   2.325   5.091 -0.2263  0.4675  0.9802
 6780SOL     OW31972   3.694   3.131   1.888  0.1788 -0.4282  0.0839
 6780SOL    HW131973   3.747   3.205   1.858  1.8625 -1.1907  1.2037
 6780SOL    HW231974   3.657   3.096   1.807 -3.3648  1.7861  0.7240
 6781SOL     OW31975   3.091   1.380   4.679 -0.1925  0.7871 -0.2465
 6781SOL    HW131976   2.999   1.356   4.694  0.4691  0.5354  3.4055
 6781SOL    HW231977   3.130   1.373   4.766 -0.7510  1.1611  0.0361
 6782SOL     OW31978   1.746   1.741   2.905 -0.1429 -0.1922  0.0347
 6782SOL    HW131979   1.781   1.799   2.973  0.9111 -1.9629  0.9948
 6782SOL    HW231980   1.830   1.699   2.888  0.0897  0.5141 -0.5652
 6783SOL     OW31981   1.335   2.637   6.540  0.6183 -0.2893  0.1492
 6783SOL    HW131982   1.315   2.658   6.449 -2.1094  0.9863  1.0394
 6783SOL    HW231983   1.425   2.609   6.526  0.5982  0.7257 -2.0391
 6784SOL     OW31984   2.020   1.642  15.554  0.2790  0.1948 -0.7692
 6784SOL    HW131985   2.021   1.605  15.466  1.4699 -1.1915 -0.1604
 6784SOL    HW231986   2.112   1.658  15.574  0.7231 -1.8849 -1.2454
 6785SOL     OW31987   0.379   1.666  10.061 -0.2343  0.3247 -0.2032
 6785SOL    HW131988   0.330   1.588  10.035  1.8721 -1.1381  0.1823
 6785SOL    HW231989   0.462   1.658  10.014  0.1807  1.1668  0.3787
 6786SOL     OW31990   4.613   3.360   0.006  0.5317 -0.3409  0.0918
 6786SOL    HW131991   4.581   3.416  17.682 -0.0432 -1.8989 -0.8886
 6786SOL    HW231992   4.570   3.277  17.736  1.2597 -0.7096  0.0451
 6787SOL     OW31993   2.411   1.009  11.829  0.2904 -0.0396  0.3211
 6787SOL    HW131994   2.473   1.081  11.831  1.2043 -0.9196  3.1721
 6787SOL    HW231995   2.339   1.031  11.887 -0.3598 -1.4050  0.0336
 6788SOL     OW31996   3.711   0.981  14.667 -0.2705  0.7359  0.3158
 6788SOL    HW131997   3.660   0.955  14.591 -1.6159  1.0973  1.0941
 6788SOL    HW231998   3.673   0.919  14.729  0.0400 -2.0252 -2.2590
 6789SOL     OW31999   4.730   1.386  17.687 -0.0757  0.0741  0.2128
 6789SOL    HW132000   4.714   1.462  17.632 -1.4044  1.2952  2.2641
 6789SOL    HW232001   0.080   1.357  17.660  0.5331  1.4960  0.6564
 6790SOL     OW32002   0.220   2.400   5.625 -0.1072 -0.1786  0.4623
 6790SOL    HW132003   0.139   2.354   5.646  0.8231 -2.4564 -0.9910
 6790SOL    HW232004   0.188   2.487   5.650  1.7432  1.1202 -1.5752
 6791SOL     OW32005   2.361   3.639  13.657  0.1866  0.2393 -0.7370
 6791SOL    HW132006   2.440   3.595  13.626  1.7401  1.2790  1.7632
 6791SOL    HW232007   2.295   3.579  13.620 -0.2724  0.1711  0.1744
 6792SOL     OW32008   0.687   1.051   5.585 -0.4744 -0.0934 -0.0828
 6792SOL    HW132009   0.715   1.022   5.499  0.2989  1.7342 -0.4420
 6792SOL    HW232010   0.596   1.072   5.562 -0.7626 -0.6645  0.5151
 6793SOL     OW32011   4.164   2.677   7.528 -0.3865 -0.5012  0.1337
 6793SOL    HW132012   4.233   2.715   7.473 -0.8841  0.0818 -0.0850
 6793SOL    HW232013   4.160   2.589   7.492  1.0148 -1.0949  1.4164
 6794SOL     OW32014   1.457   1.235   1.677  0.2480 -0.4694  0.1222
 6794SOL    HW132015   1.408   1.270   1.752  2.9773 -0.9668  2.1619
 6794SOL    HW232016   1.450   1.305   1.612 -2.1176 -0.8264  0.0149
 6795SOL     OW32017   1.506   0.697   6.755 -0.4721 -0.2713  0.8823
 6795SOL    HW132018   1.527   0.789   6.772 -1.8341  0.4657 -1.4539
 6795SOL    HW232019   1.432   0.688   6.816 -1.3946 -1.9628 -0.4547
 6796SOL     OW32020   0.647   2.635   5.690  0.0581  0.0466 -0.2510
 6796SOL    HW132021   0.681   2.646   5.779 -1.0914  1.9473 -0.0450
 6796SOL    HW232022   0.608   2.547   5.698  3.8750 -1.5061  1.3724
 6797SOL     OW32023   2.889   2.766   3.982 -0.8316 -0.1632 -0.2585
 6797SOL    HW132024   2.927   2.798   4.064  2.1035 -2.0720 -0.8827
 6797SOL    HW232025   2.796   2.773   4.002 -0.7028 -0.2208  0.3699
 6798SOL     OW32026   0.230   2.689   3.327  0.0760 -0.3091  0.2670
 6798SOL    HW132027   0.141   2.725   3.334  1.6667  4.0095 -1.4200
 6798SOL    HW232028   0.220   2.594   3.325 -0.7115 -0.2418  0.7304
 6799SOL     OW32029   1.253   0.826   4.483  0.2225 -0.2194 -0.3022
 6799SOL    HW132030   1.185   0.856   4.543  1.2189 -1.1574  1.3019
 6799SOL    HW232031   1.322   0.884   4.516  1.0973 -0.3281 -1.9368
 6800SOL     OW32032   3.745   0.792   4.579  0.2771 -0.3124  0.4629
 6800SOL    HW132033   3.824   0.738   4.586  0.1893 -0.6688 -1.2546
 6800SOL    HW232034   3.725   0.784   4.486  0.0009 -1.2140  0.5972
 6801SOL     OW32035   2.174   4.642   7.628  0.2291 -0.1119  0.0929
 6801SOL    HW132036   2.154   4.654   7.535 -1.9667 -0.0313  0.5765
 6801SOL    HW232037   2.179   4.547   7.635 -1.0109 -0.1783  0.1700
 6802SOL     OW32038   3.744   1.003   8.544  0.6540 -1.0122 -0.5552
 6802SOL    HW132039   3.774   1.037   8.460 -0.8599  0.5165 -0.4705
 6802SOL    HW232040   3.823   0.955   8.568  0.7854 -0.8294 -0.6296
 6803SOL     OW32041   0.146   3.487  11.699 -0.0755  0.3702 -1.0849
 6803SOL    HW132042   0.061   3.530  11.695  0.7276  1.9141 -1.3833
 6803SOL    HW232043   0.209   3.551  11.666  1.3109 -0.9029 -0.9042
 6804SOL     OW32044   3.881   0.112   7.512  0.1105 -0.0986  0.2271
 6804SOL    HW132045   3.928   0.155   7.584 -0.6635 -1.0511  1.3037
 6804SOL    HW232046   3.820   0.061   7.566  0.1238 -0.0246  0.3125
 6805SOL     OW32047   2.027   0.736   4.915  0.3446 -0.0772 -0.1174
 6805SOL    HW132048   2.053   0.792   4.988  1.4865  0.2914 -0.7982
 6805SOL    HW232049   1.962   0.691   4.969  0.5730 -0.6114 -0.2785
 6806SOL     OW32050   1.671   3.937   4.298 -0.0402  0.0958 -0.5501
 6806SOL    HW132051   1.625   3.978   4.225  1.2531 -1.3037 -2.1281
 6806SOL    HW232052   1.597   3.885   4.329 -0.3270  0.8573  0.0758
 6807SOL     OW32053   0.686   0.485  13.418  0.6342 -0.1889 -1.1689
 6807SOL    HW132054   0.769   0.497  13.372  0.1427  1.7296 -1.5458
 6807SOL    HW232055   0.680   0.567  13.466 -0.3001 -1.3984  0.8099
 6808SOL     OW32056   0.164   2.909  12.636  0.2374  0.2126 -0.0851
 6808SOL    HW132057   0.208   2.974  12.581 -0.9668  2.7573  1.9514
 6808SOL    HW232058   0.196   2.832  12.590  2.0089 -0.8855  2.9965
 6809SOL     OW32059   3.397   0.919   4.456 -0.0900  0.1051  0.3376
 6809SOL    HW132060   3.304   0.916   4.476 -0.6387  1.7123 -1.9039
 6809SOL    HW232061   3.387   0.956   4.368  0.8993  0.5809  0.4217
 6810SOL     OW32062   1.548   3.541   2.006 -0.4584  1.1237  0.1243
 6810SOL    HW132063   1.498   3.558   1.927  0.2254 -0.9296 -0.7629
 6810SOL    HW232064   1.491   3.489   2.063  0.1588  2.1813  1.6938
 6811SOL     OW32065   3.462   0.119   8.659 -0.1047  0.4087 -0.3030
 6811SOL    HW132066   3.421   0.159   8.735 -1.7102  0.4461 -1.1947
 6811SOL    HW232067   3.397   0.151   8.597 -0.6265  0.0952  0.0866
 6812SOL     OW32068   2.482   2.249   7.720 -0.2400  0.0756  0.0971
 6812SOL    HW132069   2.489   2.264   7.814 -3.8985  0.1945  0.3650
 6812SOL    HW232070   2.561   2.295   7.692  0.6917 -0.6589  1.4860
 6813SOL     OW32071   1.291   2.211   6.643 -0.1787 -0.4613  0.4525
 6813SOL    HW132072   1.334   2.189   6.561  1.4117  0.7577  0.9713
 6813SOL    HW232073   1.369   2.233   6.694  0.1518  0.1817 -0.3376
 6814SOL     OW32074   2.323   2.003   1.461  0.2957  0.1246 -0.3293
 6814SOL    HW132075   2.295   2.094   1.476 -1.0510 -0.1490 -1.1107
 6814SOL    HW232076   2.247   1.960   1.502  1.5208  0.6332  2.4722
 6815SOL     OW32077   0.378   4.018  16.257 -0.2760  0.0038 -0.2821
 6815SOL    HW132078   0.405   3.956  16.325  2.1795 -0.2703 -1.5427
 6815SOL    HW232079   0.414   3.982  16.177  0.3985  2.9870 -1.3140
 6816SOL     OW32080   2.661   1.653   8.386 -0.2323 -0.6225 -0.2458
 6816SOL    HW132081   2.704   1.577   8.347  0.2205 -0.5095  0.0316
 6816SOL    HW232082   2.569   1.636   8.409 -0.6641  3.0327  0.6436
 6817SOL     OW32083   3.091   0.608   8.797 -0.2180  0.3114  0.3531
 6817SOL    HW132084   3.170   0.626   8.747 -0.5111 -0.7546 -0.4771
 6817SOL    HW232085   3.120   0.629   8.886 -0.6040 -0.1108  0.5794
 6818SOL     OW32086   3.460   1.868   3.630  0.4181 -0.4386 -0.0870
 6818SOL    HW132087   3.404   1.879   3.553 -0.8473 -0.5572  0.8128
 6818SOL    HW232088   3.398   1.807   3.672  0.9142  0.3974  1.8444
 6819SOL     OW32089   2.725   2.088   3.979 -0.0548  0.5187  0.1432
 6819SOL    HW132090   2.797   2.066   3.919 -1.4462  0.8908 -1.6592
 6819SOL    HW232091   2.720   2.007   4.028  2.6379  0.7676  0.8263
 6820SOL     OW32092   3.572   0.855   9.990  0.0598 -0.0648 -0.3455
 6820SOL    HW132093   3.656   0.838   9.948  0.1436  0.7267 -0.4975
 6820SOL    HW232094   3.548   0.767  10.019 -0.2137 -0.0985 -0.6633
 6821SOL     OW32095   4.363   3.683  17.208 -0.1256 -0.2849 -0.0075
 6821SOL    HW132096   4.375   3.611  17.269  0.8141 -0.0522  0.0851
 6821SOL    HW232097   4.301   3.739  17.254 -0.2647 -0.5518  0.1269
 6822SOL     OW32098   3.077   4.595  12.238  0.4706  0.7149 -0.7798
 6822SOL    HW132099   3.157   4.618  12.286 -0.4650  1.3377  0.4576
 6822SOL    HW232100   3.016   4.664  12.262  2.0496  0.3347  4.3715
 6823SOL     OW32101   2.123   4.049  13.190 -0.0277  0.2318 -0.0789
 6823SOL    HW132102   2.104   4.112  13.259  0.5232 -1.3212  1.4933
 6823SOL    HW232103   2.100   3.972  13.243 -2.1784 -1.3332 -3.3018
 6824SOL     OW32104   1.335   2.127  14.636 -0.0144  0.2207  0.0208
 6824SOL    HW132105   1.325   2.108  14.729  0.3968  1.3346  0.2882
 6824SOL    HW232106   1.282   2.205  14.618  0.5363  0.0469 -2.3309
 6825SOL     OW32107   0.934   1.568   2.453  0.6081 -0.2126 -0.0331
 6825SOL    HW132108   0.973   1.498   2.506  0.1473 -0.7455 -0.4036
 6825SOL    HW232109   1.010   1.625   2.447  0.0282  0.4802 -0.8428
 6826SOL     OW32110   2.969   1.131   2.031 -0.4486  0.1165  0.5255
 6826SOL    HW132111   2.876   1.134   2.052 -0.8864 -0.9947 -1.2854
 6826SOL    HW232112   2.972   1.062   1.964 -1.7782  0.0121  0.5838
 6827SOL     OW32113   4.611   2.577   6.030 -0.5654 -0.5938 -0.1900
 6827SOL    HW132114   4.590   2.573   5.937  0.1860 -0.1338 -0.3818
 6827SOL    HW232115   4.678   2.509   6.038 -1.2104 -1.2680 -0.5103
 6828SOL     OW32116   1.219   0.156   1.386 -0.6520 -0.5125  0.4055
 6828SOL    HW132117   1.297   0.195   1.346 -0.4926 -1.6295 -0.3601
 6828SOL    HW232118   1.176   0.146   1.301 -0.3061  0.9907  0.0562
 6829SOL     OW32119   1.103   3.897  15.815 -0.6892  0.1899 -0.2482
 6829SOL    HW132120   1.135   3.826  15.869  1.7079  0.5201 -1.2209
 6829SOL    HW232121   1.125   3.972  15.871  1.0744  1.8229 -3.0881
 6830SOL     OW32122   2.510   2.471   2.922 -0.2712 -0.4550  0.2020
 6830SOL    HW132123   2.452   2.414   2.973 -1.9038  0.1271 -1.0192
 6830SOL    HW232124   2.463   2.552   2.904 -0.4674 -0.1516  2.0502
 6831SOL     OW32125   3.620   4.614   5.953  0.3955  0.0490 -0.0250
 6831SOL    HW132126   3.596   4.637   6.043  1.5740  2.5336 -0.3428
 6831SOL    HW232127   3.556   4.543   5.948  0.6211  0.0097 -2.3367
 6832SOL     OW32128   2.990   2.468  14.474 -0.1686  1.0994  0.0285
 6832SOL    HW132129   2.909   2.514  14.499 -2.1894 -2.5057  0.2036
 6832SOL    HW232130   2.947   2.391  14.437  3.3941  0.6459 -3.1909
 6833SOL     OW32131   3.288   3.726   5.553 -0.3061  0.3063  0.1845
 6833SOL    HW132132   3.356   3.664   5.580 -1.3138 -0.1120  1.7571
 6833SOL    HW232133   3.217   3.671   5.520 -0.3657 -0.2000  1.1551
 6834SOL     OW32134   1.307   1.678  13.900  0.0780  0.3034  0.3460
 6834SOL    HW132135   1.218   1.646  13.913  0.5718 -0.7187  1.2160
 6834SOL    HW232136   1.297   1.762  13.945  0.7535 -0.0866  1.2228
 6835SOL     OW32137   4.723   4.432  12.995 -0.3543  0.2997  0.3499
 6835SOL    HW132138   0.019   4.521  12.981  1.4867 -0.2106  1.4556
 6835SOL    HW232139   4.716   4.403  12.904 -0.3568 -0.8627  0.7192
 6836SOL     OW32140   4.638   3.988   8.101 -0.4086 -0.4175 -0.5749
 6836SOL    HW132141   4.618   3.928   8.029 -0.5425 -1.4531  0.3380
 6836SOL    HW232142   4.675   3.920   8.157 -1.1373  0.3462  0.8090
 6837SOL     OW32143   2.664   1.748   0.685  0.1752 -0.2074  0.1528
 6837SOL    HW132144   2.601   1.782   0.623 -1.8396  0.2692  2.4473
 6837SOL    HW232145   2.639   1.800   0.761 -2.1284  1.8031 -2.0302
 6838SOL     OW32146   4.392   3.819   4.963 -0.2958 -0.0537 -0.1320
 6838SOL    HW132147   4.350   3.734   4.973  0.0753 -0.4865 -2.2045
 6838SOL    HW232148   4.315   3.875   4.952 -0.2376  0.0321 -0.0963
 6839SOL     OW32149   2.900   3.346   2.353  0.0111  0.3688 -0.0408
 6839SOL    HW132150   2.830   3.407   2.375  2.4072  1.9827  3.1936
 6839SOL    HW232151   2.914   3.312   2.442 -0.7153  0.4201  0.0895
 6840SOL     OW32152   2.608   1.686  10.794  0.3652 -0.2067  0.1126
 6840SOL    HW132153   2.665   1.611  10.808  0.5301 -0.1101 -0.0405
 6840SOL    HW232154   2.603   1.718  10.884  0.7368  1.5841 -0.4978
 6841SOL     OW32155   2.153   1.319   5.568 -0.5524  0.3013 -0.2677
 6841SOL    HW132156   2.083   1.266   5.531 -0.2538 -0.3567  0.1175
 6841SOL    HW232157   2.198   1.261   5.629 -2.8239 -1.4506 -0.2729
 6842SOL     OW32158   0.814   1.709   4.424 -0.6785  0.1999 -1.0906
 6842SOL    HW132159   0.883   1.670   4.478 -0.8889  1.3176 -0.0261
 6842SOL    HW232160   0.849   1.683   4.338 -1.8855  0.1497 -1.5637
 6843SOL     OW32161   1.613   3.045  14.363  0.0703 -0.0310  0.1256
 6843SOL    HW132162   1.545   3.112  14.370  1.2754  0.9581  2.4031
 6843SOL    HW232163   1.673   3.086  14.426  0.1321  0.4248 -0.2245
 6844SOL     OW32164   2.331   3.800   9.254 -0.3086  0.5842 -0.0337
 6844SOL    HW132165   2.266   3.739   9.217  0.8623  0.9202 -2.6511
 6844SOL    HW232166   2.303   3.791   9.345  0.4401  1.2355  0.2589
 6845SOL     OW32167   0.113   1.148   2.170 -0.0556 -0.2095 -0.3187
 6845SOL    HW132168   0.193   1.142   2.222  1.0428  0.6665 -1.9386
 6845SOL    HW232169   0.146   1.137   2.082  1.5754  0.9029  0.1650
 6846SOL     OW32170   1.609   4.657   5.549 -0.0154 -0.1087 -0.4276
 6846SOL    HW132171   1.638   4.565   5.550 -2.4115 -0.8310  1.9961
 6846SOL    HW232172   1.656   4.700   5.478 -1.0232  0.0555 -0.9979
 6847SOL     OW32173   1.299   3.915   7.857  0.1619  0.0853  0.3391
 6847SOL    HW132174   1.230   3.928   7.792  0.4405 -1.6636 -0.3208
 6847SOL    HW232175   1.351   3.989   7.830  2.8814 -0.6395  3.6066
 6848SOL     OW32176   2.337   2.208  11.488 -0.4849  0.2313  0.0782
 6848SOL    HW132177   2.296   2.212  11.402  0.9824  1.5390 -0.5692
 6848SOL    HW232178   2.406   2.142  11.475 -1.0485 -0.4587  0.5830
 6849SOL     OW32179   2.279   0.764  13.827  0.0332  0.1587  0.1521
 6849SOL    HW132180   2.328   0.819  13.888  0.3731 -0.7100  0.6770
 6849SOL    HW232181   2.220   0.817  13.774 -1.5191 -0.0731  1.6433
 6850SOL     OW32182   2.094   3.299   1.295 -0.0863  0.2277  0.3348
 6850SOL    HW132183   2.156   3.303   1.222  0.8296 -0.5379  1.0724
 6850SOL    HW232184   2.116   3.388   1.323  1.9540 -0.2427  0.2449
 6851SOL     OW32185   4.476   0.830   5.974  0.7555 -0.3133 -0.0293
 6851SOL    HW132186   4.516   0.878   5.902 -0.1232  0.3218 -0.0880
 6851SOL    HW232187   4.486   0.887   6.049  1.8951  0.0983 -0.4896
 6852SOL     OW32188   4.011   3.341   1.618 -0.5104  0.0363 -0.3222
 6852SOL    HW132189   4.086   3.294   1.583 -0.8508  1.0036 -2.3804
 6852SOL    HW232190   3.951   3.330   1.544  0.1136  0.6444 -0.9169
 6853SOL     OW32191   1.971   3.150   3.331  0.5856  0.8547 -0.0300
 6853SOL    HW132192   2.044   3.158   3.393  0.5875 -0.6700  0.1573
 6853SOL    HW232193   1.957   3.237   3.295  0.7705  0.7729 -0.3020
 6854SOL     OW32194   0.469   2.266   9.269 -0.0878  0.2511 -0.3870
 6854SOL    HW132195   0.550   2.220   9.246 -0.6702 -1.2189  0.5454
 6854SOL    HW232196   0.504   2.353   9.249 -0.8342  1.0592  1.8166
 6855SOL     OW32197   2.289   0.522  15.795 -0.0478  0.0355 -0.1479
 6855SOL    HW132198   2.247   0.597  15.836 -1.2593 -1.8098  2.0016
 6855SOL    HW232199   2.224   0.506  15.727  0.4433  3.3057 -1.3720
 6856SOL     OW32200   1.151   2.988   6.999  0.1671 -0.1665  0.1874
 6856SOL    HW132201   1.211   2.920   6.969  0.0356  0.1367 -0.7565
 6856SOL    HW232202   1.196   3.067   6.969  1.0177 -0.7815 -0.1833
 6857SOL     OW32203   0.653   3.338  10.223  0.6476  0.4204 -0.8380
 6857SOL    HW132204   0.610   3.402  10.279  1.0575 -0.3350  0.3459
 6857SOL    HW232205   0.644   3.257  10.273 -0.3990 -0.0741 -1.8029
 6858SOL     OW32206   1.801   4.710   2.206  0.2236 -0.2631  0.0514
 6858SOL    HW132207   1.762   4.643   2.263  0.4029 -0.2343  0.2057
 6858SOL    HW232208   1.793   4.664   2.122  0.0506  1.2128 -0.7362
 6859SOL     OW32209   1.179   0.685   5.699 -0.1359  0.5804 -0.1746
 6859SOL    HW132210   1.251   0.646   5.750 -0.7187  0.3844  0.5053
 6859SOL    HW232211   1.106   0.623   5.702 -1.9117  2.7009  0.1756
 6860SOL     OW32212   1.358   3.114   2.069 -0.2800 -0.0329  0.2758
 6860SOL    HW132213   1.427   3.062   2.109 -2.1853 -2.0261  1.0036
 6860SOL    HW232214   1.375   3.090   1.978 -1.2376 -1.0786  0.3784
 6861SOL     OW32215   1.260   2.795   4.796 -0.1524  0.2469  0.6483
 6861SOL    HW132216   1.303   2.851   4.731 -1.2831  0.0002 -0.3102
 6861SOL    HW232217   1.318   2.719   4.790  0.2098  0.5067  0.8551
 6862SOL     OW32218   3.574   3.850  14.204  0.0912 -0.1392 -0.3933
 6862SOL    HW132219   3.530   3.864  14.119  1.0231 -1.7671 -1.1278
 6862SOL    HW232220   3.509   3.794  14.245 -0.2846 -1.6816 -3.0895
 6863SOL     OW32221   2.338   2.413   5.422 -0.4032 -0.2627 -0.2957
 6863SOL    HW132222   2.327   2.382   5.332 -0.7695 -1.8353  0.2810
 6863SOL    HW232223   2.428   2.444   5.415 -0.4832  0.4031  1.4995
 6864SOL     OW32224   3.482   1.256   5.859  0.0672 -0.5157 -0.5358
 6864SOL    HW132225   3.552   1.207   5.816 -0.7814 -1.6094 -0.6595
 6864SOL    HW232226   3.448   1.181   5.907  0.4024  0.0251  0.5557
 6865SOL     OW32227   2.564   3.696  10.704  0.2149  0.4660 -0.0710
 6865SOL    HW132228   2.605   3.744  10.631  0.0251  1.8446  0.7253
 6865SOL    HW232229   2.505   3.764  10.735  1.5912  1.1021  1.2039
 6866SOL     OW32230   1.143   2.973   3.844 -0.2594 -0.0121  0.0851
 6866SOL    HW132231   1.172   3.054   3.886 -1.3621 -0.7513  2.2337
 6866SOL    HW232232   1.065   3.003   3.796 -2.0915 -0.4509  2.8063
 6867SOL     OW32233   0.868   1.292   8.170 -0.3894 -0.7967 -0.1219
 6867SOL    HW132234   0.806   1.261   8.236 -1.7544 -0.6369 -1.3280
 6867SOL    HW232235   0.815   1.309   8.092  0.9880  2.0792 -0.4269
 6868SOL     OW32236   3.873   0.159   4.651  0.5002  0.4125  0.1390
 6868SOL    HW132237   3.854   0.204   4.733 -0.0757 -0.0348  0.2531
 6868SOL    HW232238   3.806   0.091   4.642 -0.3810  1.2346  0.4548
 6869SOL     OW32239   2.592   2.048   6.959 -0.4441  0.0747  0.5596
 6869SOL    HW132240   2.561   1.960   6.980 -0.8909  0.5720  2.0629
 6869SOL    HW232241   2.506   2.088   6.977 -1.2954 -0.2656 -2.8269
 6870SOL     OW32242   0.337   1.510  15.413 -0.1704 -0.3255  0.2126
 6870SOL    HW132243   0.429   1.535  15.411  0.1780 -1.6373 -0.0157
 6870SOL    HW232244   0.324   1.467  15.328  1.0988 -0.5401  0.1262
 6871SOL     OW32245   4.312   2.369   3.139  0.2153  0.2766  0.0392
 6871SOL    HW132246   4.299   2.449   3.190 -0.6796  0.3375 -0.2875
 6871SOL    HW232247   4.283   2.304   3.202 -1.3440 -0.2483 -1.2453
 6872SOL     OW32248   4.583   1.792   2.549  0.3658 -0.0685  0.4338
 6872SOL    HW132249   4.677   1.799   2.567  0.1701  1.8557  0.7668
 6872SOL    HW232250   4.581   1.705   2.511 -2.7262  0.3035 -0.2397
 6873SOL     OW32251   2.396   3.951   9.014 -0.1033 -0.1575 -0.2014
 6873SOL    HW132252   2.392   3.875   8.956 -0.2761 -0.3571  0.0763
 6873SOL    HW232253   2.375   3.901   9.092 -2.2063  0.1312 -0.5953
 6874SOL     OW32254   2.439   1.613   6.065  0.8842 -0.7360 -0.1087
 6874SOL    HW132255   2.393   1.668   6.128 -0.7353 -0.0972 -1.8143
 6874SOL    HW232256   2.476   1.553   6.130 -0.0841 -0.8850  0.3163
 6875SOL     OW32257   2.634   3.719   9.238  0.2581 -0.6902  0.4696
 6875SOL    HW132258   2.540   3.705   9.240  0.3856 -1.4451  0.9320
 6875SOL    HW232259   2.642   3.815   9.239 -1.6872 -0.5389  0.9457
 6876SOL     OW32260   4.292   0.424   1.322 -0.3585  0.1818  0.0576
 6876SOL    HW132261   4.292   0.511   1.283 -1.7697 -0.2058 -0.7975
 6876SOL    HW232262   4.198   0.413   1.335 -0.4677 -2.8826 -3.2521
 6877SOL     OW32263   1.452   3.692   1.763 -0.1540 -0.0378  0.4366
 6877SOL    HW132264   1.516   3.763   1.775 -1.2515  0.6868  2.1108
 6877SOL    HW232265   1.386   3.742   1.715  1.2181  0.4092 -0.9768
 6878SOL     OW32266   4.283   3.933   5.765 -0.4170 -0.1843 -0.0800
 6878SOL    HW132267   4.329   3.879   5.701  2.5961  1.6959  0.4858
 6878SOL    HW232268   4.232   3.867   5.813  0.5636  1.3692  3.1126
 6879SOL     OW32269   3.710   0.347  11.826 -0.0484 -0.6170  0.3661
 6879SOL    HW132270   3.676   0.350  11.736 -1.1521 -1.7478  0.7315
 6879SOL    HW232271   3.684   0.255  11.839  0.2001 -1.0130 -1.8770
 6880SOL     OW32272   4.723   1.402   2.243 -0.2741 -0.0756 -0.1380
 6880SOL    HW132273   0.042   1.363   2.310 -2.1351 -1.9296  0.3380
 6880SOL    HW232274   0.030   1.352   2.174  1.8982  0.7099  0.7014
 6881SOL     OW32275   1.889   2.928   5.106  0.1964  0.2496  0.8093
 6881SOL    HW132276   1.943   2.901   5.031 -0.7714  1.3590 -0.2850
 6881SOL    HW232277   1.855   2.844   5.137 -0.9400 -0.1084 -1.4372
 6882SOL     OW32278   1.244   1.912  14.499 -0.5522 -0.2812  0.7021
 6882SOL    HW132279   1.256   1.999  14.538 -0.6613  0.9429 -2.0342
 6882SOL    HW232280   1.148   1.911  14.502 -0.6158 -0.2958 -1.2562
 6883SOL     OW32281   1.297   1.683   8.117  0.6249 -0.8503  0.3798
 6883SOL    HW132282   1.366   1.743   8.089  0.2706  0.0385  1.3997
 6883SOL    HW232283   1.256   1.735   8.186 -0.0160 -1.2986  0.3327
 6884SOL     OW32284   2.478   3.501   4.138 -0.2204  0.1994 -0.0336
 6884SOL    HW132285   2.476   3.546   4.223  0.4398  0.7722 -0.3217
 6884SOL    HW232286   2.426   3.424   4.160 -0.0082  0.2736  0.7414
 6885SOL     OW32287   0.083   2.010   6.064  0.1499  0.1748 -0.5676
 6885SOL    HW132288   0.048   2.000   5.976  3.2504  0.5007 -1.8387
 6885SOL    HW232289   0.167   2.052   6.046  0.4926 -1.4045 -2.5747
 6886SOL     OW32290   0.352   1.721   7.603 -0.0070 -0.9164  0.3855
 6886SOL    HW132291   0.272   1.714   7.654 -1.6796  0.4700 -2.0002
 6886SOL    HW232292   0.379   1.809   7.630  1.9388 -1.4419  0.1608
 6887SOL     OW32293   0.791   2.393   8.055  0.0000 -0.3091  0.3206
 6887SOL    HW132294   0.811   2.307   8.094  0.2438 -0.7123 -0.7104
 6887SOL    HW232295   0.696   2.383   8.050 -0.2288  0.4528  3.0290
 6888SOL     OW32296   1.646   1.368   5.812 -0.5991  0.0468  0.2525
 6888SOL    HW132297   1.716   1.341   5.871  0.6175  2.7778  0.0886
 6888SOL    HW232298   1.575   1.329   5.863  0.3393 -0.7695  0.9275
 6889SOL     OW32299   1.499   2.357   6.018 -0.1467  0.3261  0.3647
 6889SOL    HW132300   1.410   2.352   5.984 -0.1434  1.7878  0.1254
 6889SOL    HW232301   1.548   2.306   5.953  1.1524  1.3177  0.5676
 6890SOL     OW32302   1.410   3.467   7.580 -0.5454  0.0814 -0.0877
 6890SOL    HW132303   1.438   3.475   7.672  0.8498  1.2522 -0.6203
 6890SOL    HW232304   1.451   3.388   7.545  3.9452  1.7114  1.5171
 6891SOL     OW32305   0.965   2.288   1.480  0.1568  0.5381 -0.7445
 6891SOL    HW132306   0.922   2.262   1.562  1.8586  1.8527  0.5779
 6891SOL    HW232307   0.979   2.201   1.443  0.9946  0.8201 -1.0719
 6892SOL     OW32308   0.347   3.893   6.664 -0.2737 -0.0185 -0.2532
 6892SOL    HW132309   0.393   3.816   6.630 -1.7737 -1.1896  0.3982
 6892SOL    HW232310   0.394   3.959   6.612 -0.4646  1.0734  0.9849
 6893SOL     OW32311   1.192   0.419   0.369 -0.2857 -0.0509 -0.7777
 6893SOL    HW132312   1.144   0.416   0.287 -0.3892  3.4186 -0.8541
 6893SOL    HW232313   1.204   0.513   0.378 -3.1908  0.1162  1.1522
 6894SOL     OW32314   4.369   1.610  13.821  0.6858  0.2167 -0.5438
 6894SOL    HW132315   4.414   1.668  13.882 -0.6143  3.0003 -2.2547
 6894SOL    HW232316   4.428   1.594  13.747 -0.7311 -1.4149 -1.3264
 6895SOL     OW32317   4.276   2.025   4.978 -0.3352 -0.5245  0.0340
 6895SOL    HW132318   4.188   1.988   4.983 -0.7971  0.6767  0.8173
 6895SOL    HW232319   4.270   2.094   5.044  1.0025  1.1926 -1.6435
 6896SOL     OW32320   2.809   3.613  10.803  0.0045 -0.0198  0.2634
 6896SOL    HW132321   2.814   3.692  10.857 -0.4917  0.2729 -0.1205
 6896SOL    HW232322   2.719   3.626  10.773  0.3199  1.2627 -0.1465
 6897SOL     OW32323   2.082   2.273  11.613 -0.6542 -0.6447  0.1400
 6897SOL    HW132324   2.062   2.181  11.596  1.2546 -1.2338  1.0828
 6897SOL    HW232325   2.175   2.268  11.593 -1.2835 -1.9784 -2.4722
 6898SOL     OW32326   3.262   2.153  17.688 -0.0549  0.4109 -0.0832
 6898SOL    HW132327   3.230   2.098   0.013  0.3760  1.1229  0.6618
 6898SOL    HW232328   3.205   2.229  17.695  0.0781  0.4064  1.1653
 6899SOL     OW32329   4.394   3.333   4.398  0.1012 -0.1156  0.0350
 6899SOL    HW132330   4.419   3.355   4.488  3.4713  3.2899 -1.7804
 6899SOL    HW232331   4.368   3.244   4.422 -0.2391 -0.8861 -3.2157
 6900SOL     OW32332   1.725   2.091   5.803  0.2124  0.1660  0.5497
 6900SOL    HW132333   1.757   2.000   5.807 -2.0190 -0.7174 -1.5770
 6900SOL    HW232334   1.795   2.130   5.855  1.6225 -1.8310  0.1592
 6901SOL     OW32335   2.766   3.969   8.197  0.0344  0.1218 -0.4292
 6901SOL    HW132336   2.857   3.944   8.215  0.3937 -0.9060 -3.6624
 6901SOL    HW232337   2.724   3.894   8.238 -0.0104  0.6243  0.4360
 6902SOL     OW32338   4.425   4.472   2.534 -0.0925 -0.2668  0.1540
 6902SOL    HW132339   4.375   4.506   2.459  3.0389  2.4290 -0.7316
 6902SOL    HW232340   4.464   4.557   2.557 -0.5677 -0.0789  0.2765
 6903SOL     OW32341   3.315   1.093  16.148 -0.3609  0.2463  0.2325
 6903SOL    HW132342   3.349   1.180  16.128 -0.9521  0.3202 -0.4921
 6903SOL    HW232343   3.377   1.070  16.216  0.8687 -0.0480 -0.9852
 6904SOL     OW32344   0.837   4.337   7.348 -0.2645 -0.4066 -0.2357
 6904SOL    HW132345   0.832   4.334   7.444  0.1284  1.2947 -0.1759
 6904SOL    HW232346   0.766   4.278   7.324 -1.2842  0.9571 -0.5575
 6905SOL     OW32347   0.466   3.864   2.333 -0.1658  0.4466  0.4359
 6905SOL    HW132348   0.456   3.790   2.393  1.1802  0.3154  0.4899
 6905SOL    HW232349   0.387   3.867   2.279  0.4834 -0.6225 -0.5665
 6906SOL     OW32350   4.723   1.348   1.760 -0.1535  0.5499 -0.1982
 6906SOL    HW132351   4.674   1.266   1.763  0.4986  0.1839  0.2572
 6906SOL    HW232352   4.657   1.402   1.715 -0.4143  1.8175  1.7079
 6907SOL     OW32353   3.736   3.201  16.445 -0.0745  0.6674 -0.1523
 6907SOL    HW132354   3.731   3.287  16.405 -1.1207  0.7769  0.2091
 6907SOL    HW232355   3.810   3.166  16.395 -0.9837  0.3969 -1.3097
 6908SOL     OW32356   3.968   0.183   6.194 -0.2259  0.3874 -0.5948
 6908SOL    HW132357   3.988   0.276   6.207  0.0610  0.6700 -3.0041
 6908SOL    HW232358   3.876   0.181   6.220 -0.0721 -0.9464 -0.1778
 6909SOL     OW32359   2.546   4.470   5.063  0.6643 -0.2480  0.5110
 6909SOL    HW132360   2.540   4.377   5.041 -0.0597 -0.5172  1.8440
 6909SOL    HW232361   2.612   4.495   4.998 -0.4467  0.3974 -0.3724
 6910SOL     OW32362   0.282   3.164   9.758  0.1622  0.1085 -0.2703
 6910SOL    HW132363   0.320   3.171   9.845 -1.2728  1.6652  0.2259
 6910SOL    HW232364   0.211   3.227   9.766  1.7299  2.2321 -3.2997
 6911SOL     OW32365   2.312   1.698   1.377 -0.4024  0.3925  0.1262
 6911SOL    HW132366   2.247   1.753   1.420 -0.9828 -0.3733  0.2371
 6911SOL    HW232367   2.340   1.642   1.449  0.3317  0.8687  0.2038
 6912SOL     OW32368   1.287   2.346   5.115  0.5688 -0.0336 -0.2827
 6912SOL    HW132369   1.265   2.363   5.023 -1.4230  0.5721  0.3054
 6912SOL    HW232370   1.235   2.411   5.163 -0.3051 -1.0594  0.1771
 6913SOL     OW32371   2.247   1.575   4.485  0.8663  0.4517  0.2757
 6913SOL    HW132372   2.279   1.492   4.449  1.8560  0.7780  0.3978
 6913SOL    HW232373   2.325   1.618   4.519  0.4055  0.6733  1.0594
 6914SOL     OW32374   0.466   2.664   1.395  0.7198  0.1478 -0.2164
 6914SOL    HW132375   0.466   2.722   1.319 -1.8928 -0.5765 -0.7822
 6914SOL    HW232376   0.460   2.720   1.472 -1.8498 -0.6969  0.2128
 6915SOL     OW32377   0.046   2.201  12.452 -0.4896 -0.1879  0.1898
 6915SOL    HW132378   4.734   2.130  12.492  1.2477 -0.4706  1.8392
 6915SOL    HW232379   0.040   2.191  12.357  0.7200 -1.3506  0.2317
 6916SOL     OW32380   4.174   0.300   1.579  0.2491  0.4030  0.3216
 6916SOL    HW132381   4.266   0.277   1.561  0.1133 -0.3547  0.6227
 6916SOL    HW232382   4.191   0.381   1.627 -0.5642 -0.8540  2.6977
 6917SOL     OW32383   1.068   3.302   4.042  0.0357  0.0598  0.7974
 6917SOL    HW132384   1.057   3.385   4.088 -2.1455 -0.1130  0.6208
 6917SOL    HW232385   0.999   3.320   3.978  1.4360  1.9121 -0.1801
 6918SOL     OW32386   2.867   1.524   2.519 -0.5112 -0.4536  0.0534
 6918SOL    HW132387   2.787   1.564   2.553  0.0861 -1.2799  2.4273
 6918SOL    HW232388   2.941   1.546   2.576 -0.9966  1.8675 -0.2037
 6919SOL     OW32389   3.727   2.005   5.482 -0.0111 -0.4213  0.6247
 6919SOL    HW132390   3.660   1.950   5.441 -0.0877  0.2865 -0.2031
 6919SOL    HW232391   3.704   1.990   5.574 -4.5334  0.7712 -0.3087
 6920SOL     OW32392   2.688   3.182   1.854 -0.1468 -0.9598 -0.2615
 6920SOL    HW132393   2.686   3.277   1.866 -0.3046 -1.1424  1.1882
 6920SOL    HW232394   2.692   3.161   1.947  1.9188 -2.8052 -0.7627
 6921SOL     OW32395   1.750   0.731   3.477 -0.5442 -0.0973  0.0215
 6921SOL    HW132396   1.813   0.659   3.472 -1.3439 -0.7621 -0.5978
 6921SOL    HW232397   1.681   0.693   3.530 -0.7746 -0.1344 -0.3023
 6922SOL     OW32398   3.632   3.610   6.312 -0.2169  0.2134 -0.1459
 6922SOL    HW132399   3.720   3.644   6.297 -0.2511 -0.2299 -1.3601
 6922SOL    HW232400   3.599   3.636   6.226  0.1361  1.6204  0.1403
 6923SOL     OW32401   0.922   0.466  16.382  0.2679 -0.0218  0.0660
 6923SOL    HW132402   0.881   0.382  16.406 -1.8179  1.3474  1.2606
 6923SOL    HW232403   0.971   0.430  16.308  2.2994  0.1190  1.3370
 6924SOL     OW32404   2.048   1.383   2.160  0.1939  0.2050  0.6865
 6924SOL    HW132405   2.061   1.477   2.169 -2.1493  0.7091 -1.2137
 6924SOL    HW232406   1.969   1.372   2.106  0.5419 -2.9347  0.8317
 6925SOL     OW32407   0.744   1.956  10.538  0.0633 -0.6324 -0.5344
 6925SOL    HW132408   0.734   1.988  10.449  0.8695  1.8388  0.2747
 6925SOL    HW232409   0.839   1.968  10.544 -0.3122  1.1910  1.7183
 6926SOL     OW32410   2.065   1.211   1.193  0.4133 -0.0507 -0.0737
 6926SOL    HW132411   2.073   1.275   1.123  1.4368 -0.0606  0.0334
 6926SOL    HW232412   2.048   1.272   1.264 -1.1111 -0.2241 -0.2796
 6927SOL     OW32413   1.723   1.149   3.261 -0.2309  0.3066  0.2494
 6927SOL    HW132414   1.765   1.085   3.319 -2.8549 -0.5562  1.1732
 6927SOL    HW232415   1.798   1.181   3.210 -1.5537  1.2667 -1.0843
 6928SOL     OW32416   2.689   0.589   8.278  0.3437  0.1696 -0.6123
 6928SOL    HW132417   2.615   0.528   8.279 -0.6596  1.3664 -0.9910
 6928SOL    HW232418   2.744   0.553   8.209 -0.9692 -0.1280 -1.4935
 6929SOL     OW32419   2.735   1.898  11.974 -0.1815 -0.4970  0.5802
 6929SOL    HW132420   2.719   1.991  11.954 -0.5513 -0.9578 -1.2470
 6929SOL    HW232421   2.812   1.909  12.030 -1.3000  0.4620  1.9570
 6930SOL     OW32422   2.435   1.198   2.768 -0.1688 -0.1647 -0.0914
 6930SOL    HW132423   2.450   1.103   2.770 -0.7749 -0.2411  1.0177
 6930SOL    HW232424   2.341   1.210   2.758  0.1267  2.1245 -0.0751
 6931SOL     OW32425   1.292   2.887   1.456 -0.1413  0.7630  0.4078
 6931SOL    HW132426   1.381   2.899   1.421 -0.8859 -0.6069 -1.9823
 6931SOL    HW232427   1.252   2.874   1.370  1.6639 -0.1581 -0.3076
 6932SOL     OW32428   4.707   2.633  12.299 -0.7432 -0.3651  0.4108
 6932SOL    HW132429   0.020   2.713  12.280 -1.8349  0.4512  1.0074
 6932SOL    HW232430   4.723   2.631  12.393 -3.2477  0.6633  0.8746
 6933SOL     OW32431   0.587   0.307   2.220 -0.2207 -0.1001 -0.1991
 6933SOL    HW132432   0.553   0.369   2.156 -1.8822 -0.8536 -0.0559
 6933SOL    HW232433   0.578   0.234   2.159  0.3482 -0.2395 -0.1187
 6934SOL     OW32434   4.726   1.901   2.259  0.2748 -0.0262  0.0609
 6934SOL    HW132435   4.682   1.823   2.226  0.8495  0.0603 -0.9086
 6934SOL    HW232436   0.044   1.865   2.328  0.8919  0.4275 -0.1971
 6935SOL     OW32437   2.936   0.088   6.667 -0.2499 -0.7385  0.0205
 6935SOL    HW132438   2.902   0.035   6.740  0.8907 -3.2324 -1.2472
 6935SOL    HW232439   3.026   0.106   6.695 -0.8778  0.5565  1.1614
 6936SOL     OW32440   3.495   0.966   8.610  0.2695 -0.1704  0.2655
 6936SOL    HW132441   3.542   0.991   8.690 -0.0232  0.3991  0.2575
 6936SOL    HW232442   3.569   0.971   8.549  0.6493 -1.7139  0.6164
 6937SOL     OW32443   1.169   2.405  16.707 -0.3916 -0.3219  0.3368
 6937SOL    HW132444   1.101   2.361  16.656  0.3427 -0.3366 -0.6242
 6937SOL    HW232445   1.122   2.455  16.774 -1.8056  2.0204 -2.3826
 6938SOL     OW32446   4.698   1.117   4.776  0.5382  0.0565 -1.1164
 6938SOL    HW132447   4.663   1.128   4.687 -0.4477  1.0096 -0.6030
 6938SOL    HW232448   0.020   1.192   4.782  1.6376 -0.8657 -0.4638
 6939SOL     OW32449   3.325   1.969  14.742 -0.2470 -0.5532 -0.4234
 6939SOL    HW132450   3.389   1.909  14.779  0.5451 -0.5093 -1.7120
 6939SOL    HW232451   3.313   2.034  14.811 -1.8430 -0.5866 -0.6539
 6940SOL     OW32452   0.760   0.922   5.357  0.0672  0.1618 -0.0101
 6940SOL    HW132453   0.853   0.903   5.344  0.3631  0.2566  1.9508
 6940SOL    HW232454   0.731   0.849   5.302 -0.0862 -1.1134  1.7738
 6941SOL     OW32455   0.679   3.535   2.901 -0.3072  0.0636 -0.4123
 6941SOL    HW132456   0.658   3.590   2.976 -2.7526 -0.1525 -0.9204
 6941SOL    HW232457   0.702   3.454   2.946  0.8820 -0.8916 -2.7121
 6942SOL     OW32458   3.216   4.515   5.630 -0.5107  0.6207  0.5903
 6942SOL    HW132459   3.194   4.606   5.610  1.7206  0.6157 -1.7376
 6942SOL    HW232460   3.137   4.474   5.595 -0.6740 -0.6076  2.4143
 6943SOL     OW32461   2.789   2.269  15.960 -0.0017  0.0794 -0.4800
 6943SOL    HW132462   2.798   2.307  15.872 -1.7951  2.4073  0.3454
 6943SOL    HW232463   2.880   2.268  15.989 -0.4664 -1.2318  0.9122
 6944SOL     OW32464   0.647   2.301  10.006  0.1448  0.6426  0.5404
 6944SOL    HW132465   0.686   2.214   9.992 -1.6822 -0.3284  1.3741
 6944SOL    HW232466   0.562   2.273   9.969  1.6174 -3.2389  0.0751
 6945SOL     OW32467   3.451   1.325   6.604  0.2399 -0.3943  0.0060
 6945SOL    HW132468   3.420   1.412   6.629  0.0338 -0.6559  0.6787
 6945SOL    HW232469   3.380   1.310   6.542 -0.0044  0.3319  0.1028
 6946SOL     OW32470   0.447   0.582  14.805  0.2340  0.0213  0.3995
 6946SOL    HW132471   0.534   0.618  14.822 -0.7624  2.5181  0.1872
 6946SOL    HW232472   0.457   0.489  14.785  3.5459  0.7941 -1.5618
 6947SOL     OW32473   2.256   4.603  10.733  0.8014 -0.2744 -0.4904
 6947SOL    HW132474   2.342   4.591  10.693  0.2811 -1.7107 -1.1978
 6947SOL    HW232475   2.282   4.624  10.822 -2.1008  2.0190 -0.1635
 6948SOL     OW32476   1.660   1.264   8.461  0.1323  0.4778 -0.4813
 6948SOL    HW132477   1.630   1.205   8.530  1.7929 -1.6425 -1.5691
 6948SOL    HW232478   1.682   1.205   8.389  0.1861  0.2532 -0.2807
 6949SOL     OW32479   4.034   0.976   4.337 -0.0147  0.3893  0.7580
 6949SOL    HW132480   4.110   1.019   4.377  1.0626  1.1590 -2.1233
 6949SOL    HW232481   3.964   1.005   4.395 -0.5630 -1.5093  1.0486
 6950SOL     OW32482   0.019   0.135   7.303  0.2221  0.3872 -0.3819
 6950SOL    HW132483   0.034   0.101   7.391  0.5478 -1.1836 -1.0625
 6950SOL    HW232484   4.664   0.112   7.299  0.6411 -1.3912  0.1859
 6951SOL     OW32485   3.761   1.628   3.793  0.5354 -0.1943 -0.3515
 6951SOL    HW132486   3.768   1.724   3.790  1.6729 -0.1962  2.4948
 6951SOL    HW232487   3.670   1.603   3.807  0.6130  0.6340  1.6657
 6952SOL     OW32488   4.153   3.744   2.870 -0.2954 -0.2954 -0.4777
 6952SOL    HW132489   4.195   3.819   2.828 -0.9985 -0.2105 -1.0275
 6952SOL    HW232490   4.225   3.696   2.911 -1.1108  0.5112  1.9234
 6953SOL     OW32491   2.861   2.132   8.571 -0.3211 -0.0957 -0.3747
 6953SOL    HW132492   2.804   2.167   8.640  1.9327  0.6277  1.1338
 6953SOL    HW232493   2.839   2.041   8.589 -1.4472  0.4435  1.0313
 6954SOL     OW32494   0.640   1.790  14.186 -0.1062  0.8228 -0.7870
 6954SOL    HW132495   0.604   1.879  14.195 -3.2162 -0.2074 -3.1079
 6954SOL    HW232496   0.562   1.737  14.172  0.0786 -0.1157  1.7426
 6955SOL     OW32497   4.595   3.827   7.878  0.2775  0.1100  0.4931
 6955SOL    HW132498   4.664   3.846   7.814 -0.4254 -0.0057 -0.3066
 6955SOL    HW232499   4.520   3.799   7.826  0.1642  1.7399 -0.2225
 6956SOL     OW32500   4.548   2.542   1.209  0.5813 -0.0925  0.0046
 6956SOL    HW132501   4.463   2.568   1.174  1.0356 -1.5295 -2.1488
 6956SOL    HW232502   4.524   2.450   1.222 -1.6411  0.2590 -1.8709
 6957SOL     OW32503   2.959   1.955   5.764 -0.6646  0.0384 -0.2662
 6957SOL    HW132504   2.976   1.865   5.789 -1.6024 -0.5937 -1.8866
 6957SOL    HW232505   3.045   1.996   5.767 -0.4974 -0.5951  2.8574
 6958SOL     OW32506   4.459   1.558   5.446 -0.0981 -0.2888 -0.4935
 6958SOL    HW132507   4.397   1.487   5.463 -0.6746 -0.5709 -3.8600
 6958SOL    HW232508   4.411   1.599   5.375  1.7262  1.8097 -0.5160
 6959SOL     OW32509   0.074   3.323   5.462 -0.2805  0.0599 -0.0348
 6959SOL    HW132510   0.022   3.394   5.499  1.3932  2.5287 -2.3727
 6959SOL    HW232511   0.010   3.284   5.402 -1.2065 -0.9387  1.6111
 6960SOL     OW32512   2.900   2.224  14.364 -0.2085 -0.0385  0.1604
 6960SOL    HW132513   2.957   2.153  14.335  1.4811  0.5358  2.1033
 6960SOL    HW232514   2.818   2.182  14.337  0.0619 -0.7610  0.4737
 6961SOL     OW32515   4.420   2.955   8.207  0.5684 -0.5298 -0.3849
 6961SOL    HW132516   4.332   2.920   8.195  1.0593 -1.3035 -1.8504
 6961SOL    HW232517   4.457   2.889   8.265  2.2995  0.8341  0.0709
 6962SOL     OW32518   0.148   2.928   1.922  0.1542  0.2401 -0.1186
 6962SOL    HW132519   0.144   2.883   1.837 -0.4224  0.6761 -0.3258
 6962SOL    HW232520   0.077   2.885   1.970  0.7369 -1.3338 -0.6575
 6963SOL     OW32521   1.669   2.168   8.424  0.3980  0.1827 -0.5908
 6963SOL    HW132522   1.762   2.171   8.406  0.0661 -0.3288 -2.4231
 6963SOL    HW232523   1.644   2.254   8.460  0.3000  0.9838 -2.6000
 6964SOL     OW32524   0.592   2.031   9.761  0.3769  0.4807  0.1896
 6964SOL    HW132525   0.546   1.949   9.749 -0.7615  1.3227 -1.1892
 6964SOL    HW232526   0.514   2.087   9.757  0.0101 -0.1871 -1.9167
 6965SOL     OW32527   1.093   3.584   6.768 -0.0205  0.0157  0.1967
 6965SOL    HW132528   1.041   3.547   6.839 -0.1775 -0.1073  0.0159
 6965SOL    HW232529   1.117   3.503   6.724 -0.6698 -0.7376  1.2532
 6966SOL     OW32530   3.248   1.587   0.058  0.1847 -0.2651  0.2881
 6966SOL    HW132531   3.224   1.578   0.150  0.9310 -0.3972  0.4733
 6966SOL    HW232532   3.174   1.545   0.015  0.3184  0.8635 -1.0511
 6967SOL     OW32533   3.726   2.308  15.973 -0.4629  0.0074 -0.6254
 6967SOL    HW132534   3.664   2.239  15.998 -0.0140  0.3135  1.2929
 6967SOL    HW232535   3.776   2.294  16.053  0.2045  2.2642 -0.6440
 6968SOL     OW32536   2.243   1.617   7.077 -0.3484 -0.4764  0.1041
 6968SOL    HW132537   2.254   1.578   7.164  1.8938 -0.4354 -0.1563
 6968SOL    HW232538   2.200   1.544   7.031  0.2017 -0.7076 -0.0416
 6969SOL     OW32539   2.324   3.867   1.401  0.0584 -0.2318  0.3958
 6969SOL    HW132540   2.239   3.898   1.434 -0.6736 -0.3916 -1.3556
 6969SOL    HW232541   2.372   3.846   1.481 -1.2195 -0.2915  1.1414
 6970SOL     OW32542   2.797   4.015  15.149  0.4636 -0.9647  0.0598
 6970SOL    HW132543   2.796   3.975  15.062 -0.5324  0.3008 -0.5252
 6970SOL    HW232544   2.712   3.994  15.189 -0.2069  2.2078  0.3080
 6971SOL     OW32545   0.814   2.078  10.054  0.5314  0.2247 -0.5630
 6971SOL    HW132546   0.859   2.150  10.009  0.5907  0.4271 -0.1761
 6971SOL    HW232547   0.843   2.000  10.007 -1.3878 -0.3062 -0.8292
 6972SOL     OW32548   4.361   4.342   4.532  0.4091 -0.1939  0.3777
 6972SOL    HW132549   4.403   4.274   4.479 -0.1045 -0.7987  0.7553
 6972SOL    HW232550   4.442   4.393   4.535  0.6872 -0.6421  0.4617
 6973SOL     OW32551   1.934   3.101   6.662  0.4934  0.3734 -0.7241
 6973SOL    HW132552   1.977   3.025   6.701  0.3330 -0.4459 -2.1688
 6973SOL    HW232553   1.877   3.129   6.734  0.7207  1.4889 -0.9807
 6974SOL     OW32554   2.564   2.013   1.597 -0.1480  0.5969  0.1357
 6974SOL    HW132555   2.570   1.917   1.591 -0.2845  0.4863  1.6930
 6974SOL    HW232556   2.478   2.032   1.559 -0.2998 -2.5793 -1.1349
 6975SOL     OW32557   3.733   4.210   6.770  0.0853 -0.1446  0.6381
 6975SOL    HW132558   3.819   4.242   6.796  0.1751  2.3861 -2.6897
 6975SOL    HW232559   3.761   4.162   6.692  2.0594  1.6578  0.2395
 6976SOL     OW32560   2.790   3.715   1.667  0.6380  0.2723 -0.1138
 6976SOL    HW132561   2.778   3.626   1.633  1.9523 -1.2489  3.4139
 6976SOL    HW232562   2.884   3.718   1.684  0.7021 -0.2861 -0.3503
 6977SOL     OW32563   3.068   3.032   3.846 -0.3170 -0.4388  0.2170
 6977SOL    HW132564   2.986   3.019   3.799  0.5717 -3.2379 -0.5404
 6977SOL    HW232565   3.124   3.007   3.773 -0.6998 -1.0918  0.1464
 6978SOL     OW32566   0.738   4.337   0.813 -0.3967  0.2830 -0.4133
 6978SOL    HW132567   0.809   4.400   0.820  1.3284 -1.9200  2.1168
 6978SOL    HW232568   0.773   4.262   0.862 -3.4580 -0.3400  0.8172
 6979SOL     OW32569   2.008   4.157  11.120 -0.1613  0.1171  0.3638
 6979SOL    HW132570   1.999   4.139  11.214  2.2794  3.5951  1.2770
 6979SOL    HW232571   2.041   4.247  11.121  0.3564 -0.0566 -1.0000
 6980SOL     OW32572   3.088   0.640   1.624 -0.2760  0.0721  0.1702
 6980SOL    HW132573   3.077   0.545   1.632  0.1013  0.0796  0.7693
 6980SOL    HW232574   3.131   0.663   1.706 -0.5955 -1.5697  0.7824
 6981SOL     OW32575   3.968   3.090   3.703 -0.4381  0.3485  0.2383
 6981SOL    HW132576   3.958   3.000   3.734  2.5121 -0.4788 -1.2462
 6981SOL    HW232577   3.980   3.078   3.609  0.0441  0.6107  0.2638
 6982SOL     OW32578   0.367   2.529   8.128  0.1540 -0.3774 -0.0899
 6982SOL    HW132579   0.418   2.479   8.064  0.0436 -1.0619  0.3444
 6982SOL    HW232580   0.389   2.616   8.096  0.2918 -0.2816  0.2685
 6983SOL     OW32581   1.821   0.059   7.546 -0.0815  0.0468 -0.0549
 6983SOL    HW132582   1.747   0.002   7.527  1.1447 -2.5475  2.7914
 6983SOL    HW232583   1.860   0.026   7.628 -0.1855 -0.9220 -0.3941
 6984SOL     OW32584   0.370   0.793   6.325 -0.0727 -0.6233 -0.0381
 6984SOL    HW132585   0.404   0.761   6.241  0.3198  0.9356 -0.4632
 6984SOL    HW232586   0.411   0.721   6.373  3.5063  1.5008  0.0859
 6985SOL     OW32587   1.980   1.738  14.846  0.1455  0.0993  0.1508
 6985SOL    HW132588   1.937   1.690  14.776 -0.1573  2.2968 -1.1779
 6985SOL    HW232589   1.910   1.796  14.877  0.8358  1.0720 -0.1241
 6986SOL     OW32590   1.094   1.872   3.030  0.1286  0.8743  0.4477
 6986SOL    HW132591   1.061   1.841   2.946  0.4674 -0.9500  0.9998
 6986SOL    HW232592   1.143   1.799   3.065 -0.9404 -1.1303 -2.2619
 6987SOL     OW32593   2.141   2.360   2.014  0.2056  0.6478  0.8203
 6987SOL    HW132594   2.047   2.379   2.015  0.3655  1.4421  1.4658
 6987SOL    HW232595   2.150   2.277   2.059  1.0936  0.1216 -0.3370
 6988SOL     OW32596   1.598   4.325   1.824 -0.0608 -0.0486 -0.0117
 6988SOL    HW132597   1.555   4.398   1.869  1.0082  0.7091 -0.2257
 6988SOL    HW232598   1.518   4.298   1.779  0.1889 -2.4407  0.9748
 6989SOL     OW32599   3.824   4.475   6.149  0.5033 -0.1160 -0.1287
 6989SOL    HW132600   3.827   4.392   6.101  2.5574  0.5111 -1.0367
 6989SOL    HW232601   3.850   4.545   6.090  0.8595 -0.8712 -0.8662
 6990SOL     OW32602   0.231   0.309   2.984 -0.1965 -0.5336 -0.1318
 6990SOL    HW132603   0.217   0.233   2.928 -3.0905  0.5918 -0.9833
 6990SOL    HW232604   0.143   0.342   3.006  0.4110  1.0018  0.0107
 6991SOL     OW32605   4.597   4.215   6.723 -0.6320  0.6367  0.0597
 6991SOL    HW132606   4.599   4.274   6.648  1.0137  0.9126  0.3316
 6991SOL    HW232607   4.674   4.159   6.711 -0.4209  1.0205 -0.3515
 6992SOL     OW32608   3.505   4.217   3.303 -0.0219  0.1767 -0.2804
 6992SOL    HW132609   3.510   4.202   3.209 -0.2776  0.3380 -0.3192
 6992SOL    HW232610   3.598   4.206   3.321  0.6471  0.9131 -3.2807
 6993SOL     OW32611   0.713   0.998  10.154 -0.4564  0.5730 -0.2666
 6993SOL    HW132612   0.674   0.971  10.237 -0.1807  0.4474 -0.1776
 6993SOL    HW232613   0.805   0.996  10.178 -0.8576 -0.8225  1.1110
 6994SOL     OW32614   2.936   0.445   3.912  0.3707 -0.6121  0.0282
 6994SOL    HW132615   2.907   0.389   3.984 -0.3161 -1.5006 -0.9272
 6994SOL    HW232616   2.991   0.386   3.860  0.8166 -1.4150  1.3995
 6995SOL     OW32617   2.467   1.397  11.538 -0.1058 -0.0146  0.4705
 6995SOL    HW132618   2.540   1.458  11.529  0.6887 -1.1121 -0.5351
 6995SOL    HW232619   2.396   1.455  11.566  0.1211  0.7763 -0.5823
 6996SOL     OW32620   1.186   4.174   1.324  0.2375 -0.1261  0.1094
 6996SOL    HW132621   1.205   4.112   1.253  0.8610 -0.0804  0.2356
 6996SOL    HW232622   1.218   4.124   1.400 -1.0277  1.6452  1.8001
 6997SOL     OW32623   2.179   1.262  15.879 -0.0286 -0.3102 -0.3109
 6997SOL    HW132624   2.154   1.172  15.900  1.5307 -0.9688 -1.2998
 6997SOL    HW232625   2.101   1.297  15.836 -0.1601 -0.0128  0.1658
 6998SOL     OW32626   1.806   1.283  13.120  0.1819  0.5039 -0.7553
 6998SOL    HW132627   1.762   1.198  13.129  0.3641  0.5635  0.7185
 6998SOL    HW232628   1.874   1.262  13.056 -0.4242 -0.7656 -0.9883
 6999SOL     OW32629   3.165   4.129   1.387 -0.6404  0.7763  0.0832
 6999SOL    HW132630   3.126   4.113   1.473  0.2017 -0.0443  0.3077
 6999SOL    HW232631   3.090   4.096   1.337 -1.0432  1.6309  0.1349
 7000SOL     OW32632   0.642   3.248   6.717 -0.2674 -0.5579 -0.1558
 7000SOL    HW132633   0.610   3.316   6.657  0.5883  0.4649  0.5653
 7000SOL    HW232634   0.729   3.245   6.678 -0.1842 -0.0943 -0.0077
 7001SOL     OW32635   4.671   4.495   2.249  0.7689 -0.3590  0.2427
 7001SOL    HW132636   4.605   4.473   2.183 -0.7597 -0.2151  1.7208
 7001SOL    HW232637   4.674   4.417   2.305 -0.5773  0.3279  1.2753
 7002SOL     OW32638   1.290   1.914  14.017 -0.1427 -0.5361 -0.2532
 7002SOL    HW132639   1.346   1.958  14.082 -1.5915  0.2834  0.4429
 7002SOL    HW232640   1.294   1.992  13.962  0.9464  0.8522  1.7563
 7003SOL     OW32641   0.801   1.774   7.913  1.0056 -0.4371 -0.1127
 7003SOL    HW132642   0.729   1.751   7.972  1.7765 -0.2140  0.9130
 7003SOL    HW232643   0.765   1.738   7.831 -0.6914  2.3336 -0.5764
 7004SOL     OW32644   0.935   0.540   9.379  0.0529 -0.1287 -0.1583
 7004SOL    HW132645   0.977   0.455   9.383  1.5200  0.7086  2.4726
 7004SOL    HW232646   0.872   0.531   9.307 -1.8004  0.3969  1.3832
 7005SOL     OW32647   4.627   3.579   4.413  0.3263  0.2801 -0.0746
 7005SOL    HW132648   4.560   3.523   4.453  0.9238 -1.3990 -1.4177
 7005SOL    HW232649   4.712   3.536   4.426  0.2997  1.0904  2.7527
 7006SOL     OW32650   4.487   0.077   2.359  0.2342  0.1001 -0.6803
 7006SOL    HW132651   4.438   4.732   2.351 -2.7025  1.6562  1.1691
 7006SOL    HW232652   4.420   0.136   2.325  0.3870  0.9458  0.4789
 7007SOL     OW32653   0.486   4.577   7.768  0.3709  0.0254 -0.4228
 7007SOL    HW132654   0.437   4.546   7.845 -0.2790  3.3600  0.5191
 7007SOL    HW232655   0.443   4.523   7.701  2.7455  0.2155 -2.0926
 7008SOL     OW32656   0.255   0.022  10.911 -0.3011  0.3413  0.0324
 7008SOL    HW132657   0.243   0.040  10.818 -3.7546 -0.1380  0.3923
 7008SOL    HW232658   0.345   0.054  10.905 -0.5574  1.0560  0.0383
 7009SOL     OW32659   3.281   0.297   1.525  0.0918  0.3609  0.1269
 7009SOL    HW132660   3.191   0.305   1.494  0.9922  2.7194 -1.8591
 7009SOL    HW232661   3.313   0.258   1.444 -0.8666  0.9797 -0.5438
 7010SOL     OW32662   1.212   2.279   1.645 -0.6599 -0.1341 -0.1065
 7010SOL    HW132663   1.284   2.330   1.607 -1.0976 -1.6211 -2.8912
 7010SOL    HW232664   1.132   2.310   1.604 -0.8237 -0.2241  0.1433
 7011SOL     OW32665   4.670   2.034  16.343  0.1636  0.3013  0.1541
 7011SOL    HW132666   4.702   1.955  16.299 -1.1823 -0.9652  1.4554
 7011SOL    HW232667   4.584   2.041  16.302  1.5087  2.3154 -2.3288
 7012SOL     OW32668   3.650   4.282   5.340 -0.0475 -0.0284  0.2340
 7012SOL    HW132669   3.718   4.215   5.349  2.3379  2.3857  0.1851
 7012SOL    HW232670   3.662   4.341   5.414 -0.9123 -0.5321  0.7741
 7013SOL     OW32671   2.207   1.250   3.612 -0.0465 -0.1879 -0.5593
 7013SOL    HW132672   2.253   1.326   3.576  2.1717 -1.6893 -0.8684
 7013SOL    HW232673   2.275   1.190   3.641  0.1192  0.1832 -0.1918
 7014SOL     OW32674   1.384   2.768  17.505 -0.0904  0.7027  0.0622
 7014SOL    HW132675   1.403   2.703  17.572  0.0073  0.1265 -0.5313
 7014SOL    HW232676   1.454   2.738  17.448  0.0681  3.5753 -1.2527
 7015SOL     OW32677   3.776   0.143   5.825  0.3564 -0.3319  0.4054
 7015SOL    HW132678   3.829   0.222   5.829  1.0632 -0.7758 -0.0450
 7015SOL    HW232679   3.755   0.124   5.917  0.4306  0.6953  0.6278
 7016SOL     OW32680   3.913   2.147  16.897  0.5573  0.4332 -0.7541
 7016SOL    HW132681   3.991   2.169  16.948  0.4799 -1.3513  0.1386
 7016SOL    HW232682   3.944   2.064  16.861 -1.4202 -0.5929 -0.1133
 7017SOL     OW32683   3.246   3.300   5.227  0.2609 -0.1287  0.4415
 7017SOL    HW132684   3.233   3.213   5.191 -1.0747  0.3980 -0.3828
 7017SOL    HW232685   3.166   3.310   5.279 -1.0160  1.1973 -1.7397
 7018SOL     OW32686   3.784   0.277   6.662 -0.0147  0.1615 -0.0685
 7018SOL    HW132687   3.783   0.310   6.752  1.5280  1.3816 -0.4946
 7018SOL    HW232688   3.760   0.187   6.683 -2.2022  1.2046  1.8639
 7019SOL     OW32689   3.376   2.216   1.901 -0.3953  0.5025 -1.1413
 7019SOL    HW132690   3.282   2.211   1.890 -0.3268 -1.3583 -0.8131
 7019SOL    HW232691   3.385   2.281   1.971 -0.0529 -0.2315 -0.5019
 7020SOL     OW32692   0.700   0.532   1.862 -0.6776  0.1466 -0.0148
 7020SOL    HW132693   0.633   0.521   1.929 -1.9975  0.6824 -1.2321
 7020SOL    HW232694   0.674   0.458   1.807 -0.4289 -0.0399  0.1196
 7021SOL     OW32695   4.247   0.440  13.404  0.2956  0.4195  0.2779
 7021SOL    HW132696   4.194   0.401  13.334 -0.0208 -0.2586  0.8935
 7021SOL    HW232697   4.179   0.482  13.457  0.3958 -0.7283  1.3109
 7022SOL     OW32698   0.200   3.956   4.855  0.0387  0.8613 -0.2303
 7022SOL    HW132699   0.172   3.995   4.938 -0.0806 -0.3510  0.3099
 7022SOL    HW232700   0.219   4.027   4.793  0.5890  2.4820  1.8057
 7023SOL     OW32701   0.514   4.283   3.279  0.3884 -1.0781  0.1586
 7023SOL    HW132702   0.563   4.276   3.198  0.0433 -0.0684 -0.1371
 7023SOL    HW232703   0.565   4.350   3.324  1.6766 -0.8818 -1.5995
 7024SOL     OW32704   3.135   2.813   4.932 -0.2981  0.4448  0.5900
 7024SOL    HW132705   3.140   2.782   4.841 -2.2198  0.3408  0.5227
 7024SOL    HW232706   3.215   2.770   4.962 -0.1684  1.7194  2.0545
 7025SOL     OW32707   2.996   2.436   2.252 -0.1686  0.2267 -0.0055
 7025SOL    HW132708   3.028   2.392   2.330 -0.6524 -0.7300 -0.3479
 7025SOL    HW232709   2.944   2.509   2.286 -0.4834 -0.5573  1.1742
 7026SOL     OW32710   4.709   2.148   2.155 -0.2023  0.1798 -0.4181
 7026SOL    HW132711   4.614   2.153   2.140 -0.3803  3.3794  1.9153
 7026SOL    HW232712   4.706   2.081   2.224 -2.2554  1.4270  0.6848
 7027SOL     OW32713   0.909   2.644   9.043 -0.0384 -0.4102  0.3433
 7027SOL    HW132714   0.930   2.734   9.017  0.6808 -0.6282  0.1657
 7027SOL    HW232715   0.899   2.650   9.138 -0.0888 -0.9893  0.3776
 7028SOL     OW32716   3.884   3.464   2.311  0.8137  0.2470  0.0459
 7028SOL    HW132717   3.890   3.376   2.349 -0.2428  0.7382  1.3429
 7028SOL    HW232718   3.822   3.442   2.241  1.0832  0.7061 -0.3354
 7029SOL     OW32719   0.044   2.291   1.462  0.5169  0.6892 -0.0143
 7029SOL    HW132720   0.058   2.382   1.489 -1.3165  1.0720 -0.3853
 7029SOL    HW232721   0.127   2.247   1.481  0.2490 -0.2034 -0.9832
 7030SOL     OW32722   2.106   1.053   8.624 -0.2174 -0.3991  0.1019
 7030SOL    HW132723   2.038   1.110   8.660  0.5436  1.7567 -1.8707
 7030SOL    HW232724   2.179   1.113   8.609 -1.1387  0.4676 -0.9117
 7031SOL     OW32725   0.539   3.382   2.099  0.0406 -0.1863  0.0375
 7031SOL    HW132726   0.601   3.325   2.142 -0.1216  0.0626  0.5981
 7031SOL    HW232727   0.569   3.470   2.124 -0.4692 -0.9440  3.2653
 7032SOL     OW32728   4.224   1.108   4.500 -0.6805 -0.3714 -0.7635
 7032SOL    HW132729   4.308   1.071   4.528 -1.4130  1.9187  4.4258
 7032SOL    HW232730   4.170   1.082   4.574  1.0318 -1.3156  0.1552
 7033SOL     OW32731   0.698   2.459  16.394  0.6456 -0.3267  0.2954
 7033SOL    HW132732   0.629   2.470  16.330  2.1044  0.2977 -1.1759
 7033SOL    HW232733   0.651   2.415  16.464  1.7338 -2.7411 -0.5027
 7034SOL     OW32734   0.846   3.773   8.024 -0.0812 -0.2241 -0.2689
 7034SOL    HW132735   0.890   3.772   7.939  0.1302  1.3133 -0.1905
 7034SOL    HW232736   0.833   3.679   8.034 -1.1018 -0.1955 -1.3852
 7035SOL     OW32737   2.860   0.093   6.315  0.3275  0.2637 -0.0056
 7035SOL    HW132738   2.889   0.179   6.345 -0.9727  0.3631  0.9794
 7035SOL    HW232739   2.934   0.039   6.343  0.7066 -0.0300 -1.5933
 7036SOL     OW32740   3.494   0.469  16.259 -0.2901  0.0215  0.0135
 7036SOL    HW132741   3.410   0.439  16.224 -0.9267 -0.2019  1.7503
 7036SOL    HW232742   3.551   0.432  16.192 -0.8315 -0.4541 -0.1877
 7037SOL     OW32743   2.886   1.466   5.204 -0.5153  0.2435  0.5969
 7037SOL    HW132744   2.975   1.454   5.237 -1.3107 -0.6621  2.4201
 7037SOL    HW232745   2.861   1.529   5.271  0.7741 -0.4482  1.7175
 7038SOL     OW32746   4.156   0.187   7.415 -0.1455  0.0876 -0.2941
 7038SOL    HW132747   4.125   0.097   7.421  0.7413 -0.2465 -0.5993
 7038SOL    HW232748   4.207   0.199   7.495 -1.3255  0.9900  0.3062
 7039SOL     OW32749   1.711   4.535   2.426 -0.4641  0.2735  0.0105
 7039SOL    HW132750   1.631   4.528   2.478  1.6862 -1.3032  3.0602
 7039SOL    HW232751   1.775   4.583   2.478  1.3496 -0.6425 -1.3907
 7040SOL     OW32752   3.968   1.844   7.842 -0.0586 -0.1065 -0.5397
 7040SOL    HW132753   3.929   1.901   7.776 -0.3962 -0.4725 -0.6632
 7040SOL    HW232754   4.051   1.890   7.853 -0.9177  1.5573 -1.1498
 7041SOL     OW32755   0.699   1.995   1.544 -0.2776  0.0660 -0.4037
 7041SOL    HW132756   0.652   2.071   1.511  0.6595  0.9306  0.2395
 7041SOL    HW232757   0.757   2.041   1.606 -0.5284 -0.5507  0.2951
 7042SOL     OW32758   0.163   0.232  11.594 -0.1423 -0.2928 -0.1111
 7042SOL    HW132759   0.228   0.252  11.662  1.2889 -2.0318 -0.9690
 7042SOL    HW232760   0.221   0.181  11.537  0.8565  1.2629 -0.5223
 7043SOL     OW32761   0.626   3.972   8.045  0.0628  0.0710  0.0641
 7043SOL    HW132762   0.665   3.887   8.064  2.1619  0.9803 -0.1866
 7043SOL    HW232763   0.534   3.951   8.031  0.1337  0.4839 -1.0904
 7044SOL     OW32764   2.028   3.275   9.285  0.1495 -0.4444  0.3494
 7044SOL    HW132765   2.009   3.333   9.212 -1.1866  0.2543  1.2554
 7044SOL    HW232766   1.958   3.209   9.280  1.0296 -1.3645  0.0997
 7045SOL     OW32767   1.437   3.220   5.331 -0.1843  0.4838  0.3320
 7045SOL    HW132768   1.529   3.202   5.347  0.2875  1.0507 -1.7183
 7045SOL    HW232769   1.403   3.131   5.335  0.3933  0.2670  0.3542
 7046SOL     OW32770   0.332   2.171   3.836  0.1835  0.2884 -0.4097
 7046SOL    HW132771   0.391   2.131   3.771  1.5551  1.4069  0.1454
 7046SOL    HW232772   0.247   2.167   3.793  1.2704 -1.1611 -2.4505
 7047SOL     OW32773   0.331   4.470   9.277 -0.1939  0.0545 -0.3170
 7047SOL    HW132774   0.420   4.437   9.292  0.1339  0.3173 -1.6425
 7047SOL    HW232775   0.286   4.386   9.288  1.5013 -1.2376 -3.2437
 7048SOL     OW32776   0.375   3.183   0.004  0.2609 -0.3321  0.0462
 7048SOL    HW132777   0.427   3.262   0.020 -0.5403 -0.4704  3.3046
 7048SOL    HW232778   0.288   3.218   0.020  0.2385  1.4080 -3.9273
 7049SOL     OW32779   3.812   0.672   1.701 -0.0652  0.1826  0.1509
 7049SOL    HW132780   3.721   0.704   1.707  0.1237  0.9931 -1.3604
 7049SOL    HW232781   3.863   0.747   1.732 -0.7115  0.5409  0.3711
 7050SOL     OW32782   4.193   1.876   8.537 -0.0558 -0.0129  0.5887
 7050SOL    HW132783   4.121   1.877   8.600 -1.4469  1.8988 -1.0363
 7050SOL    HW232784   4.150   1.926   8.468 -0.6144  0.2684  1.1526
 7051SOL     OW32785   2.247   0.629   8.589 -0.3889 -0.5546  0.2036
 7051SOL    HW132786   2.155   0.627   8.615 -0.0300  0.5735  1.5622
 7051SOL    HW232787   2.255   0.715   8.548 -0.1124 -0.9879 -0.6507
 7052SOL     OW32788   3.134   4.045   5.202 -0.0585  0.4390 -0.3058
 7052SOL    HW132789   3.213   4.089   5.232 -0.8597 -0.0460  2.5058
 7052SOL    HW232790   3.151   3.952   5.213 -1.7326  0.2396  0.5924
 7053SOL     OW32791   3.484   2.855   8.857  0.2437 -0.0535  0.1009
 7053SOL    HW132792   3.495   2.772   8.904 -1.9619  0.0763  0.8530
 7053SOL    HW232793   3.455   2.811   8.778 -0.7083 -1.6406  1.3308
 7054SOL     OW32794   2.459   3.758   5.862  0.1019  0.2123  0.1584
 7054SOL    HW132795   2.457   3.666   5.886 -0.4059  0.9254  2.8028
 7054SOL    HW232796   2.541   3.756   5.811 -0.6227 -1.0305 -0.9362
 7055SOL     OW32797   2.606   1.187  16.496  0.0261  0.0078 -0.6063
 7055SOL    HW132798   2.672   1.118  16.494  0.2468  0.2864 -2.8498
 7055SOL    HW232799   2.657   1.268  16.498  0.2394 -0.1493  0.1580
 7056SOL     OW32800   0.480   1.959  13.083 -0.2768  0.0805 -0.1186
 7056SOL    HW132801   0.492   1.866  13.102  1.0621 -0.1548 -2.1516
 7056SOL    HW232802   0.462   1.971  12.990 -2.3705 -3.2878 -0.1453
 7057SOL     OW32803   1.541   2.705   8.083 -0.2360 -0.0629 -0.2659
 7057SOL    HW132804   1.482   2.642   8.124  0.4701 -1.6717 -1.6892
 7057SOL    HW232805   1.602   2.639   8.051  0.1975  0.8024 -1.2274
 7058SOL     OW32806   2.216   0.393   0.242 -0.6553  0.0093  0.8245
 7058SOL    HW132807   2.279   0.324   0.265 -2.1850 -1.5197  0.4741
 7058SOL    HW232808   2.237   0.461   0.305  0.7772  0.1067  0.2441
 7059SOL     OW32809   3.385   2.996   0.393  0.2618  0.7280 -0.3143
 7059SOL    HW132810   3.329   3.073   0.399  1.9864  1.8156  1.9370
 7059SOL    HW232811   3.337   2.947   0.326  1.9398  0.5046 -1.3649
 7060SOL     OW32812   0.525   2.137   4.841  0.1518  0.1429 -0.2326
 7060SOL    HW132813   0.491   2.061   4.795 -0.2201  0.0636  0.1735
 7060SOL    HW232814   0.583   2.179   4.778  1.1233 -0.9794 -0.1025
 7061SOL     OW32815   2.176   3.994   4.387 -0.6244  0.0165 -0.2559
 7061SOL    HW132816   2.127   4.075   4.370  0.9761  0.9178 -0.6121
 7061SOL    HW232817   2.113   3.923   4.399 -3.3488  2.2371 -1.3964
 7062SOL     OW32818   1.437   0.662   4.124  0.9124  0.3329 -0.0040
 7062SOL    HW132819   1.372   0.722   4.087  0.8043  1.2524  1.6514
 7062SOL    HW232820   1.524   0.687   4.093  0.7199 -0.3280 -1.0475
 7063SOL     OW32821   0.040   2.983  17.744 -0.1406  0.2741 -1.0377
 7063SOL    HW132822   0.068   3.074  17.744  1.1795 -0.1540  1.4940
 7063SOL    HW232823   0.095   2.946  17.675  1.4983  1.9476 -0.6092
 7064SOL     OW32824   2.584   0.528  15.806 -0.2640  0.4931 -0.7552
 7064SOL    HW132825   2.490   0.546  15.795 -0.1322  1.0582 -0.9883
 7064SOL    HW232826   2.598   0.443  15.765  3.0362  0.7871 -0.2408
 7065SOL     OW32827   0.678   1.609   8.850  0.0454  0.3224  0.2839
 7065SOL    HW132828   0.625   1.665   8.793 -1.8498 -0.1517  1.6035
 7065SOL    HW232829   0.664   1.523   8.809  0.0935 -0.2713  1.5252
 7066SOL     OW32830   1.547   3.584  13.221 -0.7145  0.1494  0.1871
 7066SOL    HW132831   1.567   3.524  13.293  0.8189  2.4585  1.6826
 7066SOL    HW232832   1.591   3.542  13.147 -1.5970  0.4645 -0.5179
 7067SOL     OW32833   3.103   3.261   6.167 -0.0536 -0.0034  0.6599
 7067SOL    HW132834   3.065   3.343   6.200 -1.2717 -0.9434  1.6161
 7067SOL    HW232835   3.128   3.220   6.249  0.0221  0.4457  0.8647
 7068SOL     OW32836   0.190   2.105  16.412 -0.8104 -0.1272  0.5510
 7068SOL    HW132837   0.095   2.091  16.420 -1.0348  0.3848 -1.3780
 7068SOL    HW232838   0.208   2.067  16.326  1.9326  1.3313  0.4887
 7069SOL     OW32839   1.635   2.380   1.497 -0.2726 -0.1804 -0.0735
 7069SOL    HW132840   1.604   2.327   1.570 -2.4797 -0.3646 -1.1718
 7069SOL    HW232841   1.724   2.394   1.530  0.3269  1.4781 -2.4118
 7070SOL     OW32842   3.557   1.599   5.375 -0.0230 -0.5823  0.1007
 7070SOL    HW132843   3.539   1.515   5.332  1.9781 -1.1893  0.4652
 7070SOL    HW232844   3.556   1.572   5.467 -0.7221  0.1367  0.3052
 7071SOL     OW32845   2.601   2.478   6.745 -1.2199  0.6922  0.2342
 7071SOL    HW132846   2.650   2.457   6.824 -0.5027  1.8310  0.0877
 7071SOL    HW232847   2.548   2.398   6.739  1.2246 -0.9098  0.1722
 7072SOL     OW32848   2.288   4.327   4.104 -0.3678 -0.5324 -0.0625
 7072SOL    HW132849   2.271   4.318   4.010  2.0338 -0.6704 -0.4852
 7072SOL    HW232850   2.298   4.237   4.135 -0.4984 -0.2518  0.7928
 7073SOL     OW32851   0.337   0.470   7.335 -0.2044 -0.1767 -0.6946
 7073SOL    HW132852   0.386   0.470   7.253  2.1989 -1.7590  0.7465
 7073SOL    HW232853   0.392   0.517   7.398  1.7185 -1.6441 -1.2959
 7074SOL     OW32854   0.997   3.137  12.309  0.1639  0.3437 -0.6765
 7074SOL    HW132855   1.025   3.082  12.236 -0.9217  1.9394 -2.2862
 7074SOL    HW232856   1.040   3.221  12.294  1.4807 -0.3396 -0.7628
 7075SOL     OW32857   1.885   2.661   2.698  1.0793 -0.1828 -0.7329
 7075SOL    HW132858   1.820   2.719   2.659 -0.6126 -0.9936  0.8662
 7075SOL    HW232859   1.883   2.588   2.636 -2.9970  0.2059 -1.0267
 7076SOL     OW32860   2.369   1.228   3.313  0.7094  0.3325 -0.1052
 7076SOL    HW132861   2.459   1.220   3.344  0.1905  0.0980  1.3029
 7076SOL    HW232862   2.341   1.311   3.351  3.8204  0.4272  1.9285
 7077SOL     OW32863   1.000   2.485   2.187 -0.2335 -0.1371 -0.2255
 7077SOL    HW132864   1.040   2.481   2.274  0.0297 -2.8602 -0.4674
 7077SOL    HW232865   0.917   2.439   2.192 -0.2438 -0.0945  0.0009
 7078SOL     OW32866   3.224   4.048   3.623  0.0159 -0.1059  0.4566
 7078SOL    HW132867   3.229   3.963   3.580  0.3118 -0.2738  0.8218
 7078SOL    HW232868   3.215   4.107   3.547  2.7610  2.0793  1.8247
 7079SOL     OW32869   0.221   1.969  10.529 -0.4361 -0.2334 -0.1045
 7079SOL    HW132870   0.190   1.974  10.439 -0.7357  0.1720  0.0182
 7079SOL    HW232871   0.275   1.890  10.523 -0.4312 -0.1463 -1.1450
 7080SOL     OW32872   0.090   3.663  10.211  0.2398 -0.2662  0.2651
 7080SOL    HW132873   0.153   3.727  10.243 -0.0364 -0.0041  0.2861
 7080SOL    HW232874   0.015   3.714  10.179 -0.4339 -1.1422  0.4519
 7081SOL     OW32875   1.054   0.319  13.304 -0.0380 -0.4281  0.1267
 7081SOL    HW132876   1.073   0.407  13.336 -1.0640  0.0559 -0.6112
 7081SOL    HW232877   1.140   0.291  13.275 -0.1050  0.5905 -1.0486
 7082SOL     OW32878   3.307   0.430   5.354 -0.6445  0.4322  0.0046
 7082SOL    HW132879   3.270   0.397   5.436  0.0531  0.7546  0.4519
 7082SOL    HW232880   3.278   0.361   5.294  0.1023  1.3493 -1.4003
 7083SOL     OW32881   2.803   2.520   1.829  0.0541 -0.0456  0.0305
 7083SOL    HW132882   2.726   2.471   1.859  0.3523 -0.3156  0.3645
 7083SOL    HW232883   2.773   2.543   1.741  0.8542 -1.8414 -0.7252
 7084SOL     OW32884   1.487   1.546   3.584 -0.0173 -0.1617 -1.1112
 7084SOL    HW132885   1.530   1.487   3.522  1.9400  1.4813 -1.2932
 7084SOL    HW232886   1.529   1.630   3.567 -2.1011  1.1955  0.4546
 7085SOL     OW32887   3.217   1.732   2.937 -0.1600  0.1514 -0.6921
 7085SOL    HW132888   3.165   1.703   3.012  0.5790 -0.9550 -0.6019
 7085SOL    HW232889   3.303   1.691   2.951  0.0352  0.4821 -0.9138
 7086SOL     OW32890   0.013   1.963   5.825  0.2249 -0.4439  0.1367
 7086SOL    HW132891   4.684   2.015   5.779  0.0463  1.9072  3.0622
 7086SOL    HW232892   0.001   1.883   5.773 -1.7043 -0.8511  1.2329
 7087SOL     OW32893   1.532   3.441  13.463  0.2829 -0.0514  0.1839
 7087SOL    HW132894   1.492   3.365  13.505 -1.6892  0.0864 -1.4972
 7087SOL    HW232895   1.450   3.481  13.437 -0.3444  0.4991  3.0393
 7088SOL     OW32896   0.609   4.491  15.700 -0.5092 -0.2463 -0.6376
 7088SOL    HW132897   0.561   4.410  15.714  2.6277 -1.9132  0.4352
 7088SOL    HW232898   0.528   4.534  15.672  0.4063  1.3302 -0.8999
 7089SOL     OW32899   0.724   0.699   1.591 -0.3833  0.4255  0.5233
 7089SOL    HW132900   0.705   0.656   1.675  1.0931 -1.0764  0.0912
 7089SOL    HW232901   0.707   0.626   1.532  1.3442  1.9436 -1.8412
 7090SOL     OW32902   1.118   1.406   5.524 -0.0214  0.3017 -0.0833
 7090SOL    HW132903   1.081   1.442   5.443  0.3769 -0.2237 -0.5077
 7090SOL    HW232904   1.207   1.442   5.521 -0.6065  1.8854  2.3341
 7091SOL     OW32905   3.318   3.582   7.318  0.1982 -0.1083 -0.2743
 7091SOL    HW132906   3.392   3.522   7.328  0.5643  0.4374  0.2958
 7091SOL    HW232907   3.323   3.636   7.397  1.3492  0.3678 -0.6717
 7092SOL     OW32908   3.339   2.908  14.493  0.6546 -0.9019  0.3350
 7092SOL    HW132909   3.347   2.979  14.429  2.1632  0.3459  1.9068
 7092SOL    HW232910   3.310   2.832  14.443 -1.4834  1.5463 -2.1624
 7093SOL     OW32911   1.186   2.562   1.746  0.3375  0.4302  0.7781
 7093SOL    HW132912   1.244   2.633   1.772  1.3342 -0.1459  0.1370
 7093SOL    HW232913   1.218   2.543   1.658  0.6184 -1.2844  1.2445
 7094SOL     OW32914   0.042   1.265   3.953 -0.1349 -0.3467  0.2051
 7094SOL    HW132915   0.090   1.182   3.954 -0.0208 -0.2627  1.4456
 7094SOL    HW232916   0.004   1.264   3.865  0.6201 -0.1972 -0.1221
 7095SOL     OW32917   3.922   3.093   4.406  0.3892  0.3575 -0.3680
 7095SOL    HW132918   3.882   3.025   4.352 -2.8446  0.2356  2.1382
 7095SOL    HW232919   3.908   3.062   4.496 -0.4333 -2.0658 -1.3462
 7096SOL     OW32920   2.233   2.311   6.210  0.4757 -0.1995  0.4356
 7096SOL    HW132921   2.239   2.383   6.148 -0.1109 -2.3430 -2.1033
 7096SOL    HW232922   2.141   2.285   6.210  0.0787  1.2351 -2.3049
 7097SOL     OW32923   0.721   1.510  10.127  0.4522  0.1641  0.0873
 7097SOL    HW132924   0.717   1.598  10.163  0.3817  0.3608 -0.4082
 7097SOL    HW232925   0.767   1.472  10.202  1.9564 -4.2453 -3.0129
 7098SOL     OW32926   1.962   4.170   3.540  0.0751 -0.1969 -0.6787
 7098SOL    HW132927   1.884   4.214   3.508  0.2958 -0.0613 -1.0252
 7098SOL    HW232928   2.026   4.239   3.526  1.3517 -1.7333 -2.4700
 7099SOL     OW32929   4.443   2.134   4.510  0.2574  0.0826  0.1247
 7099SOL    HW132930   4.526   2.091   4.530 -1.0932 -2.1903  0.8376
 7099SOL    HW232931   4.472   2.198   4.445  0.2338 -0.4492 -0.4040
 7100SOL     OW32932   0.363   1.982   7.794 -0.1901  0.3179  0.0050
 7100SOL    HW132933   0.369   1.962   7.887  0.9287 -0.3491 -0.2218
 7100SOL    HW232934   0.321   2.068   7.795 -0.1926  0.3106  0.4221
 7101SOL     OW32935   2.457   0.904   3.253 -0.2005  0.2360 -0.7513
 7101SOL    HW132936   2.390   0.958   3.294  0.5011  1.5180 -1.2852
 7101SOL    HW232937   2.536   0.929   3.300 -0.4521 -0.2129 -0.0989
 7102SOL     OW32938   0.031   3.218   7.904 -0.0471  0.0344 -0.3021
 7102SOL    HW132939   4.704   3.183   7.966 -0.8992  2.5208  0.2252
 7102SOL    HW232940   0.044   3.134   7.859 -1.9254 -0.5601  0.2351
 7103SOL     OW32941   1.257   0.804   1.021  0.0766 -0.0968  0.0074
 7103SOL    HW132942   1.286   0.815   0.930 -3.0000 -0.2668 -0.9788
 7103SOL    HW232943   1.337   0.828   1.069 -0.7601  0.6125  1.0398
 7104SOL     OW32944   0.050   2.973   9.148 -0.6032 -0.1786 -0.0001
 7104SOL    HW132945   0.096   2.997   9.228 -0.1447 -1.1932  0.0448
 7104SOL    HW232946   4.695   2.996   9.158 -0.0598  0.6665  3.0165
 7105SOL     OW32947   2.669   2.301   2.210 -0.0569  0.2589 -0.0458
 7105SOL    HW132948   2.747   2.300   2.266 -0.0967 -2.2699 -0.0480
 7105SOL    HW232949   2.634   2.214   2.227 -1.0325 -0.0388 -3.7507
 7106SOL     OW32950   1.060   0.670   0.084  0.8682  0.0565 -0.2519
 7106SOL    HW132951   1.053   0.590   0.136  0.8341  0.3506  0.2065
 7106SOL    HW232952   1.050   0.621   0.003 -1.4147  0.0693  0.0200
 7107SOL     OW32953   3.902   4.315   4.480 -0.0977  0.0656  0.0447
 7107SOL    HW132954   3.964   4.247   4.452 -0.0303  0.2694 -0.2984
 7107SOL    HW232955   3.820   4.280   4.446 -0.8147 -0.8283  2.6273
 7108SOL     OW32956   3.465   3.987   5.769  0.2326  0.5603  0.0183
 7108SOL    HW132957   3.495   3.926   5.835  0.0013 -0.9922 -1.3167
 7108SOL    HW232958   3.471   3.933   5.691  0.4896  1.7461 -0.7825
 7109SOL     OW32959   3.368   2.706   3.858 -0.0035  0.0431  0.4218
 7109SOL    HW132960   3.400   2.617   3.845  0.0347 -0.4167  3.6274
 7109SOL    HW232961   3.437   2.761   3.821 -0.4950  0.7498  0.5419
 7110SOL     OW32962   0.058   3.382  13.850  0.7858 -0.4935 -0.2589
 7110SOL    HW132963   0.106   3.335  13.782  1.8688 -1.0498  0.8768
 7110SOL    HW232964   4.711   3.401  13.809  0.3556 -1.2749  0.2837
 7111SOL     OW32965   1.913   3.333   6.170  0.8394 -0.3621  0.2312
 7111SOL    HW132966   1.841   3.396   6.166 -0.8940 -2.3219  0.5649
 7111SOL    HW232967   1.862   3.258   6.198  0.0934  0.7929  1.9579
 7112SOL     OW32968   2.213   0.783   7.644  0.2966 -0.6320  0.2746
 7112SOL    HW132969   2.223   0.813   7.735 -1.1025 -1.1999  0.6166
 7112SOL    HW232970   2.184   0.860   7.595 -0.0711  0.2313  1.8251
 7113SOL     OW32971   0.065   0.103   9.730 -0.9736  0.3727 -0.3463
 7113SOL    HW132972   0.043   0.051   9.806  0.4183 -0.8693 -0.7768
 7113SOL    HW232973   0.156   0.131   9.741 -1.1560  0.4991  0.8283
 7114SOL     OW32974   4.637   1.222  15.934 -0.3741  0.2585 -0.2663
 7114SOL    HW132975   4.668   1.312  15.927 -1.3447  0.5258 -1.2259
 7114SOL    HW232976   4.706   1.186  15.989  0.7394  1.0835 -1.1210
 7115SOL     OW32977   2.736   2.968  14.414  0.3133  0.5063 -0.1389
 7115SOL    HW132978   2.657   2.929  14.451  0.3030  2.0192  1.4029
 7115SOL    HW232979   2.798   2.936  14.479  3.0595 -1.3486 -3.6304
 7116SOL     OW32980   3.935   2.274   2.698  0.4308  0.5513 -0.1574
 7116SOL    HW132981   4.015   2.252   2.650  1.1115 -1.1006  1.7022
 7116SOL    HW232982   3.944   2.203   2.762 -0.5725  1.1384  0.6181
 7117SOL     OW32983   1.077   1.216   2.478 -0.2785 -0.4024 -0.3989
 7117SOL    HW132984   1.122   1.157   2.539 -2.7290 -2.5934 -0.7484
 7117SOL    HW232985   1.052   1.163   2.403 -0.9488 -1.7626  0.7923
 7118SOL     OW32986   0.232   3.887   7.489 -0.1483  0.2003 -0.1298
 7118SOL    HW132987   0.267   3.965   7.532 -2.9060  1.4969 -0.2405
 7118SOL    HW232988   0.310   3.832   7.501  0.0201  0.2724 -0.9427
 7119SOL     OW32989   1.463   1.782   2.165  0.4059 -0.2801 -0.2939
 7119SOL    HW132990   1.442   1.831   2.085 -0.5624  0.9845  0.7285
 7119SOL    HW232991   1.438   1.841   2.236  0.8562 -0.3005 -0.1213
 7120SOL     OW32992   2.109   0.501   3.683  0.3824  0.5551  0.2631
 7120SOL    HW132993   2.082   0.525   3.594 -1.6476  0.2935  0.7939
 7120SOL    HW232994   2.089   0.408   3.695  0.6171  0.3609 -0.8158
 7121SOL     OW32995   0.387   1.062   6.264  0.8127  0.2051 -0.0398
 7121SOL    HW132996   0.370   0.971   6.290 -2.0753  0.7158 -0.0913
 7121SOL    HW232997   0.380   1.101   6.351  4.4797 -2.5809  1.5164
 7122SOL     OW32998   0.819   4.510   5.547  0.1382  0.6111 -0.3967
 7122SOL    HW132999   0.811   4.566   5.470 -1.2111  1.2734  0.2248
 7122SOL    HW233000   0.797   4.425   5.510  1.1849 -0.6608  1.9054
 7123SOL     OW33001   2.078   4.028   4.664  0.6022 -0.5288 -0.0902
 7123SOL    HW133002   2.015   3.976   4.614  1.6504 -1.5543 -0.3194
 7123SOL    HW233003   2.027   4.072   4.732 -0.3666 -0.6395 -0.7303
 7124SOL     OW33004   0.462   4.672   5.418  0.1282 -0.2368  0.1532
 7124SOL    HW133005   0.419   4.671   5.503 -1.8685 -0.5707 -0.8516
 7124SOL    HW233006   0.388   4.683   5.358  1.8788 -0.2137 -2.0121
 7125SOL     OW33007   4.524   1.767   3.988 -0.1895  0.0425 -0.5259
 7125SOL    HW133008   4.521   1.672   3.991 -0.5622  0.0376 -1.1584
 7125SOL    HW233009   4.461   1.800   3.924 -0.1450  1.7496  0.2934
 7126SOL     OW33010   2.091   3.731   8.006 -0.0802 -0.2689  0.3872
 7126SOL    HW133011   2.098   3.709   8.099 -0.4732 -2.5970 -0.1138
 7126SOL    HW233012   2.001   3.763   8.010 -0.1708 -0.4106 -0.5173
 7127SOL     OW33013   4.244   1.403   5.514 -0.5092  0.0814  0.3779
 7127SOL    HW133014   4.221   1.328   5.460  1.5815 -1.9957  2.4052
 7127SOL    HW233015   4.287   1.355   5.585 -0.2623 -0.9701 -0.4901
 7128SOL     OW33016   3.021   2.659   3.248  0.1580 -0.0752 -0.0053
 7128SOL    HW133017   3.074   2.585   3.219 -0.2365  0.1137 -1.1993
 7128SOL    HW233018   2.971   2.686   3.171 -0.9044 -2.3140 -0.1208
 7129SOL     OW33019   1.494   4.642   3.152 -0.2036 -0.2346  0.2769
 7129SOL    HW133020   1.504   4.648   3.247  0.5809 -0.6840  0.2235
 7129SOL    HW233021   1.402   4.662   3.136 -0.7257 -1.1613  2.1299
 7130SOL     OW33022   3.639   1.065  16.649  0.6712 -0.0087 -0.4565
 7130SOL    HW133023   3.649   0.972  16.629 -0.3664  0.1312 -1.6329
 7130SOL    HW233024   3.622   1.057  16.742 -3.1405 -0.3627 -1.2029
 7131SOL     OW33025   3.433   4.210   4.882 -0.3794 -0.4225  0.0336
 7131SOL    HW133026   3.389   4.295   4.891  1.1548  0.2234  1.4862
 7131SOL    HW233027   3.438   4.198   4.787  0.0873 -0.1596  0.0261
 7132SOL     OW33028   3.888   4.290   8.563  0.1314  0.1144  0.1765
 7132SOL    HW133029   3.896   4.385   8.556 -2.3031  0.3556  0.9366
 7132SOL    HW233030   3.859   4.272   8.474  1.2315  0.9639 -0.3630
 7133SOL     OW33031   3.658   4.180   9.161 -0.0025  0.3924 -0.0733
 7133SOL    HW133032   3.731   4.146   9.109 -0.5039 -0.9690  0.1159
 7133SOL    HW233033   3.648   4.264   9.117 -0.8547  0.5421  0.4027
 7134SOL     OW33034   0.872   3.433   9.363  0.1933 -0.1120  0.1359
 7134SOL    HW133035   0.920   3.358   9.328  0.0685 -0.4685  0.7410
 7134SOL    HW233036   0.883   3.423   9.457 -0.4846 -1.1561  0.0957
 7135SOL     OW33037   0.092   1.669   6.562 -0.0493 -0.0630 -0.2016
 7135SOL    HW133038   0.165   1.690   6.620 -0.7964 -1.7203  1.3051
 7135SOL    HW233039   0.090   1.745   6.504  2.4633 -0.8796 -1.3667
 7136SOL     OW33040   2.636   3.291   3.882 -0.2773 -0.2694 -0.0551
 7136SOL    HW133041   2.623   3.224   3.815 -0.7473 -0.5941  0.3620
 7136SOL    HW233042   2.713   3.267   3.933  0.5016  1.3806 -0.4463
 7137SOL     OW33043   0.007   3.028   4.687  0.3237 -0.4344 -0.6501
 7137SOL    HW133044   4.670   3.088   4.693  1.0705  0.5132 -0.8836
 7137SOL    HW233045   0.069   3.084   4.640 -3.0512  1.8803 -2.2990
 7138SOL     OW33046   2.650   1.628   4.835  0.2346 -0.4914  0.1152
 7138SOL    HW133047   2.593   1.566   4.880 -2.4147  0.6188 -1.7193
 7138SOL    HW233048   2.670   1.691   4.905 -1.4327 -1.2972  1.3087
 7139SOL     OW33049   1.210   0.755   9.859 -0.0746  0.2175  0.0779
 7139SOL    HW133050   1.136   0.797   9.814  0.2182  1.1218  0.4475
 7139SOL    HW233051   1.274   0.823   9.841 -0.8925  1.0241  0.2222
 7140SOL     OW33052   4.288   0.732   4.662  0.2564  0.6262 -0.0926
 7140SOL    HW133053   4.232   0.668   4.707  1.4084 -0.5395 -0.2885
 7140SOL    HW233054   4.352   0.670   4.626 -1.2468 -1.6641  1.1908
 7141SOL     OW33055   0.811   0.369   8.703  0.2275  0.4392 -0.6362
 7141SOL    HW133056   0.847   0.420   8.631  0.1258 -0.5482 -1.3913
 7141SOL    HW233057   0.765   0.301   8.653 -0.2994  0.9653 -0.8643
 7142SOL     OW33058   2.969   3.055   3.336 -0.3408  0.0301 -0.4731
 7142SOL    HW133059   2.886   3.013   3.313 -1.7075  1.7008  1.3738
 7142SOL    HW233060   3.004   2.977   3.379 -1.9079  0.7352  2.0498
 7143SOL     OW33061   3.845   1.503   5.689  0.0076  0.6618  0.0246
 7143SOL    HW133062   3.772   1.538   5.637 -0.2207 -1.9499 -1.3946
 7143SOL    HW233063   3.921   1.542   5.645 -0.4595  0.8927 -0.5710
 7144SOL     OW33064   3.349   1.297  11.162  0.0603  0.0786 -0.1825
 7144SOL    HW133065   3.351   1.392  11.149 -1.6329  0.0765 -0.4222
 7144SOL    HW233066   3.436   1.274  11.129  0.1823 -2.5123  1.9678
 7145SOL     OW33067   0.417   2.881  16.163 -0.0895  0.3714 -0.0268
 7145SOL    HW133068   0.387   2.972  16.172  3.4755  1.7501 -2.1169
 7145SOL    HW233069   0.417   2.856  16.255 -2.2305  3.4081  0.8015
 7146SOL     OW33070   1.385   0.149   0.851 -0.2949  0.7061  0.1604
 7146SOL    HW133071   1.343   0.220   0.802  0.3098  2.2961  1.9272
 7146SOL    HW233072   1.404   0.206   0.926 -1.2925 -0.1272  1.0395
 7147SOL     OW33073   2.681   2.215   4.818 -0.1196 -0.6644 -0.0579
 7147SOL    HW133074   2.684   2.250   4.728  2.0472  1.4935  0.8691
 7147SOL    HW233075   2.774   2.201   4.834 -0.4074 -2.0981  0.3614
 7148SOL     OW33076   0.406   3.751  10.228 -0.0981 -0.6788  0.0955
 7148SOL    HW133077   0.462   3.823  10.258 -0.3823 -1.2191  1.8911
 7148SOL    HW233078   0.328   3.807  10.235  0.1304 -0.2433 -0.7722
 7149SOL     OW33079   1.649   2.058  11.908 -0.2059 -0.1818 -0.3653
 7149SOL    HW133080   1.576   2.035  11.966  0.0850 -2.6952 -0.9994
 7149SOL    HW233081   1.701   1.979  11.924 -0.0254 -0.2435 -1.2887
 7150SOL     OW33082   2.362   3.285   8.569 -0.3884  0.6252  0.7351
 7150SOL    HW133083   2.362   3.333   8.487  1.6255  1.2011  1.0740
 7150SOL    HW233084   2.442   3.312   8.615  1.6251 -4.8573  0.4185
 7151SOL     OW33085   3.742   0.095  13.232 -0.1467  0.3455  0.0137
 7151SOL    HW133086   3.825   0.120  13.191  0.0956  0.4310  0.5490
 7151SOL    HW233087   3.773   0.036  13.301 -1.8413 -1.7834 -1.0370
 7152SOL     OW33088   1.121   2.449   9.045  0.0096  0.2596 -0.5284
 7152SOL    HW133089   1.041   2.501   9.037 -1.5435 -1.8961  1.2504
 7152SOL    HW233090   1.156   2.465   8.957 -2.0696 -0.0351 -1.4205
 7153SOL     OW33091   0.547   2.457   8.469 -0.0056 -0.0722  0.1444
 7153SOL    HW133092   0.601   2.378   8.472 -0.6409 -0.5776 -2.2400
 7153SOL    HW233093   0.548   2.493   8.558 -0.0075  0.7418 -0.1904
 7154SOL     OW33094   1.133   0.833   7.412  0.1877  0.0578  0.2742
 7154SOL    HW133095   1.142   0.856   7.504  2.6837 -0.9676  0.2593
 7154SOL    HW233096   1.169   0.745   7.408  3.3164  1.3164  1.2717
 7155SOL     OW33097   0.799   3.139  12.049  0.6122 -0.2875  0.6633
 7155SOL    HW133098   0.728   3.135  11.984  0.2771 -1.0841  1.0807
 7155SOL    HW233099   0.875   3.119  11.994  0.6426 -1.9026  1.2964
 7156SOL     OW33100   0.285   3.059  11.663  0.9268  0.7861 -0.0263
 7156SOL    HW133101   0.308   2.993  11.728 -1.6208  2.1256  2.2444
 7156SOL    HW233102   0.287   3.145  11.707  1.0761 -0.0306  1.5735
 7157SOL     OW33103   1.831   2.432   5.636  0.1193  0.5101 -0.3966
 7157SOL    HW133104   1.913   2.383   5.640 -0.4008 -0.2862  0.6055
 7157SOL    HW233105   1.859   2.510   5.589  0.5432  1.8575  2.1207
 7158SOL     OW33106   2.731   1.078   4.832 -0.0752  0.1855  0.0174
 7158SOL    HW133107   2.734   0.997   4.781 -1.5835  0.0083  0.2173
 7158SOL    HW233108   2.676   1.043   4.902 -0.9794  0.6608 -0.4502
 7159SOL     OW33109   2.421   0.268   5.020  0.2060  0.4062 -0.1167
 7159SOL    HW133110   2.363   0.278   4.945  0.0693 -0.0745 -0.0797
 7159SOL    HW233111   2.472   0.348   5.017  1.9653 -0.7168 -0.3561
 7160SOL     OW33112   2.039   0.065   3.881  0.0801 -0.5070 -0.0962
 7160SOL    HW133113   2.119   0.012   3.885 -0.6277 -1.5092  1.0940
 7160SOL    HW233114   1.970   0.002   3.903  0.0933 -0.1624  0.9224
 7161SOL     OW33115   1.870   0.124   6.322 -0.1078  0.1472  0.4108
 7161SOL    HW133116   1.788   0.107   6.367 -1.8416  1.7566 -2.1441
 7161SOL    HW233117   1.932   0.154   6.389  2.3296 -1.4912 -1.1352
 7162SOL     OW33118   4.496   1.053  16.190  0.1403  0.0164  0.7803
 7162SOL    HW133119   4.477   1.144  16.171  0.7972 -0.0936 -0.4766
 7162SOL    HW233120   4.592   1.057  16.184  0.2546  0.4546  2.9495
 7163SOL     OW33121   3.773   0.728   6.914 -0.7512  0.3102  0.0265
 7163SOL    HW133122   3.720   0.786   6.860 -0.0691  0.2848 -0.6733
 7163SOL    HW233123   3.793   0.785   6.988  1.1994 -2.7852  1.9037
 7164SOL     OW33124   1.744   1.922   2.147  0.6381 -0.8448 -0.3625
 7164SOL    HW133125   1.753   1.871   2.066  1.7980 -1.4092  0.1290
 7164SOL    HW233126   1.763   2.003   2.100  0.0598 -0.4661  0.0610
 7165SOL     OW33127   1.222   0.395  12.990 -0.3161  0.0724 -0.0932
 7165SOL    HW133128   1.187   0.312  12.956  0.8486 -0.5914  0.3179
 7165SOL    HW233129   1.150   0.456  12.978 -3.9735 -3.7120  3.0395
 7166SOL     OW33130   3.136   3.256   4.008 -0.6438 -0.3493  0.5796
 7166SOL    HW133131   3.118   3.185   3.946  3.6962 -0.9169 -0.0909
 7166SOL    HW233132   3.094   3.325   3.956  0.8488 -0.5081 -0.8436
 7167SOL     OW33133   3.983   0.485   8.458  0.0841 -0.1918  0.1980
 7167SOL    HW133134   4.070   0.466   8.493  0.7139  1.0191 -0.7274
 7167SOL    HW233135   3.969   0.575   8.486 -0.9074 -0.1505 -0.4084
 7168SOL     OW33136   4.201   4.313   8.403 -0.3995 -0.0876  0.5284
 7168SOL    HW133137   4.150   4.233   8.413  0.5204 -1.1830 -3.6601
 7168SOL    HW233138   4.164   4.342   8.319 -2.1347  0.0139  1.3176
 7169SOL     OW33139   2.851   3.038   7.889  0.3959  0.9627 -0.4391
 7169SOL    HW133140   2.849   2.976   7.962  3.0330  1.4077  0.0130
 7169SOL    HW233141   2.757   3.056   7.887  0.2016 -0.0821 -1.2138
 7170SOL     OW33142   2.028   3.792   4.068 -0.1789  0.6186  0.2952
 7170SOL    HW133143   1.983   3.863   4.114 -2.9380 -1.2747  0.5416
 7170SOL    HW233144   2.070   3.749   4.143 -0.6992  1.3194  0.9868
 7171SOL     OW33145   0.566   2.998   1.654 -0.2759  0.4501 -0.6280
 7171SOL    HW133146   0.652   2.987   1.694  0.3923  0.1136 -2.1639
 7171SOL    HW233147   0.514   3.044   1.721  2.1392 -0.0320  1.5646
 7172SOL     OW33148   2.388   0.154  14.624 -0.0658 -0.0428  0.0815
 7172SOL    HW133149   2.402   0.241  14.661 -1.4723 -0.0963  0.7403
 7172SOL    HW233150   2.359   0.181  14.537 -3.3993  2.7847  2.0571
 7173SOL     OW33151   1.253   4.294   8.011 -0.6645  0.1489 -0.0369
 7173SOL    HW133152   1.317   4.356   8.045 -2.5247  0.1515  3.4799
 7173SOL    HW233153   1.170   4.337   8.031  0.0073  0.6607  1.6765
 7174SOL     OW33154   0.265   0.050   1.423  0.1911  0.4228  0.8240
 7174SOL    HW133155   0.286   0.045   1.330  0.5987  0.0397  0.9321
 7174SOL    HW233156   0.178   0.010   1.419 -0.6144  2.1131  1.3005
 7175SOL     OW33157   1.066   3.958   1.055 -0.0012 -0.7967 -0.1699
 7175SOL    HW133158   1.158   3.984   1.044 -0.4993  1.0565  0.0658
 7175SOL    HW233159   1.020   4.022   1.002 -1.1163 -0.6136  1.0217
 7176SOL     OW33160   3.763   0.690   9.461  0.4684  0.1765  0.1822
 7176SOL    HW133161   3.686   0.662   9.412 -0.2960  1.4080  0.6764
 7176SOL    HW233162   3.713   0.713   9.540  0.7706 -0.1138  0.4580
 7177SOL     OW33163   1.023   0.221   6.376  0.0130  0.2348  0.6117
 7177SOL    HW133164   1.059   0.172   6.302  2.0312  0.8199  1.2017
 7177SOL    HW233165   1.099   0.274   6.400 -0.4354 -0.0342  2.6233
 7178SOL     OW33166   3.335   2.532   3.326 -0.3219  0.8634  0.1188
 7178SOL    HW133167   3.323   2.552   3.419 -1.1154  0.3565  0.1237
 7178SOL    HW233168   3.299   2.614   3.291 -2.9963  0.0740  0.9841
 7179SOL     OW33169   2.479   3.478   6.844 -0.3956  0.2423 -0.0566
 7179SOL    HW133170   2.396   3.445   6.880  0.5639 -0.6718  1.2922
 7179SOL    HW233171   2.483   3.421   6.767 -2.6112 -0.5655  0.4235
 7180SOL     OW33172   3.988   2.968   5.532 -0.5138 -0.0271  0.7329
 7180SOL    HW133173   4.041   2.956   5.453  3.3979  2.3080  2.9658
 7180SOL    HW233174   4.019   3.057   5.552 -0.0561  0.1778 -0.9231
 7181SOL     OW33175   4.498   1.741   7.498 -0.4276  0.1425 -0.0740
 7181SOL    HW133176   4.559   1.682   7.455 -2.5171 -2.1752  0.1370
 7181SOL    HW233177   4.569   1.770   7.555 -1.4558  2.7185 -0.1023
 7182SOL     OW33178   0.652   4.436   6.541  0.2080  0.7915  0.1933
 7182SOL    HW133179   0.697   4.436   6.625 -0.0827  1.9862  0.3553
 7182SOL    HW233180   0.722   4.402   6.487  0.3085  1.7121 -0.2680
 7183SOL     OW33181   0.289   3.892   6.048 -0.2265 -0.2712  0.1648
 7183SOL    HW133182   0.350   3.900   6.122 -0.4644  4.0825 -0.1335
 7183SOL    HW233183   0.343   3.918   5.974  0.5759 -2.0450  0.1210
 7184SOL     OW33184   4.002   0.521  11.488 -0.1143  0.3975 -0.5465
 7184SOL    HW133185   3.952   0.585  11.540  0.2462  1.1785 -1.1699
 7184SOL    HW233186   4.063   0.486  11.554 -0.8154 -0.9808 -0.6210
 7185SOL     OW33187   2.926   0.472   7.681 -0.3239 -0.1160  0.3206
 7185SOL    HW133188   2.980   0.436   7.751 -2.9781  0.5116  2.6955
 7185SOL    HW233189   2.910   0.563   7.705 -1.5844  0.0452 -1.1533
 7186SOL     OW33190   3.806   3.214   5.663  0.2347 -0.0649 -0.2753
 7186SOL    HW133191   3.887   3.258   5.638 -0.3318  0.2983 -1.4539
 7186SOL    HW233192   3.845   3.166   5.737 -2.1510  0.3593  1.2459
 7187SOL     OW33193   0.920   3.160   1.705 -0.3035 -0.1141 -0.5119
 7187SOL    HW133194   0.889   3.071   1.688  1.4627 -0.7306 -0.4747
 7187SOL    HW233195   1.012   3.141   1.692 -0.3651 -0.7331 -0.0720
 7188SOL     OW33196   1.451   4.006   5.094  0.1886  0.2940 -0.5651
 7188SOL    HW133197   1.429   4.054   5.014  0.4783  0.4148 -0.5743
 7188SOL    HW233198   1.395   4.051   5.156  1.4003  0.4635  0.4035
 7189SOL     OW33199   1.499   1.824  11.967 -0.1453  0.1957 -0.2792
 7189SOL    HW133200   1.413   1.784  11.956 -0.9498  2.2298 -1.3827
 7189SOL    HW233201   1.555   1.746  11.964 -0.5983 -0.2140  1.7721
 7190SOL     OW33202   2.051   2.522   2.956  0.1456 -0.3652 -1.0895
 7190SOL    HW133203   2.096   2.459   2.900  1.4537 -0.7631  0.3864
 7190SOL    HW233204   2.060   2.602   2.905 -1.4773 -0.0752 -0.9018
 7191SOL     OW33205   2.213   3.966   8.266 -0.8179  0.4391 -0.0783
 7191SOL    HW133206   2.238   3.975   8.174 -0.2602 -2.7310 -0.2300
 7191SOL    HW233207   2.297   3.998   8.299  1.1856 -3.3959 -1.4435
 7192SOL     OW33208   1.447   1.353   8.259  0.1654 -0.3205 -0.0665
 7192SOL    HW133209   1.439   1.361   8.354  1.4907 -0.1523  0.0343
 7192SOL    HW233210   1.362   1.315   8.236  0.5726  0.1278 -2.3099
 7193SOL     OW33211   0.324   1.552   7.335 -0.0167 -0.2288  0.9604
 7193SOL    HW133212   0.397   1.517   7.283 -2.7745 -0.3057 -2.8538
 7193SOL    HW233213   0.371   1.591   7.409 -1.1238 -0.5542  1.8245
 7194SOL     OW33214   3.559   3.664   4.912  0.1965  0.4112 -0.4251
 7194SOL    HW133215   3.570   3.750   4.872  1.0495  0.6263  0.2826
 7194SOL    HW233216   3.642   3.621   4.891  2.2028  4.2096 -0.2542
 7195SOL     OW33217   4.549   0.617   7.397  0.4563 -0.2527  0.4764
 7195SOL    HW133218   4.613   0.560   7.440 -0.8727 -2.6051 -0.6544
 7195SOL    HW233219   4.605   0.695   7.398 -1.5714  1.1857  0.0763
 7196SOL     OW33220   2.007   1.678   2.836  0.3917  0.4747  0.3980
 7196SOL    HW133221   2.046   1.711   2.755  0.9503 -3.4635 -0.9528
 7196SOL    HW233222   2.071   1.714   2.897 -1.2715 -1.8708  3.4931
 7197SOL     OW33223   0.772   2.844  10.695  0.6389 -0.3275  0.0312
 7197SOL    HW133224   0.690   2.809  10.729  0.4591 -1.9736 -2.0982
 7197SOL    HW233225   0.786   2.920  10.752  1.5468 -1.0086  0.7057
 7198SOL     OW33226   1.159   2.758  17.329  0.4878 -0.1919  0.0861
 7198SOL    HW133227   1.241   2.765  17.281 -0.5227  1.5742 -1.4026
 7198SOL    HW233228   1.183   2.787  17.416 -1.3553  0.1615  0.4691
 7199SOL     OW33229   1.097   3.980   7.660  0.3553  0.1990  0.1162
 7199SOL    HW133230   1.120   4.073   7.651 -2.0687  0.9052  1.3517
 7199SOL    HW233231   1.080   3.954   7.569 -1.8786 -0.0264  0.5981
 7200SOL     OW33232   1.859   2.387   2.010 -0.2269 -0.1152 -0.4363
 7200SOL    HW133233   1.869   2.442   1.932  4.6972 -1.1309 -0.5198
 7200SOL    HW233234   1.764   2.400   2.016 -0.3660 -2.4031  2.3640
 7201SOL     OW33235   1.404   1.916   8.574 -0.1934 -0.4470 -0.3212
 7201SOL    HW133236   1.496   1.935   8.591 -0.1036 -1.1741  0.0054
 7201SOL    HW233237   1.401   1.827   8.610 -1.8212 -0.5195 -0.6156
 7202SOL     OW33238   2.994   0.919   6.732  0.4708  0.1821 -0.2108
 7202SOL    HW133239   3.078   0.957   6.708 -0.1665  1.6017 -0.1870
 7202SOL    HW233240   2.939   0.953   6.662  1.5269 -0.6626 -1.4505
 7203SOL     OW33241   4.483   0.979   8.889  0.1226  0.1992 -0.1612
 7203SOL    HW133242   4.416   1.041   8.919 -0.8629 -1.7505  1.6361
 7203SOL    HW233243   4.515   0.949   8.974  1.8295  1.2248 -0.4300
 7204SOL     OW33244   2.943   3.355   1.744  0.6260 -0.1550  0.1300
 7204SOL    HW133245   2.886   3.300   1.690 -1.9303  2.7779 -0.1510
 7204SOL    HW233246   2.897   3.439   1.749 -0.1848 -0.6580  1.0810
 7205SOL     OW33247   0.848   4.209   8.588 -0.2308 -0.0724 -0.2837
 7205SOL    HW133248   0.775   4.271   8.588 -0.7169 -0.6422  1.5943
 7205SOL    HW233249   0.808   4.141   8.534 -1.2229 -0.6262  1.1322
 7206SOL     OW33250   0.864   1.976   3.133 -0.4599  0.1145 -0.0061
 7206SOL    HW133251   0.803   1.976   3.059  0.4992 -3.0932 -0.7673
 7206SOL    HW233252   0.949   1.957   3.094  0.1055  0.5787  1.0383
 7207SOL     OW33253   3.947   2.275   6.913  0.0903  0.0140 -0.2737
 7207SOL    HW133254   3.975   2.335   6.844  1.8682 -0.6094 -0.0833
 7207SOL    HW233255   4.030   2.229   6.928  0.2016  0.6979  1.2424
 7208SOL     OW33256   0.352   1.929   9.072 -0.1853 -0.2452 -0.4377
 7208SOL    HW133257   0.364   1.841   9.108 -1.5618  0.3662  1.5330
 7208SOL    HW233258   0.316   1.971   9.150 -0.6800 -0.1566 -0.7161
 7209SOL     OW33259   2.744   3.577   4.826 -0.0639 -0.5458 -0.0128
 7209SOL    HW133260   2.760   3.486   4.850  0.2688 -0.6587 -0.6814
 7209SOL    HW233261   2.799   3.614   4.895 -0.7455 -0.1188  0.3004
 7210SOL     OW33262   2.957   3.196  16.555 -0.0555  0.3468 -0.8148
 7210SOL    HW133263   2.919   3.262  16.613  1.6924 -1.2770  2.1638
 7210SOL    HW233264   3.017   3.137  16.600 -0.6171  1.4996  1.4391
 7211SOL     OW33265   1.662   4.645   4.528  0.1452  0.3328  0.2465
 7211SOL    HW133266   1.590   4.593   4.563  1.3180 -0.3083  1.6859
 7211SOL    HW233267   1.621   4.728   4.502 -2.2276  0.2789  3.8751
 7212SOL     OW33268   4.250   2.380   7.939  0.3743 -0.0569  0.4834
 7212SOL    HW133269   4.257   2.319   7.866  1.0518  1.0638 -0.3845
 7212SOL    HW233270   4.267   2.460   7.889  1.7289 -0.2473  0.6601
 7213SOL     OW33271   3.407   4.605   6.142 -0.3553  0.8532  0.1271
 7213SOL    HW133272   3.471   4.586   6.210  1.6050 -1.1278 -2.2321
 7213SOL    HW233273   3.368   4.687   6.174 -0.2259  0.9106  0.1401
 7214SOL     OW33274   3.328   2.222   2.312 -0.1941 -0.0442 -0.1983
 7214SOL    HW133275   3.329   2.291   2.246 -1.1589  1.9189  1.8411
 7214SOL    HW233276   3.271   2.153   2.278  2.9149 -2.0855 -1.2385
 7215SOL     OW33277   2.564   4.139   4.292  0.5389  0.1838  0.0816
 7215SOL    HW133278   2.546   4.230   4.317  3.0257  0.8591 -0.5673
 7215SOL    HW233279   2.514   4.125   4.211 -1.5572  0.1276  1.3636
 7216SOL     OW33280   2.008   0.674   3.226  0.5047  0.6257 -0.3384
 7216SOL    HW133281   2.017   0.749   3.167 -1.3725  1.1388  0.0165
 7216SOL    HW233282   1.934   0.636   3.179  0.0541 -0.3935  1.2151
 7217SOL     OW33283   3.649   2.301   2.089  0.0827  0.4973 -0.4902
 7217SOL    HW133284   3.647   2.299   2.185 -1.3086  1.4182 -0.5008
 7217SOL    HW233285   3.636   2.209   2.066 -1.1642  0.0252  2.1135
 7218SOL     OW33286   2.745   2.065   5.570 -0.1390 -0.4117 -0.3719
 7218SOL    HW133287   2.805   2.030   5.505  0.9119 -3.2318  2.1063
 7218SOL    HW233288   2.811   2.066   5.639 -0.0194 -1.5328 -0.4723
 7219SOL     OW33289   0.443   0.159   1.163  0.0140 -0.8883 -0.1753
 7219SOL    HW133290   0.467   0.247   1.192 -2.0498 -0.4165  0.1457
 7219SOL    HW233291   0.449   0.170   1.068 -0.3831  0.2897 -0.0691
 7220SOL     OW33292   0.437   0.652   1.115 -0.0173 -0.0982 -0.0227
 7220SOL    HW133293   0.347   0.637   1.085  0.2216 -0.8286 -0.3807
 7220SOL    HW233294   0.458   0.573   1.164 -0.0648  0.0730  0.2705
 7221SOL     OW33295   0.557   3.871   9.198  0.0746  0.2227  0.3005
 7221SOL    HW133296   0.624   3.842   9.260 -2.1223 -1.7300  1.7792
 7221SOL    HW233297   0.552   3.796   9.139  0.5984  1.2511 -1.0443
 7222SOL     OW33298   3.676   0.898   3.159 -0.4156  0.3592 -0.5046
 7222SOL    HW133299   3.607   0.838   3.189 -0.7182  0.9349 -0.0333
 7222SOL    HW233300   3.634   0.972   3.202 -0.9974 -1.1364  1.5631
 7223SOL     OW33301   4.276   4.224   2.973  0.0225  0.5653 -0.3078
 7223SOL    HW133302   4.305   4.272   3.051 -0.5396  0.3441  0.0425
 7223SOL    HW233303   4.287   4.293   2.908  0.5205 -0.9964 -1.8587
 7224SOL     OW33304   4.687   1.888   4.249 -0.1576 -0.3148 -0.5491
 7224SOL    HW133305   4.693   1.879   4.154  2.1330 -0.0623 -0.4353
 7224SOL    HW233306   4.621   1.956   4.263  1.5510  1.0113  1.1672
 7225SOL     OW33307   0.663   1.219   7.372 -0.1240  0.1495  0.3583
 7225SOL    HW133308   0.758   1.222   7.385 -0.0452 -1.4745  0.1978
 7225SOL    HW233309   0.644   1.303   7.330  1.9220 -0.4815 -1.8267
 7226SOL     OW33310   0.273   1.305   4.518  0.0564  0.4116  0.7267
 7226SOL    HW133311   0.213   1.245   4.474  0.7609 -0.0969  0.4567
 7226SOL    HW233312   0.214   1.381   4.517 -0.3641  0.0715 -1.1110
 7227SOL     OW33313   2.554   3.624  17.172  0.4590  0.0437 -0.0297
 7227SOL    HW133314   2.520   3.581  17.250 -0.3333  1.4955  0.4298
 7227SOL    HW233315   2.601   3.555  17.124  0.7697  0.8076 -0.8362
 7228SOL     OW33316   1.331   3.412   6.990  0.4684  0.0288 -0.2028
 7228SOL    HW133317   1.308   3.480   7.053  1.3887  0.8562 -0.7758
 7228SOL    HW233318   1.242   3.378   6.978  0.2905  1.2031 -2.3279
 7229SOL     OW33319   3.167   0.520   4.947  0.5466 -0.4513 -0.7457
 7229SOL    HW133320   3.148   0.602   4.994 -0.7063 -1.7831  1.0983
 7229SOL    HW233321   3.184   0.562   4.863 -1.7815  0.1527 -0.9265
 7230SOL     OW33322   2.806   1.479   6.130  0.3780  0.0033  0.2050
 7230SOL    HW133323   2.827   1.458   6.039 -0.7469  1.0621 -0.2913
 7230SOL    HW233324   2.818   1.573   6.136 -0.9073  0.1110  1.2249
 7231SOL     OW33325   1.446   4.005   6.236  0.1967 -0.5001 -0.0378
 7231SOL    HW133326   1.465   3.994   6.143 -1.1097  2.1776 -0.6240
 7231SOL    HW233327   1.526   4.052   6.259  1.5112 -2.3084 -0.9814
 7232SOL     OW33328   1.983   1.147  16.158 -0.2065  0.1290 -0.0849
 7232SOL    HW133329   1.979   1.215  16.090 -1.2741 -0.3705 -0.5246
 7232SOL    HW233330   2.055   1.177  16.213 -0.3285 -0.3016  0.3009
 7233SOL     OW33331   2.050   3.516   5.421 -0.2654  0.5261 -0.7849
 7233SOL    HW133332   2.102   3.544   5.345  0.8378  1.4376  0.3168
 7233SOL    HW233333   1.960   3.529   5.390 -1.1777  0.5947  1.9000
 7234SOL     OW33334   1.632   1.575   2.102  0.2890 -0.0301 -0.0076
 7234SOL    HW133335   1.704   1.583   2.165 -0.2756 -0.1112  0.6429
 7234SOL    HW233336   1.592   1.662   2.111  1.3027  0.4969 -0.5518
 7235SOL     OW33337   0.169   1.688  13.437  0.3993 -0.1146  0.0684
 7235SOL    HW133338   0.236   1.698  13.505  0.7429  1.6632 -0.5199
 7235SOL    HW233339   0.173   1.777  13.400  0.8618 -0.4371 -0.6578
 7236SOL     OW33340   0.922   3.764   5.927  0.7118  0.0567 -0.0030
 7236SOL    HW133341   0.962   3.687   5.888 -2.0645 -1.9730  1.1858
 7236SOL    HW233342   0.899   3.814   5.849  0.9481 -1.4931 -1.0631
 7237SOL     OW33343   4.054   3.952   3.625 -0.5101  0.0795  1.1008
 7237SOL    HW133344   4.037   3.973   3.717  2.8819  0.9523  1.5437
 7237SOL    HW233345   4.149   3.966   3.628 -0.1386 -2.1389 -1.0851
 7238SOL     OW33346   2.456   3.486  13.343  0.0189 -0.1113  0.0619
 7238SOL    HW133347   2.395   3.412  13.345 -0.4335  0.2265 -1.1724
 7238SOL    HW233348   2.420   3.530  13.267  2.7430  0.5247 -0.8772
 7239SOL     OW33349   0.690   4.202  14.134  0.5791 -0.2412 -0.1737
 7239SOL    HW133350   0.705   4.286  14.092  0.8160 -1.3126 -2.2069
 7239SOL    HW233351   0.595   4.192  14.139  0.4451  0.6065 -1.0876
 7240SOL     OW33352   2.794   3.405   1.274 -0.5116 -0.5899  0.5524
 7240SOL    HW133353   2.815   3.426   1.183 -2.0757 -0.5227  0.2073
 7240SOL    HW233354   2.835   3.319   1.286 -2.1639 -1.7467 -2.3004
 7241SOL     OW33355   0.292   1.652  15.643  0.3570  0.3203  0.1828
 7241SOL    HW133356   0.274   1.616  15.556 -0.3186 -0.0095  0.4596
 7241SOL    HW233357   0.381   1.622  15.661  0.2884  0.6288  1.0491
 7242SOL     OW33358   2.937   2.679   7.672  0.1537  0.1075 -0.0075
 7242SOL    HW133359   2.897   2.656   7.756  1.9016  1.8282  1.3143
 7242SOL    HW233360   2.869   2.673   7.605  0.5287 -3.6381 -0.0437
 7243SOL     OW33361   3.137   4.594   2.957  0.0849  0.5739  0.6232
 7243SOL    HW133362   3.052   4.589   2.999 -0.1998 -1.1625 -0.1664
 7243SOL    HW233363   3.124   4.664   2.892 -1.2246 -2.5076 -2.4262
 7244SOL     OW33364   3.365   2.811   6.312  0.4393  0.1520 -0.6583
 7244SOL    HW133365   3.400   2.899   6.295  0.4007 -0.1067 -2.0714
 7244SOL    HW233366   3.286   2.817   6.258 -1.0933  0.3076  1.6123
 7245SOL     OW33367   4.430   1.515   8.057 -0.2801 -0.3350  0.3279
 7245SOL    HW133368   4.440   1.439   8.114  2.0098 -1.4992 -1.6179
 7245SOL    HW233369   4.396   1.476   7.977 -0.8758 -0.4321  0.6332
 7246SOL     OW33370   2.256   0.094   4.564 -0.1847  0.1160 -0.1758
 7246SOL    HW133371   2.339   0.047   4.555  0.2876  0.9814 -0.3184
 7246SOL    HW233372   2.270   0.155   4.492 -1.5292  1.6505  0.8478
 7247SOL     OW33373   2.242   0.917   6.127 -0.5562  0.1737  0.2263
 7247SOL    HW133374   2.241   0.822   6.141  0.6158  0.4372  2.0979
 7247SOL    HW233375   2.306   0.935   6.058 -0.7028 -1.5560 -0.3455
 7248SOL     OW33376   3.429   2.649   5.695 -0.2842  0.3771  0.1151
 7248SOL    HW133377   3.351   2.599   5.671 -0.5355  1.1508 -0.6932
 7248SOL    HW233378   3.454   2.615   5.780  0.4619  1.8651  0.4823
 7249SOL     OW33379   0.980   1.107   3.606  0.3663  0.6317  0.0145
 7249SOL    HW133380   0.969   1.067   3.692 -0.0975 -2.0896 -1.3201
 7249SOL    HW233381   1.076   1.116   3.601  0.3258  0.9383 -0.2683
 7250SOL     OW33382   2.583   1.466  14.110  0.0142  0.2225 -0.0661
 7250SOL    HW133383   2.494   1.497  14.092 -1.0707 -4.1467 -2.2188
 7250SOL    HW233384   2.573   1.426  14.197 -1.3568  0.4446 -0.1162
 7251SOL     OW33385   0.887   3.033   7.016  0.0323  0.5034  0.0747
 7251SOL    HW133386   0.885   2.981   7.096  1.2474  2.3288  1.2824
 7251SOL    HW233387   0.972   3.000   6.987  0.3669 -1.6794  3.5958
 7252SOL     OW33388   2.559   0.748   4.535 -0.1746 -0.0762  0.5008
 7252SOL    HW133389   2.556   0.681   4.603 -0.1951 -0.0992  0.4772
 7252SOL    HW233390   2.654   0.757   4.524 -0.5109  2.3809 -0.4966
 7253SOL     OW33391   2.777   3.875   0.415 -0.0908  0.4996  0.4750
 7253SOL    HW133392   2.757   3.803   0.356  0.9361 -0.4387  1.2900
 7253SOL    HW233393   2.691   3.889   0.455  0.2915 -1.0876  1.8185
 7254SOL     OW33394   3.174   1.906   0.086  0.5954 -0.2385 -0.5002
 7254SOL    HW133395   3.125   1.884   0.165 -0.7219 -1.5307 -1.6794
 7254SOL    HW233396   3.264   1.878   0.106 -0.4499 -2.0034  1.6058
 7255SOL     OW33397   0.988   1.683  13.358 -0.0605 -0.3351  0.6010
 7255SOL    HW133398   1.015   1.752  13.297 -0.2430 -2.1481 -1.5434
 7255SOL    HW233399   1.070   1.662  13.405  1.3000 -2.2999 -2.6233
 7256SOL     OW33400   2.964   1.824   3.508 -0.3836  0.3907  0.1198
 7256SOL    HW133401   3.047   1.822   3.460  0.3660  0.4279  1.4095
 7256SOL    HW233402   2.967   1.912   3.546  0.8669  0.4638 -0.1442
 7257SOL     OW33403   3.547   4.422   8.777  0.2310 -0.6227  0.0273
 7257SOL    HW133404   3.541   4.504   8.828  1.8533 -0.0635 -0.7029
 7257SOL    HW233405   3.598   4.376   8.844  1.0686  1.6632  0.9757
 7258SOL     OW33406   4.518   3.691   5.391  0.2256  0.1475 -0.1472
 7258SOL    HW133407   4.583   3.628   5.358  2.3661  0.2131  3.9511
 7258SOL    HW233408   4.457   3.682   5.318  0.6132 -0.1083 -0.4466
 7259SOL     OW33409   4.212   3.766   4.141 -0.5493  0.4601  0.0129
 7259SOL    HW133410   4.215   3.679   4.180  0.6792  1.0326  1.2093
 7259SOL    HW233411   4.135   3.762   4.085  0.9302 -0.7578 -1.9388
 7260SOL     OW33412   2.457   2.168   8.566 -0.6996  0.8587  0.2076
 7260SOL    HW133413   2.509   2.213   8.500  1.2043  1.2554  1.9667
 7260SOL    HW233414   2.390   2.127   8.511  0.9366 -0.2987 -0.9380
 7261SOL     OW33415   0.039   3.358   5.121 -0.0410 -0.7699  0.0379
 7261SOL    HW133416   0.078   3.272   5.136  0.3735 -0.4417  0.8651
 7261SOL    HW233417   0.096   3.395   5.053 -1.7640  1.5478 -0.1403
 7262SOL     OW33418   1.993   2.119  10.815  0.0670 -0.5382  0.6716
 7262SOL    HW133419   2.030   2.099  10.729  1.5543  0.8660  0.9942
 7262SOL    HW233420   2.071   2.108  10.869  1.3886  0.0232 -1.1168
 7263SOL     OW33421   2.376   2.404   7.500  0.1694  0.0775 -0.5016
 7263SOL    HW133422   2.407   2.342   7.566 -0.4111 -0.1829 -0.4713
 7263SOL    HW233423   2.423   2.485   7.523 -0.2427  0.8201 -2.2397
 7264SOL     OW33424   4.484   1.647  15.147 -0.1706 -0.5450  0.6859
 7264SOL    HW133425   4.455   1.736  15.170  0.2588 -0.1248 -0.4042
 7264SOL    HW233426   4.578   1.664  15.152  0.1961 -2.0580 -1.3479
 7265SOL     OW33427   1.558   1.166   0.411 -0.1354  0.2579  0.5758
 7265SOL    HW133428   1.626   1.131   0.468 -0.4345 -2.0396 -0.4502
 7265SOL    HW233429   1.486   1.160   0.473  2.0044 -0.2558  3.0185
 7266SOL     OW33430   1.331   0.353   7.846  0.6535 -0.5078  0.6894
 7266SOL    HW133431   1.426   0.368   7.844  0.1616  2.6004  0.8067
 7266SOL    HW233432   1.329   0.318   7.935 -0.5373 -3.6234 -0.6061
 7267SOL     OW33433   2.613   2.445   0.489  0.4699  0.1534 -0.1034
 7267SOL    HW133434   2.526   2.465   0.457  0.4286  0.9508  0.4914
 7267SOL    HW233435   2.658   2.477   0.411  0.4566  0.8112  0.1591
 7268SOL     OW33436   0.500   2.833  14.030 -0.2790  0.5549 -0.5859
 7268SOL    HW133437   0.452   2.751  14.017  0.4431  0.0878 -0.2915
 7268SOL    HW233438   0.467   2.892  13.963 -0.7133  1.0587  0.0668
 7269SOL     OW33439   3.493   1.893   6.899 -0.2480 -1.1842 -0.4267
 7269SOL    HW133440   3.518   1.953   6.829  2.0937 -1.1638  0.4319
 7269SOL    HW233441   3.422   1.943   6.939 -1.2042 -1.1434 -2.1813
 7270SOL     OW33442   1.286   2.921   5.518 -0.6704  0.2590  0.2206
 7270SOL    HW133443   1.277   2.848   5.580  3.2102 -0.8272 -0.5401
 7270SOL    HW233444   1.330   2.987   5.571  0.7114 -0.3302 -0.2039
 7271SOL     OW33445   0.281   1.557   2.182  0.2988  0.0680 -0.0032
 7271SOL    HW133446   0.229   1.525   2.108 -0.1614  0.9652 -0.0663
 7271SOL    HW233447   0.325   1.628   2.137  1.9599 -1.4668 -0.7752
 7272SOL     OW33448   3.964   2.305   7.567  0.1599 -0.1008 -0.0931
 7272SOL    HW133449   3.882   2.354   7.564  0.4562  0.2107 -2.6720
 7272SOL    HW233450   3.944   2.237   7.632  0.4805 -0.1060 -0.0017
 7273SOL     OW33451   1.802   1.241   4.397 -0.1404 -0.0272 -0.2237
 7273SOL    HW133452   1.830   1.301   4.466  0.0211  0.8565 -1.0577
 7273SOL    HW233453   1.878   1.184   4.391  0.8140  1.2725 -0.3967
 7274SOL     OW33454   1.371   1.020   9.776  0.2968 -0.0888 -0.2753
 7274SOL    HW133455   1.314   0.994   9.703  0.1361  1.2473 -0.6257
 7274SOL    HW233456   1.416   1.092   9.733 -3.1264  1.2061 -1.6696
 7275SOL     OW33457   3.508   3.680   8.697  0.4501  0.3886  0.2193
 7275SOL    HW133458   3.544   3.690   8.609  1.3932 -0.1864  0.5415
 7275SOL    HW233459   3.540   3.763   8.732  1.5656  0.0128  0.0901
 7276SOL     OW33460   4.450   0.710   5.606 -0.1332 -0.4016 -0.6905
 7276SOL    HW133461   4.359   0.683   5.617 -0.6358  2.9626  3.6119
 7276SOL    HW233462   4.485   0.653   5.674  0.3416 -3.2487 -3.3384
 7277SOL     OW33463   3.154   2.843  14.750 -1.0250  0.1581 -0.2396
 7277SOL    HW133464   3.120   2.761  14.784  1.5937 -0.8887 -0.1284
 7277SOL    HW233465   3.138   2.824  14.658  1.1867 -0.4033 -0.5064
 7278SOL     OW33466   3.690   3.363   6.016 -0.1752  0.1855  0.0624
 7278SOL    HW133467   3.606   3.334   6.052 -0.2350  1.5761  1.0356
 7278SOL    HW233468   3.713   3.292   5.956  1.0954  0.0201  0.7571
 7279SOL     OW33469   1.771   0.411   2.121 -0.3444  0.2315  0.1935
 7279SOL    HW133470   1.678   0.432   2.130 -1.0253 -2.3096 -0.9048
 7279SOL    HW233471   1.768   0.342   2.054 -0.4586  1.6946 -1.3164
 7280SOL     OW33472   2.246   0.290   4.812  1.0213  0.5181  0.4573
 7280SOL    HW133473   2.184   0.363   4.802 -0.2055 -0.7666 -1.4075
 7280SOL    HW233474   2.245   0.246   4.726  4.5586 -0.9734  1.1844
 7281SOL     OW33475   1.001   4.673  16.335  0.5247 -0.7250 -0.1547
 7281SOL    HW133476   0.951   4.626  16.402  2.0358  0.2459  1.6555
 7281SOL    HW233477   0.961   0.022  16.348  0.2893 -0.5485 -2.0085
 7282SOL     OW33478   2.654   0.115   6.599  0.1003 -0.1908 -0.9812
 7282SOL    HW133479   2.640   0.023   6.577  0.7656 -0.4878 -0.1654
 7282SOL    HW233480   2.749   0.117   6.612 -0.2446  2.7205  1.0973
 7283SOL     OW33481   3.674   3.546   0.163 -0.2037 -0.2672  0.1893
 7283SOL    HW133482   3.725   3.473   0.198  0.7520  0.0367 -0.5845
 7283SOL    HW233483   3.588   3.504   0.166 -0.8606  1.2068  2.0062
 7284SOL     OW33484   0.484   2.749   2.975  0.2418  0.2759  0.1729
 7284SOL    HW133485   0.570   2.760   2.933 -0.7558 -0.1180 -1.9578
 7284SOL    HW233486   0.485   2.654   2.984  2.0213  0.3945  1.3174
 7285SOL     OW33487   0.276   1.460   3.451  0.1264 -0.2149  1.0517
 7285SOL    HW133488   0.243   1.431   3.536  0.4893 -0.9148  0.9491
 7285SOL    HW233489   0.322   1.379   3.432  0.0705 -0.2486  1.0589
 7286SOL     OW33490   1.411   0.847   6.068 -0.0929  0.3504 -0.4025
 7286SOL    HW133491   1.381   0.808   6.150 -1.1283 -0.3407 -1.1132
 7286SOL    HW233492   1.330   0.864   6.020  0.6253 -0.0434 -1.7443
 7287SOL     OW33493   3.120   3.131   5.894 -0.2587 -0.5018  0.0327
 7287SOL    HW133494   3.123   3.223   5.871  0.5808 -0.4959  0.1851
 7287SOL    HW233495   3.109   3.139   5.989  1.1313  0.5488  0.0982
 7288SOL     OW33496   4.173   0.234   2.781  0.1003  0.0103  0.1365
 7288SOL    HW133497   4.214   0.229   2.867 -1.0624 -0.9133  0.6211
 7288SOL    HW233498   4.245   0.253   2.720 -0.4737 -0.5898 -0.7175
 7289SOL     OW33499   1.573   2.579   2.081 -0.1460  0.5240 -0.6142
 7289SOL    HW133500   1.507   2.642   2.052  0.5125  1.7568  0.5596
 7289SOL    HW233501   1.593   2.601   2.172  0.4893  0.4819 -0.7419
 7290SOL     OW33502   4.724   3.699   5.021  0.2316 -0.1723 -0.4512
 7290SOL    HW133503   0.058   3.740   5.070 -0.2431  0.7977 -0.5711
 7290SOL    HW233504   4.697   3.624   5.074  1.6889  0.8793  1.7948
 7291SOL     OW33505   2.141   2.076   7.816 -0.5158 -0.2209 -0.2985
 7291SOL    HW133506   2.079   2.053   7.747 -0.5768 -1.7925  0.2794
 7291SOL    HW233507   2.179   1.989   7.829 -0.4352 -0.4273 -1.9679
 7292SOL     OW33508   4.300   1.523  14.082  0.3062  0.0890 -0.1596
 7292SOL    HW133509   4.226   1.582  14.095  0.1833 -0.1611  0.2888
 7292SOL    HW233510   4.300   1.522  13.986 -3.2252  1.0174 -0.1553
 7293SOL     OW33511   1.256   4.672   7.528 -0.3374 -0.1968  0.0047
 7293SOL    HW133512   1.270   4.591   7.479 -2.1901 -0.7641  0.4200
 7293SOL    HW233513   1.172   4.696   7.488 -0.4325 -0.1602  0.2239
 7294SOL     OW33514   3.458   3.065   6.216 -0.2918  0.7786  0.3921
 7294SOL    HW133515   3.491   3.155   6.212  2.1855 -0.2498 -2.0197
 7294SOL    HW233516   3.425   3.059   6.126 -1.4830  2.6739  0.7090
 7295SOL     OW33517   2.210   4.285   7.168 -0.7490  0.5479  0.3626
 7295SOL    HW133518   2.274   4.345   7.129 -3.6790  1.3798 -3.2606
 7295SOL    HW233519   2.208   4.206   7.114  0.6611  0.8595 -0.1454
 7296SOL     OW33520   2.356   0.552   0.935  0.3459  0.6985  0.3715
 7296SOL    HW133521   2.339   0.645   0.949 -0.3040  0.4228  1.4251
 7296SOL    HW233522   2.440   0.533   0.975  1.9078  1.6079 -2.5210
 7297SOL     OW33523   0.515   1.712   8.657 -0.0623 -0.1527  0.2681
 7297SOL    HW133524   0.427   1.740   8.683 -0.9630 -0.0305 -2.9150
 7297SOL    HW233525   0.493   1.701   8.565  0.3537 -1.3544  0.3161
 7298SOL     OW33526   0.037   4.736   5.248  0.1669 -0.2921 -0.2436
 7298SOL    HW133527   4.689   4.701   5.277  2.4317 -3.0608  2.9886
 7298SOL    HW233528   0.080   0.015   5.332  0.3799  1.1122 -0.6166
 7299SOL     OW33529   1.183   2.944   2.603 -0.0140 -0.2482 -0.1292
 7299SOL    HW133530   1.135   2.908   2.677  1.3584  0.8869  1.3091
 7299SOL    HW233531   1.111   2.969   2.545 -0.9031  3.1537  2.4708
 7300SOL     OW33532   4.007   1.906   8.721 -0.5782  0.6557  0.0855
 7300SOL    HW133533   3.971   1.836   8.775 -1.9227  0.7784 -0.6657
 7300SOL    HW233534   3.951   1.981   8.743  0.3995  0.7374  2.3674
 7301SOL     OW33535   0.919   0.395  10.176  0.6780 -0.3450  0.8145
 7301SOL    HW133536   0.850   0.408  10.111  1.4978  1.0800  0.2174
 7301SOL    HW233537   0.996   0.424  10.127  1.6963  0.1513  2.6996
 7302SOL     OW33538   4.223   0.783   2.521  0.1623  0.3984 -0.9768
 7302SOL    HW133539   4.146   0.795   2.576  0.5110  0.7501 -0.5639
 7302SOL    HW233540   4.205   0.851   2.456 -0.8086  1.6485  0.5950
 7303SOL     OW33541   2.362   0.885   6.806  0.3757 -0.3824  0.0468
 7303SOL    HW133542   2.387   0.940   6.880 -1.3469  0.6555 -0.1409
 7303SOL    HW233543   2.363   0.944   6.730 -2.8615  1.0679  1.1038
 7304SOL     OW33544   2.884   4.098   3.357  0.3505 -0.5980  0.2019
 7304SOL    HW133545   2.891   4.059   3.270 -1.3868 -4.2340  1.6820
 7304SOL    HW233546   2.838   4.032   3.409 -0.3180 -1.2581 -1.2142
 7305SOL     OW33547   3.452   2.174   2.951  0.0151 -0.1155 -0.1689
 7305SOL    HW133548   3.506   2.249   2.978  0.4930  0.1883 -1.9741
 7305SOL    HW233549   3.396   2.223   2.891  1.9914 -0.2101 -2.1132
 7306SOL     OW33550   4.116   3.120   1.805  0.8941  0.4168  0.4188
 7306SOL    HW133551   4.051   3.168   1.754  0.6431 -1.6697 -1.1934
 7306SOL    HW233552   4.145   3.052   1.745 -0.3407 -1.3391  1.7951
 7307SOL     OW33553   0.146   3.716   8.557  0.1937  0.3316  0.0652
 7307SOL    HW133554   0.227   3.743   8.514  1.3092  0.5582  2.3508
 7307SOL    HW233555   0.164   3.623   8.570 -1.6185  0.2667  2.0980
 7308SOL     OW33556   4.631   1.485   7.350 -0.3378 -0.1301  0.2173
 7308SOL    HW133557   4.715   1.476   7.306  0.3147 -2.4519  1.8944
 7308SOL    HW233558   4.640   1.411   7.410 -1.7959  0.4640  1.1626
 7309SOL     OW33559   2.421   0.216   3.086 -0.4264 -0.5277 -0.3931
 7309SOL    HW133560   2.417   0.201   2.992  0.8513  3.4101 -1.0846
 7309SOL    HW233561   2.364   0.293   3.097 -0.1885 -0.7176  2.1168
 7310SOL     OW33562   2.232   3.513   6.582  0.1339 -0.3205  0.6257
 7310SOL    HW133563   2.312   3.542   6.538 -0.6998  0.8966 -0.0902
 7310SOL    HW233564   2.207   3.598   6.618  1.2524  0.0230  0.6112
 7311SOL     OW33565   2.396   2.239   6.780  0.2989 -0.4463  0.9936
 7311SOL    HW133566   2.337   2.180   6.827 -1.4069  0.5441  0.0824
 7311SOL    HW233567   2.397   2.192   6.696  2.3605  2.2149 -0.4445
 7312SOL     OW33568   4.335   2.507  16.316  0.5706 -0.4527  0.3426
 7312SOL    HW133569   4.316   2.415  16.298  0.2310 -0.5307  1.0878
 7312SOL    HW233570   4.387   2.526  16.238  1.6863 -1.5521  0.8170
 7313SOL     OW33571   1.595   1.372  11.392 -0.4523  0.3317  0.7073
 7313SOL    HW133572   1.634   1.451  11.429  0.1500  0.9347 -1.2498
 7313SOL    HW233573   1.668   1.314  11.371 -0.8492 -0.2869  1.0173
 7314SOL     OW33574   2.855   4.706   4.102 -0.0466 -0.2098 -0.0185
 7314SOL    HW133575   2.880   4.622   4.064 -0.3174 -0.4645  0.3675
 7314SOL    HW233576   2.822   4.684   4.189 -0.4156  2.3263  0.4838
 7315SOL     OW33577   4.016   2.552   1.801  0.3443 -0.4474  0.3391
 7315SOL    HW133578   4.023   2.612   1.875  1.1560 -0.3157  0.1608
 7315SOL    HW233579   3.948   2.492   1.831 -1.0590 -0.3993 -2.6558
 7316SOL     OW33580   0.744   1.587   6.860 -0.2023  0.0065  0.1412
 7316SOL    HW133581   0.836   1.580   6.836  0.1479 -2.1241  2.1387
 7316SOL    HW233582   0.743   1.620   6.950 -0.0942 -3.1113  1.2735
 7317SOL     OW33583   1.648   3.042   5.428 -0.2329 -0.1069 -0.0156
 7317SOL    HW133584   1.657   2.975   5.360  2.8205  1.0433 -0.7102
 7317SOL    HW233585   1.635   2.993   5.509  1.7124 -1.8581 -0.7616
 7318SOL     OW33586   3.443   0.406   8.475 -1.1083  0.3365 -0.1138
 7318SOL    HW133587   3.446   0.425   8.381 -0.8009  0.9493  0.0177
 7318SOL    HW233588   3.348   0.409   8.487 -1.3496  0.1733 -1.9560
 7319SOL     OW33589   4.242   1.268   4.260  0.3382  0.0837  0.2798
 7319SOL    HW133590   4.227   1.226   4.344  1.5215  2.6765  1.7809
 7319SOL    HW233591   4.313   1.328   4.284 -1.0982  2.0790 -0.3809
 7320SOL     OW33592   4.024   1.102  13.082  0.1703 -0.2122 -0.2708
 7320SOL    HW133593   4.093   1.163  13.107 -1.5103  0.3106  3.1449
 7320SOL    HW233594   4.064   1.036  13.025 -0.0461 -0.5368 -0.0504
 7321SOL     OW33595   1.637   0.344   5.341 -0.2853 -0.2419 -0.1048
 7321SOL    HW133596   1.614   0.287   5.267 -0.7959 -0.5175  0.2640
 7321SOL    HW233597   1.606   0.426   5.303  1.7632  1.4409  1.8459
 7322SOL     OW33598   1.567   0.952   6.879  0.1575  0.0322  0.5979
 7322SOL    HW133599   1.624   0.963   6.804 -0.7180  0.3275 -0.0230
 7322SOL    HW233600   1.496   1.016   6.874  0.1635 -0.0878 -0.8498
 7323SOL     OW33601   2.664   0.672   5.175 -0.1869 -0.1094  1.1278
 7323SOL    HW133602   2.726   0.599   5.177  1.4517  1.2077 -1.8102
 7323SOL    HW233603   2.636   0.677   5.267 -2.2479 -2.2191  0.6148
 7324SOL     OW33604   2.387   0.030   3.281  0.3418  0.0692 -0.0393
 7324SOL    HW133605   2.409   4.684   3.240 -0.4784 -0.4447  0.5728
 7324SOL    HW233606   2.407   0.093   3.212  2.0335 -1.1815 -0.6903
 7325SOL     OW33607   0.193   3.717   6.866 -0.1281  0.1169  0.2638
 7325SOL    HW133608   0.275   3.673   6.842 -0.7919 -1.8721  1.6015
 7325SOL    HW233609   0.200   3.801   6.821 -1.8770 -0.0261 -0.2780
 7326SOL     OW33610   4.567   1.687   9.839  0.0790 -0.0824  0.7462
 7326SOL    HW133611   4.610   1.734   9.768 -0.3025 -0.8713 -0.0183
 7326SOL    HW233612   4.649   1.661   9.882  0.6437 -0.4762 -0.5618
 7327SOL     OW33613   4.521   3.142   5.343 -0.0519 -0.1795  0.4269
 7327SOL    HW133614   4.432   3.178   5.342  0.2989  0.6703 -0.8506
 7327SOL    HW233615   4.542   3.133   5.250 -0.6299  0.2142  0.2566
 7328SOL     OW33616   4.083   0.599   2.223 -0.0495 -0.4081 -0.0896
 7328SOL    HW133617   4.052   0.685   2.251 -2.4768 -1.5551  0.7637
 7328SOL    HW233618   3.997   0.562   2.201  0.3795 -0.8471 -1.0706
 7329SOL     OW33619   0.557   2.116   6.132 -0.0160 -0.7121  0.3296
 7329SOL    HW133620   0.634   2.063   6.150 -0.9482 -1.9155  0.8067
 7329SOL    HW233621   0.550   2.184   6.199  2.1309  1.6475 -1.8854
 7330SOL     OW33622   2.679   3.277   5.430 -0.3219 -0.3576  0.3509
 7330SOL    HW133623   2.731   3.286   5.510  1.6029 -0.3374 -0.9270
 7330SOL    HW233624   2.588   3.289   5.459 -0.4936  1.8676 -1.1700
 7331SOL     OW33625   3.818   0.136   2.772  0.3629  0.0280  0.4808
 7331SOL    HW133626   3.729   0.152   2.740  0.3256 -2.3188 -0.6451
 7331SOL    HW233627   3.859   0.219   2.748  0.9940 -0.3066  0.3892
 7332SOL     OW33628   2.982   1.818   1.586  0.1174  0.1265  0.2058
 7332SOL    HW133629   3.055   1.845   1.530 -0.0769  1.0429  0.3930
 7332SOL    HW233630   3.027   1.769   1.655  0.5761  1.5541  0.9247
 7333SOL     OW33631   2.018   0.780  16.566  0.3407  0.7181  0.4611
 7333SOL    HW133632   1.959   0.706  16.581  0.1590  1.2361  2.3606
 7333SOL    HW233633   1.986   0.821  16.486  1.0603  0.3521 -0.0112
 7334SOL     OW33634   4.300   2.652   1.956  0.5452  0.4654  0.4142
 7334SOL    HW133635   4.309   2.585   2.023 -0.7828  1.4064  1.5454
 7334SOL    HW233636   4.220   2.682   1.999  1.3532  3.1396  0.0777
 7335SOL     OW33637   2.889   1.622   0.781  0.2649 -0.8879  0.1274
 7335SOL    HW133638   2.813   1.572   0.811 -0.0494 -0.8419 -0.5966
 7335SOL    HW233639   2.842   1.697   0.744 -0.7856 -1.7621 -0.3066
 7336SOL     OW33640   3.153   3.258   1.269  0.6847 -0.6360 -0.5162
 7336SOL    HW133641   3.237   3.224   1.299  0.0494 -1.5855  0.1945
 7336SOL    HW233642   3.109   3.181   1.233  2.0908 -2.8193  2.3159
 7337SOL     OW33643   3.654   4.623   5.146 -0.1906  0.1784 -0.7373
 7337SOL    HW133644   3.590   4.553   5.157  1.1946 -0.7743  1.1065
 7337SOL    HW233645   3.668   4.603   5.053 -2.0474  0.0237 -0.9816
 7338SOL     OW33646   1.915   3.060   4.164 -0.1551  0.4074  0.0784
 7338SOL    HW133647   1.922   3.094   4.075 -0.8496  2.2524  0.7333
 7338SOL    HW233648   1.897   2.967   4.145 -0.0136  0.6722 -1.3685
 7339SOL     OW33649   3.556   1.554   2.431  0.2322  0.0779  0.0505
 7339SOL    HW133650   3.619   1.620   2.402  0.3034 -0.0747 -0.1365
 7339SOL    HW233651   3.565   1.545   2.526  0.3847  2.0057  0.2225
 7340SOL     OW33652   0.591   0.632   7.960 -0.4292 -0.1505  0.5273
 7340SOL    HW133653   0.635   0.566   7.907 -1.4139  1.0637 -1.8414
 7340SOL    HW233654   0.615   0.716   7.921 -3.2052 -0.9592 -2.9686
 7341SOL     OW33655   2.355   4.555   6.894  0.0322 -0.1648 -0.2861
 7341SOL    HW133656   2.336   4.639   6.938  0.6292  1.1999 -2.6339
 7341SOL    HW233657   2.386   4.501   6.967  0.1457  0.8658  0.4365
 7342SOL     OW33658   3.792   0.309   8.526 -0.8220 -0.0788 -0.2180
 7342SOL    HW133659   3.816   0.235   8.470 -0.1512  0.1557 -0.2385
 7342SOL    HW233660   3.848   0.383   8.503 -1.8960  0.6042 -0.6506
 7343SOL     OW33661   0.300   4.541   2.964 -0.1334  0.0418  0.3355
 7343SOL    HW133662   0.297   4.446   2.975  1.7821 -0.1835 -1.1447
 7343SOL    HW233663   0.257   4.546   2.879 -2.2771 -1.3186  1.3331
 7344SOL     OW33664   3.219   1.240   0.397  0.1687  0.0910 -0.8337
 7344SOL    HW133665   3.146   1.213   0.453 -0.1641  0.6707 -0.9864
 7344SOL    HW233666   3.291   1.194   0.439 -0.7835 -0.3655  0.2820
 7345SOL     OW33667   3.086   1.779   8.966  0.4471 -0.4279 -0.0827
 7345SOL    HW133668   3.097   1.702   9.022 -3.0830 -1.1129 -0.3007
 7345SOL    HW233669   2.996   1.772   8.933  0.5540 -2.3922  0.0509
 7346SOL     OW33670   2.164   3.414   9.711 -0.2237  0.0457 -0.1681
 7346SOL    HW133671   2.070   3.431   9.707 -0.0708  0.7296 -0.8794
 7346SOL    HW233672   2.185   3.477   9.642  0.8627 -0.2920 -0.1399
 7347SOL     OW33673   0.518   1.654  16.237  0.1003  0.6644  0.2206
 7347SOL    HW133674   0.443   1.673  16.293  0.1205 -1.2358  0.9037
 7347SOL    HW233675   0.595   1.691  16.281  0.5966  0.2600 -0.3100
 7348SOL     OW33676   1.259   3.318   0.932 -0.3107 -0.6776 -0.0604
 7348SOL    HW133677   1.349   3.349   0.943 -0.4865 -0.5584  1.0255
 7348SOL    HW233678   1.221   3.358   0.853  0.2454 -2.1787 -1.0864
 7349SOL     OW33679   2.263   1.324   2.301  0.1635  0.0037 -0.5516
 7349SOL    HW133680   2.241   1.241   2.257  0.2875  0.8988 -2.3255
 7349SOL    HW233681   2.183   1.369   2.272  1.1128  0.9643 -1.6813
 7350SOL     OW33682   3.332   0.400   4.459 -0.3112 -0.5412  0.3266
 7350SOL    HW133683   3.393   0.462   4.499  0.3133 -1.6115  1.0341
 7350SOL    HW233684   3.344   0.417   4.366 -1.6390 -0.8575  0.1042
 7351SOL     OW33685   1.068   1.751   6.445  0.1067 -0.2040 -0.2233
 7351SOL    HW133686   1.068   1.666   6.490 -0.5308 -0.7829 -1.3089
 7351SOL    HW233687   1.075   1.718   6.355  0.7686  0.9364 -0.5810
 7352SOL     OW33688   3.275   2.517   5.378  0.4151 -0.2827 -0.0458
 7352SOL    HW133689   3.230   2.570   5.312  0.8951  0.5247  0.2729
 7352SOL    HW233690   3.345   2.481   5.324  1.8351 -0.0468  1.6469
 7353SOL     OW33691   3.746   3.341  10.498  0.0224  0.0297  0.1246
 7353SOL    HW133692   3.680   3.273  10.483  0.1458 -0.0840  0.0882
 7353SOL    HW233693   3.821   3.288  10.468  1.1168  3.3451 -3.0111
 7354SOL     OW33694   1.419   4.696   2.845  0.2350 -0.1008  0.4316
 7354SOL    HW133695   1.512   4.703   2.821 -0.7981 -2.0072 -4.1064
 7354SOL    HW233696   1.397   4.604   2.861 -0.4718 -0.3336 -1.8394
 7355SOL     OW33697   1.734   0.061   1.469 -0.3913 -0.0411  0.2096
 7355SOL    HW133698   1.659   0.036   1.415  1.8885 -0.4703 -2.7598
 7355SOL    HW233699   1.802   0.015   1.420 -0.1130  2.6445 -1.9690
 7356SOL     OW33700   1.448   1.944   2.665 -0.1755  0.1817  0.0979
 7356SOL    HW133701   1.451   1.872   2.728 -0.6140  0.5965  0.6042
 7356SOL    HW233702   1.416   2.008   2.729 -0.5623  1.0069 -0.9264
 7357SOL     OW33703   2.772   3.810  17.400 -0.1605  0.5449 -0.5627
 7357SOL    HW133704   2.769   3.903  17.422  0.4936  0.1644  1.1107
 7357SOL    HW233705   2.831   3.805  17.324 -0.2719 -1.3656 -0.5007
 7358SOL     OW33706   0.627   3.821   5.566 -0.0633  0.2080  0.1412
 7358SOL    HW133707   0.708   3.850   5.606  0.2282  2.6963 -2.2621
 7358SOL    HW233708   0.591   3.773   5.641  0.3524  0.8287  0.7381
 7359SOL     OW33709   2.715   0.183   2.701  0.6487  0.9891 -0.4587
 7359SOL    HW133710   2.801   0.149   2.677  0.7467  1.9015 -1.4014
 7359SOL    HW233711   2.658   0.158   2.628 -0.8098 -0.0365  1.0261
 7360SOL     OW33712   1.395   2.045   1.363  0.0054 -0.6777 -0.3879
 7360SOL    HW133713   1.356   1.973   1.412  0.4663 -0.0066  0.9576
 7360SOL    HW233714   1.367   2.033   1.272 -1.9597 -1.6889  0.3650
 7361SOL     OW33715   0.789   4.146   0.017 -0.3532 -0.6257 -0.6055
 7361SOL    HW133716   0.856   4.105  17.709  2.2634  0.4760  1.7866
 7361SOL    HW233717   0.846   4.154   0.094 -1.4868  3.4583 -0.1718
 7362SOL     OW33718   3.946   2.144   4.419  0.0435 -0.5277 -0.2286
 7362SOL    HW133719   4.029   2.110   4.385  0.1107  0.4694 -1.0641
 7362SOL    HW233720   3.962   2.141   4.514  3.1084  2.7603 -0.6502
 7363SOL     OW33721   3.423   2.756   1.872 -0.0189  0.1999 -0.1435
 7363SOL    HW133722   3.337   2.719   1.890  1.0816 -2.7989 -1.1432
 7363SOL    HW233723   3.418   2.778   1.779 -1.2820 -2.8507 -0.7966
 7364SOL     OW33724   4.551   1.720  15.750 -0.1147 -0.3477 -0.1659
 7364SOL    HW133725   4.555   1.727  15.655 -1.8365  3.0572 -0.0181
 7364SOL    HW233726   4.646   1.719  15.757 -0.2293 -0.2804  1.5247
 7365SOL     OW33727   0.216   0.706   7.601  0.3735 -0.2099  0.1796
 7365SOL    HW133728   0.301   0.714   7.644  1.1852  0.0086 -1.4589
 7365SOL    HW233729   0.235   0.753   7.520 -0.1441  0.9185  0.7154
 7366SOL     OW33730   2.952   2.863  13.923  0.0624  0.4264 -0.2125
 7366SOL    HW133731   2.936   2.889  14.013 -1.0840  0.7531 -0.5078
 7366SOL    HW233732   2.904   2.940  13.892 -0.4019  0.4691  0.6089
 7367SOL     OW33733   1.875   4.429  16.024 -0.2045 -0.4910 -0.4271
 7367SOL    HW133734   1.830   4.418  16.108  0.0170 -2.1048 -0.5207
 7367SOL    HW233735   1.943   4.362  16.029 -0.9066 -1.0858  1.1110
 7368SOL     OW33736   2.739   4.683   7.564 -0.1425 -0.1790 -0.4276
 7368SOL    HW133737   2.719   4.727   7.647 -0.3139 -0.3031 -0.4047
 7368SOL    HW233738   2.791   0.017   7.527 -0.5374 -0.4015 -1.3996
 7369SOL     OW33739   3.309   4.251  16.683 -0.1806  0.1328  0.0695
 7369SOL    HW133740   3.398   4.286  16.674  0.4815 -1.3132  0.9507
 7369SOL    HW233741   3.311   4.192  16.608  1.7590 -0.2241  0.3889
 7370SOL     OW33742   4.383   0.208   8.303  0.4245  0.0696 -0.3871
 7370SOL    HW133743   4.398   0.272   8.373  0.0959 -0.2158 -0.0511
 7370SOL    HW233744   4.288   0.202   8.290  0.6585  1.9473 -2.9649
 7371SOL     OW33745   3.948   4.484   3.932 -0.4779  0.2468  0.0878
 7371SOL    HW133746   3.975   4.573   3.957 -0.8687  0.1124  0.9972
 7371SOL    HW233747   3.876   4.471   3.994  0.5912 -3.4054  0.5509
 7372SOL     OW33748   1.431   1.939   5.739  0.5650 -0.3695 -0.3310
 7372SOL    HW133749   1.378   1.972   5.666 -2.1839 -2.2249  0.8200
 7372SOL    HW233750   1.476   1.861   5.708 -1.5664 -0.8120 -2.3204
 7373SOL     OW33751   2.151   3.459  13.570 -0.6899 -0.4170  0.2011
 7373SOL    HW133752   2.098   3.487  13.644 -1.3202  0.6226 -0.6349
 7373SOL    HW233753   2.096   3.490  13.497  0.2395 -1.0951 -0.7935
 7374SOL     OW33754   2.655   0.862   6.495  0.0874 -0.1051  0.0876
 7374SOL    HW133755   2.741   0.859   6.453  0.4008 -0.8497  0.7630
 7374SOL    HW233756   2.682   0.897   6.580 -1.2318 -2.2314  1.3909
 7375SOL     OW33757   3.047   1.804   9.599  0.2950  0.2285 -0.0194
 7375SOL    HW133758   3.114   1.745   9.632  1.9523  2.1496  0.0435
 7375SOL    HW233759   3.095   1.864   9.542 -0.6744  1.2611  0.2453
 7376SOL     OW33760   4.636   4.085  16.622 -0.3503  0.6502 -0.1134
 7376SOL    HW133761   4.638   4.051  16.532  0.7772  0.8776 -0.1720
 7376SOL    HW233762   4.585   4.018  16.667  1.0030 -0.4399 -0.2156
 7377SOL     OW33763   3.696   0.965   5.131  0.8719 -0.6594  0.4454
 7377SOL    HW133764   3.660   0.952   5.044  2.4429 -0.2279 -0.2641
 7377SOL    HW233765   3.616   0.962   5.184 -1.3034 -1.1214 -2.9064
 7378SOL     OW33766   3.771   0.365   5.157 -0.0542 -0.2396  0.3745
 7378SOL    HW133767   3.820   0.285   5.179  0.2874  0.0945  0.8194
 7378SOL    HW233768   3.714   0.359   5.234  0.7488 -0.0726  0.9785
 7379SOL     OW33769   3.858   0.677   8.207  0.1389  0.4367  0.4676
 7379SOL    HW133770   3.933   0.667   8.266 -0.6394  2.3625  1.8125
 7379SOL    HW233771   3.848   0.585   8.183  2.4403  0.2884  0.0926
 7380SOL     OW33772   2.043   3.727  16.705 -0.5400  0.5210 -0.2296
 7380SOL    HW133773   2.074   3.717  16.615 -1.1792 -0.8516 -0.2956
 7380SOL    HW233774   2.004   3.640  16.713 -0.1403  0.2696 -0.9999
 7381SOL     OW33775   4.093   1.124   9.089 -0.1992 -0.9781 -0.5771
 7381SOL    HW133776   4.098   1.029   9.078  1.4560 -0.7359 -1.7326
 7381SOL    HW233777   4.003   1.135   9.058 -0.1434 -1.3893 -0.8936
 7382SOL     OW33778   0.529   1.935  16.027  0.0893 -0.2580 -0.0834
 7382SOL    HW133779   0.531   1.899  15.939  0.2545 -1.8336  0.5703
 7382SOL    HW233780   0.614   1.903  16.057  0.9072  2.7949  0.8781
 7383SOL     OW33781   1.864   3.640   2.712  0.7735 -0.2441  0.3156
 7383SOL    HW133782   1.776   3.614   2.685  1.0736 -1.2198  0.2560
 7383SOL    HW233783   1.883   3.716   2.658  0.1960 -1.4649 -1.5983
 7384SOL     OW33784   0.137   4.115   4.212 -0.1597  0.1605  0.2862
 7384SOL    HW133785   0.061   4.143   4.262 -0.9156  1.2118 -1.4396
 7384SOL    HW233786   0.102   4.092   4.126  0.1402 -2.7482  0.9236
 7385SOL     OW33787   0.310   1.486  16.458  0.2569  0.1059  0.4767
 7385SOL    HW133788   0.253   1.563  16.454  1.5362  1.0548  0.6460
 7385SOL    HW233789   0.273   1.426  16.393 -1.8297  2.7826 -0.7864
 7386SOL     OW33790   1.575   3.225   7.723  0.0459 -0.3861  0.1199
 7386SOL    HW133791   1.556   3.305   7.773 -1.1811 -1.3492  1.2021
 7386SOL    HW233792   1.498   3.172   7.743  0.0554  0.1628  1.5586
 7387SOL     OW33793   2.621   2.748   5.420 -0.6309 -0.5921 -0.0057
 7387SOL    HW133794   2.620   2.655   5.443 -0.1515 -1.1341 -2.2729
 7387SOL    HW233795   2.713   2.762   5.398 -0.4621  0.3269  1.2588
 7388SOL     OW33796   0.949   3.701   6.369 -0.0778 -0.7135  0.2359
 7388SOL    HW133797   1.020   3.637   6.373  3.4444  3.2490  0.7617
 7388SOL    HW233798   0.964   3.750   6.449  2.7750  0.5141 -1.0244
 7389SOL     OW33799   0.881   3.389   1.564 -0.1897  0.0635  0.5446
 7389SOL    HW133800   0.790   3.371   1.541 -0.3369  0.2290  1.0037
 7389SOL    HW233801   0.915   3.308   1.601  1.2389  0.8551  0.9502
 7390SOL     OW33802   3.250   4.042  14.725  0.4660 -0.4795 -0.1907
 7390SOL    HW133803   3.232   4.009  14.637  2.1169  0.4268 -0.8744
 7390SOL    HW233804   3.248   4.137  14.710  1.4399 -0.5307 -0.6955
 7391SOL     OW33805   2.208   0.046   8.593  0.0567 -0.5348  0.5705
 7391SOL    HW133806   2.260   4.714   8.553  0.0418  1.6012 -3.0721
 7391SOL    HW233807   2.199   0.001   8.678  2.8292 -0.0923  1.0871
 7392SOL     OW33808   0.606   4.483   5.240  0.1179 -0.1121 -0.3190
 7392SOL    HW133809   0.537   4.419   5.258 -1.0656  1.9326  2.4560
 7392SOL    HW233810   0.590   4.552   5.305 -1.1021  0.5666 -1.3376
 7393SOL     OW33811   0.554   3.210   3.218  0.3654 -0.0441 -0.0166
 7393SOL    HW133812   0.524   3.146   3.153  0.2014 -0.5935  0.6043
 7393SOL    HW233813   0.589   3.159   3.291  1.0532  1.0208  0.3992
 7394SOL     OW33814   4.453   1.433   4.296  0.8494  0.2753 -0.1970
 7394SOL    HW133815   4.489   1.509   4.341  2.3621 -0.6530  0.1800
 7394SOL    HW233816   4.539   1.409   4.262  1.0166  0.5271  0.0436
 7395SOL     OW33817   0.315   0.109   4.150  0.0572  0.2099 -0.1030
 7395SOL    HW133818   0.307   0.030   4.203  0.3082 -0.4392 -1.0263
 7395SOL    HW233819   0.362   0.071   4.075  1.3189  2.9067 -0.6654
 7396SOL     OW33820   1.051   0.411   2.972 -0.2943 -0.3613  0.2621
 7396SOL    HW133821   0.974   0.466   2.977  0.4864  0.5218  2.7553
 7396SOL    HW233822   1.021   0.347   2.907 -0.8542  0.2528 -0.0819
 7397SOL     OW33823   0.063   0.023   4.583 -0.2743 -0.2272 -0.2925
 7397SOL    HW133824   0.090   0.093   4.523  3.8799 -0.0892  1.7329
 7397SOL    HW233825   4.725   4.736   4.528  0.5196 -1.3311 -0.9078
 7398SOL     OW33826   2.752   2.113   9.706 -0.2568 -0.4829 -0.2517
 7398SOL    HW133827   2.673   2.068   9.676  0.6351 -1.4086 -1.2182
 7398SOL    HW233828   2.798   2.040   9.748 -0.6914  0.7841  2.4152
 7399SOL     OW33829   1.917   1.265   5.907 -0.4216  0.0003 -0.4734
 7399SOL    HW133830   1.963   1.189   5.869  1.7254  0.8465  0.4056
 7399SOL    HW233831   1.876   1.220   5.980  0.9030 -2.9605 -1.5358
 7400SOL     OW33832   2.692   0.504   6.235  0.2229 -0.5672  0.0851
 7400SOL    HW133833   2.761   0.472   6.177 -0.0535  1.2309 -1.2571
 7400SOL    HW233834   2.640   0.425   6.245 -1.5879  0.5850 -0.1358
 7401SOL     OW33835   1.163   2.906   8.870  0.4792  0.3902 -0.3400
 7401SOL    HW133836   1.152   2.895   8.964 -1.3382  0.4573 -0.5553
 7401SOL    HW233837   1.083   2.957   8.858  0.3030  0.8056  2.7670
 7402SOL     OW33838   3.565   0.011  14.806  0.0183 -0.2310 -0.2141
 7402SOL    HW133839   3.609   4.663  14.809 -2.0001 -1.2290  0.7378
 7402SOL    HW233840   3.597   0.053  14.726  2.0510 -2.2320 -0.4732
 7403SOL     OW33841   3.008   3.280   6.423 -0.1670 -0.1507  0.7603
 7403SOL    HW133842   2.998   3.198   6.471 -0.0891 -0.5108  0.1619
 7403SOL    HW233843   3.043   3.338   6.490  0.9166  0.5933 -0.4472
 7404SOL     OW33844   4.640   1.451  16.432 -0.2670  0.3780  0.6615
 7404SOL    HW133845   4.653   1.361  16.461 -0.2410 -0.3176 -1.4593
 7404SOL    HW233846   4.571   1.440  16.366  0.3841  1.5660 -0.2162
 7405SOL     OW33847   1.506   1.226   0.861  0.4082  0.0433  0.0698
 7405SOL    HW133848   1.574   1.276   0.906  1.3186 -1.3071  0.2125
 7405SOL    HW233849   1.556   1.149   0.834 -1.6620 -1.5465  0.7688
 7406SOL     OW33850   4.633   2.491  14.027  0.2840 -0.4959 -0.0083
 7406SOL    HW133851   4.584   2.416  14.059  1.7812 -1.5156 -0.0999
 7406SOL    HW233852   4.574   2.559  13.994 -1.0598 -0.6714  2.0680
 7407SOL     OW33853   2.836   0.345   7.237  0.4309  0.5157 -0.5588
 7407SOL    HW133854   2.820   0.412   7.171 -0.4561  1.1096  0.2472
 7407SOL    HW233855   2.892   0.403   7.289  0.0342 -0.7212  1.2381
 7408SOL     OW33856   0.475   1.950   3.456 -0.2523 -0.0549  0.1876
 7408SOL    HW133857   0.489   1.979   3.546 -3.3081  1.3685  0.1822
 7408SOL    HW233858   0.465   1.855   3.461 -1.2310 -0.0482 -1.5739
 7409SOL     OW33859   4.474   3.446   1.921  0.8757 -0.6382  0.3494
 7409SOL    HW133860   4.468   3.451   2.017  0.8281  0.1022  0.3056
 7409SOL    HW233861   4.533   3.371   1.909 -1.8452 -2.6559 -0.2173
 7410SOL     OW33862   0.536   4.701   6.250  0.1116 -0.4832  0.0175
 7410SOL    HW133863   0.597   0.017   6.198 -0.6411  1.9165  1.6019
 7410SOL    HW233864   0.521   0.025   6.321 -3.2731 -2.6528  1.1631
 7411SOL     OW33865   3.160   3.989   6.496  0.6654 -0.3019  0.0569
 7411SOL    HW133866   3.174   4.029   6.410 -0.4017 -1.7644 -0.8113
 7411SOL    HW233867   3.249   3.987   6.530  0.5847 -0.6009  0.2495
 7412SOL     OW33868   4.511   4.694   7.581  0.0486 -0.3664 -0.2650
 7412SOL    HW133869   4.475   0.011   7.511 -2.1561 -0.9928  0.3926
 7412SOL    HW233870   4.606   4.707   7.570 -0.3258  1.7716 -1.0737
 7413SOL     OW33871   0.621   1.411   8.479  0.1417  0.4846  0.2527
 7413SOL    HW133872   0.695   1.471   8.470  0.6583 -0.4389 -1.7081
 7413SOL    HW233873   0.633   1.338   8.417  0.6831  0.1087  0.7933
 7414SOL     OW33874   3.418   2.653   2.258 -0.6587 -0.9030  0.1354
 7414SOL    HW133875   3.423   2.743   2.224 -0.5953 -1.1431 -0.4776
 7414SOL    HW233876   3.465   2.660   2.341 -0.3720 -0.6362 -0.0482
 7415SOL     OW33877   0.832   1.841   4.817 -0.4297 -1.1368  0.0207
 7415SOL    HW133878   0.877   1.757   4.829  0.8825 -0.3499  0.6787
 7415SOL    HW233879   0.749   1.813   4.780  0.0700 -1.4726 -0.8419
 7416SOL     OW33880   1.383   1.496   5.522  0.1783  0.6475  0.3306
 7416SOL    HW133881   1.412   1.574   5.570  0.8979 -0.1314  1.1366
 7416SOL    HW233882   1.452   1.487   5.456  2.1375  0.0763  2.4893
 7417SOL     OW33883   4.107   0.098  16.530 -0.4051 -0.5716 -0.0522
 7417SOL    HW133884   4.050   0.022  16.518  1.2467 -1.4274 -2.4588
 7417SOL    HW233885   4.198   0.069  16.529  0.3752  1.7947  1.3357
 7418SOL     OW33886   2.515   1.854   0.492 -0.2586  0.3681 -0.9583
 7418SOL    HW133887   2.564   1.870   0.412  0.6402  1.4237 -0.1953
 7418SOL    HW233888   2.485   1.943   0.508 -0.3780 -0.0409  1.1239
 7419SOL     OW33889   4.436   2.336   1.602 -0.1694 -0.4455  0.5975
 7419SOL    HW133890   4.389   2.408   1.646  1.6659  0.5850  0.8760
 7419SOL    HW233891   4.503   2.325   1.670  1.0066  0.5847 -0.3981
 7420SOL     OW33892   2.285   4.216   3.850  0.2008 -0.0750  0.1902
 7420SOL    HW133893   2.352   4.155   3.817 -0.2206  0.0965 -1.0073
 7420SOL    HW233894   2.201   4.171   3.839  0.2534 -0.1459  0.0742
 7421SOL     OW33895   1.193   1.913   5.878  0.4263 -0.4155 -0.0371
 7421SOL    HW133896   1.268   1.905   5.820 -0.0522  1.3609 -0.9108
 7421SOL    HW233897   1.145   1.836   5.846  0.5608 -0.5137 -0.0030
 7422SOL     OW33898   1.255   0.097   2.446  0.0155 -0.2947 -0.3287
 7422SOL    HW133899   1.338   0.085   2.493  1.1999  0.2150 -2.2995
 7422SOL    HW233900   1.259   0.188   2.418  0.7499  0.7576  3.1858
 7423SOL     OW33901   4.316   4.609  11.672 -0.6792 -0.4246  0.3931
 7423SOL    HW133902   4.379   4.570  11.612 -0.0827 -2.3483  2.2683
 7423SOL    HW233903   4.377   4.633  11.741 -0.6822  0.2319  0.1644
 7424SOL     OW33904   3.459   3.425   7.979 -0.2319  0.3766  0.4586
 7424SOL    HW133905   3.432   3.339   8.012 -2.2075 -0.0122 -2.0776
 7424SOL    HW233906   3.548   3.408   7.948  0.0692  0.1163  1.4774
 7425SOL     OW33907   1.205   2.524   2.634 -0.5202 -0.2579  0.3319
 7425SOL    HW133908   1.295   2.550   2.618 -0.2439 -0.6560  1.2687
 7425SOL    HW233909   1.175   2.486   2.551  1.3351  1.1510 -0.9759
 7426SOL     OW33910   4.692   2.534  16.639 -0.5331 -0.3084 -0.1163
 7426SOL    HW133911   4.694   2.440  16.652  0.2492  0.0159  2.1465
 7426SOL    HW233912   4.598   2.536  16.623 -0.6131  2.2034  0.5405
 7427SOL     OW33913   3.620   0.871   2.199 -0.1255 -0.5708  0.0655
 7427SOL    HW133914   3.676   0.942   2.230  0.1841 -0.6595 -0.2942
 7427SOL    HW233915   3.564   0.851   2.275 -1.1661 -0.7743 -0.7580
 7428SOL     OW33916   1.427   1.381   9.209 -0.3699  0.3460  0.3319
 7428SOL    HW133917   1.354   1.320   9.216  0.4623 -0.8078 -1.1986
 7428SOL    HW233918   1.493   1.324   9.169  0.7624  2.7821 -1.3050
 7429SOL     OW33919   3.198   1.433   3.689 -0.0707 -0.9956 -0.2596
 7429SOL    HW133920   3.141   1.397   3.621  1.0493 -1.6280 -0.8621
 7429SOL    HW233921   3.176   1.380   3.766  1.1727 -1.3605 -0.1514
 7430SOL     OW33922   3.437   0.128   0.478 -0.3276  0.3676 -0.3445
 7430SOL    HW133923   3.514   0.119   0.422  0.9028 -1.9829  1.7236
 7430SOL    HW233924   3.465   0.093   0.563 -0.7118  3.2551  0.9797
 7431SOL     OW33925   3.895   2.925   7.357  0.5902 -0.1639  0.1830
 7431SOL    HW133926   3.855   3.012   7.351 -1.1405 -1.0227 -0.5791
 7431SOL    HW233927   3.964   2.928   7.291 -0.9960 -2.7655 -1.5828
 7432SOL     OW33928   1.194   2.856   5.044 -0.4605 -0.1389 -0.0601
 7432SOL    HW133929   1.246   2.827   4.969  0.8432 -0.2818  0.8858
 7432SOL    HW233930   1.112   2.881   5.001 -0.0697 -1.8661 -1.7891
 7433SOL     OW33931   4.313   0.760   9.148 -0.5188  0.3732  0.5322
 7433SOL    HW133932   4.268   0.695   9.202 -1.5074 -1.0315 -1.9974
 7433SOL    HW233933   4.390   0.716   9.113 -0.5845 -1.5394  2.7424
 7434SOL     OW33934   2.457   1.689   7.731  0.1506  0.2151 -0.0808
 7434SOL    HW133935   2.445   1.783   7.722 -0.0020  0.2155  0.1235
 7434SOL    HW233936   2.495   1.689   7.819 -0.9212 -1.8303  0.3787
 7435SOL     OW33937   2.933   0.186  16.599  0.1243 -0.1808 -0.6169
 7435SOL    HW133938   2.985   0.106  16.589  0.7490  0.0443  0.8809
 7435SOL    HW233939   2.977   0.248  16.541 -1.6605  0.9563 -0.7524
 7436SOL     OW33940   3.133   2.999   2.238 -0.4344  0.1016 -0.5272
 7436SOL    HW133941   3.084   2.918   2.221  0.1739 -0.1957 -0.8442
 7436SOL    HW233942   3.070   3.047   2.292 -1.4382 -0.8536 -0.8492
 7437SOL     OW33943   4.367   2.978  10.999 -0.4446 -0.3192 -0.4297
 7437SOL    HW133944   4.326   2.959  10.915 -0.6714  1.4324 -0.7167
 7437SOL    HW233945   4.303   2.949  11.063  1.6195  0.0727  1.8310
 7438SOL     OW33946   4.572   3.460   5.760 -0.3791  0.1498  0.0443
 7438SOL    HW133947   4.643   3.504   5.713 -0.0844  0.7124  1.0020
 7438SOL    HW233948   4.498   3.467   5.700  0.5217  0.3916 -1.0340
 7439SOL     OW33949   2.064   1.963   2.329  0.8296 -0.7515  0.0126
 7439SOL    HW133950   2.049   1.972   2.235  0.6195 -0.0087  0.1105
 7439SOL    HW233951   1.979   1.960   2.373 -0.5760 -0.3696 -2.7307
 7440SOL     OW33952   3.894   2.360   8.265 -0.3947  0.0262 -0.4712
 7440SOL    HW133953   3.885   2.342   8.359  0.0153  0.5256 -0.3389
 7440SOL    HW233954   3.872   2.453   8.264 -1.7574 -0.2749  0.9740
 7441SOL     OW33955   1.197   2.623  14.487 -0.0228 -0.3453 -0.1320
 7441SOL    HW133956   1.164   2.711  14.504 -0.9208 -0.8185  0.6035
 7441SOL    HW233957   1.285   2.627  14.450  0.3239  0.6393  0.7922
 7442SOL     OW33958   2.650   2.718   8.219  0.2936  0.0534  0.2231
 7442SOL    HW133959   2.669   2.624   8.226  2.0562  0.4422  0.7954
 7442SOL    HW233960   2.559   2.716   8.188  0.6413 -2.5322 -0.7029
 7443SOL     OW33961   0.561   2.728   2.441  0.1771  0.2213  0.1427
 7443SOL    HW133962   0.599   2.813   2.461 -1.0404  1.2702 -2.1363
 7443SOL    HW233963   0.568   2.733   2.346 -0.7845  1.3767  0.1331
 7444SOL     OW33964   4.137   2.912   6.389 -0.8417  0.3774 -0.6487
 7444SOL    HW133965   4.124   2.817   6.378 -0.4946  0.2294  0.2607
 7444SOL    HW233966   4.099   2.933   6.474  1.5423 -0.3249  0.5946
 7445SOL     OW33967   2.230   1.183  13.382 -0.6702  0.0042  0.1525
 7445SOL    HW133968   2.205   1.107  13.329  1.7692  1.0262 -2.4455
 7445SOL    HW233969   2.268   1.240  13.315 -2.4883  1.9881  0.8247
 7446SOL     OW33970   2.996   2.460   8.141 -0.4070 -0.3187  0.1953
 7446SOL    HW133971   3.071   2.435   8.194 -0.3921 -0.5856  0.0486
 7446SOL    HW233972   3.020   2.550   8.122 -0.5132 -0.3039  0.1300
 7447SOL     OW33973   1.078   3.906   5.045  0.0099 -0.0609 -0.0034
 7447SOL    HW133974   1.126   3.838   4.999  1.4939  0.9984 -0.0031
 7447SOL    HW233975   1.044   3.952   4.969 -1.7306  0.8395  1.3060
 7448SOL     OW33976   4.068   3.254   5.529  0.4761  1.0109 -0.3351
 7448SOL    HW133977   4.075   3.324   5.463  0.5101  1.6459  0.3472
 7448SOL    HW233978   4.093   3.300   5.609  1.8451  0.6063 -0.5120
 7449SOL     OW33979   0.530   2.019   3.711  0.6389  0.3369 -0.0291
 7449SOL    HW133980   0.589   2.094   3.715 -2.4392  2.6015  1.9157
 7449SOL    HW233981   0.585   1.947   3.743 -1.5472 -0.5614  1.7277
 7450SOL     OW33982   0.115   3.507   2.073  0.2120 -0.1401 -0.5217
 7450SOL    HW133983   0.109   3.593   2.032  0.9520  0.5900  0.8864
 7450SOL    HW233984   0.193   3.520   2.128 -0.6192 -2.7434  1.2874
 7451SOL     OW33985   2.281   0.643   6.147  0.6657  0.2898  0.0026
 7451SOL    HW133986   2.334   0.658   6.069 -1.2112  0.3801 -1.2653
 7451SOL    HW233987   2.267   0.548   6.142  0.3501  0.4133 -1.7010
 7452SOL     OW33988   3.077   2.327   8.551 -0.0294 -0.3160 -0.1294
 7452SOL    HW133989   3.058   2.353   8.642  1.7838  0.3097  0.0593
 7452SOL    HW233990   3.031   2.243   8.547 -0.7783  0.0634  0.3764
 7453SOL     OW33991   0.558   1.160   5.888  0.8752  0.2941 -0.5485
 7453SOL    HW133992   0.525   1.204   5.966 -0.1379 -2.7512  0.7584
 7453SOL    HW233993   0.491   1.092   5.876  0.4003  0.6359  0.2207
 7454SOL     OW33994   2.281   3.113   5.286 -0.4062  0.4287  0.3262
 7454SOL    HW133995   2.332   3.034   5.275  0.8306  1.0374  1.7217
 7454SOL    HW233996   2.336   3.181   5.325  1.3034 -1.2069  0.7147
 7455SOL     OW33997   0.288   1.324   9.752  0.4574 -0.1614 -0.6191
 7455SOL    HW133998   0.341   1.246   9.763 -0.2571 -0.5754 -0.0828
 7455SOL    HW233999   0.202   1.283   9.744  0.6204 -0.4769 -0.7357
 7456SOL     OW34000   0.483   4.326  13.916 -0.3123 -0.0629  0.1946
 7456SOL    HW134001   0.449   4.260  13.977 -1.0412  0.0639 -0.0732
 7456SOL    HW234002   0.415   4.334  13.849  0.9343  0.1716 -1.0369
 7457SOL     OW34003   3.941   2.651  11.832 -0.0917 -0.7431 -0.0978
 7457SOL    HW134004   4.003   2.617  11.767  1.4346 -2.3765  2.2569
 7457SOL    HW234005   3.996   2.711  11.882 -1.5642  0.0323  0.5856
 7458SOL     OW34006   2.359   0.583   7.103 -0.3253  0.5133  0.3400
 7458SOL    HW134007   2.425   0.639   7.144  1.5338  0.1542 -2.1992
 7458SOL    HW234008   2.401   0.558   7.021 -0.5941 -1.0047  0.6631
 7459SOL     OW34009   1.362   3.751   9.228 -0.2836 -0.1816 -0.3428
 7459SOL    HW134010   1.354   3.842   9.198 -0.9252  0.3795  1.5086
 7459SOL    HW234011   1.457   3.745   9.223 -0.3860 -2.9912  1.2578
 7460SOL     OW34012   0.456   1.562  16.688  0.1572  0.1550  0.6537
 7460SOL    HW134013   0.518   1.490  16.684 -1.6539 -1.3693 -0.2646
 7460SOL    HW234014   0.385   1.531  16.632  1.3832 -1.0476 -0.2237
 7461SOL     OW34015   2.497   2.060   7.437 -0.3522  0.2123  0.1295
 7461SOL    HW134016   2.419   2.007   7.420 -1.0188  1.4522 -0.7726
 7461SOL    HW234017   2.483   2.136   7.380  1.5395  0.8760  0.5577
 7462SOL     OW34018   4.047   2.875   6.651  0.6696 -0.2837 -0.0472
 7462SOL    HW134019   4.012   2.888   6.738 -0.0763 -0.6520 -0.2928
 7462SOL    HW234020   4.107   2.800   6.654 -0.3816 -1.0554  1.2677
 7463SOL     OW34021   0.770   4.724   3.206 -0.8782  0.3542 -0.2120
 7463SOL    HW134022   0.841   0.034   3.250  0.6992  0.2751 -2.6820
 7463SOL    HW234023   0.759   0.036   3.125  0.2620  0.6781 -0.1638
 7464SOL     OW34024   0.263   4.065   8.378  0.3404 -0.1679  0.7212
 7464SOL    HW134025   0.270   4.035   8.469 -1.9423 -0.9932  0.6160
 7464SOL    HW234026   0.263   3.979   8.336 -0.4813  0.7130 -1.0527
 7465SOL     OW34027   2.375   4.648   6.130  0.0080  0.7405 -0.3583
 7465SOL    HW134028   2.441   4.711   6.157 -0.3659  1.9127 -2.2036
 7465SOL    HW234029   2.305   4.700   6.169 -1.3425 -0.4617 -1.1805
 7466SOL     OW34030   2.754   3.572   5.736 -0.0810 -0.0383 -0.8073
 7466SOL    HW134031   2.668   3.552   5.772  0.3258 -2.2293 -1.0628
 7466SOL    HW234032   2.790   3.611   5.815 -0.0672 -1.3728 -0.1651
 7467SOL     OW34033   2.484   2.915   2.074 -0.0629 -0.1698  0.4354
 7467SOL    HW134034   2.548   2.860   2.119  0.3238 -0.2758 -0.2360
 7467SOL    HW234035   2.422   2.854   2.035 -0.2330  0.0239  0.4025
 7468SOL     OW34036   2.010   1.175   6.585  0.0339 -0.0060  0.5373
 7468SOL    HW134037   2.016   1.268   6.605  1.7782 -0.0842  0.4013
 7468SOL    HW234038   1.976   1.192   6.497  2.1141  1.6159  0.0571
 7469SOL     OW34039   0.198   1.617  16.931  0.1362  0.7940  0.4323
 7469SOL    HW134040   0.162   1.540  16.887  1.2615 -0.9240  2.4903
 7469SOL    HW234041   0.196   1.675  16.855 -0.6446 -1.1358 -1.0300
 7470SOL     OW34042   2.313   2.813   4.513  0.7622 -0.1410 -0.2784
 7470SOL    HW134043   2.280   2.779   4.596 -0.3816  0.5914 -0.4290
 7470SOL    HW234044   2.243   2.864   4.472  0.0563 -1.2853 -0.4973
 7471SOL     OW34045   0.799   1.506  10.833 -0.0635 -0.6992  0.8355
 7471SOL    HW134046   0.860   1.503  10.907  0.6947  0.5497  0.2510
 7471SOL    HW234047   0.809   1.418  10.795  1.4623 -0.0551 -0.2657
 7472SOL     OW34048   4.438   3.791   6.903  0.7218 -0.0439  0.1293
 7472SOL    HW134049   4.505   3.756   6.844 -1.7063 -2.5357 -1.1577
 7472SOL    HW234050   4.360   3.772   6.851  0.8911  0.3840 -0.2886
 7473SOL     OW34051   0.648   3.066   7.191  0.0218 -0.2080 -0.0869
 7473SOL    HW134052   0.618   3.155   7.171  3.9877  0.9115 -1.0885
 7473SOL    HW234053   0.638   3.020   7.107  2.1066 -4.5018  2.0109
 7474SOL     OW34054   1.865   0.437  10.667 -0.3876 -0.4917 -0.0700
 7474SOL    HW134055   1.951   0.407  10.698  1.0572  2.5999 -1.0262
 7474SOL    HW234056   1.831   0.494  10.736  1.2547  0.1628  0.2069
 7475SOL     OW34057   0.044   4.707  12.934  0.5329  0.0164 -0.0044
 7475SOL    HW134058   0.113   0.035  12.952 -1.2591  2.0747 -0.5317
 7475SOL    HW234059   4.721   0.018  12.876 -1.8588 -1.6682  1.1067
 7476SOL     OW34060   2.103   1.822   5.246  0.3155 -0.3303  0.4227
 7476SOL    HW134061   2.083   1.739   5.290 -0.3045  0.3247  1.3759
 7476SOL    HW234062   2.165   1.865   5.305 -1.5845 -0.5181  2.5590
 7477SOL     OW34063   2.967   0.123  12.319 -0.2586 -0.7140 -0.7668
 7477SOL    HW134064   3.009   0.152  12.400 -1.7466  2.3081 -1.0561
 7477SOL    HW234065   3.026   0.166  12.257  0.5317 -0.3868  0.2183
 7478SOL     OW34066   1.562   1.481   5.320 -0.4334 -0.2756  0.0812
 7478SOL    HW134067   1.621   1.544   5.280 -1.2983  0.0296 -0.7204
 7478SOL    HW234068   1.584   1.403   5.269 -0.1407 -0.5698  0.6578
 7479SOL     OW34069   3.120   4.540   1.189  0.6941 -0.0521 -0.1622
 7479SOL    HW134070   3.125   4.635   1.192  2.4410 -0.1087 -1.4406
 7479SOL    HW234071   3.031   4.530   1.154  1.2748  1.6890 -2.1437
 7480SOL     OW34072   4.326   0.577   6.609 -0.2232  0.0867  0.1779
 7480SOL    HW134073   4.385   0.510   6.574 -0.0215 -0.7526  2.1592
 7480SOL    HW234074   4.295   0.622   6.530 -2.0179  0.7465  1.2842
 7481SOL     OW34075   0.358   4.269   5.033  0.1225 -0.1283  0.3539
 7481SOL    HW134076   0.398   4.231   5.111 -0.0845 -2.7334 -0.8065
 7481SOL    HW234077   0.267   4.238   5.028 -0.0851  0.4675  0.4852
 7482SOL     OW34078   4.468   1.878   5.552  0.4420  0.1631 -0.1964
 7482SOL    HW134079   4.536   1.932   5.512 -0.8854  0.8469 -1.5157
 7482SOL    HW234080   4.405   1.895   5.482  0.1314 -0.5547 -0.0879
 7483SOL     OW34081   1.252   1.363   6.299  0.1291  0.0196 -0.0718
 7483SOL    HW134082   1.277   1.363   6.392 -1.3400 -0.1708  0.3180
 7483SOL    HW234083   1.271   1.455   6.278 -2.1512  0.5309  0.0539
 7484SOL     OW34084   1.693   1.884   6.116  0.6857 -0.4243 -0.0388
 7484SOL    HW134085   1.676   1.976   6.097  1.8620 -0.4828 -1.3683
 7484SOL    HW234086   1.627   1.835   6.066  0.1935  1.0929 -0.8646
 7485SOL     OW34087   3.792   1.706   5.879 -0.2113  0.9021 -0.3988
 7485SOL    HW134088   3.873   1.753   5.856  0.2273  0.5901  0.4944
 7485SOL    HW234089   3.811   1.626   5.830 -0.9734 -0.2283  1.1572
 7486SOL     OW34090   0.612   2.012   7.378  0.3719  0.0735  0.6229
 7486SOL    HW134091   0.628   2.000   7.472 -4.6184 -1.6539  1.2885
 7486SOL    HW234092   0.590   2.105   7.389 -0.1108  0.2252 -1.5383
 7487SOL     OW34093   0.373   2.788  13.305  0.3439  0.0149  0.0039
 7487SOL    HW134094   0.448   2.847  13.307  0.9891 -0.7753 -0.8621
 7487SOL    HW234095   0.402   2.724  13.370  2.0434  0.2497 -0.5276
 7488SOL     OW34096   0.931   2.817  12.298  0.2993  0.0022 -0.2724
 7488SOL    HW134097   0.961   2.899  12.338  2.3449  0.7514 -3.4200
 7488SOL    HW234098   0.993   2.759  12.342 -0.1754  0.3792  0.9028
 7489SOL     OW34099   0.542   4.459   1.005  0.7353 -0.0317  0.4739
 7489SOL    HW134100   0.619   4.426   0.958  0.7994  0.0410  0.5280
 7489SOL    HW234101   0.520   4.528   0.943  0.3005 -0.6259 -0.0309
 7490SOL     OW34102   1.224   0.314   0.625  0.1562  0.0782  0.2046
 7490SOL    HW134103   1.150   0.276   0.671  1.9149 -1.9461  1.3262
 7490SOL    HW234104   1.188   0.330   0.538  0.2782 -0.7462  0.0046
 7491SOL     OW34105   1.986   0.504   3.425 -0.1654  0.0231 -0.2560
 7491SOL    HW134106   1.995   0.574   3.361  0.4568  0.4052  0.2529
 7491SOL    HW234107   2.028   0.432   3.378  0.5671 -1.4555  2.6546
 7492SOL     OW34108   3.166   3.356   8.325  0.1475 -0.4112 -0.5848
 7492SOL    HW134109   3.125   3.269   8.332 -1.4247  0.3119 -0.8814
 7492SOL    HW234110   3.163   3.373   8.231  2.1041  1.4554 -0.3049
 7493SOL     OW34111   4.044   3.011  14.343  0.0395 -0.0029 -0.0670
 7493SOL    HW134112   4.070   3.083  14.286 -0.8026 -0.2324 -0.7362
 7493SOL    HW234113   3.954   3.031  14.370 -0.3043 -1.9393  0.2034
 7494SOL     OW34114   2.584   0.226   7.310  0.6181 -0.1640  0.1606
 7494SOL    HW134115   2.662   0.233   7.255  0.5416 -1.6938 -0.1315
 7494SOL    HW234116   2.583   0.311   7.355 -0.4546  0.0036 -0.1979
 7495SOL     OW34117   3.559   0.972   7.217  0.1896 -0.3086 -0.2810
 7495SOL    HW134118   3.555   1.019   7.300 -2.0043 -0.9363 -0.0162
 7495SOL    HW234119   3.653   0.956   7.224  0.4148  1.8504  1.5671
 7496SOL     OW34120   3.266   0.777   3.369 -0.2181 -0.4891  0.4425
 7496SOL    HW134121   3.249   0.840   3.439  0.8476  0.7220 -0.4052
 7496SOL    HW234122   3.249   0.842   3.302 -0.2271  1.9782  2.8335
 7497SOL     OW34123   2.379   1.867   4.248  0.2770 -0.6699 -0.3620
 7497SOL    HW134124   2.286   1.853   4.229  0.2856 -1.1011 -0.0822
 7497SOL    HW234125   2.372   1.920   4.327 -1.8561 -0.7559 -0.5060
 7498SOL     OW34126   3.201   4.328   2.991  0.1477  0.3795 -0.0880
 7498SOL    HW134127   3.179   4.418   2.965  0.2397  0.7602  1.1552
 7498SOL    HW234128   3.180   4.331   3.084 -1.7443 -0.2364 -0.5115
 7499SOL     OW34129   1.450   1.269   7.621  0.5613 -0.2965  0.4757
 7499SOL    HW134130   1.528   1.273   7.677  0.4137 -1.3501  0.7515
 7499SOL    HW234131   1.476   1.327   7.550 -1.5645  1.6205  1.2845
 7500SOL     OW34132   0.521   3.524  10.380  0.3377  0.4018 -0.7010
 7500SOL    HW134133   0.539   3.612  10.346  0.7991  0.1406 -1.1319
 7500SOL    HW234134   0.430   3.543  10.402  0.8033 -0.7504  2.2058
 7501SOL     OW34135   1.523   0.975  15.056 -0.1462  0.0201 -0.0019
 7501SOL    HW134136   1.441   0.935  15.025 -0.9998  0.1915  2.0699
 7501SOL    HW234137   1.497   1.065  15.033 -2.5261 -0.6245  0.1683
 7502SOL     OW34138   2.890   4.656   7.929  0.0553  0.0403 -0.3268
 7502SOL    HW134139   2.817   4.602   7.958  1.2918 -0.8081  1.2087
 7502SOL    HW234140   2.949   4.589   7.893  0.2095  0.5580 -1.0305
 7503SOL     OW34141   0.491   2.248  10.569 -0.1258 -0.3027 -0.0174
 7503SOL    HW134142   0.503   2.158  10.540  0.6533 -0.7963  1.8082
 7503SOL    HW234143   0.490   2.224  10.662  1.6035 -2.3585 -0.5557
 7504SOL     OW34144   4.595   1.872   7.961  0.2633 -0.8261  0.4542
 7504SOL    HW134145   4.636   1.796   8.002  0.9801 -0.7025 -0.0452
 7504SOL    HW234146   4.526   1.899   8.021 -1.0868 -2.3033 -0.4394
 7505SOL     OW34147   0.544   0.492   2.558  0.0278  0.4421 -0.0675
 7505SOL    HW134148   0.487   0.567   2.580 -3.3352 -0.9766 -3.9685
 7505SOL    HW234149   0.615   0.505   2.621  0.4660 -3.6483  0.2528
 7506SOL     OW34150   2.000   4.061   1.644  0.6509 -0.9294 -1.0179
 7506SOL    HW134151   1.979   4.029   1.731  0.8822  1.1989 -0.1784
 7506SOL    HW234152   1.929   4.123   1.631  1.0988  0.0131  0.9767
 7507SOL     OW34153   1.157   1.945   6.642 -0.3989  0.7509 -0.5906
 7507SOL    HW134154   1.243   1.915   6.612 -1.5099 -1.3945 -1.6267
 7507SOL    HW234155   1.111   1.947   6.558  0.0715 -0.2497 -0.8684
 7508SOL     OW34156   1.047   2.709   3.932  0.0542 -0.3458  0.8504
 7508SOL    HW134157   1.086   2.648   3.869  0.0300  0.7533 -0.2126
 7508SOL    HW234158   1.078   2.791   3.895  3.0959 -2.7969 -2.0574
 7509SOL     OW34159   2.720   2.613   0.282  0.1831  0.3622  0.1971
 7509SOL    HW134160   2.796   2.668   0.301  2.8352 -3.6957  1.3421
 7509SOL    HW234161   2.751   2.544   0.224  1.7085  1.6070 -0.4868
 7510SOL     OW34162   2.415   3.781   3.407 -0.3410 -0.1417 -0.6054
 7510SOL    HW134163   2.450   3.695   3.431  1.0888  0.8521  0.9073
 7510SOL    HW234164   2.359   3.800   3.482 -2.0294  0.7058 -2.0821
 7511SOL     OW34165   3.809   0.905   3.858 -0.1928 -0.3576  0.7634
 7511SOL    HW134166   3.863   0.971   3.815 -0.8594 -0.6973 -0.5662
 7511SOL    HW234167   3.831   0.918   3.951  0.7507  0.7622  0.3862
 7512SOL     OW34168   2.707   1.415   3.447  0.2158 -0.3713 -0.4096
 7512SOL    HW134169   2.690   1.325   3.419 -1.5357 -1.3939  3.8379
 7512SOL    HW234170   2.720   1.397   3.541  0.3242 -0.1264 -0.3774
 7513SOL     OW34171   0.756   2.761   2.935  0.2538  0.6314 -0.1448
 7513SOL    HW134172   0.836   2.723   2.972  0.0466  0.9944  0.6623
 7513SOL    HW234173   0.792   2.805   2.858  1.0996 -0.2361 -0.2417
 7514SOL     OW34174   1.144   3.788   2.117 -0.0268 -0.2540  0.1463
 7514SOL    HW134175   1.126   3.862   2.059  0.0488 -0.0539  0.3812
 7514SOL    HW234176   1.109   3.707   2.079  1.8465 -2.2746  2.7330
 7515SOL     OW34177   2.088   2.576   0.484 -0.0331  0.0290 -0.1608
 7515SOL    HW134178   2.117   2.656   0.439  1.3561 -2.2513 -3.3210
 7515SOL    HW234179   2.059   2.610   0.569 -1.5259 -0.6334 -0.4119
 7516SOL     OW34180   0.384   3.185  11.222  0.3074 -0.3309  0.5867
 7516SOL    HW134181   0.305   3.226  11.257  1.0378  0.6624  1.0385
 7516SOL    HW234182   0.386   3.236  11.141 -0.9322 -1.0713  0.0706
 7517SOL     OW34183   1.985   2.419  11.337 -0.9080 -0.0745 -0.1045
 7517SOL    HW134184   1.914   2.481  11.321  0.1658  1.3770  0.7482
 7517SOL    HW234185   1.943   2.358  11.397  2.3187 -0.9288  1.3195
 7518SOL     OW34186   3.437   4.688  15.218 -0.2247 -0.6299  0.1691
 7518SOL    HW134187   3.483   0.019  15.169 -0.6098 -0.9699 -0.6674
 7518SOL    HW234188   3.496   4.613  15.214  0.1886 -0.3155  0.3589
 7519SOL     OW34189   3.538   4.569  10.907  0.1888  0.2488  0.0584
 7519SOL    HW134190   3.506   4.510  10.975 -0.6862  0.6257 -0.0158
 7519SOL    HW234191   3.632   4.555  10.916 -0.0875 -1.8798 -0.3049
 7520SOL     OW34192   2.970   3.019   7.665 -0.1125 -0.1620  0.4092
 7520SOL    HW134193   2.905   3.031   7.734 -0.7505 -2.8094  0.2533
 7520SOL    HW234194   2.971   2.924   7.672  0.3644 -0.2322 -0.6417
 7521SOL     OW34195   3.666   1.047   9.762  0.7646 -0.1672 -0.5834
 7521SOL    HW134196   3.680   1.004   9.847 -0.5785  0.1655 -0.1941
 7521SOL    HW234197   3.748   1.019   9.722  0.1793 -1.8228 -0.6475
 7522SOL     OW34198   4.193   1.190   3.216  0.0936 -0.3894 -0.0515
 7522SOL    HW134199   4.109   1.148   3.195  0.6754 -1.6415  0.0780
 7522SOL    HW234200   4.168   1.241   3.292 -0.9008 -2.1781  0.8359
 7523SOL     OW34201   1.431   0.898   5.054 -0.1521  0.0481  0.5858
 7523SOL    HW134202   1.445   0.875   4.962  0.1160  0.9061  0.4098
 7523SOL    HW234203   1.436   0.807   5.081 -1.5004 -0.2376 -0.1333
 7524SOL     OW34204   1.758   1.398   2.981  0.1983 -0.2598 -0.8106
 7524SOL    HW134205   1.796   1.411   2.894  2.3018 -1.1178 -0.0211
 7524SOL    HW234206   1.827   1.343   3.019  0.6105  1.6591  1.1562
 7525SOL     OW34207   3.381   2.493  17.665 -0.2112  0.2142 -0.3652
 7525SOL    HW134208   3.345   2.452  17.586  1.3817 -1.7137 -0.0949
 7525SOL    HW234209   3.459   2.438  17.675 -0.7613 -0.1181  2.0347
 7526SOL     OW34210   4.346   1.116   6.581 -0.1993  0.0499  0.4541
 7526SOL    HW134211   4.260   1.074   6.588 -0.2263 -0.0859 -0.7244
 7526SOL    HW234212   4.400   1.038   6.592 -0.6132 -0.1299  1.2474
 7527SOL     OW34213   3.314   0.983   0.457 -0.0782  0.2907  0.5292
 7527SOL    HW134214   3.374   0.944   0.393 -2.0818 -1.1414 -0.4521
 7527SOL    HW234215   3.237   0.926   0.447 -0.0347  0.4278 -0.6294
 7528SOL     OW34216   3.761   3.951   1.516  0.1689 -0.1302 -0.4590
 7528SOL    HW134217   3.713   3.993   1.444 -1.2900  1.7095  1.6060
 7528SOL    HW234218   3.792   4.030   1.559 -0.3622  0.0111 -0.3366
 7529SOL     OW34219   2.590   3.301  17.299  0.5044  0.3315  0.0133
 7529SOL    HW134220   2.607   3.208  17.314 -0.5578  0.0396 -0.5240
 7529SOL    HW234221   2.576   3.330  17.389 -1.5775 -2.0824  0.4862
 7530SOL     OW34222   1.405   0.147   8.755 -0.1725 -0.9904 -0.4740
 7530SOL    HW134223   1.313   0.164   8.733  0.0554 -0.8100 -1.2882
 7530SOL    HW234224   1.419   0.222   8.814 -0.3074 -0.2582 -1.3637
 7531SOL     OW34225   0.757   0.968   3.790  0.1951  0.1023 -0.3349
 7531SOL    HW134226   0.771   1.059   3.815  0.2537 -0.6694  2.4752
 7531SOL    HW234227   0.746   0.939   3.881 -0.1686 -0.7440 -0.6472
 7532SOL     OW34228   3.060   0.972   1.407  0.3181 -0.1111 -0.3340
 7532SOL    HW134229   3.003   0.984   1.483  0.5107  0.6629 -0.3136
 7532SOL    HW234230   3.045   1.049   1.353  0.4303 -0.6920 -1.1970
 7533SOL     OW34231   3.973   3.356   5.263 -0.0662 -0.2009  0.0441
 7533SOL    HW134232   3.940   3.366   5.173  0.7060  2.2397  0.0323
 7533SOL    HW234233   4.045   3.417   5.250  0.3618 -0.9719 -1.2192
 7534SOL     OW34234   1.148   0.202   8.714 -0.2526 -0.2953  0.0016
 7534SOL    HW134235   1.132   0.109   8.730  0.1009 -0.4381 -0.4893
 7534SOL    HW234236   1.141   0.231   8.806 -0.6951 -2.2730  0.5781
 7535SOL     OW34237   1.603   1.013   4.034 -0.2382 -0.0773  0.6370
 7535SOL    HW134238   1.600   0.918   4.033 -0.8889 -0.0719  2.5394
 7535SOL    HW234239   1.696   1.036   4.039 -0.6161  2.5522 -4.3157
 7536SOL     OW34240   0.264   0.038  10.646  0.1332  0.1164  0.8394
 7536SOL    HW134241   0.207   0.019  10.571  1.3663  1.6272 -0.4722
 7536SOL    HW234242   0.320   4.698  10.637 -1.6915 -1.0851 -0.1062
 7537SOL     OW34243   0.415   1.853   9.486  0.4981 -0.1990 -0.0854
 7537SOL    HW134244   0.406   1.946   9.464  1.6993  0.0508  0.4841
 7537SOL    HW234245   0.404   1.855   9.581  0.3141 -1.1394 -0.0939
 7538SOL     OW34246   1.556   1.783   4.155  0.5328 -0.2693  0.0152
 7538SOL    HW134247   1.540   1.815   4.243  1.4270 -1.3432  0.5674
 7538SOL    HW234248   1.595   1.859   4.111 -0.4227  1.2269  1.7877
 7539SOL     OW34249   1.248   3.904   6.618  0.6378 -0.0019  0.4023
 7539SOL    HW134250   1.204   3.980   6.654  1.5086  0.9973 -0.6191
 7539SOL    HW234251   1.181   3.840   6.594  1.1889 -0.2335 -0.5311
 7540SOL     OW34252   1.798   2.978  13.379 -0.1068 -0.7142 -0.7066
 7540SOL    HW134253   1.775   2.910  13.316 -1.4691  0.1887 -1.2105
 7540SOL    HW234254   1.723   2.988  13.438  1.3355 -0.9581  1.1611
 7541SOL     OW34255   2.212   2.916   8.173 -0.1847 -0.0295 -0.2101
 7541SOL    HW134256   2.211   3.010   8.154  1.8241 -0.1560 -0.9809
 7541SOL    HW234257   2.140   2.917   8.236  0.4896  0.8933  0.5514
 7542SOL     OW34258   3.879   0.997   9.601  0.0931 -0.3946  0.1404
 7542SOL    HW134259   3.963   1.043   9.604 -0.7916  1.2367  0.0548
 7542SOL    HW234260   3.869   0.984   9.506  1.7163  0.4161 -0.1550
 7543SOL     OW34261   1.909   2.593  11.054 -0.2034  0.0144 -0.6516
 7543SOL    HW134262   1.874   2.604  11.142 -1.3100 -2.9119 -0.7387
 7543SOL    HW234263   1.833   2.546  11.018 -1.5194  1.0431  0.7879
 7544SOL     OW34264   1.442   4.288   6.436  0.2594  0.2948 -0.0215
 7544SOL    HW134265   1.537   4.284   6.430  0.1683 -0.5301 -0.8737
 7544SOL    HW234266   1.437   4.247   6.522  0.8245  0.8419  0.2681
 7545SOL     OW34267   3.705   4.188   1.683  0.3269 -0.2232 -0.4933
 7545SOL    HW134268   3.639   4.195   1.751 -0.5784 -1.3844 -1.2587
 7545SOL    HW234269   3.728   4.280   1.670  0.8433 -0.1074  1.3407
 7546SOL     OW34270   4.648   1.581   6.197  0.0332 -0.4240 -0.0949
 7546SOL    HW134271   4.579   1.600   6.133 -0.9265  1.7291  1.5793
 7546SOL    HW234272   4.715   1.543   6.140  0.5793 -0.3878  0.5245
 7547SOL     OW34273   1.835   1.435   6.304  0.1693 -0.0129  0.0632
 7547SOL    HW134274   1.897   1.364   6.289 -0.1748 -0.0552 -1.1235
 7547SOL    HW234275   1.880   1.508   6.262  0.8267  0.3097  1.3150
 7548SOL     OW34276   3.449   0.619  17.483  0.3910 -0.3790 -0.2773
 7548SOL    HW134277   3.521   0.682  17.480  0.4451 -0.3656  0.9693
 7548SOL    HW234278   3.444   0.568  17.403  0.2769  0.1550 -0.6088
 7549SOL     OW34279   1.018   3.817   0.384 -0.2800 -0.6068  0.2296
 7549SOL    HW134280   1.004   3.741   0.328 -3.4328  0.3810 -0.3639
 7549SOL    HW234281   1.100   3.848   0.347 -0.9213  1.3222  0.3970
 7550SOL     OW34282   3.401   1.470  13.191  0.3713 -0.8473  0.3303
 7550SOL    HW134283   3.351   1.430  13.120 -2.3309  1.7699  0.7590
 7550SOL    HW234284   3.445   1.395  13.231  0.1185 -0.0367  2.1225
 7551SOL     OW34285   1.228   1.825   7.667  0.6850 -0.2460 -0.1148
 7551SOL    HW134286   1.178   1.844   7.746  1.4629  0.3279  0.2438
 7551SOL    HW234287   1.202   1.898   7.610  0.9532  1.6940  2.2501
 7552SOL     OW34288   0.342   1.785   0.864  0.0768 -0.5230  0.1710
 7552SOL    HW134289   0.258   1.743   0.882  1.5385 -2.9827  1.2355
 7552SOL    HW234290   0.335   1.790   0.769 -1.9981 -2.6445  0.2377
 7553SOL     OW34291   1.038   0.555   1.344 -0.5158 -0.3767 -0.3705
 7553SOL    HW134292   1.023   0.631   1.287 -0.5554 -1.6737 -2.0958
 7553SOL    HW234293   1.058   0.488   1.279 -1.8247 -2.2619  1.1820
 7554SOL     OW34294   1.833   2.279   5.321  0.2895  0.0978  1.2566
 7554SOL    HW134295   1.751   2.252   5.279  1.9298 -2.2714 -0.4606
 7554SOL    HW234296   1.810   2.241   5.406  1.9336 -0.4054  1.4784
 7555SOL     OW34297   0.997   1.216   3.260  0.0475  0.0467 -0.1116
 7555SOL    HW134298   1.081   1.189   3.296 -0.4326 -0.0740  0.9077
 7555SOL    HW234299   0.978   1.137   3.210  0.6594 -0.9676  1.2823
 7556SOL     OW34300   0.089   1.067  13.081 -1.4652 -0.0508  0.0514
 7556SOL    HW134301   0.110   1.109  13.164 -0.5399  0.7291 -0.5827
 7556SOL    HW234302   0.069   1.140  13.022  1.7836  2.4812  2.1186
 7557SOL     OW34303   1.010   0.125   4.278  0.4565 -0.1723  0.2697
 7557SOL    HW134304   1.004   0.041   4.232  0.8965  0.0922 -0.2777
 7557SOL    HW234305   1.001   0.190   4.208  1.0702  0.0823  0.4236
 7558SOL     OW34306   4.480   1.056   9.715 -0.1581 -0.5075 -0.0389
 7558SOL    HW134307   4.522   1.122   9.660  0.9223  0.2191  1.6736
 7558SOL    HW234308   4.448   0.998   9.646 -1.2588 -1.5635  1.3668
 7559SOL     OW34309   0.558   2.418   5.001 -0.0242 -0.0551  0.1084
 7559SOL    HW134310   0.581   2.331   4.970  4.4942  0.8033  1.0419
 7559SOL    HW234311   0.616   2.426   5.077 -0.7947 -0.2495  0.7154
 7560SOL     OW34312   1.790   2.841   2.484 -0.0290 -0.6922 -0.1831
 7560SOL    HW134313   1.862   2.894   2.450 -1.7196  2.2992  1.0186
 7560SOL    HW234314   1.756   2.920   2.524  1.4377 -0.4859  0.6396
 7561SOL     OW34315   0.327   3.204   2.423 -0.3884  0.6461  0.3892
 7561SOL    HW134316   0.272   3.172   2.494  2.0316 -1.9498  1.0794
 7561SOL    HW234317   0.277   3.204   2.341  0.4939  0.0908 -0.1399
 7562SOL     OW34318   4.217   2.646   6.679  0.2095 -0.1954 -0.6605
 7562SOL    HW134319   4.214   2.600   6.595  0.1899 -1.4729  0.0404
 7562SOL    HW234320   4.304   2.684   6.668  0.9871 -1.5233  0.8753
 7563SOL     OW34321   2.518   2.276   3.451  0.4208  0.0782 -0.3132
 7563SOL    HW134322   2.447   2.262   3.514  1.1934 -1.0746  0.3180
 7563SOL    HW234323   2.462   2.317   3.386  2.4673  0.9385 -1.5394
 7564SOL     OW34324   2.039   2.166   4.706 -0.0291 -0.2011 -0.2076
 7564SOL    HW134325   2.045   2.258   4.730  2.7564 -0.5096  0.2131
 7564SOL    HW234326   2.123   2.137   4.740 -0.3045 -3.8764 -2.6912
 7565SOL     OW34327   3.156   3.342   7.986 -0.1349 -0.3771 -0.5532
 7565SOL    HW134328   3.185   3.352   7.895  0.1471 -1.1023 -0.5443
 7565SOL    HW234329   3.070   3.302   7.983  0.2205 -1.1092 -0.9574
 7566SOL     OW34330   2.545   3.685  11.056 -0.3836 -0.8328 -0.0491
 7566SOL    HW134331   2.573   3.594  11.044 -1.2661 -1.4406  2.3293
 7566SOL    HW234332   2.533   3.682  11.151 -1.7188  0.5735 -0.1618
 7567SOL     OW34333   0.116   3.761   5.887  0.2701 -0.5963  0.4582
 7567SOL    HW134334   0.125   3.665   5.888 -1.1341 -0.7379 -0.2178
 7567SOL    HW234335   0.177   3.791   5.954  0.0703  0.9022 -0.0439
 7568SOL     OW34336   2.005   0.583  10.994  0.2058 -0.1229  0.3116
 7568SOL    HW134337   2.076   0.586  10.931 -0.1262 -3.1647 -0.1974
 7568SOL    HW234338   1.927   0.597  10.941 -0.4882 -0.8500  1.1440
 7569SOL     OW34339   2.391   1.927   5.803 -0.4780  0.2207  0.3829
 7569SOL    HW134340   2.333   1.861   5.764 -2.1986 -0.2854  3.7751
 7569SOL    HW234341   2.328   1.962   5.866 -1.1844 -2.3394  1.0876
 7570SOL     OW34342   3.908   4.413   5.526  0.0573 -0.3024  0.2458
 7570SOL    HW134343   3.813   4.422   5.531  0.0036 -2.0659  2.3451
 7570SOL    HW234344   3.922   4.371   5.611  0.4260  1.7865  1.2120
 7571SOL     OW34345   3.440   4.233  10.827 -0.3668  0.8743  0.0933
 7571SOL    HW134346   3.418   4.297  10.760  0.7522  0.3467 -0.7696
 7571SOL    HW234347   3.362   4.243  10.881  0.9832  0.7878  2.0631
 7572SOL     OW34348   3.145   3.003   1.684 -0.1579 -0.0732  0.2249
 7572SOL    HW134349   3.058   3.037   1.662  0.0867  0.8157  0.6261
 7572SOL    HW234350   3.142   3.024   1.777 -1.5152  1.3124 -0.1277
 7573SOL     OW34351   2.530   3.805   3.925 -0.6089 -0.5052  0.4354
 7573SOL    HW134352   2.573   3.778   3.844  1.4061  0.1088  1.3048
 7573SOL    HW234353   2.480   3.724   3.936 -0.0506 -0.8160  0.6824
 7574SOL     OW34354   3.012   0.639  15.131 -0.4984  0.3859 -0.0736
 7574SOL    HW134355   2.974   0.581  15.065 -1.4956 -0.3092  1.0961
 7574SOL    HW234356   3.051   0.576  15.192  1.4548  0.3497 -1.3669
 7575SOL     OW34357   2.927   3.335   8.683  0.2073 -0.0110  0.1211
 7575SOL    HW134358   2.963   3.257   8.640  1.1150  1.0744 -1.0702
 7575SOL    HW234359   2.854   3.290   8.726  1.4261 -1.8685  0.2471
 7576SOL     OW34360   0.430   1.605   5.360 -0.4871 -0.0614 -0.2364
 7576SOL    HW134361   0.497   1.573   5.420 -1.3336 -2.1578 -0.4150
 7576SOL    HW234362   0.405   1.683   5.408 -0.9391  1.5425 -3.0540
 7577SOL     OW34363   2.387   1.201   4.810 -0.7077 -0.2582  0.2755
 7577SOL    HW134364   2.416   1.116   4.845 -1.0196 -0.1856  0.7145
 7577SOL    HW234365   2.333   1.172   4.736  1.4565 -1.3446 -0.8949
 7578SOL     OW34366   0.520   3.136   2.741  0.9201 -0.7171 -0.0329
 7578SOL    HW134367   0.532   3.095   2.655  0.6631  3.0583 -1.8704
 7578SOL    HW234368   0.428   3.131   2.765  1.0552  0.1027  0.6524
 7579SOL     OW34369   2.918   2.888  14.590 -0.0636 -0.0220 -0.1833
 7579SOL    HW134370   2.992   2.832  14.564 -1.8761 -2.1167 -0.8564
 7579SOL    HW234371   2.903   2.873  14.683 -0.2264  1.6388  0.0508
 7580SOL     OW34372   0.097   2.936   4.277  0.3344 -0.0943 -0.1485
 7580SOL    HW134373   0.076   2.891   4.359  1.2085  2.5944  1.5295
 7580SOL    HW234374   0.122   3.024   4.305 -1.5465 -0.1004  1.4797
 7581SOL     OW34375   0.371   2.401   2.374  0.3931  0.2224  0.1928
 7581SOL    HW134376   0.436   2.379   2.441 -2.1773  0.7480  2.8537
 7581SOL    HW234377   0.288   2.375   2.413 -0.1365 -0.2280 -1.2419
 7582SOL     OW34378   3.418   2.505   1.170 -0.0085  0.6721  0.2027
 7582SOL    HW134379   3.333   2.473   1.199 -0.8098  0.3269 -2.4597
 7582SOL    HW234380   3.429   2.464   1.084 -2.1207  1.2527 -0.3482
 7583SOL     OW34381   1.262   3.499   3.631  0.5093 -0.1025  0.0423
 7583SOL    HW134382   1.187   3.507   3.571  1.2000  1.1637 -0.6322
 7583SOL    HW234383   1.325   3.542   3.574 -0.2879  1.7755  0.5860
 7584SOL     OW34384   0.385   2.021   1.532 -0.3769 -0.3391 -0.1482
 7584SOL    HW134385   0.375   1.986   1.443  0.2941 -0.1596 -0.2916
 7584SOL    HW234386   0.399   2.116   1.523  0.0854 -0.4923 -1.0230
 7585SOL     OW34387   4.396   3.061  14.827  0.0807 -0.3123 -0.1125
 7585SOL    HW134388   4.383   3.101  14.740  0.6080 -1.3985 -0.6909
 7585SOL    HW234389   4.327   2.996  14.835  0.3567 -0.4379  1.1713
 7586SOL     OW34390   2.044   0.246   8.550  0.1937 -0.4591 -0.4834
 7586SOL    HW134391   2.090   0.163   8.564 -1.1311 -1.7378 -3.7311
 7586SOL    HW234392   2.086   0.264   8.466  0.0697  2.3420  0.0443
 7587SOL     OW34393   2.808   0.082   3.843 -0.1625  0.4890  0.2341
 7587SOL    HW134394   2.718   0.087   3.875  1.0528  0.0980  3.6312
 7587SOL    HW234395   2.854   0.082   3.927 -0.2115 -0.4270  0.2531
 7588SOL     OW34396   3.645   3.856  10.155 -0.2072  0.6426 -0.3101
 7588SOL    HW134397   3.667   3.764  10.170 -0.4562  0.6832  0.3067
 7588SOL    HW234398   3.635   3.888  10.245 -0.7553 -0.9429  0.1834
 7589SOL     OW34399   4.312   0.203   5.651 -0.2748 -0.2600  0.0576
 7589SOL    HW134400   4.329   0.198   5.745  1.9998 -1.0704 -0.3835
 7589SOL    HW234401   4.242   0.268   5.642  0.4614  0.2962 -1.8027
 7590SOL     OW34402   1.727   2.788  13.169 -0.0591 -0.1530 -0.0706
 7590SOL    HW134403   1.744   2.845  13.094  0.1480 -1.4179 -0.9678
 7590SOL    HW234404   1.717   2.704  13.124  0.7547 -1.9403  3.1111
 7591SOL     OW34405   1.503   0.117  10.146  0.3185 -0.1696  0.8647
 7591SOL    HW134406   1.545   0.075  10.221 -0.8429 -2.9438 -0.0030
 7591SOL    HW234407   1.452   0.047  10.105  2.7811 -1.5624  0.1456
 7592SOL     OW34408   0.023   4.089  10.103  0.1213 -0.3299 -0.1688
 7592SOL    HW134409   0.065   4.135  10.031 -1.9902  0.1231 -1.1219
 7592SOL    HW234410   4.707   4.153  10.151 -0.2722 -0.1656 -0.8146
 7593SOL     OW34411   4.719   4.084  11.950  0.1685  0.7487  0.1642
 7593SOL    HW134412   4.691   4.008  12.000  2.4189  0.2994  0.7384
 7593SOL    HW234413   4.681   4.154  12.003  0.0843  0.5817  0.3207
 7594SOL     OW34414   4.446   1.389  15.045 -0.0537  0.1039 -0.5360
 7594SOL    HW134415   4.360   1.366  15.082 -0.2908  1.1513 -0.4514
 7594SOL    HW234416   4.464   1.477  15.077 -0.9983 -0.0865  0.5004
 7595SOL     OW34417   3.401   0.944   8.082 -0.2248 -0.5563  0.6992
 7595SOL    HW134418   3.333   0.914   8.022  0.0011  1.4540 -0.5523
 7595SOL    HW234419   3.439   0.864   8.119  2.7078  1.5303  2.2121
 7596SOL     OW34420   2.818   2.963   8.886 -0.4796 -0.1861 -0.5226
 7596SOL    HW134421   2.860   2.927   8.809  0.5575  1.4633 -0.7308
 7596SOL    HW234422   2.897   2.988   8.933  0.4051 -0.3615 -1.9249
 7597SOL     OW34423   4.032   4.604   6.632  0.0445  0.1895 -0.6699
 7597SOL    HW134424   4.091   4.532   6.609  1.9373  0.8388  2.1325
 7597SOL    HW234425   4.054   4.670   6.566 -0.2134  0.9929  0.0422
 7598SOL     OW34426   1.829   1.591   7.298  0.2082  0.3114  0.4703
 7598SOL    HW134427   1.874   1.568   7.379 -0.7207 -3.4536 -0.0705
 7598SOL    HW234428   1.804   1.504   7.266  0.3497  0.3312  0.3071
 7599SOL     OW34429   0.618   4.676   1.195 -0.3642 -0.0221  0.1799
 7599SOL    HW134430   0.544   4.737   1.191  0.2023  0.6452 -0.2366
 7599SOL    HW234431   0.586   4.602   1.144  0.6728 -0.1996 -0.2291
 7600SOL     OW34432   0.262   1.824   2.485  0.0824 -0.0064  0.4392
 7600SOL    HW134433   0.289   1.916   2.480 -0.3012  0.1989  2.1774
 7600SOL    HW234434   0.349   1.785   2.477  1.3689  2.5790  1.9340
 7601SOL     OW34435   0.160   1.455   6.815 -0.4177 -0.3170 -0.4614
 7601SOL    HW134436   0.069   1.426   6.809 -0.4613  0.3294 -2.7786
 7601SOL    HW234437   0.201   1.416   6.738  1.1742  0.5781 -0.0564
 7602SOL     OW34438   2.408   3.858   3.134 -0.3222  0.0210 -0.7474
 7602SOL    HW134439   2.387   3.952   3.128 -0.9579  0.1268  3.0043
 7602SOL    HW234440   2.395   3.840   3.228  1.2341  2.1098 -0.1280
 7603SOL     OW34441   3.516   1.740  11.943 -0.2538 -0.6528  0.1262
 7603SOL    HW134442   3.603   1.702  11.935  0.9376  1.7916  1.4538
 7603SOL    HW234443   3.526   1.822  11.991  1.4950 -0.0638 -1.2089
 7604SOL     OW34444   0.299   1.443   7.851 -0.2829  0.0640  0.1911
 7604SOL    HW134445   0.213   1.408   7.824 -0.0099 -0.1326 -0.4370
 7604SOL    HW234446   0.287   1.536   7.833 -0.1304 -0.1261 -0.8901
 7605SOL     OW34447   2.752   3.263   4.904  0.2740  0.3574  0.0007
 7605SOL    HW134448   2.839   3.280   4.939  0.6297  1.2935 -1.3936
 7605SOL    HW234449   2.697   3.293   4.976 -0.8409  1.0935 -1.1613
 7606SOL     OW34450   1.409   0.848   8.600 -0.5278 -0.2608 -0.1443
 7606SOL    HW134451   1.407   0.770   8.544 -1.6623  0.0136 -0.4801
 7606SOL    HW234452   1.499   0.872   8.578  0.2465  0.0695  3.4186
 7607SOL     OW34453   4.425   0.384   4.142 -0.5713 -0.2278  0.5891
 7607SOL    HW134454   4.500   0.443   4.158 -0.9328  0.8225 -1.6243
 7607SOL    HW234455   4.381   0.403   4.225  1.1225  1.3294  1.1341
 7608SOL     OW34456   3.204   4.470   9.363 -0.2539  0.2265  0.2718
 7608SOL    HW134457   3.251   4.419   9.297 -1.2769 -0.0581 -0.2281
 7608SOL    HW234458   3.271   4.525   9.404 -0.2320  1.0637 -0.8820
 7609SOL     OW34459   3.076   2.507  15.866  0.1312 -0.4828 -0.4252
 7609SOL    HW134460   2.985   2.523  15.892 -0.3386  1.3071 -3.1591
 7609SOL    HW234461   3.076   2.562  15.788  0.9923 -0.9677 -0.7699
 7610SOL     OW34462   0.011   0.053   2.387 -0.0157 -0.3339  0.6626
 7610SOL    HW134463   4.734   0.086   2.476 -0.3780  1.7516 -0.1821
 7610SOL    HW234464   4.657   0.043   2.358  0.3007 -0.8496 -0.1480
 7611SOL     OW34465   0.338   3.518   2.296 -0.3603  0.0698 -0.7795
 7611SOL    HW134466   0.396   3.529   2.372 -0.5810  1.1316 -0.7675
 7611SOL    HW234467   0.396   3.509   2.220  0.2724  1.4338 -0.4563
 7612SOL     OW34468   1.724   0.336  13.788  0.0427 -0.1847  0.5436
 7612SOL    HW134469   1.800   0.317  13.733 -0.2561  1.8693 -0.5877
 7612SOL    HW234470   1.742   0.420  13.830  2.0681 -0.5597  0.4198
 7613SOL     OW34471   4.632   2.742  10.213  0.3127 -0.4121  0.6257
 7613SOL    HW134472   4.675   2.743  10.127 -0.4692 -1.4531  0.2145
 7613SOL    HW234473   4.679   2.677  10.265 -1.7699 -2.7734 -0.4316
 7614SOL     OW34474   2.838   4.729   2.496 -0.5174 -0.0922  0.0774
 7614SOL    HW134475   2.907   4.667   2.523  0.9864  1.7122  0.3524
 7614SOL    HW234476   2.890   0.032   2.426  0.9443 -0.5903  0.8716
 7615SOL     OW34477   4.305   0.668   5.027  0.0507  0.4384  0.3381
 7615SOL    HW134478   4.213   0.640   5.022  0.7070 -1.9129  1.6198
 7615SOL    HW234479   4.345   0.582   5.012 -2.2865  0.0173 -3.4705
 7616SOL     OW34480   1.357   1.181   0.625 -0.0410  0.3050 -0.3213
 7616SOL    HW134481   1.323   1.251   0.569  0.3631  1.0427  0.3692
 7616SOL    HW234482   1.389   1.218   0.706 -2.6784  3.8897 -0.9148
 7617SOL     OW34483   3.952   0.961  11.409 -0.2193 -0.3037  0.8151
 7617SOL    HW134484   3.874   0.989  11.362 -0.0768  0.5587  1.0953
 7617SOL    HW234485   3.941   0.867  11.399  0.2673 -0.3470  0.6966
 7618SOL     OW34486   3.668   1.965  16.783  0.2791 -0.2196  0.8135
 7618SOL    HW134487   3.647   1.923  16.699  0.6604 -2.3152  1.7666
 7618SOL    HW234488   3.684   2.056  16.755  1.7832 -0.7060  0.0407
 7619SOL     OW34489   2.538   2.651   7.591  0.4040  0.3212  0.1799
 7619SOL    HW134490   2.567   2.567   7.627  0.9685 -0.2008 -1.4673
 7619SOL    HW234491   2.611   2.678   7.535  0.5341  1.2168  0.7919
 7620SOL     OW34492   1.181   2.526   3.788  0.1050  0.5650 -0.1044
 7620SOL    HW134493   1.261   2.556   3.745  0.0987 -1.8409 -1.7862
 7620SOL    HW234494   1.200   2.434   3.808 -1.4298  0.3627  0.4648
 7621SOL     OW34495   4.185   4.109   9.152  0.4373  0.4145 -0.0116
 7621SOL    HW134496   4.142   4.071   9.076 -3.0389  3.7276  0.2628
 7621SOL    HW234497   4.110   4.144   9.200 -1.0528 -0.2114 -1.9051
 7622SOL     OW34498   1.914   0.317  11.915 -0.9237 -0.0296 -0.0371
 7622SOL    HW134499   1.994   0.296  11.867  1.1952 -0.8966  3.8116
 7622SOL    HW234500   1.941   0.294  12.004  1.5719  2.9594 -0.0567
 7623SOL     OW34501   3.651   3.432   1.171  0.4793 -0.1753  0.0813
 7623SOL    HW134502   3.675   3.501   1.232 -2.5744  0.5426  0.4672
 7623SOL    HW234503   3.663   3.486   1.093 -0.1475 -1.1020 -0.6647
 7624SOL     OW34504   0.483   3.527   8.274 -0.1535  0.8796 -0.4724
 7624SOL    HW134505   0.558   3.527   8.215 -0.9398  0.3479 -1.4786
 7624SOL    HW234506   0.528   3.528   8.358  1.1174 -0.4923 -1.1354
 7625SOL     OW34507   3.480   1.567   9.722  0.6446 -0.2859  0.4293
 7625SOL    HW134508   3.498   1.476   9.698  0.1578 -0.0244 -0.8947
 7625SOL    HW234509   3.550   1.613   9.675  0.8301 -1.2724 -0.2711
 7626SOL     OW34510   3.665   1.090   0.803 -0.4244  0.6865  0.1872
 7626SOL    HW134511   3.754   1.124   0.813 -0.3555  0.0144  1.8438
 7626SOL    HW234512   3.670   0.997   0.785 -0.7478  0.8943 -0.9427
 7627SOL     OW34513   3.957   0.685   5.922 -0.0284  0.4971 -0.0471
 7627SOL    HW134514   4.008   0.764   5.942 -1.5709  1.1924  1.1568
 7627SOL    HW234515   3.941   0.649   6.009  2.3259 -0.2502  0.0781
 7628SOL     OW34516   0.280   1.669   5.969  0.4216  0.3458 -0.1830
 7628SOL    HW134517   0.279   1.633   5.881  0.7179 -0.9096  0.3174
 7628SOL    HW234518   0.345   1.740   5.970  0.9908 -0.1749  0.6665
 7629SOL     OW34519   4.041   2.961   4.052  0.3099 -0.1802  0.3746
 7629SOL    HW134520   4.107   2.936   4.117  2.0857  2.4159 -0.4178
 7629SOL    HW234521   3.997   2.882   4.021  1.4527 -0.8198  0.4102
 7630SOL     OW34522   4.361   2.610  13.103  0.3259 -1.0591  0.7180
 7630SOL    HW134523   4.449   2.643  13.082  0.5721 -3.3859 -1.9689
 7630SOL    HW234524   4.366   2.518  13.076  2.6443 -0.9388  0.7066
 7631SOL     OW34525   2.309   1.857   3.856  0.1957  0.5433 -0.3474
 7631SOL    HW134526   2.353   1.941   3.846 -0.6514  1.1077  0.6832
 7631SOL    HW234527   2.376   1.793   3.831  0.2531  0.3824  0.2255
 7632SOL     OW34528   2.754   2.924   3.213 -0.1065 -0.1050  0.7251
 7632SOL    HW134529   2.744   3.003   3.160 -0.2137 -0.4981  0.1653
 7632SOL    HW234530   2.795   2.869   3.146 -1.2555  0.0028 -0.0573
 7633SOL     OW34531   1.008   1.090   4.508 -0.3805 -0.3038 -0.6653
 7633SOL    HW134532   0.995   0.997   4.490 -1.1296 -0.2244 -0.5262
 7633SOL    HW234533   0.919   1.120   4.488 -0.4095  0.4028  0.5356
 7634SOL     OW34534   1.329   2.010   6.941  1.0605  0.5461 -0.2704
 7634SOL    HW134535   1.360   2.080   6.884 -0.8793  0.3872 -1.5237
 7634SOL    HW234536   1.376   2.030   7.022  0.4288  1.5178 -0.1410
 7635SOL     OW34537   4.135   0.630  13.021  0.1505  0.4357  0.4094
 7635SOL    HW134538   4.191   0.558  13.048  0.3810  0.2833 -0.4610
 7635SOL    HW234539   4.117   0.678  13.102 -0.6916 -1.4590  1.3229
 7636SOL     OW34540   3.545   0.617   1.780 -0.0995  0.5064  0.2996
 7636SOL    HW134541   3.540   0.531   1.737  0.1363  0.4089  0.4624
 7636SOL    HW234542   3.566   0.596   1.871 -1.0792  4.0034  1.3116
 7637SOL     OW34543   2.295   1.622   3.658 -0.3100  0.6855  0.2518
 7637SOL    HW134544   2.307   1.543   3.710 -1.6804 -0.6931 -1.5620
 7637SOL    HW234545   2.265   1.686   3.723 -1.2028  1.4416 -0.9010
 7638SOL     OW34546   2.584   1.383   4.642 -0.3372  0.4784 -0.0295
 7638SOL    HW134547   2.533   1.303   4.631 -0.5091  0.2616  2.4002
 7638SOL    HW234548   2.518   1.451   4.653  0.7894  1.2912  1.7363
 7639SOL     OW34549   4.419   4.589   0.806 -0.1738 -0.0419 -0.6849
 7639SOL    HW134550   4.336   4.573   0.851 -1.0724  1.6149 -1.7786
 7639SOL    HW234551   4.437   4.679   0.831 -0.3451  0.7682 -3.4645
 7640SOL     OW34552   0.011   1.094   5.195  0.9512 -0.1878  0.3049
 7640SOL    HW134553   4.677   1.069   5.136  0.3267  0.8567  0.6060
 7640SOL    HW234554   0.025   1.180   5.153 -3.3343  0.2630 -0.1559
 7641SOL     OW34555   0.417   1.901  14.448  0.6881  0.5215  0.2563
 7641SOL    HW134556   0.466   1.968  14.402  1.5888 -0.5425 -0.3408
 7641SOL    HW234557   0.441   1.924  14.537  3.5421 -0.3087 -0.2832
 7642SOL     OW34558   3.001   2.331   3.908  0.3956  0.0989  0.3398
 7642SOL    HW134559   2.952   2.372   3.979  0.4586  0.6676  0.0566
 7642SOL    HW234560   2.946   2.345   3.831 -0.0237 -0.8613  0.4632
 7643SOL     OW34561   3.078   4.098   9.232 -0.3876  0.1452 -0.1888
 7643SOL    HW134562   3.017   4.171   9.242 -1.6223 -0.7854 -1.0071
 7643SOL    HW234563   3.026   4.027   9.271 -0.5607 -0.7288 -2.0416
 7644SOL     OW34564   3.461   1.733   5.781  0.2502 -0.1824  0.0400
 7644SOL    HW134565   3.470   1.663   5.845 -1.8071 -1.0930 -0.6848
 7644SOL    HW234566   3.479   1.691   5.697  1.4473  1.5266 -0.5659
 7645SOL     OW34567   2.033   1.829   0.070 -0.8325 -0.2544  0.1756
 7645SOL    HW134568   2.054   1.906   0.123  1.8116 -2.4946  2.4412
 7645SOL    HW234569   2.116   1.785   0.088 -0.8384  0.5579  2.2243
 7646SOL     OW34570   3.495   0.150  15.009  0.1559 -0.3213  0.3705
 7646SOL    HW134571   3.454   0.220  14.957 -0.6498 -0.8254  0.3212
 7646SOL    HW234572   3.515   0.085  14.942 -1.3902 -0.1534 -0.2591
 7647SOL     OW34573   0.251   0.171   9.300 -0.0156  0.2592 -0.3525
 7647SOL    HW134574   0.239   0.197   9.392 -1.6494  2.2893 -1.1248
 7647SOL    HW234575   0.277   0.081   9.318 -1.7949 -0.3563 -0.8476
 7648SOL     OW34576   2.404   2.434   0.893  0.2310 -0.0039  0.0002
 7648SOL    HW134577   2.491   2.413   0.860  0.7329 -1.4331  2.2034
 7648SOL    HW234578   2.429   2.475   0.976  1.4574 -1.4882  0.3518
 7649SOL     OW34579   0.989   4.494   3.807 -0.0351  0.3867 -0.0802
 7649SOL    HW134580   1.053   4.433   3.841  0.3141  1.0567  0.4626
 7649SOL    HW234581   0.906   4.476   3.851 -1.1038 -1.7271 -2.9584
 7650SOL     OW34582   1.387   2.115   4.680 -0.1298 -0.2027 -0.1490
 7650SOL    HW134583   1.334   2.154   4.749 -1.3920 -0.8040 -0.7719
 7650SOL    HW234584   1.407   2.032   4.723  1.5234  1.3478  2.0761
 7651SOL     OW34585   1.263   3.500   0.406  0.2027 -0.2357 -0.5649
 7651SOL    HW134586   1.340   3.554   0.424  1.0089 -0.9113 -1.9836
 7651SOL    HW234587   1.308   3.430   0.358 -0.0297 -1.8399  1.5934
 7652SOL     OW34588   4.557   0.274   9.427 -0.0294  0.2623 -0.3664
 7652SOL    HW134589   4.615   0.198   9.429  0.6832  0.8208  0.1672
 7652SOL    HW234590   4.623   0.339   9.449  1.1427 -1.4773  1.3114
 7653SOL     OW34591   0.904   3.145   5.347  0.0943  0.0534  0.3756
 7653SOL    HW134592   0.947   3.211   5.402  2.8022 -0.6066 -0.9599
 7653SOL    HW234593   0.941   3.068   5.389  0.3831  0.6831  1.2809
 7654SOL     OW34594   2.107   0.289   6.646 -0.0141  0.0249 -0.2240
 7654SOL    HW134595   2.045   0.303   6.574 -2.6198  2.3943  2.4784
 7654SOL    HW234596   2.177   0.328   6.593 -1.0629  1.5505 -0.5006
 7655SOL     OW34597   3.981   3.036   2.030  0.0168 -0.5284  0.0006
 7655SOL    HW134598   4.016   3.108   1.976 -1.0487 -1.2729 -1.6745
 7655SOL    HW234599   3.892   3.069   2.043  0.4653  0.4095  0.7743
 7656SOL     OW34600   3.305   0.425   5.939 -0.0818  0.0885 -0.6894
 7656SOL    HW134601   3.347   0.436   6.024 -0.4974  2.0970 -0.7436
 7656SOL    HW234602   3.306   0.330   5.928 -0.3509 -0.0714  0.6495
 7657SOL     OW34603   4.271   1.467   7.825 -0.2352  0.1430 -0.3346
 7657SOL    HW134604   4.188   1.508   7.800 -0.1107  0.7346  0.2275
 7657SOL    HW234605   4.320   1.541   7.790 -1.7132  0.5653 -1.4894
 7658SOL     OW34606   1.562   2.328   4.196  0.2407  0.6822 -0.2121
 7658SOL    HW134607   1.614   2.252   4.172 -0.8928 -0.4170  0.7642
 7658SOL    HW234608   1.513   2.289   4.269  1.6038  1.1916  0.9916
 7659SOL     OW34609   1.213   0.384   8.503  0.5159  0.1965 -0.5675
 7659SOL    HW134610   1.204   0.320   8.573  2.1740 -0.6423 -1.0891
 7659SOL    HW234611   1.185   0.333   8.427  0.0321  0.1947 -0.3823
 7660SOL     OW34612   2.350   0.439   4.555  0.8650 -0.1347 -0.2211
 7660SOL    HW134613   2.260   0.458   4.526  0.6083 -0.7916  0.1362
 7660SOL    HW234614   2.382   0.393   4.478  1.2987 -0.5576  0.2155
 7661SOL     OW34615   1.267   1.581   5.227 -0.0116 -0.2208  0.0429
 7661SOL    HW134616   1.226   1.495   5.227 -2.1847  0.8429  2.0491
 7661SOL    HW234617   1.362   1.567   5.224  0.1712  0.5443  2.8521
 7662SOL     OW34618   0.409   3.550   7.681  0.2612 -0.2564 -0.9816
 7662SOL    HW134619   0.381   3.459   7.666  0.4623 -0.4418 -0.1887
 7662SOL    HW234620   0.327   3.573   7.724  1.0339 -2.8650  1.8861
 7663SOL     OW34621   0.550   1.387  16.158  0.1046  0.8002  0.0217
 7663SOL    HW134622   0.535   1.472  16.200 -0.9206  0.7632 -0.2707
 7663SOL    HW234623   0.461   1.382  16.123  0.4610 -1.4401 -0.5687
 7664SOL     OW34624   0.806   4.699  10.217 -0.2328  0.0288  0.1830
 7664SOL    HW134625   0.852   0.011  10.285  0.0314  1.9933 -1.4246
 7664SOL    HW234626   0.828   4.613  10.252 -2.0775 -0.4021  0.2740
 7665SOL     OW34627   1.182   0.597   8.666 -0.0569 -0.1812  0.2732
 7665SOL    HW134628   1.268   0.615   8.705  0.3335 -0.2367 -0.5464
 7665SOL    HW234629   1.198   0.520   8.610  1.8439  0.4697 -0.0944
 7666SOL     OW34630   2.540   4.599   2.868  0.7658  0.4198  0.4697
 7666SOL    HW134631   2.591   4.562   2.940 -1.8131  0.7259  2.4491
 7666SOL    HW234632   2.510   4.518   2.826  0.2094 -0.2399  2.1278
 7667SOL     OW34633   3.030   0.046   1.487 -0.3171  0.0485  0.5345
 7667SOL    HW134634   2.956   0.019   1.432 -1.0853  0.3635  1.4273
 7667SOL    HW234635   3.088   0.093   1.426 -0.8647  1.7523  1.3382
 7668SOL     OW34636   0.432   4.220  17.612  0.1131  0.0087  0.8502
 7668SOL    HW134637   0.439   4.246  17.520 -0.8519 -3.6780 -0.2629
 7668SOL    HW234638   0.406   4.128  17.604  1.5922 -0.2690 -0.6905
 7669SOL     OW34639   1.501   2.421  13.482 -0.1887 -0.3948 -0.4615
 7669SOL    HW134640   1.561   2.396  13.552  1.8762  0.5794 -1.9042
 7669SOL    HW234641   1.503   2.516  13.479  1.1346 -0.3524  2.2010
 7670SOL     OW34642   2.706   2.353   4.563 -0.0411 -0.4690  0.3176
 7670SOL    HW134643   2.637   2.420   4.570  1.7864  1.6497 -1.8479
 7670SOL    HW234644   2.778   2.415   4.560  1.2313 -1.9004  1.3399
 7671SOL     OW34645   0.103   4.319  10.354 -0.1801  0.7064  0.4752
 7671SOL    HW134646   0.080   4.378  10.425 -0.4967  0.7649  0.3217
 7671SOL    HW234647   0.021   4.322  10.305  1.0987  1.8294 -1.5795
 7672SOL     OW34648   4.261   1.118   8.348  0.2232 -0.0183 -0.2047
 7672SOL    HW134649   4.240   1.089   8.260 -1.1700 -0.5159  0.2758
 7672SOL    HW234650   4.261   1.038   8.400  0.0920  0.8441  1.1286
 7673SOL     OW34651   3.166   1.600   9.409  0.0221 -0.4661  0.4200
 7673SOL    HW134652   3.254   1.625   9.435  0.1001  0.9243 -1.2546
 7673SOL    HW234653   3.170   1.654   9.330 -1.4623  1.1670  1.4687
 7674SOL     OW34654   3.367   0.988  16.443 -0.1090 -0.7717  0.0598
 7674SOL    HW134655   3.284   1.007  16.486 -0.2999  1.7226 -1.4212
 7674SOL    HW234656   3.362   0.893  16.429 -1.4502 -0.5451 -0.9583
 7675SOL     OW34657   3.267   2.556   9.627 -0.2899 -0.2121 -0.7712
 7675SOL    HW134658   3.178   2.587   9.644  1.1431  3.4424  0.1275
 7675SOL    HW234659   3.318   2.632   9.654 -1.1138 -0.3796  1.2366
 7676SOL     OW34660   0.277   2.210  10.381  0.0412 -0.3306 -0.4338
 7676SOL    HW134661   0.326   2.257  10.448  0.3510 -0.1782 -0.7669
 7676SOL    HW234662   0.188   2.238  10.398 -0.4912 -1.0043 -2.1088
 7677SOL     OW34663   1.867   0.308   4.762  0.4814 -0.1213 -0.3292
 7677SOL    HW134664   1.881   0.224   4.806 -0.2610  0.9130  1.9046
 7677SOL    HW234665   1.957   0.339   4.772 -0.1757  1.8817 -0.5765
 7678SOL     OW34666   3.335   1.817   7.561 -0.3818 -0.0684 -0.4679
 7678SOL    HW134667   3.414   1.768   7.538 -0.9442 -1.2317  0.0762
 7678SOL    HW234668   3.376   1.890   7.606  1.5668  0.3143 -2.8544
 7679SOL     OW34669   0.371   1.302   6.108  0.8199  0.2459  0.0526
 7679SOL    HW134670   0.295   1.287   6.052  0.0485 -0.1267  1.2201
 7679SOL    HW234671   0.363   1.216   6.147 -1.4131  0.5851  0.3442
 7680SOL     OW34672   2.279   0.336   7.221 -0.0049 -0.1350 -0.0446
 7680SOL    HW134673   2.364   0.299   7.197  0.2278  0.6754 -0.4760
 7680SOL    HW234674   2.278   0.410   7.160  0.5539  1.6273  2.0712
 7681SOL     OW34675   2.898   3.960   2.318  0.4518 -0.2352 -0.3013
 7681SOL    HW134676   2.831   4.022   2.291  0.9147  1.3319  2.1068
 7681SOL    HW234677   2.853   3.901   2.379  0.4371  0.4060  0.3083
 7682SOL     OW34678   1.420   1.172   8.841 -0.0220  0.2930  0.6052
 7682SOL    HW134679   1.370   1.090   8.847  0.0318  0.2662  0.6737
 7682SOL    HW234680   1.474   1.160   8.919 -0.1023 -0.0438  0.6090
 7683SOL     OW34681   3.997   0.706   3.450  0.4887  0.2466  0.3603
 7683SOL    HW134682   3.987   0.675   3.540 -1.1408  0.3110  0.2089
 7683SOL    HW234683   3.948   0.788   3.461 -1.6947 -0.9824 -0.2473
 7684SOL     OW34684   2.542   2.450   8.846  0.0582  0.2894  0.7306
 7684SOL    HW134685   2.454   2.486   8.845 -0.0404  0.0073 -1.4055
 7684SOL    HW234686   2.579   2.487   8.926 -0.2765  0.0667  0.9859
 7685SOL     OW34687   1.922   0.015   8.802 -0.4723  0.0625 -0.6204
 7685SOL    HW134688   1.955   4.734   8.890  0.4033 -1.4397 -1.2615
 7685SOL    HW234689   1.845   0.066   8.827  1.0744  1.6666  0.8283
 7686SOL     OW34690   2.025   0.841   6.440 -0.3189 -0.7215  0.5687
 7686SOL    HW134691   2.005   0.791   6.361  1.0190 -1.2717  0.5869
 7686SOL    HW234692   1.988   0.801   6.518 -0.9161 -2.1838 -0.4603
 7687SOL     OW34693   2.495   2.199   9.834 -0.1356 -0.1117  0.2144
 7687SOL    HW134694   2.511   2.173   9.743 -3.8766 -0.1627 -0.4203
 7687SOL    HW234695   2.570   2.166   9.885  1.3629  1.7609 -0.7808
 7688SOL     OW34696   2.174   0.145   1.496 -0.1287  0.4553 -0.3107
 7688SOL    HW134697   2.099   0.199   1.521  1.4695  2.2115  0.6777
 7688SOL    HW234698   2.140   0.059   1.519 -1.7367  1.1030 -0.2496
 7689SOL     OW34699   2.717   0.262   4.690 -0.7987 -0.5678 -0.0331
 7689SOL    HW134700   2.690   0.227   4.775  2.0987  0.0704  1.1284
 7689SOL    HW234701   2.671   0.346   4.682 -1.3100 -0.9922 -1.5530
 7690SOL     OW34702   0.743   2.525   2.712 -0.2506  0.7393  0.1275
 7690SOL    HW134703   0.749   2.543   2.806  0.6679  3.9312 -0.5327
 7690SOL    HW234704   0.651   2.553   2.709 -1.0090 -1.7371  0.7061
 7691SOL     OW34705   0.805   3.079   5.957 -0.2812  0.7586 -0.0507
 7691SOL    HW134706   0.846   2.995   5.936 -0.6631 -0.0981  2.6846
 7691SOL    HW234707   0.808   3.073   6.052  0.9207  1.3469 -0.0436
 7692SOL     OW34708   1.435   3.719   7.732 -0.7597  0.0771  0.4023
 7692SOL    HW134709   1.388   3.798   7.761 -0.4427  1.2948 -2.4206
 7692SOL    HW234710   1.379   3.651   7.770 -2.3816  1.1164 -0.1069
 7693SOL     OW34711   1.384   2.563  16.581 -0.0830  0.0765 -0.1731
 7693SOL    HW134712   1.447   2.525  16.520 -1.1666 -0.5193 -0.8998
 7693SOL    HW234713   1.311   2.502  16.590 -2.0590  2.6761  1.1950
 7694SOL     OW34714   1.146   4.682   8.821  0.5322  0.2022  0.0280
 7694SOL    HW134715   1.167   4.601   8.774 -1.9339 -1.0790  1.1667
 7694SOL    HW234716   1.134   4.641   8.907  1.7844  1.3742  0.7606
 7695SOL     OW34717   2.580   0.703   7.256 -0.4651  0.8390 -0.6420
 7695SOL    HW134718   2.573   0.792   7.292  0.9892  0.3593  0.8052
 7695SOL    HW234719   2.589   0.651   7.335 -2.2436  0.1548 -0.8800
 7696SOL     OW34720   4.410   4.117   2.505  0.3934  0.0505 -0.2910
 7696SOL    HW134721   4.333   4.171   2.487  1.1151  0.7379 -1.2988
 7696SOL    HW234722   4.479   4.183   2.510 -2.2240  2.8538 -1.5973
 7697SOL     OW34723   1.013   1.342   2.689  0.3993 -0.6177 -0.2324
 7697SOL    HW134724   1.037   1.287   2.614  2.6279  0.6176 -0.4459
 7697SOL    HW234725   1.094   1.369   2.732  0.2796  0.9492 -1.0032
 7698SOL     OW34726   4.711   1.257  15.354  0.8763 -0.3741  0.1908
 7698SOL    HW134727   4.675   1.178  15.396  0.3120 -0.0067  0.4003
 7698SOL    HW234728   4.698   1.238  15.261  1.1506 -0.6816  0.2141
 7699SOL     OW34729   0.956   0.533   3.658  0.3338  0.1523  0.1031
 7699SOL    HW134730   0.937   0.625   3.640  0.6791 -0.0629 -1.3851
 7699SOL    HW234731   1.051   0.528   3.653  0.3268  0.9137 -0.8881
 7700SOL     OW34732   3.026   3.149  14.566  0.1520  0.0221  0.2328
 7700SOL    HW134733   3.000   3.060  14.591  0.5865 -0.2425 -0.2629
 7700SOL    HW234734   3.052   3.137  14.475  0.9753 -1.4646  0.6646
 7701SOL     OW34735   1.228   1.677   4.984 -0.0393 -0.3265  0.1975
 7701SOL    HW134736   1.166   1.739   5.022  0.4320  0.3620 -0.1554
 7701SOL    HW234737   1.251   1.625   5.061  0.0474 -0.2301  0.2371
 7702SOL     OW34738   0.868   2.706   6.879  0.2853 -0.1818 -0.0737
 7702SOL    HW134739   0.928   2.680   6.948 -0.7493  1.7607  1.5488
 7702SOL    HW234740   0.921   2.683   6.803 -0.4562 -0.3660 -0.5385
 7703SOL     OW34741   4.580   2.720   3.808 -0.1303  0.1934 -0.1244
 7703SOL    HW134742   4.602   2.727   3.901 -3.6493 -0.9068  0.7824
 7703SOL    HW234743   4.672   2.724   3.782  0.1973 -1.4233  0.7650
 7704SOL     OW34744   0.379   3.291   6.856 -0.1670  0.0973 -0.3280
 7704SOL    HW134745   0.373   3.264   6.947 -1.7050  0.8115 -0.2121
 7704SOL    HW234746   0.419   3.211   6.822 -2.4243 -1.5960  0.9717
 7705SOL     OW34747   2.472   2.633   2.191  0.6663  0.6873 -0.0319
 7705SOL    HW134748   2.464   2.620   2.096  0.7523 -1.0248  0.2067
 7705SOL    HW234749   2.393   2.590   2.221  0.4723  1.3852  0.4609
 7706SOL     OW34750   1.715   1.298   7.482  0.5808  0.0871  0.5575
 7706SOL    HW134751   1.760   1.244   7.417  2.9391  1.0852  1.3904
 7706SOL    HW234752   1.708   1.244   7.561 -0.1055  0.5077  0.7894
 7707SOL     OW34753   1.104   1.021   7.215 -0.1317 -0.2664  1.0293
 7707SOL    HW134754   1.107   0.964   7.292  1.5520 -0.7403  0.6021
 7707SOL    HW234755   1.071   0.969   7.142  0.6048  1.5854 -0.6244
 7708SOL     OW34756   3.661   2.075   8.253  0.1001  0.2924  0.0155
 7708SOL    HW134757   3.602   2.090   8.327  0.4281  1.5221  0.0318
 7708SOL    HW234758   3.628   2.156   8.216 -1.5823 -0.3742  0.0512
 7709SOL     OW34759   1.997   3.880  15.411  0.7453  1.0269 -0.7766
 7709SOL    HW134760   2.051   3.950  15.447  1.3721  1.2346 -2.1232
 7709SOL    HW234761   1.987   3.912  15.321 -2.7428  2.7034  0.2175
 7710SOL     OW34762   0.347   3.457   1.590 -0.0026 -0.0861 -0.7403
 7710SOL    HW134763   0.320   3.548   1.603  0.2166 -0.0882 -0.2964
 7710SOL    HW234764   0.387   3.464   1.503  0.0778  0.7868 -0.6263
 7711SOL     OW34765   3.202   3.500  10.425 -0.1459 -0.3755  0.5587
 7711SOL    HW134766   3.153   3.580  10.405  0.5093 -0.6186 -1.9773
 7711SOL    HW234767   3.238   3.475  10.340  0.3968  0.7953  0.4417
 7712SOL     OW34768   3.346   0.778  15.584  0.2791 -0.4013  0.1847
 7712SOL    HW134769   3.253   0.799  15.578  0.5397  0.9447  0.7718
 7712SOL    HW234770   3.377   0.847  15.643  1.8922  1.0663 -2.3533
 7713SOL     OW34771   1.232   1.161   3.443  0.0806 -0.2798  0.3334
 7713SOL    HW134772   1.228   1.240   3.497  0.8490 -1.8951  2.7334
 7713SOL    HW234773   1.325   1.163   3.423 -0.0647 -2.3426 -0.5310
 7714SOL     OW34774   4.162   0.320   7.140  0.2655  0.0851  0.2833
 7714SOL    HW134775   4.103   0.276   7.201  0.9085  2.5673  2.6576
 7714SOL    HW234776   4.250   0.306   7.177 -0.2872  0.0864  1.5954
 7715SOL     OW34777   1.006   2.433   0.850 -0.1989 -0.0554 -0.3147
 7715SOL    HW134778   0.940   2.452   0.916  0.7177  2.1346 -0.0448
 7715SOL    HW234779   1.074   2.494   0.875  0.4703 -1.4025  1.1400
 7716SOL     OW34780   1.958   1.010   9.983  0.4285  0.3004  0.4487
 7716SOL    HW134781   1.963   1.048  10.070 -0.2153  0.9066  0.2239
 7716SOL    HW234782   1.954   1.089   9.929 -0.2054 -0.6256 -0.8699
 7717SOL     OW34783   1.900   0.384   5.452 -0.1882  0.3536  0.0672
 7717SOL    HW134784   1.814   0.377   5.412 -1.4311  2.5221  2.3360
 7717SOL    HW234785   1.934   0.296   5.438  0.3042  1.1591 -3.7888
 7718SOL     OW34786   1.040   3.353   2.996  0.0940 -0.5493 -0.3323
 7718SOL    HW134787   1.042   3.410   3.073  2.5912  0.2163 -0.9741
 7718SOL    HW234788   0.948   3.326   3.004 -0.4277  0.9512 -1.2419
 7719SOL     OW34789   4.103   0.842   0.884  0.0804 -0.6079 -0.4975
 7719SOL    HW134790   4.171   0.836   0.817  0.5793  0.8002 -0.1097
 7719SOL    HW234791   4.125   0.920   0.935  2.1606 -1.5761  0.0778
 7720SOL     OW34792   3.089   2.721  14.501  0.5389  0.2574 -0.3185
 7720SOL    HW134793   3.088   2.626  14.492  2.9056  0.4017 -1.9869
 7720SOL    HW234794   3.104   2.743  14.409  1.4185  1.3215  0.0782
 7721SOL     OW34795   2.937   1.470  12.002 -0.1772 -0.5329  0.5603
 7721SOL    HW134796   2.903   1.425  11.925  1.4486  2.7654 -2.0861
 7721SOL    HW234797   3.012   1.513  11.962 -0.5683 -0.6967 -0.3372
 7722SOL     OW34798   0.137   1.339  16.223 -0.4710 -0.2750  0.3162
 7722SOL    HW134799   0.057   1.383  16.251 -0.9703 -0.7325 -0.3974
 7722SOL    HW234800   0.122   1.253  16.263 -1.0999  0.2249  1.1521
 7723SOL     OW34801   3.377   1.536   0.549 -0.1460 -0.1500 -0.2031
 7723SOL    HW134802   3.424   1.619   0.554  0.2646 -0.4733  1.1141
 7723SOL    HW234803   3.322   1.533   0.627  0.0699 -0.8170 -0.0762
 7724SOL     OW34804   0.045   2.424   2.258  1.0463 -0.2239  0.3851
 7724SOL    HW134805   0.052   2.330   2.239  0.8240  0.0371 -0.9725
 7724SOL    HW234806   0.075   2.430   2.349  2.3017 -1.7238  0.0649
 7725SOL     OW34807   2.398   1.919  17.476  0.1573 -0.2766 -0.6358
 7725SOL    HW134808   2.476   1.969  17.452  0.0028 -0.1424 -0.8503
 7725SOL    HW234809   2.354   1.910  17.392 -0.1566  0.2788 -0.5295
 7726SOL     OW34810   1.549   3.503  17.455 -0.0649 -0.0212  0.6083
 7726SOL    HW134811   1.633   3.533  17.421 -0.1294 -0.6637 -0.1146
 7726SOL    HW234812   1.483   3.567  17.428  0.1013 -1.0230 -2.1813
 7727SOL     OW34813   3.879   3.304   9.761 -0.5304 -0.2752  0.3857
 7727SOL    HW134814   3.846   3.266   9.843 -0.4183  0.4571  0.7755
 7727SOL    HW234815   3.924   3.383   9.792  1.4733 -2.0060  1.8993
 7728SOL     OW34816   0.964   4.561   4.967  0.3471  0.7438 -0.3377
 7728SOL    HW134817   0.870   4.544   4.976  1.1035 -3.0970  0.0569
 7728SOL    HW234818   0.974   4.539   4.874 -0.5871  1.7786 -0.6869
 7729SOL     OW34819   4.346   0.313   3.561 -0.0850 -0.0798  0.0110
 7729SOL    HW134820   4.343   0.383   3.626  1.5331 -0.5547  0.5837
 7729SOL    HW234821   4.425   0.334   3.512 -0.0797 -3.2276 -1.3191
 7730SOL     OW34822   3.262   2.687  14.293 -0.3934  0.0633  0.2714
 7730SOL    HW134823   3.248   2.744  14.217 -0.6160 -0.3248  0.0227
 7730SOL    HW234824   3.308   2.614  14.253  1.5146  2.0036 -1.0386
 7731SOL     OW34825   4.448   4.322   7.978 -0.1090 -0.5376 -0.1775
 7731SOL    HW134826   4.386   4.262   7.936 -0.3523 -0.8113  0.5886
 7731SOL    HW234827   4.397   4.344   8.056  1.2626 -2.9665  1.3938
 7732SOL     OW34828   2.843   0.599   2.656 -0.3123 -0.5821 -0.4204
 7732SOL    HW134829   2.826   0.524   2.713 -0.4043  0.2417  0.6340
 7732SOL    HW234830   2.825   0.679   2.706 -1.9766 -0.5874 -1.0087
 7733SOL     OW34831   1.969   4.652  13.998 -0.2827  0.1010 -0.2055
 7733SOL    HW134832   1.900   4.618  14.055 -0.5932 -1.2220 -1.3510
 7733SOL    HW234833   1.914   4.701  13.937  0.5139  0.1548 -0.8817
 7734SOL     OW34834   0.291   0.598   4.635  0.3299 -0.0305  0.2890
 7734SOL    HW134835   0.341   0.573   4.713  1.0184  0.1983 -0.0793
 7734SOL    HW234836   0.354   0.569   4.569 -2.0200 -1.4604 -1.3311
 7735SOL     OW34837   3.791   3.543   6.705  0.1437  0.3963  0.4158
 7735SOL    HW134838   3.775   3.636   6.686  1.7928  0.4396 -0.7110
 7735SOL    HW234839   3.731   3.504   6.642 -0.3903 -0.1267  1.2481
 7736SOL     OW34840   3.406   2.869   4.110 -0.1990  0.1306  0.1634
 7736SOL    HW134841   3.373   2.958   4.109  0.4235  0.3700  1.1794
 7736SOL    HW234842   3.363   2.823   4.038  0.1425 -1.0422  0.6898
 7737SOL     OW34843   1.772   0.176   9.163  0.2095 -0.2169  0.3878
 7737SOL    HW134844   1.849   0.168   9.219  1.1176 -0.6011 -0.9240
 7737SOL    HW234845   1.733   0.260   9.188  0.4163 -0.4067  1.3747
 7738SOL     OW34846   3.533   4.446   2.279 -0.0684  0.2537 -0.4562
 7738SOL    HW134847   3.458   4.449   2.220 -0.8413  0.7733  0.5573
 7738SOL    HW234848   3.498   4.397   2.353 -1.0299  0.9547 -0.4393
 7739SOL     OW34849   2.683   1.799  16.805  1.1505  0.3585 -0.5370
 7739SOL    HW134850   2.599   1.786  16.849  1.4308 -2.1591 -0.7067
 7739SOL    HW234851   2.716   1.880  16.844  0.1061  1.0961 -1.1889
 7740SOL     OW34852   1.878   1.772   9.994  0.6412  0.0300 -0.5497
 7740SOL    HW134853   1.882   1.714  10.070  1.4226  0.6022 -0.1611
 7740SOL    HW234854   1.782   1.779   9.991  0.4967 -1.3310  1.1977
 7741SOL     OW34855   2.651   1.934   8.268  0.5035 -0.2187  0.5473
 7741SOL    HW134856   2.596   2.000   8.310 -2.7106 -0.9534 -2.5250
 7741SOL    HW234857   2.731   1.986   8.264 -0.2763  0.8215 -1.7599
 7742SOL     OW34858   3.240   1.514   0.320 -0.0297 -0.6762  0.5709
 7742SOL    HW134859   3.269   1.528   0.410 -1.7527  0.6167  0.9270
 7742SOL    HW234860   3.239   1.419   0.320  2.9822 -0.7287 -2.0653
 7743SOL     OW34861   4.044   4.692  17.465 -0.1577  0.2734  0.3209
 7743SOL    HW134862   4.053   4.691  17.370 -3.0812  0.0206  0.0511
 7743SOL    HW234863   3.966   4.639  17.482 -0.5470  1.4938  2.2473
 7744SOL     OW34864   4.692   3.068   6.360 -0.0146 -0.1857 -0.1700
 7744SOL    HW134865   4.683   2.994   6.299 -0.7575 -1.9803  2.1336
 7744SOL    HW234866   4.682   3.147   6.307  0.2102 -0.6041 -0.8414
 7745SOL     OW34867   4.064   4.309  14.552  0.0593  0.2247 -0.0492
 7745SOL    HW134868   3.974   4.281  14.533  0.7444 -0.5338 -2.1867
 7745SOL    HW234869   4.069   4.399  14.522 -0.4827  0.2785  0.0131
 7746SOL     OW34870   0.834   2.247   5.008  0.2062  0.1656 -1.0385
 7746SOL    HW134871   0.851   2.327   4.957  1.2318  0.2398 -0.5711
 7746SOL    HW234872   0.908   2.191   4.985 -0.0836  0.0810 -1.7694
 7747SOL     OW34873   4.165   2.415   7.409 -0.5446  0.0022  0.1802
 7747SOL    HW134874   4.142   2.432   7.317  1.6700 -2.3368 -0.7973
 7747SOL    HW234875   4.092   2.374   7.454 -0.1787 -0.9180 -0.0625
 7748SOL     OW34876   1.164   3.527   7.655  0.3967  0.3907  0.4098
 7748SOL    HW134877   1.243   3.479   7.631  0.4187  0.7312 -0.1785
 7748SOL    HW234878   1.187   3.530   7.748 -0.3766  0.1894  0.6112
 7749SOL     OW34879   4.381   0.661   3.989  0.4549  0.6172  0.4126
 7749SOL    HW134880   4.374   0.589   4.052  2.9121  1.3863  1.5888
 7749SOL    HW234881   4.414   0.735   4.040  0.8094  0.0441  1.0250
 7750SOL     OW34882   3.594   1.447   7.661  0.3277 -0.2952 -0.0727
 7750SOL    HW134883   3.528   1.462   7.593  0.4340 -1.1205 -0.3465
 7750SOL    HW234884   3.663   1.508   7.634 -0.4617  1.5907  2.1502
 7751SOL     OW34885   3.538   1.491   5.639 -0.3651  0.3596 -0.6255
 7751SOL    HW134886   3.454   1.453   5.613 -0.8777  1.6512 -0.8577
 7751SOL    HW234887   3.564   1.425   5.703  0.7211 -0.6981 -2.1333
 7752SOL     OW34888   3.868   1.405   0.281 -0.6039  0.2122  0.1773
 7752SOL    HW134889   3.779   1.428   0.308 -0.3664 -0.8295  1.7862
 7752SOL    HW234890   3.885   1.333   0.341  0.5024  2.3386  2.4393
 7753SOL     OW34891   1.425   0.729   3.265  0.4619 -0.0121  0.1827
 7753SOL    HW134892   1.346   0.703   3.217  0.1996  1.0620  0.0242
 7753SOL    HW234893   1.490   0.741   3.197  0.5786 -0.4046  0.2247
 7754SOL     OW34894   1.078   2.167   6.817  0.3924  0.5128 -0.6251
 7754SOL    HW134895   1.059   2.082   6.779 -0.6771 -0.0603  1.1853
 7754SOL    HW234896   1.156   2.187   6.765  0.7090 -0.0432 -0.3660
 7755SOL     OW34897   4.539   0.845  10.474  0.7654 -0.2456  0.4180
 7755SOL    HW134898   4.576   0.932  10.489 -0.5940  0.4817 -0.4915
 7755SOL    HW234899   4.499   0.843  10.561  0.1427  0.0314  0.1345
 7756SOL     OW34900   4.244   4.366  17.361  0.4801  0.1262 -0.0926
 7756SOL    HW134901   4.161   4.355  17.407  1.6442  0.2736  2.1032
 7756SOL    HW234902   4.312   4.343  17.425  0.3305 -2.5643 -0.9358
 7757SOL     OW34903   2.684   2.179   0.498 -0.4063 -0.0818  0.3555
 7757SOL    HW134904   2.590   2.166   0.510 -0.9136  1.1614 -2.2152
 7757SOL    HW234905   2.687   2.274   0.500  1.1009 -0.1755  2.7709
 7758SOL     OW34906   1.188   3.786   5.585  0.5537  0.2471 -0.0593
 7758SOL    HW134907   1.134   3.715   5.550 -0.1038 -0.5475  2.5670
 7758SOL    HW234908   1.261   3.794   5.524  1.8949  0.2590  1.5427
 7759SOL     OW34909   2.172   3.379   8.761 -0.2625  0.0130  0.0701
 7759SOL    HW134910   2.234   3.320   8.718  1.7364  0.6720  2.0551
 7759SOL    HW234911   2.117   3.314   8.805  0.2205  0.3888  1.2141
 7760SOL     OW34912   1.504   3.692   0.440 -0.2037  0.4362 -0.0795
 7760SOL    HW134913   1.471   3.769   0.485  0.5074 -0.1152  1.3948
 7760SOL    HW234914   1.581   3.667   0.492 -1.1718 -1.9421  0.2156
 7761SOL     OW34915   1.802   2.717   6.075  0.0762  0.2639 -0.0431
 7761SOL    HW134916   1.791   2.765   6.157  0.1724  0.9129 -0.4078
 7761SOL    HW234917   1.875   2.766   6.036  2.2403 -2.8592  0.1052
 7762SOL     OW34918   2.349   3.701   8.401  0.3751  0.1000  0.1377
 7762SOL    HW134919   2.318   3.682   8.489  1.1910  0.1200  0.4366
 7762SOL    HW234920   2.267   3.731   8.362 -0.2310 -1.1993  0.4108
 7763SOL     OW34921   0.953   3.265   5.805 -0.4209 -0.2647  0.8195
 7763SOL    HW134922   0.887   3.203   5.837 -1.1732 -0.1135 -0.4657
 7763SOL    HW234923   1.012   3.254   5.880 -2.3020  0.7331  2.4375
 7764SOL     OW34924   0.440   0.093   4.990 -0.5233  0.3829  0.5130
 7764SOL    HW134925   0.455   0.042   4.911 -3.7674 -2.4355  1.6904
 7764SOL    HW234926   0.526   0.118   5.024  0.2214  0.7807 -1.7334
 7765SOL     OW34927   1.369   4.059   9.166  0.3860  0.2525  0.4699
 7765SOL    HW134928   1.376   4.117   9.242  2.2709  0.0347  0.4528
 7765SOL    HW234929   1.416   4.103   9.096  0.2044 -0.9528 -0.4150
 7766SOL     OW34930   4.703   4.725  10.217 -1.1157 -0.6780 -0.1187
 7766SOL    HW134931   4.631   0.050  10.204 -0.2792  0.4633  0.7383
 7766SOL    HW234932   4.698   4.677  10.134  0.4667  0.1389 -0.6960
 7767SOL     OW34933   1.582   0.356   2.389 -0.3899  0.3072  0.2852
 7767SOL    HW134934   1.605   0.276   2.342 -1.1712  0.0270  0.3843
 7767SOL    HW234935   1.650   0.366   2.456 -0.6029 -1.4620  0.7527
 7768SOL     OW34936   1.104   0.874   3.765  0.1473 -0.2748 -0.5850
 7768SOL    HW134937   1.011   0.850   3.764  0.2753 -0.7625 -0.0059
 7768SOL    HW234938   1.126   0.869   3.672 -0.2675 -0.7919 -0.6556
 7769SOL     OW34939   2.922   3.053   2.446 -0.2844  0.0023 -0.1663
 7769SOL    HW134940   2.908   3.124   2.510 -1.9928  0.0678 -0.6121
 7769SOL    HW234941   3.007   3.014   2.468  0.3898  1.9227  0.7406
 7770SOL     OW34942   3.815   0.015   8.828  0.3649  0.3915  0.3742
 7770SOL    HW134943   3.771   0.007   8.744 -2.1765  1.8063  1.5615
 7770SOL    HW234944   3.861   0.098   8.819 -2.6107  1.9754 -0.2453
 7771SOL     OW34945   4.169   4.547   9.796 -0.1868 -0.6988  0.4650
 7771SOL    HW134946   4.138   4.638   9.802  2.8179  0.6708 -4.6814
 7771SOL    HW234947   4.261   4.562   9.773 -1.0055  1.6554 -1.2695
 7772SOL     OW34948   0.032   0.487  11.448  0.2781  0.0741  0.0811
 7772SOL    HW134949   0.112   0.520  11.407  0.5355 -0.7431 -0.0665
 7772SOL    HW234950   0.069   0.422  11.507  2.3444 -0.0425 -1.3531
 7773SOL     OW34951   2.043   4.374   4.257 -0.7353 -0.5468  0.2833
 7773SOL    HW134952   2.045   4.459   4.301 -0.2701  0.5308 -1.8455
 7773SOL    HW234953   2.137   4.358   4.256 -0.4898  1.0059 -1.0981
 7774SOL     OW34954   2.155   3.449   4.121  0.5859  0.0923 -0.6332
 7774SOL    HW134955   2.217   3.490   4.060  1.2843  1.7142  1.1689
 7774SOL    HW234956   2.143   3.523   4.180 -1.5807  1.8344 -3.2219
 7775SOL     OW34957   2.754   0.580   7.087  0.6562  0.2666  0.2918
 7775SOL    HW134958   2.723   0.632   7.013 -0.6282  0.6921  1.1279
 7775SOL    HW234959   2.708   0.622   7.160 -0.7740  0.0580 -0.4837
 7776SOL     OW34960   0.315   0.531   8.816  0.1730 -0.5588 -0.0446
 7776SOL    HW134961   0.402   0.512   8.849  0.5923 -1.5083 -1.6785
 7776SOL    HW234962   0.329   0.498   8.727 -0.6913 -1.2801  0.0892
 7777SOL     OW34963   1.656   2.688   9.321  0.0596 -0.0273 -0.1968
 7777SOL    HW134964   1.712   2.663   9.248  0.2359 -1.4132  0.4087
 7777SOL    HW234965   1.639   2.603   9.362  1.1821  0.4257  1.1924
 7778SOL     OW34966   3.824   2.070   6.765 -0.0656 -0.6620  0.5372
 7778SOL    HW134967   3.829   2.135   6.835  0.2686 -0.0527 -0.0566
 7778SOL    HW234968   3.901   2.017   6.786  0.1895 -0.1140  1.0252
 7779SOL     OW34969   4.014   1.553   3.832  0.7085  0.0023 -0.8162
 7779SOL    HW134970   3.933   1.577   3.787  1.2308  0.7554 -1.3649
 7779SOL    HW234971   4.009   1.607   3.911 -1.7838  0.3819 -1.2343
 7780SOL     OW34972   1.724   3.941   9.004 -0.1946 -0.0387 -0.2798
 7780SOL    HW134973   1.780   4.013   9.033  0.1609 -0.4746  0.1148
 7780SOL    HW234974   1.658   3.978   8.945  0.1400  0.1577 -0.5307
 7781SOL     OW34975   2.881   1.624   5.413  0.6257 -0.0363  0.7425
 7781SOL    HW134976   2.973   1.608   5.435  0.4200 -0.0979  1.5411
 7781SOL    HW234977   2.845   1.632   5.501  0.2340  1.2454  0.4648
 7782SOL     OW34978   0.328   4.216   2.688 -0.4458 -0.3377 -0.0491
 7782SOL    HW134979   0.279   4.145   2.647 -1.7014  0.6510 -0.2606
 7782SOL    HW234980   0.358   4.264   2.611 -1.2486  0.6362  0.2519
 7783SOL     OW34981   1.617   1.683   2.467 -0.0677  0.2665  0.6116
 7783SOL    HW134982   1.537   1.714   2.509 -0.9555 -0.7684 -0.3133
 7783SOL    HW234983   1.616   1.597   2.509  3.2952 -0.7981 -1.4339
 7784SOL     OW34984   1.136   3.395   8.354 -0.5210  0.1102 -0.1196
 7784SOL    HW134985   1.131   3.489   8.370  0.0615 -0.2550  2.1556
 7784SOL    HW234986   1.180   3.375   8.436  1.9142 -1.3056 -1.7639
 7785SOL     OW34987   2.395   3.569   3.876  0.3320  0.2826  0.3079
 7785SOL    HW134988   2.436   3.531   3.954  3.1501  1.3222 -0.6896
 7785SOL    HW234989   2.403   3.491   3.822 -0.7107 -0.7816  1.6870
 7786SOL     OW34990   1.138   1.003   4.179  0.4567 -0.0622 -0.4525
 7786SOL    HW134991   1.170   0.913   4.188 -0.3920 -0.3488 -0.2333
 7786SOL    HW234992   1.091   1.019   4.261 -0.4252 -0.0346 -0.9612
 7787SOL     OW34993   2.074   1.959  17.482 -0.6715  0.0834  0.1049
 7787SOL    HW134994   2.075   1.906  17.561  0.5757 -1.1574 -0.7496
 7787SOL    HW234995   2.013   1.916  17.422 -1.5187 -0.2474  1.2006
 7788SOL     OW34996   1.652   0.999  11.227 -0.1276 -0.5550 -0.2966
 7788SOL    HW134997   1.644   0.927  11.289 -1.0395 -1.9577 -2.0428
 7788SOL    HW234998   1.699   1.067  11.276  0.3249 -1.9418  1.1999
 7789SOL     OW34999   2.447   0.672   0.687  0.4313 -0.6786 -0.0054
 7789SOL    HW135000   2.430   0.651   0.779 -1.7181 -2.3210 -0.7716
 7789SOL    HW235001   2.454   0.767   0.685 -3.2603 -0.3795  0.7963
 7790SOL     OW35002   2.000   0.190   1.839  0.2430 -0.9179  0.9639
 7790SOL    HW135003   1.972   0.119   1.781 -2.2628  1.4507 -0.7346
 7790SOL    HW235004   1.917   0.205   1.885  0.7852  1.1743  1.2218
 7791SOL     OW35005   2.230   1.183  13.070  0.2011  0.0608  0.2374
 7791SOL    HW135006   2.325   1.184  13.083  0.2747 -0.5018 -0.2647
 7791SOL    HW235007   2.211   1.107  13.126  1.1190 -0.4630 -0.1678
 7792SOL     OW35008   2.188   0.520  15.496  0.1338 -0.2399 -0.2266
 7792SOL    HW135009   2.110   0.572  15.516  1.1764  1.0633  0.4956
 7792SOL    HW235010   2.253   0.589  15.480  0.7117 -0.3489  1.5851
 7793SOL     OW35011   3.113   2.032   8.827  0.0205  0.1336  0.3048
 7793SOL    HW135012   3.114   1.954   8.882 -1.9315  0.5348  0.8891
 7793SOL    HW235013   3.031   2.071   8.856 -0.5787  0.3445 -1.6759
 7794SOL     OW35014   3.881   3.542   4.348 -0.2093  0.3433 -0.1793
 7794SOL    HW135015   3.859   3.527   4.256 -0.9434  0.9272 -0.1060
 7794SOL    HW235016   3.842   3.627   4.369  0.4546  0.6334 -0.1441
 7795SOL     OW35017   0.783   0.233   6.547  0.3391 -0.0653  0.4902
 7795SOL    HW135018   0.859   0.226   6.490 -1.2085 -3.2895 -1.1301
 7795SOL    HW235019   0.795   0.317   6.592  2.4505  0.4748 -1.0906
 7796SOL     OW35020   1.021   1.015  10.299 -0.1751  0.3191  0.5513
 7796SOL    HW135021   1.092   0.999  10.360  0.5245 -0.0610 -0.3702
 7796SOL    HW235022   1.035   0.935  10.249 -1.8679 -0.0455  0.6600
 7797SOL     OW35023   2.266   1.866   6.237  0.4012  0.6682  0.6050
 7797SOL    HW135024   2.198   1.879   6.302  0.2784  1.0223  0.4054
 7797SOL    HW235025   2.217   1.812   6.174  2.5720 -0.2802 -0.2755
 7798SOL     OW35026   2.658   2.500   6.430 -0.2277 -0.0054 -0.2681
 7798SOL    HW135027   2.741   2.458   6.407  0.2588  0.3135  0.9121
 7798SOL    HW235028   2.619   2.436   6.488 -1.8546  2.7862  1.7315
 7799SOL     OW35029   2.861   3.299   5.945  0.3215  0.2024 -0.3090
 7799SOL    HW135030   2.956   3.312   5.942  0.3934  0.0152  1.5603
 7799SOL    HW235031   2.841   3.389   5.968 -3.1332 -1.0751  1.6682
 7800SOL     OW35032   1.708   0.678  16.079  0.4661 -0.2893 -0.4146
 7800SOL    HW135033   1.653   0.650  16.152  0.3140 -1.6243 -1.0451
 7800SOL    HW235034   1.647   0.688  16.006  1.3492 -0.9647 -1.2531
 7801SOL     OW35035   4.016   0.505   7.027 -0.4231  0.1141 -0.2804
 7801SOL    HW135036   4.054   0.427   7.065 -1.0696 -0.2146 -0.3113
 7801SOL    HW235037   4.060   0.513   6.942  1.2584  2.0914  0.7820
 7802SOL     OW35038   0.148   1.726   7.811  0.0455 -0.0527 -0.2735
 7802SOL    HW135039   0.077   1.674   7.846 -1.5070  1.4391 -1.2159
 7802SOL    HW235040   0.188   1.746   7.896 -1.2350  0.9977  0.0759
 7803SOL     OW35041   2.905   4.054   0.612 -0.1172 -0.3907  0.0434
 7803SOL    HW135042   2.836   4.017   0.666  2.7582 -0.6979  3.4935
 7803SOL    HW235043   2.875   4.044   0.521 -1.2134 -1.7275  0.5664
 7804SOL     OW35044   4.273   1.936   4.615  0.2791  0.0663  0.0933
 7804SOL    HW135045   4.303   1.901   4.699  0.5615  0.1830  0.0411
 7804SOL    HW235046   4.336   2.006   4.601 -0.0968  0.3052 -0.4014
 7805SOL     OW35047   0.661   0.862  17.253  0.3836  0.8092  0.5604
 7805SOL    HW135048   0.628   0.934  17.201 -0.4020  0.9761  1.2958
 7805SOL    HW235049   0.579   0.813  17.255  0.1556  1.1534 -1.0676
 7806SOL     OW35050   0.173   2.615   0.121  0.3136 -0.5006 -0.0947
 7806SOL    HW135051   0.118   2.538   0.106  0.1339 -0.0261 -1.7861
 7806SOL    HW235052   0.116   2.686   0.150  1.4203 -0.3528  1.7694
 7807SOL     OW35053   1.173   3.683  15.955 -0.2991 -0.0912  0.0082
 7807SOL    HW135054   1.180   3.633  16.037  0.0543  1.2142  0.7730
 7807SOL    HW235055   1.195   3.614  15.893  1.1089 -0.1878  0.6103
 7808SOL     OW35056   0.433   3.297   7.942 -0.8086  0.6890  0.0601
 7808SOL    HW135057   0.369   3.243   7.897  2.9031 -3.3358 -0.3936
 7808SOL    HW235058   0.506   3.293   7.880 -0.2306  0.9229  0.7174
 7809SOL     OW35059   0.010   0.919   7.909  0.3623  0.2683  0.1773
 7809SOL    HW135060   0.089   0.968   7.934  1.6455 -0.6430 -2.0940
 7809SOL    HW235061   4.704   0.901   7.992 -0.5324 -1.0933 -0.5877
 7810SOL     OW35062   2.265   1.923   0.942 -0.2725  0.3284 -0.3481
 7810SOL    HW135063   2.248   1.983   1.015  0.5254  0.5173 -0.3157
 7810SOL    HW235064   2.182   1.876   0.937  0.0862 -0.3490  0.1842
 7811SOL     OW35065   1.492   1.440   3.997  0.0171  0.6454 -0.0034
 7811SOL    HW135066   1.555   1.398   4.055 -0.2619  1.8224  1.1765
 7811SOL    HW235067   1.430   1.371   3.974 -0.4010  1.2380 -0.6927
 7812SOL     OW35068   1.146   3.582   9.310 -0.6343  0.4086 -0.1357
 7812SOL    HW135069   1.086   3.652   9.334 -0.3847 -0.2337  2.4133
 7812SOL    HW235070   1.233   3.619   9.324  0.2574 -1.5521 -0.4944
 7813SOL     OW35071   2.576   0.901   4.976 -0.3102 -0.1892 -0.0785
 7813SOL    HW135072   2.503   0.847   4.947  0.2387 -1.1672  0.3565
 7813SOL    HW235073   2.622   0.844   5.038  1.1424  0.3345 -0.6682
 7814SOL     OW35074   4.118   2.985   7.145 -0.0982 -0.4410  0.4131
 7814SOL    HW135075   4.208   3.000   7.171 -0.3579  3.5297 -0.8632
 7814SOL    HW235076   4.101   3.048   7.074  0.1776  1.8706  2.4124
 7815SOL     OW35077   3.344   1.688   8.060 -0.8197  0.4285 -0.0916
 7815SOL    HW135078   3.381   1.693   7.971  0.4191  1.1764  0.4620
 7815SOL    HW235079   3.349   1.781   8.080  1.5010  0.1709  0.5055
 7816SOL     OW35080   3.470   0.618   2.973 -0.1073 -0.0725  0.0005
 7816SOL    HW135081   3.462   0.621   2.878 -0.9040  1.9493  0.1220
 7816SOL    HW235082   3.388   0.572   2.990  0.2529 -0.5464  0.4591
 7817SOL     OW35083   0.349   4.571  14.979 -0.7828  0.2588 -0.0928
 7817SOL    HW135084   0.440   4.573  14.950 -0.6703 -0.7522  0.2082
 7817SOL    HW235085   0.358   4.605  15.068 -1.9138 -1.0749  0.5275
 7818SOL     OW35086   3.828   4.277   2.197 -0.3493 -0.1289  0.0689
 7818SOL    HW135087   3.823   4.194   2.245  0.9454  0.4901  1.2758
 7818SOL    HW235088   3.744   4.319   2.216  0.0724  1.0561 -0.7142
 7819SOL     OW35089   0.553   4.645   4.312  0.6111 -0.3207 -0.1532
 7819SOL    HW135090   0.594   4.559   4.320  1.2326 -0.0158  0.0055
 7819SOL    HW235091   0.537   4.657   4.219  0.8197 -2.2975 -0.4286
 7820SOL     OW35092   0.959   1.812  17.194 -0.2174  0.1465  0.5133
 7820SOL    HW135093   0.973   1.734  17.247  0.3244  0.6955  1.1914
 7820SOL    HW235094   1.036   1.807  17.137 -0.2281  0.1952  0.4938
 7821SOL     OW35095   0.309   3.784   7.156  0.1504  0.1404 -0.4426
 7821SOL    HW135096   0.372   3.818   7.093 -0.0774  1.2047 -0.0893
 7821SOL    HW235097   0.337   3.693   7.167  3.5580  0.8862 -2.9854
 7822SOL     OW35098   2.135   2.917   6.153 -0.5510 -0.1450 -0.3353
 7822SOL    HW135099   2.159   2.967   6.232 -1.9767  2.8492 -1.7976
 7822SOL    HW235100   2.218   2.917   6.105  0.1050  1.8293  0.7472
 7823SOL     OW35101   2.655   3.065   4.717  0.4705 -0.2747 -0.0188
 7823SOL    HW135102   2.708   3.126   4.768  2.0937 -0.7096 -1.1850
 7823SOL    HW235103   2.585   3.124   4.688 -1.2526 -1.8171  0.9712
 7824SOL     OW35104   3.785   1.550   3.175 -0.3786 -0.1943 -0.1588
 7824SOL    HW135105   3.827   1.477   3.128  0.5372  0.3370 -0.1814
 7824SOL    HW235106   3.795   1.624   3.115  1.0592  0.0003  0.3084
 7825SOL     OW35107   2.845   3.937   9.373  0.3836 -0.0969  0.1539
 7825SOL    HW135108   2.790   3.956   9.449  0.2766 -1.6217  0.4581
 7825SOL    HW235109   2.799   3.984   9.304  1.2855 -1.7212 -1.5431
 7826SOL     OW35110   2.994   2.086   3.077 -0.0340 -0.1324 -0.1980
 7826SOL    HW135111   2.962   2.000   3.106  0.0154 -0.3819 -0.8817
 7826SOL    HW235112   2.936   2.144   3.127  0.1131 -1.1214  1.1297
 7827SOL     OW35113   2.692   1.625  12.020  0.0116  0.0671 -0.0616
 7827SOL    HW135114   2.691   1.717  11.994 -1.1439  0.4834  1.4419
 7827SOL    HW235115   2.771   1.590  11.980  0.7235 -1.1245  2.3562
 7828SOL     OW35116   4.458   4.463   5.871  0.2703  0.2356  0.3873
 7828SOL    HW135117   4.380   4.409   5.860  0.2942  0.5592 -1.3680
 7828SOL    HW235118   4.506   4.434   5.949  1.6546 -0.7681 -0.8307
 7829SOL     OW35119   0.195   0.265  12.352  0.6050  0.1212  0.0762
 7829SOL    HW135120   0.159   0.353  12.361 -1.9369 -0.8959 -0.1097
 7829SOL    HW235121   0.261   0.270  12.283  0.2207 -0.0584 -0.3084
 7830SOL     OW35122   0.684   2.871   7.510 -0.6633  0.0099  0.0143
 7830SOL    HW135123   0.695   2.965   7.496  0.2557 -0.0566  0.3068
 7830SOL    HW235124   0.684   2.839   7.419  1.6176  3.9363 -1.3759
 7831SOL     OW35125   0.008   3.900   9.481 -0.0023 -0.0687  1.2318
 7831SOL    HW135126   4.661   3.945   9.484 -0.8946 -1.7168  1.1392
 7831SOL    HW235127   0.036   3.927   9.394  0.4715 -0.6111  1.2178
 7832SOL     OW35128   4.061   3.796   9.839 -0.2724 -0.7511 -0.5001
 7832SOL    HW135129   4.098   3.883   9.851 -1.4533 -0.1965 -0.9678
 7832SOL    HW235130   4.067   3.781   9.745  2.7827 -0.2754 -0.3938
 7833SOL     OW35131   0.569   1.917  11.607 -0.3830  0.1893 -0.0338
 7833SOL    HW135132   0.631   1.944  11.540  1.1055 -0.9397  0.8839
 7833SOL    HW235133   0.625   1.890  11.680  0.5462 -0.9605 -1.1817
 7834SOL     OW35134   1.497   1.895   1.621  0.1768 -0.1312  0.1428
 7834SOL    HW135135   1.512   1.800   1.620 -0.4200 -0.2415  1.3471
 7834SOL    HW235136   1.405   1.904   1.597 -0.8704 -2.1619  3.3052
 7835SOL     OW35137   3.315   2.188  17.014  0.0025  0.2559  0.9031
 7835SOL    HW135138   3.377   2.189  17.087 -1.1246  0.7690  1.8633
 7835SOL    HW235139   3.339   2.107  16.969  2.5240 -0.0336  2.7960
 7836SOL     OW35140   1.914   4.703   2.570 -0.0248  0.0604 -0.1255
 7836SOL    HW135141   1.963   0.045   2.593 -0.2357  0.3923 -0.8188
 7836SOL    HW235142   1.974   4.636   2.602 -0.6410  0.5950  2.1698
 7837SOL     OW35143   1.722   3.061  10.425  0.0139  0.2788 -0.7202
 7837SOL    HW135144   1.661   3.081  10.495  1.0009 -0.7035  0.4100
 7837SOL    HW235145   1.805   3.079  10.470 -0.5828 -1.6672  1.1012
 7838SOL     OW35146   1.187   2.311   0.695 -0.5523  0.1024 -0.2148
 7838SOL    HW135147   1.192   2.342   0.605 -0.3431 -0.0783 -0.2672
 7838SOL    HW235148   1.108   2.354   0.726 -0.7857  0.3160 -1.1148
 7839SOL     OW35149   3.168   4.357  16.217  0.4000  0.1063 -0.2688
 7839SOL    HW135150   3.256   4.345  16.253  1.1389 -0.3599 -2.2534
 7839SOL    HW235151   3.125   4.359  16.303 -0.6232 -0.1104 -0.7806
 7840SOL     OW35152   3.293   4.727   7.695 -0.0714 -0.1697  0.2616
 7840SOL    HW135153   3.356   4.655   7.687  1.7129  1.7330 -2.4554
 7840SOL    HW235154   3.216   4.695   7.648 -1.7126  1.9851  1.5104
 7841SOL     OW35155   2.438   0.071   1.595 -0.2781  0.0389  0.0143
 7841SOL    HW135156   2.414   4.715   1.596  1.7527 -0.4889 -1.9621
 7841SOL    HW235157   2.364   0.107   1.546  0.7904  0.2334 -1.4437
 7842SOL     OW35158   0.680   2.689   7.732  0.2592  0.1029  0.4196
 7842SOL    HW135159   0.768   2.653   7.745  0.2944 -0.5000 -1.5604
 7842SOL    HW235160   0.689   2.746   7.655  1.2192 -0.6261 -0.0066
 7843SOL     OW35161   3.595   2.631   8.974 -0.0143 -0.1310 -0.4944
 7843SOL    HW135162   3.545   2.558   9.011  0.7159  0.7024  2.1615
 7843SOL    HW235163   3.683   2.596   8.980 -0.2675 -0.2960  2.3164
 7844SOL     OW35164   0.162   1.559   4.222  0.4476 -0.0185 -0.1977
 7844SOL    HW135165   0.251   1.525   4.210  0.9158  0.2206  2.5881
 7844SOL    HW235166   0.160   1.621   4.150 -2.3706 -0.4898 -0.5526
 7845SOL     OW35167   3.870   0.582   3.212 -0.0170 -0.2321 -0.2437
 7845SOL    HW135168   3.884   0.635   3.291 -1.7710 -1.3711  0.8413
 7845SOL    HW235169   3.959   0.553   3.194  0.0233  0.8842 -1.8661
 7846SOL     OW35170   4.212   1.856   1.938  0.6632  0.0382  0.1590
 7846SOL    HW135171   4.178   1.909   2.010 -1.1645 -0.3396 -0.4248
 7846SOL    HW235172   4.129   1.833   1.897  1.2041 -0.2517 -0.7628
 7847SOL     OW35173   1.390   4.725  16.255  0.0232 -0.8415  0.6127
 7847SOL    HW135174   1.368   0.067  16.305 -2.4687 -1.2273  0.1253
 7847SOL    HW235175   1.305   4.703  16.218 -0.1289  2.1390 -0.8330
 7848SOL     OW35176   0.551   1.595   4.394  0.6250  0.1968 -0.4225
 7848SOL    HW135177   0.644   1.609   4.411  0.4127 -1.0261  1.6826
 7848SOL    HW235178   0.539   1.633   4.307 -0.0428  3.2113  0.9750
 7849SOL     OW35179   4.453   0.361   8.546  0.2132  0.1008 -0.2952
 7849SOL    HW135180   4.456   0.324   8.635  0.8795 -1.9643 -1.1631
 7849SOL    HW235181   4.544   0.384   8.526  0.6491 -1.4024 -0.0962
 7850SOL     OW35182   3.338   4.158   2.126  0.3006 -0.3040  0.1541
 7850SOL    HW135183   3.328   4.123   2.215  2.7700  1.4903  1.1413
 7850SOL    HW235184   3.307   4.082   2.078 -1.7765 -0.1520  1.2418
 7851SOL     OW35185   1.224   3.112   1.607 -0.3496 -0.0498  0.1810
 7851SOL    HW135186   1.249   3.042   1.547  1.8967  0.6010  0.3779
 7851SOL    HW235187   1.228   3.197   1.563 -2.1707 -1.1406 -2.0818
 7852SOL     OW35188   0.720   3.490   7.137  0.7813  0.5236 -0.1143
 7852SOL    HW135189   0.739   3.409   7.089  1.0639  1.2528 -1.2384
 7852SOL    HW235190   0.802   3.534   7.116  1.2088 -0.6259 -0.8885
 7853SOL     OW35191   1.797   1.983   8.992  0.3686 -0.3824 -0.6078
 7853SOL    HW135192   1.889   1.969   9.012  0.6603  0.7344 -1.1396
 7853SOL    HW235193   1.774   2.022   9.076  1.0594  1.7152 -1.3826
 7854SOL     OW35194   0.814   0.231  13.190 -0.5800 -0.1962  0.0151
 7854SOL    HW135195   0.865   0.243  13.270  1.5416 -0.8109 -1.2381
 7854SOL    HW235196   0.759   0.155  13.210  0.9404 -1.0134  1.1275
 7855SOL     OW35197   4.625   3.894   7.391 -0.0598 -0.4592 -0.1187
 7855SOL    HW135198   4.628   3.833   7.317 -1.3740 -1.1665  0.4028
 7855SOL    HW235199   4.600   3.977   7.350 -1.9136 -1.0345 -0.1810
 7856SOL     OW35200   2.188   2.290   8.541  0.4783 -0.2679 -0.0203
 7856SOL    HW135201   2.188   2.261   8.632  0.5587 -0.6144 -0.1313
 7856SOL    HW235202   2.199   2.383   8.561  0.8327 -0.3641  0.2330
 7857SOL     OW35203   3.211   0.968   3.157 -0.0497 -0.0220  0.2186
 7857SOL    HW135204   3.135   1.016   3.188  1.0013  0.7275  1.6385
 7857SOL    HW235205   3.274   1.036   3.133  0.1931 -1.2200 -2.4770
 7858SOL     OW35206   3.933   1.047   7.497  0.2890  0.0290  0.1102
 7858SOL    HW135207   3.927   1.124   7.441 -0.7924  0.8880  1.4136
 7858SOL    HW235208   4.007   1.072   7.551 -0.0450  2.0444 -0.3670
 7859SOL     OW35209   3.622   3.726   7.930  0.2342 -0.0958  0.6194
 7859SOL    HW135210   3.695   3.787   7.924  0.2049 -0.0010  1.2458
 7859SOL    HW235211   3.642   3.652   7.873 -1.0116 -0.7344  0.9977
 7860SOL     OW35212   3.085   1.286   5.344  0.4321 -0.9316  0.0578
 7860SOL    HW135213   3.023   1.309   5.413  1.6017 -3.2215  1.8730
 7860SOL    HW235214   3.139   1.219   5.388 -1.0655 -1.6138  0.8565
 7861SOL     OW35215   3.809   0.230   4.906 -0.6164  0.1872 -0.1664
 7861SOL    HW135216   3.835   0.147   4.945  1.7547  0.4904 -1.0981
 7861SOL    HW235217   3.788   0.283   4.983  2.1183 -0.1005  0.7726
 7862SOL     OW35218   1.630   0.248   0.604 -0.1948 -0.4183 -0.1116
 7862SOL    HW135219   1.662   0.161   0.583  1.2816  0.7955 -2.7933
 7862SOL    HW235220   1.577   0.262   0.526  0.5003  0.2476 -0.4519
 7863SOL     OW35221   3.442   4.541   4.103 -0.2087  0.3912  0.5970
 7863SOL    HW135222   3.390   4.468   4.070  1.1212  0.0179 -0.6593
 7863SOL    HW235223   3.371   4.598   4.132 -0.8643 -0.5128  0.7514
 7864SOL     OW35224   3.094   1.059   9.448  0.3561 -0.0812 -0.0568
 7864SOL    HW135225   3.029   1.061   9.518  1.2207 -0.8674  0.7601
 7864SOL    HW235226   3.098   1.155   9.444 -0.8053 -0.0055  0.5230
 7865SOL     OW35227   1.802   2.445  16.941 -0.5453 -0.1953 -0.3271
 7865SOL    HW135228   1.894   2.435  16.914 -0.6812  1.5166 -1.4137
 7865SOL    HW235229   1.766   2.526  16.906 -0.5920 -0.7887 -1.6405
 7866SOL     OW35230   4.164   1.158  16.146  0.0220 -0.0426 -0.1160
 7866SOL    HW135231   4.222   1.169  16.070  0.9466 -0.3293  0.5467
 7866SOL    HW235232   4.185   1.239  16.192  1.3701 -0.3077 -0.2469
 7867SOL     OW35233   2.291   2.273   1.450 -0.0051  0.0004 -0.1162
 7867SOL    HW135234   2.362   2.298   1.391  1.1975 -6.1664 -1.3590
 7867SOL    HW235235   2.272   2.357   1.492  1.8658  0.1016  0.5183
 7868SOL     OW35236   2.810   0.864   5.955 -0.0841  0.6664  0.1589
 7868SOL    HW135237   2.795   0.770   5.952  1.0493  0.4070  2.4394
 7868SOL    HW235238   2.839   0.892   5.868 -0.3939  1.0975  0.1951
 7869SOL     OW35239   3.686   1.780   4.495  0.2408 -0.0871 -0.5210
 7869SOL    HW135240   3.651   1.692   4.512  2.0349 -0.0821  3.3208
 7869SOL    HW235241   3.779   1.766   4.514  0.3681  0.7377 -0.5180
 7870SOL     OW35242   1.523   1.377   9.998 -0.4997  0.4209 -0.6490
 7870SOL    HW135243   1.467   1.451   9.974 -0.1881  0.9392  0.2400
 7870SOL    HW235244   1.609   1.395   9.959 -1.0694  1.8699 -1.2604
 7871SOL     OW35245   3.651   4.575   0.782  0.3798 -0.5311 -0.6376
 7871SOL    HW135246   3.568   4.555   0.826  0.1964  0.8538 -0.3298
 7871SOL    HW235247   3.614   4.652   0.738  0.1833  0.1466  0.6952
 7872SOL     OW35248   2.825   1.748   8.868  0.1876  0.4847 -0.0867
 7872SOL    HW135249   2.754   1.683   8.870 -1.4550  2.2760  0.4953
 7872SOL    HW235250   2.793   1.815   8.929  1.3421  0.6100  0.3689
 7873SOL     OW35251   3.841   0.441  14.590  0.1291  0.1267 -0.2482
 7873SOL    HW135252   3.881   0.406  14.670 -1.7482 -2.0140 -0.2359
 7873SOL    HW235253   3.906   0.506  14.561 -0.5274  1.2520  0.8283
 7874SOL     OW35254   1.834   4.693   1.057  0.1188  0.6220 -0.2519
 7874SOL    HW135255   1.776   0.031   1.052 -0.3590  0.3240  0.7372
 7874SOL    HW235256   1.918   0.001   1.056  0.2881  0.2780 -1.3735
 7875SOL     OW35257   3.711   2.997   1.418 -0.3540  0.1302 -0.5878
 7875SOL    HW135258   3.693   2.912   1.377  1.8377 -1.5559  1.9601
 7875SOL    HW235259   3.657   3.049   1.359  0.6973  1.5417 -0.2974
 7876SOL     OW35260   3.921   0.214   2.480  0.3408  0.4215 -0.0484
 7876SOL    HW135261   3.921   0.274   2.555 -0.0158 -1.2552  1.2680
 7876SOL    HW235262   4.011   0.183   2.486  0.9960  2.1704 -0.6906
 7877SOL     OW35263   0.467   3.800   7.446 -0.2161  0.4058 -0.1169
 7877SOL    HW135264   0.525   3.864   7.407 -1.4958  1.1798 -0.7495
 7877SOL    HW235265   0.497   3.725   7.394 -1.7116 -1.4885  1.7707
 7878SOL     OW35266   0.637   0.682   8.528  0.0498  0.4946  0.0781
 7878SOL    HW135267   0.677   0.753   8.578  0.5597  1.0841 -1.1684
 7878SOL    HW235268   0.709   0.619   8.532 -0.8899 -0.5450  0.8030
 7879SOL     OW35269   1.699   4.488   7.051  0.0417  0.6743  0.1227
 7879SOL    HW135270   1.749   4.560   7.011  0.1392 -0.7357 -2.2875
 7879SOL    HW235271   1.635   4.463   6.985  0.0523  0.0870  0.3403
 7880SOL     OW35272   1.208   3.639   1.079 -0.1056  0.5546 -0.6165
 7880SOL    HW135273   1.237   3.645   0.987  0.4402 -0.3844 -0.5057
 7880SOL    HW235274   1.255   3.567   1.120 -1.3028  0.0152 -0.2134
 7881SOL     OW35275   4.521   3.619   8.746  0.3673 -0.0181 -0.0136
 7881SOL    HW135276   4.562   3.541   8.710 -0.3596 -0.7029  0.6419
 7881SOL    HW235277   4.595   3.680   8.746  0.1308  0.2657  0.0966
 7882SOL     OW35278   3.419   1.843   2.655 -0.4614 -0.7403  0.3385
 7882SOL    HW135279   3.506   1.883   2.656 -1.6051  1.8142 -2.2499
 7882SOL    HW235280   3.366   1.894   2.716  0.2383 -1.1464  1.2844
 7883SOL     OW35281   0.114   4.651   3.349  0.2452 -0.3343 -0.1331
 7883SOL    HW135282   0.164   4.720   3.306 -1.7951  1.0766 -0.2665
 7883SOL    HW235283   0.183   4.585   3.341  1.6905  1.1578  0.0321
 7884SOL     OW35284   2.431   3.532   4.914  0.1745 -0.1344 -0.1336
 7884SOL    HW135285   2.517   3.564   4.887  0.0695 -0.4041 -0.7764
 7884SOL    HW235286   2.385   3.614   4.930 -0.3860 -0.9402  2.3580
 7885SOL     OW35287   3.277   2.038   3.110 -0.3750  0.4635 -0.0643
 7885SOL    HW135288   3.340   2.087   3.057 -1.0183 -1.4021 -2.5524
 7885SOL    HW235289   3.204   2.098   3.120 -2.0550 -1.3360 -1.5616
 7886SOL     OW35290   0.193   0.839   6.715 -0.3876 -0.1694 -0.1181
 7886SOL    HW135291   0.151   0.924   6.722 -0.3392 -0.2462  1.2504
 7886SOL    HW235292   0.131   0.790   6.769  0.6806  1.9913  3.0628
 7887SOL     OW35293   0.909   0.658   8.741 -0.0575 -0.2600  0.5707
 7887SOL    HW135294   0.900   0.643   8.647 -2.0369 -1.2012  0.9295
 7887SOL    HW235295   0.996   0.619   8.751  0.3900  0.1851 -1.6001
 7888SOL     OW35296   2.745   0.762  15.142 -0.1516  0.2484 -0.3129
 7888SOL    HW135297   2.802   0.702  15.190 -0.4108 -0.2398 -0.6236
 7888SOL    HW235298   2.751   0.837  15.201  1.2347  2.0601 -2.7471
 7889SOL     OW35299   0.038   4.473  16.932 -0.1255  0.2572 -0.4254
 7889SOL    HW135300   4.729   4.424  16.864 -2.9995  2.6895 -0.2501
 7889SOL    HW235301   4.705   4.499  16.992  0.5243  0.6765  0.1460
 7890SOL     OW35302   1.179   0.206  16.449 -0.2819  0.8607 -0.1063
 7890SOL    HW135303   1.273   0.211  16.466 -0.2491 -0.4874  0.1101
 7890SOL    HW235304   1.163   0.271  16.381 -1.1413  0.1221 -0.6129
 7891SOL     OW35305   1.505   3.449   7.836  0.1810  0.6725  0.8033
 7891SOL    HW135306   1.594   3.483   7.835 -0.0043  1.1341  0.1358
 7891SOL    HW235307   1.464   3.471   7.920 -1.2232  2.2246 -0.2828
 7892SOL     OW35308   4.141   1.573   2.298 -0.0831  0.1533 -0.1064
 7892SOL    HW135309   4.224   1.620   2.290 -0.4172  0.6460 -0.6285
 7892SOL    HW235310   4.090   1.637   2.249  0.4183 -0.0004 -0.8260
 7893SOL     OW35311   3.363   2.932   1.355  0.8341 -0.2283 -0.4158
 7893SOL    HW135312   3.394   3.006   1.303 -1.3598  1.6758  0.9929
 7893SOL    HW235313   3.298   2.900   1.293 -1.6926 -3.0730  3.7099
 7894SOL     OW35314   1.863   2.309  12.905  0.0784 -0.1212  0.1808
 7894SOL    HW135315   1.789   2.331  12.848  1.0042 -0.8343 -1.2943
 7894SOL    HW235316   1.837   2.332  12.994  0.6628 -0.9060  0.5506
 7895SOL     OW35317   2.138   4.410  13.752  0.0591  0.4599 -0.4988
 7895SOL    HW135318   2.130   4.315  13.762  0.7923  0.5312  0.7762
 7895SOL    HW235319   2.045   4.434  13.760 -0.0276 -0.3629  0.9738
 7896SOL     OW35320   1.353   3.584   3.922  0.6413  0.1164 -0.6565
 7896SOL    HW135321   1.371   3.641   3.847 -1.3665 -0.4793 -1.5745
 7896SOL    HW235322   1.295   3.518   3.886  1.3082 -0.9847  0.2910
 7897SOL     OW35323   4.212   4.322   5.204 -0.7405  0.1377  0.2135
 7897SOL    HW135324   4.198   4.388   5.271 -1.5485 -1.5837  1.7473
 7897SOL    HW235325   4.306   4.307   5.196 -0.6043  2.2971 -2.1991
 7898SOL     OW35326   0.542   3.328  14.495 -0.1061  0.0481 -0.0885
 7898SOL    HW135327   0.567   3.417  14.522 -0.3000 -0.0972  0.5737
 7898SOL    HW235328   0.455   3.323  14.536 -0.1604 -0.2704 -0.2432
 7899SOL     OW35329   0.445   2.812   8.098  0.3229  0.1160 -0.3235
 7899SOL    HW135330   0.394   2.873   8.151  1.7696  1.6896 -0.7669
 7899SOL    HW235331   0.525   2.800   8.149 -0.7074 -0.6827  1.1469
 7900SOL     OW35332   1.156   1.172   3.914  0.4279  0.1100  0.2093
 7900SOL    HW135333   1.144   1.096   3.972 -0.0242 -0.0512 -0.0950
 7900SOL    HW235334   1.247   1.163   3.886  0.4861  0.1014  0.3968
 7901SOL     OW35335   0.477   0.243   5.592  0.3398  0.1140  0.0186
 7901SOL    HW135336   0.559   0.283   5.622  0.1432  1.7086 -1.5985
 7901SOL    HW235337   0.406   0.293   5.630  0.5633 -0.7057  1.5373
 7902SOL     OW35338   1.658   1.328   8.091 -0.5974  0.7819  0.4578
 7902SOL    HW135339   1.569   1.319   8.124 -1.6642  0.8411 -2.4102
 7902SOL    HW235340   1.697   1.403   8.136 -0.5770  0.4117  1.0584
 7903SOL     OW35341   0.683   4.527   3.354  0.0766 -0.3666 -0.2651
 7903SOL    HW135342   0.762   4.472   3.357 -0.8956 -1.7786 -0.2808
 7903SOL    HW235343   0.718   4.600   3.303  0.3935 -1.0121 -0.9875
 7904SOL     OW35344   4.411   2.614   2.228 -0.2656  0.3582 -0.4977
 7904SOL    HW135345   4.457   2.599   2.311 -2.9785  1.5238  1.2195
 7904SOL    HW235346   4.469   2.572   2.165  1.2928  4.7348 -1.9769
 7905SOL     OW35347   2.882   4.726   6.008 -0.6648 -0.7202  0.3380
 7905SOL    HW135348   2.910   4.705   5.918 -0.4568  2.1086 -0.2565
 7905SOL    HW235349   2.966   0.014   6.046  0.9040  0.7994 -4.1213
 7906SOL     OW35350   3.550   2.500   7.759 -0.3410  0.3485  0.1341
 7906SOL    HW135351   3.566   2.531   7.670 -2.8059  1.4869  0.0944
 7906SOL    HW235352   3.619   2.540   7.812  0.6350 -2.1701  0.7527
 7907SOL     OW35353   4.687   2.288   7.122 -0.1510  0.4945  0.0565
 7907SOL    HW135354   0.041   2.279   7.148 -0.6022  0.1606  1.5550
 7907SOL    HW235355   4.683   2.276   7.028 -0.4604  1.3814 -0.0492
 7908SOL     OW35356   3.282   0.872   4.939  0.5205 -0.0379  0.2742
 7908SOL    HW135357   3.201   0.831   4.969 -1.0315  1.9803 -1.2238
 7908SOL    HW235358   3.346   0.803   4.955 -2.4050 -2.7513  0.2980
 7909SOL     OW35359   0.262   3.969   2.571 -0.3098 -0.6499  0.1692
 7909SOL    HW135360   0.329   3.919   2.618 -0.1152 -0.4580  0.0982
 7909SOL    HW235361   0.288   3.972   2.479 -0.1871 -1.3457  0.1819
 7910SOL     OW35362   0.247   3.077  16.246  0.3613 -0.5203  0.3901
 7910SOL    HW135363   0.180   3.028  16.293  1.2246 -2.1761 -0.0688
 7910SOL    HW235364   0.191   3.145  16.210 -0.2106 -1.5674 -0.7149
 7911SOL     OW35365   3.699   3.153   2.177 -0.5298  0.1384  0.5083
 7911SOL    HW135366   3.630   3.196   2.227  0.6764  1.9602  0.5840
 7911SOL    HW235367   3.702   3.224   2.113 -1.9534  0.5029  0.8471
 7912SOL     OW35368   2.600   2.753   2.393  0.8324 -0.0094  0.1519
 7912SOL    HW135369   2.565   2.715   2.312  2.2188  1.6570 -1.2390
 7912SOL    HW235370   2.666   2.688   2.417  0.3681 -0.3933  0.3881
 7913SOL     OW35371   3.927   3.791   7.202 -0.1155  0.0097  0.2372
 7913SOL    HW135372   3.898   3.817   7.114  0.4820  0.5475  0.1971
 7913SOL    HW235373   4.017   3.766   7.180  0.3733  2.4805 -0.6044
 7914SOL     OW35374   0.043   3.520   8.914  0.7154  0.2676  0.1323
 7914SOL    HW135375   0.075   3.436   8.880 -0.2165 -0.8515  1.9830
 7914SOL    HW235376   0.027   3.494   9.005 -0.5371  5.4147  1.3547
 7915SOL     OW35377   2.215   1.852   4.648 -0.0195 -0.3479 -0.4276
 7915SOL    HW135378   2.161   1.786   4.605  0.7858 -0.1880 -1.7087
 7915SOL    HW235379   2.196   1.843   4.741  0.1829  0.9793 -0.2563
 7916SOL     OW35380   2.497   3.349   1.275  0.0916 -0.4375  0.0021
 7916SOL    HW135381   2.457   3.434   1.255  1.3123  0.4034  1.1256
 7916SOL    HW235382   2.583   3.385   1.254  0.8529 -2.9400 -1.0827
 7917SOL     OW35383   3.526   4.659   2.759  0.1884  0.3061 -0.1994
 7917SOL    HW135384   3.519   0.016   2.741 -1.1055  0.1780 -0.3664
 7917SOL    HW235385   3.604   4.625   2.716  0.5670  2.4256 -1.2098
 7918SOL     OW35386   0.318   2.334  13.765 -0.3817 -0.1568 -0.4936
 7918SOL    HW135387   0.385   2.384  13.812 -1.6153  1.7457 -0.7549
 7918SOL    HW235388   0.246   2.393  13.788  1.0277  1.5057 -0.3543
 7919SOL     OW35389   0.287   1.530   8.806 -0.3595 -0.2581 -0.0339
 7919SOL    HW135390   0.246   1.615   8.821  0.5139  0.1738 -0.1017
 7919SOL    HW235391   0.300   1.500   8.896 -0.3693 -2.8072 -0.8822
 7920SOL     OW35392   4.247   3.609   3.258  0.7213  0.1162 -0.2420
 7920SOL    HW135393   4.288   3.522   3.255  1.6012  0.5096  0.2363
 7920SOL    HW235394   4.318   3.654   3.211  1.6323 -1.1840 -0.1305
 7921SOL     OW35395   3.466   2.651   6.776  0.0572  0.1490 -0.0567
 7921SOL    HW135396   3.479   2.723   6.714 -1.0284  0.4920  0.1297
 7921SOL    HW235397   3.532   2.672   6.842  0.2190 -0.7298  0.0587
 7922SOL     OW35398   1.598   2.367   2.485  1.1100  0.3715 -0.0698
 7922SOL    HW135399   1.597   2.276   2.514 -0.4090  0.1983 -0.6817
 7922SOL    HW235400   1.556   2.357   2.400  0.2043 -1.7314  0.6220
 7923SOL     OW35401   2.596   0.441   2.528 -0.2107 -0.1370 -0.5542
 7923SOL    HW135402   2.564   0.509   2.587  2.0343  0.0094  0.5088
 7923SOL    HW235403   2.557   0.358   2.556 -2.7925  1.3489  0.2902
 7924SOL     OW35404   0.936   3.106   4.376  0.0181 -0.3228 -0.0946
 7924SOL    HW135405   0.852   3.138   4.409  0.2935 -0.1630  0.4499
 7924SOL    HW235406   0.954   3.035   4.438 -0.7801  0.1141  0.6364
 7925SOL     OW35407   4.456   3.738   7.581  0.6112  0.6026  0.0204
 7925SOL    HW135408   4.523   3.802   7.555  1.6264 -0.6142 -0.3459
 7925SOL    HW235409   4.377   3.779   7.546 -0.2016 -0.0782  1.0470
 7926SOL     OW35410   0.590   0.292  10.723  0.0618  0.4582  0.1606
 7926SOL    HW135411   0.529   0.272  10.652 -0.7236 -1.3326  1.3498
 7926SOL    HW235412   0.581   0.387  10.726  0.0476  0.4117  1.7913
 7927SOL     OW35413   1.919   3.779   6.508  0.3845  0.2637 -0.6080
 7927SOL    HW135414   1.884   3.823   6.430  1.5321  1.8463 -0.2170
 7927SOL    HW235415   1.931   3.694   6.465  1.8439 -0.9138  2.0987
 7928SOL     OW35416   2.903   4.170   1.501 -0.0764  0.0429  0.5501
 7928SOL    HW135417   2.919   4.100   1.563 -0.4610 -0.8739 -0.3831
 7928SOL    HW235418   2.847   4.121   1.441 -0.2374  0.2627  0.5188
 7929SOL     OW35419   2.762   2.247   6.105 -0.3285  0.0403 -0.1142
 7929SOL    HW135420   2.783   2.184   6.037 -1.2153 -1.4201  0.9694
 7929SOL    HW235421   2.671   2.223   6.121 -0.1979 -0.6332 -0.4077
 7930SOL     OW35422   3.515   1.509   0.116 -0.3614  0.5747 -0.0758
 7930SOL    HW135423   3.429   1.500   0.075 -1.3442 -1.4560  2.4051
 7930SOL    HW235424   3.569   1.529   0.039  1.4087 -3.2499  0.1788
 7931SOL     OW35425   1.672   3.709   8.867 -0.2157  0.4714  0.0028
 7931SOL    HW135426   1.595   3.758   8.838  0.2489  1.3384  0.2524
 7931SOL    HW235427   1.707   3.776   8.925  1.1692 -0.4160  0.1797
 7932SOL     OW35428   2.855   2.597   6.733  0.5346  0.6281  0.1017
 7932SOL    HW135429   2.781   2.537   6.722  0.1789  0.9320  0.8316
 7932SOL    HW235430   2.810   2.677   6.760 -0.0703  0.2094  0.3254
 7933SOL     OW35431   2.952   1.628   7.054 -0.2987 -0.1729 -0.1272
 7933SOL    HW135432   2.948   1.657   6.963  1.2514  1.4039  0.3008
 7933SOL    HW235433   3.040   1.648   7.085 -1.4659  1.1239  2.4262
 7934SOL     OW35434   1.855   0.655   5.676  0.1181  0.3457 -0.2053
 7934SOL    HW135435   1.844   0.657   5.771 -0.1411  0.3256 -0.2336
 7934SOL    HW235436   1.773   0.613   5.650  1.2025 -1.4140 -0.7728
 7935SOL     OW35437   3.491   1.798   6.448 -0.3800 -0.4180  0.1433
 7935SOL    HW135438   3.425   1.864   6.470  1.1631  0.8784  0.9168
 7935SOL    HW235439   3.435   1.728   6.415 -2.2809  1.3712 -0.4348
 7936SOL     OW35440   0.018   4.132  12.322 -0.3461 -0.0048 -0.2319
 7936SOL    HW135441   0.087   4.090  12.374 -2.2938 -0.3439  2.0694
 7936SOL    HW235442   4.677   4.103  12.368 -0.6726 -1.6795 -1.8832
 7937SOL     OW35443   3.912   1.594   3.407  0.1396  0.2985  0.6542
 7937SOL    HW135444   3.875   1.573   3.321 -1.8617  0.6396  1.4083
 7937SOL    HW235445   3.847   1.555   3.467 -0.9154  1.4933  0.3031
 7938SOL     OW35446   4.636   1.144   0.431 -0.1283  0.2691 -0.6414
 7938SOL    HW135447   4.682   1.212   0.478 -1.0720 -0.4745  1.3790
 7938SOL    HW235448   4.699   1.150   0.360 -0.7507 -0.0932 -1.2274
 7939SOL     OW35449   4.421   0.227  11.117  0.2039  0.0807 -0.0977
 7939SOL    HW135450   4.464   0.224  11.032  0.3299 -1.4037  0.0256
 7939SOL    HW235451   4.495   0.209  11.174  0.4140  0.8445 -0.1231
 7940SOL     OW35452   1.014   1.489  10.498  0.7255 -0.0406  0.0912
 7940SOL    HW135453   1.045   1.532  10.577  0.4985  1.1839 -0.4913
 7940SOL    HW235454   1.074   1.414  10.493  0.8512  0.0816 -0.2289
 7941SOL     OW35455   1.336   3.138   2.722 -0.3044 -0.3216  0.5922
 7941SOL    HW135456   1.345   3.193   2.644 -0.0728 -0.2222  0.6892
 7941SOL    HW235457   1.253   3.096   2.699 -0.8207  1.1586 -0.2348
 7942SOL     OW35458   4.216   3.277   2.193 -0.3138 -0.4580  0.8600
 7942SOL    HW135459   4.282   3.339   2.224 -0.4069 -0.1591  0.4568
 7942SOL    HW235460   4.263   3.241   2.117  2.8402  1.9996  1.6497
 7943SOL     OW35461   3.639   0.563   5.931  0.6408 -0.3595 -0.0284
 7943SOL    HW135462   3.637   0.619   6.009  1.4058 -1.2273  0.6140
 7943SOL    HW235463   3.621   0.628   5.863 -1.0389  0.5779  1.3135
 7944SOL     OW35464   2.909   0.675   6.840 -0.4861  0.4787 -0.1687
 7944SOL    HW135465   2.829   0.719   6.868 -0.1003  0.3136  1.1981
 7944SOL    HW235466   2.972   0.747   6.837  0.6251 -0.5024 -0.3639
 7945SOL     OW35467   1.949   0.598   2.261  0.4809 -0.5872 -0.1904
 7945SOL    HW135468   1.885   0.538   2.223  1.2620 -1.0192 -0.8239
 7945SOL    HW235469   2.032   0.556   2.241 -0.3999 -2.0053 -0.8930
 7946SOL     OW35470   2.596   1.475   3.824  0.2805  0.1629  0.7312
 7946SOL    HW135471   2.644   1.410   3.773 -0.1782  1.6430 -1.5747
 7946SOL    HW235472   2.502   1.455   3.824  0.3443 -0.1304  0.4240
 7947SOL     OW35473   2.662   0.705  16.119  0.0903  0.1681 -0.2892
 7947SOL    HW135474   2.645   0.613  16.138 -1.1833  0.7961  1.5520
 7947SOL    HW235475   2.585   0.757  16.141  0.8061  1.2445 -0.3591
 7948SOL     OW35476   0.709   4.421  16.725 -0.0823  0.2526 -0.8897
 7948SOL    HW135477   0.649   4.436  16.798 -0.4313 -0.2778 -1.0701
 7948SOL    HW235478   0.784   4.386  16.774  0.0476  0.5749 -0.8549
 7949SOL     OW35479   1.919   1.316   8.312 -0.3161 -0.3544 -0.0666
 7949SOL    HW135480   1.867   1.239   8.287 -1.1454  0.4250 -0.7401
 7949SOL    HW235481   1.876   1.356   8.387 -0.4390  3.2420 -2.0440
 7950SOL     OW35482   2.245   2.082   1.182  0.2150  0.1646  0.3118
 7950SOL    HW135483   2.152   2.087   1.204 -0.3309  0.0533 -1.9498
 7950SOL    HW235484   2.271   2.040   1.264  0.0274 -0.6182 -0.0368
 7951SOL     OW35485   1.621   2.382   3.914 -0.0708 -0.1779  0.0534
 7951SOL    HW135486   1.589   2.373   4.004  0.7089  0.8523  0.4270
 7951SOL    HW235487   1.583   2.306   3.870 -1.6709  1.3609 -1.2317
 7952SOL     OW35488   1.120   2.540  12.016  0.1502 -0.4160 -0.7061
 7952SOL    HW135489   1.133   2.473  11.949 -1.3040 -0.9436 -0.4726
 7952SOL    HW235490   1.074   2.493  12.085  0.1543  0.9368  0.2173
 7953SOL     OW35491   3.587   4.395   6.640  0.5052 -0.9664 -1.1075
 7953SOL    HW135492   3.653   4.459   6.611  2.3888 -2.6418 -0.5184
 7953SOL    HW235493   3.643   4.332   6.686  0.9050  0.1680 -0.0291
 7954SOL     OW35494   0.925   2.532   9.754 -0.0652  0.2683  0.0617
 7954SOL    HW135495   0.870   2.585   9.812 -1.0571 -1.2394  0.5204
 7954SOL    HW235496   0.923   2.446   9.796  2.1208 -0.4022 -1.2194
 7955SOL     OW35497   2.108   2.053  16.953  0.0564  0.5121 -0.0363
 7955SOL    HW135498   2.016   2.028  16.951  0.1560  0.2242 -0.7965
 7955SOL    HW235499   2.159   1.980  16.917  0.4349  1.2115 -0.9056
 7956SOL     OW35500   2.490   1.085   5.243  0.2675  0.3772  0.2300
 7956SOL    HW135501   2.503   1.045   5.157 -0.7558 -1.8405  1.1140
 7956SOL    HW235502   2.574   1.053   5.275  0.9013  0.3145 -1.4710
 7957SOL     OW35503   2.948   4.505   6.678  0.4549  0.0215 -0.1042
 7957SOL    HW135504   2.860   4.482   6.708  0.0664  1.2942 -0.2657
 7957SOL    HW235505   2.989   4.507   6.764  0.9674  1.2763 -0.3905
 7958SOL     OW35506   1.214   0.241   3.569 -0.1484  0.1199  0.6234
 7958SOL    HW135507   1.231   0.201   3.654 -1.8313  1.3279  1.5515
 7958SOL    HW235508   1.197   0.333   3.590 -0.4258 -0.1257  1.4716
 7959SOL     OW35509   4.412   2.191   8.887 -0.0660  0.1428  0.2226
 7959SOL    HW135510   4.363   2.228   8.961  1.6323 -0.9613  1.8865
 7959SOL    HW235511   4.367   2.107   8.877 -0.3773  0.4772 -1.1635
 7960SOL     OW35512   0.229   1.873   5.453 -0.3193  0.4983  0.5436
 7960SOL    HW135513   0.299   1.849   5.391  0.3517 -3.1553  2.7619
 7960SOL    HW235514   0.262   1.953   5.494  0.1864  0.1411  0.8402
 7961SOL     OW35515   4.469   0.857   7.519  0.1979  0.2583  0.0684
 7961SOL    HW135516   4.530   0.889   7.585  1.8874 -0.1380 -1.2963
 7961SOL    HW235517   4.465   0.768   7.555 -0.4871  0.1302 -0.3081
 7962SOL     OW35518   2.574   0.353   5.484 -0.2676  0.1476  1.1421
 7962SOL    HW135519   2.657   0.364   5.438 -0.2862  0.1134  1.1005
 7962SOL    HW235520   2.512   0.312   5.422 -0.1963 -0.9351  1.7791
 7963SOL     OW35521   1.925   3.347  17.220 -0.0940 -0.4396  0.0294
 7963SOL    HW135522   1.988   3.398  17.169 -0.3976  0.9604  1.0675
 7963SOL    HW235523   1.927   3.400  17.299  0.7214 -3.4507  2.0447
 7964SOL     OW35524   1.652   0.568   9.064  0.1290 -0.0159  0.0086
 7964SOL    HW135525   1.669   0.534   8.976 -1.7047 -0.1886 -0.2778
 7964SOL    HW235526   1.559   0.546   9.064 -0.0075  0.5630  0.5182
 7965SOL     OW35527   0.512   0.816   3.144  0.1952  0.0969  0.4617
 7965SOL    HW135528   0.432   0.828   3.092  0.5890  0.5935 -0.0259
 7965SOL    HW235529   0.530   0.908   3.162 -0.9004  0.5160 -0.5460
 7966SOL     OW35530   0.480   0.666   5.164  0.1356  0.0114 -0.3712
 7966SOL    HW135531   0.535   0.612   5.220 -0.6973  0.0303  0.4560
 7966SOL    HW235532   0.422   0.696   5.234  1.9484 -2.5341  2.1828
 7967SOL     OW35533   4.227   3.641  11.292  0.0978  0.1010 -0.0221
 7967SOL    HW135534   4.253   3.589  11.215  1.6808  1.2810 -0.2890
 7967SOL    HW235535   4.315   3.651  11.328 -0.0659 -0.7533  0.6111
 7968SOL     OW35536   2.874   2.854   4.957  0.5082  0.9105  0.1701
 7968SOL    HW135537   2.969   2.842   4.951 -0.2098 -4.1739 -0.9827
 7968SOL    HW235538   2.873   2.868   5.052 -0.1062  0.7582  0.1844
 7969SOL     OW35539   1.845   0.778   5.322  0.0065 -0.0154 -0.9010
 7969SOL    HW135540   1.849   0.874   5.326  1.9153 -0.0362 -2.1205
 7969SOL    HW235541   1.916   0.757   5.382  2.2534  0.2740 -3.4902
 7970SOL     OW35542   4.085   3.248   6.890  0.1997 -0.5920  0.4553
 7970SOL    HW135543   4.115   3.326   6.844  0.5187 -0.1854  1.3503
 7970SOL    HW235544   4.020   3.280   6.952  1.1312 -1.0662  1.6755
 7971SOL     OW35545   1.928   1.033   6.789 -0.6731  0.2770 -0.0697
 7971SOL    HW135546   1.983   1.085   6.730 -3.4316  1.5788 -1.5071
 7971SOL    HW235547   1.864   1.005   6.723  1.0075 -2.3794 -0.5571
 7972SOL     OW35548   0.291   2.840   2.469  0.0942 -0.3037 -0.4667
 7972SOL    HW135549   0.288   2.906   2.538 -1.6929  1.3570 -2.1071
 7972SOL    HW235550   0.380   2.806   2.474 -0.3108 -1.4969 -1.3381
 7973SOL     OW35551   3.689   1.704   9.546  0.4722  0.5703  0.6118
 7973SOL    HW135552   3.714   1.770   9.482  2.0204  0.3519  1.0042
 7973SOL    HW235553   3.750   1.718   9.618  0.8242 -2.8168  0.9756
 7974SOL     OW35554   1.234   0.414   9.290  0.4410  0.7834 -0.4957
 7974SOL    HW135555   1.153   0.399   9.339  0.6724 -2.3115 -1.0512
 7974SOL    HW235556   1.284   0.335   9.309 -0.4683  0.0545 -1.0856
 7975SOL     OW35557   0.732   2.746  14.946 -0.8392 -0.6617 -0.7038
 7975SOL    HW135558   0.727   2.830  14.900 -0.2111  0.6028  1.5390
 7975SOL    HW235559   0.670   2.765  15.017 -0.6387 -1.8642 -0.2115
 7976SOL     OW35560   4.702   4.321   5.357  0.4536 -0.0825 -0.0952
 7976SOL    HW135561   0.013   4.255   5.407  0.2293  0.2887  0.6222
 7976SOL    HW235562   4.691   4.389   5.424 -0.9693  0.2533 -0.6731
 7977SOL     OW35563   3.980   1.395  17.299 -0.2001  0.0341  0.3311
 7977SOL    HW135564   3.892   1.413  17.332 -0.5380  1.5641 -1.4176
 7977SOL    HW235565   4.006   1.311  17.339  0.5983  0.1610  0.0904
 7978SOL     OW35566   4.381   4.613  15.995 -0.0892 -0.2075  0.2096
 7978SOL    HW135567   4.474   4.630  15.978 -0.4928 -0.0537 -1.8160
 7978SOL    HW235568   4.370   4.657  16.079  2.1319  1.6906 -0.4855
 7979SOL     OW35569   4.340   2.970   8.865 -0.0572  0.3447  0.2040
 7979SOL    HW135570   4.406   3.036   8.846  0.2516 -0.3342 -1.0823
 7979SOL    HW235571   4.390   2.891   8.842  0.5265  1.1136 -1.1650
 7980SOL     OW35572   0.416   2.776   1.623 -0.8848 -0.2519  0.1339
 7980SOL    HW135573   0.330   2.766   1.664 -1.1855 -1.7329 -0.8590
 7980SOL    HW235574   0.444   2.865   1.645 -0.0204 -0.1693 -1.3198
 7981SOL     OW35575   3.206   1.099   2.763 -0.5493  0.6751 -0.4864
 7981SOL    HW135576   3.268   1.099   2.836 -0.4794 -3.2969 -0.5483
 7981SOL    HW235577   3.257   1.092   2.682  1.4101 -0.4039  0.8493
 7982SOL     OW35578   0.659   0.818   9.900 -0.1820 -0.1415  0.3521
 7982SOL    HW135579   0.667   0.911   9.922  2.3786 -0.5361  1.0736
 7982SOL    HW235580   0.735   0.777   9.942 -0.1515 -0.3276  0.1119
 7983SOL     OW35581   1.788   0.815   2.311  0.9055  0.1547 -0.0871
 7983SOL    HW135582   1.776   0.847   2.221 -1.8457 -0.9757 -0.1329
 7983SOL    HW235583   1.856   0.751   2.292  1.0361  0.3916 -0.4165
 7984SOL     OW35584   0.482   0.281   3.041  0.2657  0.2487 -0.2590
 7984SOL    HW135585   0.405   0.314   2.994 -1.0004 -0.3544  1.3790
 7984SOL    HW235586   0.466   0.337   3.117  0.1248  0.4140 -0.4100
 7985SOL     OW35587   1.261   2.046   9.172  0.4932 -0.1290  0.5007
 7985SOL    HW135588   1.302   1.970   9.213  1.3741 -0.1291 -0.3762
 7985SOL    HW235589   1.170   2.017   9.171  0.2558  0.6018  0.7418
 7986SOL     OW35590   3.916   1.648  11.287 -0.9469 -0.2979 -0.4638
 7986SOL    HW135591   3.891   1.567  11.330 -0.8877  0.2842  0.6576
 7986SOL    HW235592   4.002   1.627  11.250 -0.8519 -0.1787 -0.3128
 7987SOL     OW35593   4.685   1.950   9.157  0.3645  0.1853  0.2732
 7987SOL    HW135594   4.615   1.923   9.216 -0.2517  0.5437 -0.2862
 7987SOL    HW235595   4.666   2.041   9.133 -1.7752  0.0495  1.4362
 7988SOL     OW35596   4.098   0.028   3.048 -0.3632 -0.1762 -0.0188
 7988SOL    HW135597   4.113   4.698   2.982 -1.5667  0.1638 -0.6369
 7988SOL    HW235598   4.006   0.011   3.068 -0.6174 -0.2164 -1.2320
 7989SOL     OW35599   1.017   2.743   2.736 -0.3604 -0.0996  0.0558
 7989SOL    HW135600   1.033   2.663   2.686 -1.6464 -1.0490  1.1781
 7989SOL    HW235601   1.097   2.758   2.787 -0.5002  0.6945  0.0454
 7990SOL     OW35602   0.995   2.337  12.164 -0.1084  0.0043 -0.0212
 7990SOL    HW135603   1.006   2.281  12.241  0.0636 -0.4877 -0.3987
 7990SOL    HW235604   0.923   2.297  12.115 -1.0455  0.5256  0.9227
 7991SOL     OW35605   0.939   2.587  15.662  0.4569 -0.0988  0.1793
 7991SOL    HW135606   1.026   2.549  15.648  1.6796  2.6270  0.3878
 7991SOL    HW235607   0.926   2.654  15.594  0.2007 -1.6375 -1.2838
 7992SOL     OW35608   1.551   2.191   6.769 -0.0376 -0.7013 -0.2226
 7992SOL    HW135609   1.593   2.229   6.692  1.2593  0.6052  1.1332
 7992SOL    HW235610   1.602   2.112   6.782  0.7404 -0.7744 -3.7476
 7993SOL     OW35611   1.650   0.968   2.781  0.3700  0.5562  0.3505
 7993SOL    HW135612   1.634   0.982   2.688  0.1648 -1.3164  0.0929
 7993SOL    HW235613   1.642   1.058   2.813 -2.5629 -0.1670  1.6520
 7994SOL     OW35614   1.013   1.757   3.330  0.0289 -0.0710  0.2507
 7994SOL    HW135615   1.091   1.716   3.368  1.6641  0.6060 -2.3766
 7994SOL    HW235616   1.000   1.710   3.248 -2.7480 -0.1780  0.7464
 7995SOL     OW35617   4.606   0.913   9.139 -0.3550 -0.4223  0.2332
 7995SOL    HW135618   4.667   0.983   9.160  0.9996 -2.1771  2.2195
 7995SOL    HW235619   4.601   0.861   9.219  1.4204 -1.2611 -0.1992
 7996SOL     OW35620   0.231   4.653   9.453 -0.1478 -0.2873  0.4018
 7996SOL    HW135621   0.272   4.590   9.394  1.9173 -0.6815  2.2528
 7996SOL    HW235622   0.262   4.623   9.538  0.6563 -1.9007 -0.4596
 7997SOL     OW35623   2.606   2.877  15.800  0.2935  0.0977 -0.1979
 7997SOL    HW135624   2.596   2.940  15.728 -1.6645  1.0053  0.8589
 7997SOL    HW235625   2.672   2.820  15.760 -0.4400 -2.6115  2.5477
 7998SOL     OW35626   3.363   3.208   5.606  0.5099  0.5861 -0.6021
 7998SOL    HW135627   3.411   3.156   5.670  0.0451  1.3590  0.3861
 7998SOL    HW235628   3.415   3.184   5.530  0.8504  1.8510 -0.7706
 7999SOL     OW35629   1.978   1.435   8.057 -0.0003  0.4550  0.1067
 7999SOL    HW135630   1.989   1.348   8.021 -0.4909 -0.4535  2.1386
 7999SOL    HW235631   1.951   1.411   8.146  0.3957  1.7211  0.5679
 8000SOL     OW35632   1.524   4.319   5.333  0.2414  0.4261 -0.4065
 8000SOL    HW135633   1.577   4.351   5.406 -0.0815 -0.1015  0.0653
 8000SOL    HW235634   1.469   4.253   5.376 -0.2946 -0.6836 -2.8195
 8001SOL     OW35635   1.977   1.073   4.248  0.6329 -0.5441  0.0947
 8001SOL    HW135636   1.923   1.078   4.169 -0.0405  0.6814  0.6164
 8001SOL    HW235637   2.069   1.079   4.223  0.2001 -1.5955 -1.7582
 8002SOL     OW35638   1.204   1.247   2.157  0.3193 -0.2753 -0.1916
 8002SOL    HW135639   1.189   1.267   2.064 -0.2012 -0.3179 -0.1141
 8002SOL    HW235640   1.123   1.288   2.187  0.8511  1.1294 -0.6525
 8003SOL     OW35641   4.469   4.468   7.134  0.1460  0.0068  0.0524
 8003SOL    HW135642   4.390   4.521   7.144 -1.1040 -2.2463  2.1296
 8003SOL    HW235643   4.528   4.536   7.102 -2.3415  2.0222 -0.2049
 8004SOL     OW35644   4.349   0.807   5.278 -0.1744 -0.3231  0.0658
 8004SOL    HW135645   4.319   0.762   5.199  0.6841 -1.8289  0.5922
 8004SOL    HW235646   4.317   0.739   5.337 -2.1638  0.4827 -0.0831
 8005SOL     OW35647   2.933   1.673   4.737  0.2731  0.1368  0.1458
 8005SOL    HW135648   2.980   1.621   4.802 -2.4604  1.3279  3.0874
 8005SOL    HW235649   2.844   1.657   4.769  0.3298 -0.9546 -0.2612
 8006SOL     OW35650   1.238   2.441  14.164 -0.5919  0.2622 -0.3348
 8006SOL    HW135651   1.323   2.483  14.166 -1.0576  1.2036 -0.2746
 8006SOL    HW235652   1.180   2.504  14.207  1.2702  0.2459  2.2024
 8007SOL     OW35653   3.831   1.082  16.008  0.3507  0.0208 -0.2238
 8007SOL    HW135654   3.916   1.126  16.004  1.2838 -1.9003 -1.6901
 8007SOL    HW235655   3.785   1.159  15.975  3.1215  2.1991  0.9732
 8008SOL     OW35656   1.415   3.622   5.939 -0.6585  0.1556  0.2614
 8008SOL    HW135657   1.375   3.573   5.867 -1.3102  0.9597  0.0739
 8008SOL    HW235658   1.412   3.711   5.903  0.6521 -0.9338 -2.5168
 8009SOL     OW35659   1.155   4.641  16.117  0.1723  0.3684 -0.5031
 8009SOL    HW135660   1.082   4.661  16.176  1.4106  1.6945  0.5666
 8009SOL    HW235661   1.114   4.568  16.070 -2.8424  0.6037  1.7816
 8010SOL     OW35662   3.014   3.112   8.540 -0.8492 -0.2525  0.5683
 8010SOL    HW135663   2.947   3.117   8.472  0.6266  2.1795 -0.7158
 8010SOL    HW235664   2.993   3.026   8.575 -2.0781 -0.7534 -1.4408
 8011SOL     OW35665   3.621   2.677   3.311 -0.4625 -0.0301  0.3868
 8011SOL    HW135666   3.544   2.721   3.275  0.0497 -0.6478 -1.4619
 8011SOL    HW235667   3.604   2.696   3.403 -0.3782 -0.8272  0.5705
 8012SOL     OW35668   2.988   2.184  17.328 -0.8840  0.0840  0.6521
 8012SOL    HW135669   3.044   2.251  17.367 -0.5769 -0.3103  0.8969
 8012SOL    HW235670   3.010   2.119  17.395  2.2995 -1.1514 -1.5823
 8013SOL     OW35671   0.889   1.289  13.026  0.1810  0.4956 -0.2309
 8013SOL    HW135672   0.937   1.315  13.105 -0.9845 -1.2936  1.0523
 8013SOL    HW235673   0.885   1.194  13.024 -0.3866  0.5852 -2.9649
 8014SOL     OW35674   1.054   2.404   5.273 -0.1178 -0.1577 -0.4154
 8014SOL    HW135675   1.063   2.428   5.365 -2.7599 -0.5576 -0.0398
 8014SOL    HW235676   1.063   2.309   5.272 -0.8774 -0.2415  0.1927
 8015SOL     OW35677   4.462   2.709   7.940 -0.0615  0.2300  0.1708
 8015SOL    HW135678   4.405   2.693   8.016  0.3358  0.0926  0.4445
 8015SOL    HW235679   4.547   2.702   7.984 -0.2167 -1.0061  0.2793
 8016SOL     OW35680   1.739   3.278   8.681  0.2731 -0.2929 -0.0198
 8016SOL    HW135681   1.720   3.353   8.626  0.4133 -0.1426  0.1369
 8016SOL    HW235682   1.748   3.325   8.764  0.3493  0.9596 -0.7484
 8017SOL     OW35683   1.869   0.303   7.799  0.5182 -0.1962  0.2112
 8017SOL    HW135684   1.850   0.395   7.782  0.6275 -0.2216 -0.0398
 8017SOL    HW235685   1.951   0.291   7.752  0.3046  4.0332 -1.1949
 8018SOL     OW35686   1.491   3.422   6.263  0.0598  0.0461 -0.2694
 8018SOL    HW135687   1.521   3.460   6.345 -3.7271  0.2853  0.9910
 8018SOL    HW235688   1.581   3.404   6.233 -1.2645 -2.1241 -2.9334
 8019SOL     OW35689   0.706   3.135  10.564  0.7497  0.6249 -0.6746
 8019SOL    HW135690   0.677   3.087  10.642  1.2186  0.6865 -0.4630
 8019SOL    HW235691   0.753   3.210  10.601  0.7240  0.3535 -0.0906
 8020SOL     OW35692   3.282   4.118   2.833 -0.2090 -0.9226 -0.7708
 8020SOL    HW135693   3.248   4.205   2.851 -2.9494 -1.7872 -1.7379
 8020SOL    HW235694   3.348   4.135   2.765  1.2399  1.7535  1.3530
 8021SOL     OW35695   0.799   4.593   2.003 -0.3139  0.9042  0.1156
 8021SOL    HW135696   0.833   4.504   2.015 -0.5673  0.9548  1.2497
 8021SOL    HW235697   0.755   4.605   2.087 -0.7395  0.0181  0.0247
 8022SOL     OW35698   2.613   3.322   0.336  0.8463 -0.2305 -0.3504
 8022SOL    HW135699   2.658   3.267   0.400 -0.7558  0.6847  1.5834
 8022SOL    HW235700   2.612   3.407   0.381 -1.1099 -0.2953 -0.2837
 8023SOL     OW35701   2.676   2.687   3.358 -0.1968 -0.0198  0.5769
 8023SOL    HW135702   2.598   2.722   3.316  0.2761  1.5775  1.0289
 8023SOL    HW235703   2.743   2.734   3.308 -0.7923 -0.5043 -0.6618
 8024SOL     OW35704   3.209   3.978   8.101  0.0933  0.0458  0.5578
 8024SOL    HW135705   3.148   3.910   8.130  0.0290 -0.6704 -1.2986
 8024SOL    HW235706   3.251   4.006   8.183  2.1871 -0.7883 -0.2230
 8025SOL     OW35707   2.642   2.054  17.377 -0.6432  0.4867  0.6644
 8025SOL    HW135708   2.632   2.026  17.286 -0.8510  1.6494  0.3338
 8025SOL    HW235709   2.661   2.147  17.369 -1.3957  0.4312 -1.7270
 8026SOL     OW35710   1.316   2.132  13.895  0.5230 -0.6107 -0.7633
 8026SOL    HW135711   1.359   2.216  13.912 -0.1538 -0.2556 -0.8061
 8026SOL    HW235712   1.281   2.140  13.806 -2.1468  0.6469  0.3995
 8027SOL     OW35713   1.672   2.073  15.856 -0.0750 -0.3924  0.3376
 8027SOL    HW135714   1.648   2.051  15.946  0.5652  1.7748  1.0121
 8027SOL    HW235715   1.641   2.159  15.830 -0.3601 -0.4956  0.3314
 8028SOL     OW35716   3.521   2.643  11.445 -0.5069  0.0239 -0.2630
 8028SOL    HW135717   3.473   2.724  11.430  0.6768  1.0656  1.4824
 8028SOL    HW235718   3.564   2.635  11.360  0.8584 -0.1728  0.4532
 8029SOL     OW35719   4.645   4.520   3.853  0.1018 -0.3393  0.1409
 8029SOL    HW135720   4.703   4.595   3.860  2.0199 -2.1725  3.3535
 8029SOL    HW235721   4.657   4.499   3.760  1.8396 -2.0095  0.7561
 8030SOL     OW35722   0.469   2.500   1.636 -0.1659 -0.1619 -0.0322
 8030SOL    HW135723   0.478   2.576   1.578 -0.3575 -0.2287 -0.1479
 8030SOL    HW235724   0.454   2.550   1.716 -1.7923  1.5923 -1.4159
 8031SOL     OW35725   0.572   2.997   7.784 -0.0889 -0.3540  0.2277
 8031SOL    HW135726   0.525   3.056   7.725 -0.8353 -0.3466  0.8203
 8031SOL    HW235727   0.529   2.914   7.762 -0.0221  0.4060 -2.8299
 8032SOL     OW35728   2.801   0.843   9.481  0.3830 -0.1012  0.0388
 8032SOL    HW135729   2.768   0.757   9.507  2.2968 -0.9372 -0.3452
 8032SOL    HW235730   2.718   0.888   9.461 -1.6395 -2.2722  3.4679
 8033SOL     OW35731   4.548   0.231  12.243 -0.3704 -0.0253 -0.2689
 8033SOL    HW135732   4.554   0.277  12.327  0.3787 -1.4447  0.4545
 8033SOL    HW235733   4.455   0.212  12.236 -0.3148  0.0639 -1.1951
 8034SOL     OW35734   4.005   4.051   2.241 -0.1742  0.4169 -0.1204
 8034SOL    HW135735   4.100   4.040   2.234  0.0364  2.5743 -0.8320
 8034SOL    HW235736   3.987   4.067   2.334  0.9119  0.3265  0.0996
 8035SOL     OW35737   3.238   4.383   6.145  0.4331 -0.0068 -0.0302
 8035SOL    HW135738   3.300   4.455   6.133  1.2975 -0.3504  2.3448
 8035SOL    HW235739   3.260   4.329   6.069  1.3448 -0.3184  0.4522
 8036SOL     OW35740   3.386   3.507   2.772 -0.2860 -0.2735 -0.8799
 8036SOL    HW135741   3.457   3.480   2.830  1.1330  0.3068 -2.3478
 8036SOL    HW235742   3.359   3.423   2.734  0.0158 -1.0136  0.5298
 8037SOL     OW35743   3.954   1.209  12.110 -0.2369  0.4404 -0.3799
 8037SOL    HW135744   4.003   1.147  12.164 -1.5273 -1.3514 -1.2834
 8037SOL    HW235745   3.865   1.173  12.111 -0.3169  0.6311 -0.7356
 8038SOL     OW35746   2.629   2.520   7.182 -0.1955 -0.3658  0.3934
 8038SOL    HW135747   2.636   2.611   7.154 -0.7287 -0.8297 -1.2814
 8038SOL    HW235748   2.578   2.486   7.108 -0.7214  1.7950 -0.2229
 8039SOL     OW35749   0.181   2.157   3.203  0.1832  0.2690  0.2524
 8039SOL    HW135750   0.170   2.122   3.291  2.4635  2.7144  1.4894
 8039SOL    HW235751   0.223   2.082   3.159 -1.2386 -1.7378  2.3377
 8040SOL     OW35752   2.192   0.920  16.758  0.3332 -0.0268 -0.5458
 8040SOL    HW135753   2.238   0.937  16.676  0.9339  0.3508 -0.1346
 8040SOL    HW235754   2.128   0.871  16.707 -1.1519  1.9975 -0.6462
 8041SOL     OW35755   2.261   4.713   2.637  0.3813 -0.1339  0.1605
 8041SOL    HW135756   2.252   0.046   2.573  1.6195  0.5916  0.7988
 8041SOL    HW235757   2.285   0.030   2.712  0.4356 -0.9294  0.7129
 8042SOL     OW35758   2.694   3.714  12.816  0.1087  0.0734  0.0690
 8042SOL    HW135759   2.743   3.686  12.739  1.4223 -0.1778  0.9935
 8042SOL    HW235760   2.714   3.645  12.880  1.1547  1.9006  1.7212
 8043SOL     OW35761   3.678   4.449   1.116 -0.0004  0.3860  0.3922
 8043SOL    HW135762   3.584   4.468   1.109  0.2585  1.0591 -1.3579
 8043SOL    HW235763   3.715   4.507   1.182  0.6961  1.0891 -0.6218
 8044SOL     OW35764   1.560   0.657   6.337 -0.2935 -0.5354  0.0836
 8044SOL    HW135765   1.526   0.598   6.405  0.7488 -0.9125  0.2761
 8044SOL    HW235766   1.637   0.613   6.301 -2.7282 -2.2355 -3.0537
 8045SOL     OW35767   4.552   0.597   9.037 -0.3581 -0.2505  0.3118
 8045SOL    HW135768   4.580   0.649   9.112 -1.0065  1.0413 -0.3293
 8045SOL    HW235769   4.640   0.580   9.005  0.0916 -0.4083  1.6553
 8046SOL     OW35770   3.826   4.622   9.054 -0.1507 -0.2723  0.1655
 8046SOL    HW135771   3.899   4.560   9.055  1.5097  1.6866  1.2304
 8046SOL    HW235772   3.834   4.657   8.965  0.5860  1.8250  1.0715
 8047SOL     OW35773   1.533   1.737   5.572  0.5099 -0.4290  0.4060
 8047SOL    HW135774   1.549   1.774   5.485 -0.3595 -0.1711  0.3570
 8047SOL    HW235775   1.622   1.712   5.599  1.5597  2.6324 -0.2373
 8048SOL     OW35776   0.597   0.173   6.833 -0.1417 -0.2737 -0.0019
 8048SOL    HW135777   0.567   0.144   6.919  0.5492 -3.0528 -0.7134
 8048SOL    HW235778   0.551   0.114   6.773  0.0064 -2.5470  2.0991
 8049SOL     OW35779   4.737   2.452   6.333  0.1835 -0.1153  0.4063
 8049SOL    HW135780   0.065   2.521   6.322  0.5058 -0.6051 -0.7535
 8049SOL    HW235781   0.035   2.398   6.404  1.5411  0.2004 -0.0381
 8050SOL     OW35782   3.575   1.779   4.867  0.0711 -0.0990 -0.1669
 8050SOL    HW135783   3.551   1.821   4.785 -3.2704  1.0775  1.4130
 8050SOL    HW235784   3.663   1.747   4.849 -0.2865 -1.6202  0.6800
 8051SOL     OW35785   2.929   0.218   4.538  0.0198 -0.5878 -0.0532
 8051SOL    HW135786   2.987   0.265   4.599 -0.3818  0.5977 -0.5836
 8051SOL    HW235787   2.843   0.227   4.578  0.2678 -1.9880  0.7937
 8052SOL     OW35788   1.697   3.911   2.420 -0.5638  0.8612 -0.3412
 8052SOL    HW135789   1.614   3.940   2.458 -1.3717 -0.3917 -1.1634
 8052SOL    HW235790   1.679   3.831   2.371  2.8780  0.9801 -1.7960
 8053SOL     OW35791   2.095   2.610   6.285  0.2532 -0.5031 -0.0107
 8053SOL    HW135792   2.125   2.628   6.374  0.6906 -0.2559 -0.2089
 8053SOL    HW235793   2.079   2.701   6.262 -2.0870 -1.3726 -1.7907
 8054SOL     OW35794   3.684   4.555  15.272 -0.1101 -0.2697  0.7849
 8054SOL    HW135795   3.765   4.520  15.235 -1.7104 -2.5891 -0.4718
 8054SOL    HW235796   3.713   4.574  15.361  0.3199 -2.4942  1.1245
 8055SOL     OW35797   2.692   2.876   4.518  0.1059  0.0518  1.0837
 8055SOL    HW135798   2.689   2.929   4.598  0.3264  0.3395  0.8983
 8055SOL    HW235799   2.657   2.942   4.458  1.0411 -0.2071  0.2637
 8056SOL     OW35800   3.580   4.455   5.558  0.6123 -0.0153  0.5118
 8056SOL    HW135801   3.595   4.433   5.650  2.7675  0.8030  0.3451
 8056SOL    HW235802   3.491   4.420   5.553  0.4405  0.7646 -1.9774
 8057SOL     OW35803   4.274   1.634   2.751  0.0879 -0.0198  0.4669
 8057SOL    HW135804   4.350   1.577   2.746 -0.4159 -0.8507  2.3748
 8057SOL    HW235805   4.273   1.676   2.665  0.4580 -0.1036  0.4231
 8058SOL     OW35806   3.387   2.502  16.336  0.0101 -0.5366  0.1733
 8058SOL    HW135807   3.319   2.520  16.272 -0.9127 -0.2736  1.2415
 8058SOL    HW235808   3.343   2.458  16.409 -1.2206  3.0464  1.5790
 8059SOL     OW35809   0.019   2.658  12.573 -0.4430 -0.3096 -0.6331
 8059SOL    HW135810   0.070   2.716  12.630 -1.6281  1.4581 -1.3472
 8059SOL    HW235811   4.671   2.666  12.616 -0.9506 -2.4561 -1.2506
 8060SOL     OW35812   4.600   2.002  12.395 -0.1802 -0.0226  1.1904
 8060SOL    HW135813   4.594   1.933  12.329  0.8826  1.2874 -0.2585
 8060SOL    HW235814   4.552   2.074  12.356  0.4416  0.3800  1.1706
 8061SOL     OW35815   1.882   2.172   6.511  0.7142 -0.0248  0.1194
 8061SOL    HW135816   1.819   2.100   6.521  2.1365 -1.0800  1.4715
 8061SOL    HW235817   1.838   2.231   6.572 -0.8271 -0.0899 -0.9054
 8062SOL     OW35818   4.138   2.412   2.100  0.2918 -0.2614  0.6970
 8062SOL    HW135819   4.129   2.372   2.187  0.3200  1.9051  1.7060
 8062SOL    HW235820   4.055   2.459   2.098  0.5274  0.0683 -0.7028
 8063SOL     OW35821   2.094   1.243   7.771 -0.1636 -0.0201 -0.2952
 8063SOL    HW135822   2.136   1.159   7.790 -1.3883 -1.5133 -4.0139
 8063SOL    HW235823   2.009   1.227   7.813  0.0533  0.7045  0.4136
 8064SOL     OW35824   3.054   2.723   8.116 -0.0390  0.5175 -0.4872
 8064SOL    HW135825   3.131   2.716   8.059  1.0246 -0.6375  1.0819
 8064SOL    HW235826   3.100   2.756   8.194 -0.6829 -2.5860  1.2035
 8065SOL     OW35827   3.634   1.990   5.754  0.0692  0.0990  0.3698
 8065SOL    HW135828   3.644   1.906   5.799 -1.0162 -0.5201 -0.5274
 8065SOL    HW235829   3.561   2.027   5.804  0.6940 -2.3371  3.0751
 8066SOL     OW35830   3.062   0.056   2.760 -0.4521 -0.4798  0.1815
 8066SOL    HW135831   3.098   4.721   2.709 -0.3002 -0.6686  0.5579
 8066SOL    HW235832   2.971   0.027   2.752 -0.0029 -1.5984 -0.8708
 8067SOL     OW35833   2.420   3.319   5.537  0.0089  0.1945  0.2055
 8067SOL    HW135834   2.477   3.280   5.603 -1.0535 -0.3884  0.7846
 8067SOL    HW235835   2.330   3.303   5.566 -0.9044  3.2055 -0.9637
 8068SOL     OW35836   1.373   2.364  10.484  0.4765  0.0424 -0.2305
 8068SOL    HW135837   1.449   2.376  10.427 -0.4952  0.4276 -1.4694
 8068SOL    HW235838   1.408   2.341  10.570 -0.5470  1.0209  0.4448
 8069SOL     OW35839   2.022   0.377   2.551  0.3400  0.2596  0.4478
 8069SOL    HW135840   1.928   0.391   2.539  0.1633 -2.1557 -1.0606
 8069SOL    HW235841   2.048   0.468   2.560 -2.4146  0.9376  1.4822
 8070SOL     OW35842   2.513   3.404   8.783 -0.1465  0.2624  0.0533
 8070SOL    HW135843   2.583   3.342   8.804 -1.1114 -0.9955 -0.4651
 8070SOL    HW235844   2.526   3.466   8.855  0.0928 -0.7910  0.9173
 8071SOL     OW35845   0.803   2.452   1.039  0.3763 -0.1971 -0.1018
 8071SOL    HW135846   0.853   2.466   1.119  0.7062  1.3958 -0.5799
 8071SOL    HW235847   0.741   2.385   1.068 -1.8146  1.3511 -1.2240
 8072SOL     OW35848   4.278   0.650  17.536 -0.7130 -0.2072 -0.7324
 8072SOL    HW135849   4.279   0.693  17.450  2.6752  0.9820 -0.1214
 8072SOL    HW235850   4.191   0.610  17.542 -0.7007 -0.4663 -2.2160
 8073SOL     OW35851   3.176   2.413   4.467 -0.6213 -0.3203 -0.0114
 8073SOL    HW135852   3.081   2.403   4.476 -0.8813  1.7398 -0.4732
 8073SOL    HW235853   3.181   2.496   4.420  2.2753  0.9709  2.6184
 8074SOL     OW35854   3.304   0.859   5.759 -0.0374  0.0747 -0.6205
 8074SOL    HW135855   3.226   0.914   5.758 -0.2712 -0.2476 -0.4296
 8074SOL    HW235856   3.326   0.857   5.852  2.5230 -0.9057 -1.2342
 8075SOL     OW35857   2.604   1.951   4.681  0.2754  0.0228 -0.0468
 8075SOL    HW135858   2.566   1.964   4.768 -0.4417  1.4713 -0.5737
 8075SOL    HW235859   2.692   1.921   4.707  0.2472  0.0191  0.0448
 8076SOL     OW35860   2.228   0.520   4.154 -0.1819 -0.0292 -0.2524
 8076SOL    HW135861   2.214   0.497   4.246 -1.9908  1.9067 -0.0305
 8076SOL    HW235862   2.323   0.534   4.157 -0.2223 -0.0291  1.1794
 8077SOL     OW35863   2.107   2.445   0.214  0.1719 -0.0706 -0.1118
 8077SOL    HW135864   2.168   2.470   0.145  1.6557 -1.5243  0.6823
 8077SOL    HW235865   2.137   2.485   0.295  0.3321  0.7039 -0.5565
 8078SOL     OW35866   3.598   2.704  16.290  0.2492  0.7847 -0.6942
 8078SOL    HW135867   3.531   2.645  16.325  1.6241  0.7175  1.8654
 8078SOL    HW235868   3.602   2.681  16.197  3.0064 -0.4366 -0.2809
 8079SOL     OW35869   0.125   2.342   2.507  0.1485  0.2839 -0.0277
 8079SOL    HW135870   0.124   2.403   2.581  0.0293  0.7814 -0.4459
 8079SOL    HW235871   0.079   2.266   2.543  0.4497  0.6951  1.2452
 8080SOL     OW35872   3.356   1.988   4.103  0.1388 -0.2566 -0.5196
 8080SOL    HW135873   3.392   2.069   4.066  0.4969 -0.1075  0.1522
 8080SOL    HW235874   3.421   1.968   4.171  0.3859 -1.0637 -0.9899
 8081SOL     OW35875   1.738   4.376   1.070  0.7744  0.6784 -0.5681
 8081SOL    HW135876   1.773   4.460   1.099  0.2015  0.8631 -0.4198
 8081SOL    HW235877   1.652   4.407   1.044  0.2801 -0.8379 -0.7583
 8082SOL     OW35878   0.497   3.075   2.097  0.1110 -0.6096  0.8567
 8082SOL    HW135879   0.417   3.104   2.140  1.0729  1.4123  1.2807
 8082SOL    HW235880   0.560   3.100   2.165 -1.3862  1.0978  1.5857
 8083SOL     OW35881   2.295   2.279   3.617  0.1440 -0.2172 -0.5106
 8083SOL    HW135882   2.362   2.257   3.681  0.8744 -0.5250 -1.3830
 8083SOL    HW235883   2.220   2.300   3.673  1.7774 -0.0356  1.5735
 8084SOL     OW35884   3.263   1.957   2.837 -0.1548 -0.5202  0.6052
 8084SOL    HW135885   3.223   1.873   2.861 -0.6843 -0.3396  0.3482
 8084SOL    HW235886   3.284   2.003   2.918  0.1877  1.1455 -0.4509
 8085SOL     OW35887   3.505   4.242   7.627 -0.7924 -0.5226 -0.5943
 8085SOL    HW135888   3.559   4.246   7.547 -0.6787  1.0599 -0.4511
 8085SOL    HW235889   3.576   4.233   7.691 -0.9214 -1.2199 -0.5548
 8086SOL     OW35890   4.623   1.287   3.702 -0.5918  0.7761  0.2872
 8086SOL    HW135891   4.531   1.264   3.718 -0.2755 -0.5236  0.1992
 8086SOL    HW235892   4.613   1.351   3.631 -2.3415  0.2510  0.0370
 8087SOL     OW35893   4.028   3.690   2.372 -0.1278  0.2225  0.3636
 8087SOL    HW135894   3.978   3.732   2.442 -1.8473  1.3287 -1.5305
 8087SOL    HW235895   3.973   3.614   2.353  0.6163 -0.1173 -0.4502
 8088SOL     OW35896   1.696   3.255   1.836 -0.1232 -0.3729  0.1796
 8088SOL    HW135897   1.668   3.277   1.747  3.3735  0.4773 -0.7277
 8088SOL    HW235898   1.790   3.276   1.835 -0.0697 -0.6240 -0.1709
 8089SOL     OW35899   4.458   1.311   3.103 -0.3672  0.1727 -0.7318
 8089SOL    HW135900   4.510   1.232   3.116 -1.1769 -0.3489 -0.6562
 8089SOL    HW235901   4.377   1.287   3.148 -2.1439 -0.2638 -4.2188
 8090SOL     OW35902   1.501   2.035   5.976  0.7643 -0.0780  1.0143
 8090SOL    HW135903   1.574   2.022   5.915 -0.2246  1.3883 -0.4856
 8090SOL    HW235904   1.445   1.978   5.923  1.0906  1.1800 -0.6865
 8091SOL     OW35905   2.620   4.206   7.884  0.0237  0.4617  0.1036
 8091SOL    HW135906   2.678   4.182   7.957  0.5992 -1.1497 -0.8774
 8091SOL    HW235907   2.583   4.120   7.862 -0.5883  1.1323 -1.4366
 8092SOL     OW35908   0.601   1.932   8.987 -0.0652  0.1783 -0.3565
 8092SOL    HW135909   0.617   2.002   8.923  0.0239  1.5228  1.1406
 8092SOL    HW235910   0.506   1.936   8.999 -0.1636  2.0388 -1.6281
 8093SOL     OW35911   1.745   0.828  14.974 -0.1651  0.0061 -0.1373
 8093SOL    HW135912   1.745   0.874  14.890  2.5803  2.1604  1.0328
 8093SOL    HW235913   1.679   0.882  15.018 -2.0852 -1.4451 -1.2120
 8094SOL     OW35914   2.138   0.423   5.184 -0.0473 -0.2376 -0.2977
 8094SOL    HW135915   2.144   0.341   5.134  0.8809 -1.0311  1.0988
 8094SOL    HW235916   2.043   0.428   5.197 -0.0607  0.2316 -0.5744
 8095SOL     OW35917   2.109   3.005   2.856 -0.2116 -0.2640 -0.1573
 8095SOL    HW135918   2.052   3.024   2.931 -0.0969  2.7177 -0.8255
 8095SOL    HW235919   2.134   3.095   2.835 -1.2729 -0.1400 -0.8541
 8096SOL     OW35920   0.312   0.340  13.726 -0.1203  0.2673 -0.1577
 8096SOL    HW135921   0.227   0.349  13.682  1.1219 -0.8567 -2.7928
 8096SOL    HW235922   0.295   0.322  13.818  0.1156  1.7391  0.1659
 8097SOL     OW35923   0.268   0.886   9.477 -0.4989  0.2558 -0.3910
 8097SOL    HW135924   0.335   0.869   9.410  1.0796 -3.7366  2.1815
 8097SOL    HW235925   0.297   0.972   9.509  1.6098 -0.0702 -1.4070
 8098SOL     OW35926   3.945   0.239   1.921 -0.2746 -0.1270  0.2826
 8098SOL    HW135927   4.019   0.299   1.910  0.4554 -0.5461  2.7355
 8098SOL    HW235928   3.949   0.201   1.833 -2.2021 -1.5942  0.8243
 8099SOL     OW35929   1.738   3.776   3.043 -0.3142 -0.0257 -0.1989
 8099SOL    HW135930   1.740   3.815   2.956  0.3624  3.3888  1.3420
 8099SOL    HW235931   1.820   3.728   3.032  0.5573  1.2458  0.8366
 8100SOL     OW35932   4.191   0.453   6.804  0.0385 -0.0817  0.8000
 8100SOL    HW135933   4.265   0.437   6.863  2.3301 -0.2474 -2.1168
 8100SOL    HW235934   4.231   0.503   6.732 -0.0744 -1.1585 -0.0146
 8101SOL     OW35935   0.704   4.154   8.887  0.4980  0.4765  0.5261
 8101SOL    HW135936   0.645   4.099   8.835 -1.1954  1.0733  1.8091
 8101SOL    HW235937   0.779   4.170   8.829 -1.0903  1.3374 -1.2899
 8102SOL     OW35938   4.142   1.551   2.990  0.1174  0.0178  0.4542
 8102SOL    HW135939   4.170   1.592   2.908 -2.5026 -0.7250 -0.8128
 8102SOL    HW235940   4.226   1.536   3.034 -0.9416 -2.4838  1.6092
 8103SOL     OW35941   2.689   1.655   6.472  0.4262 -0.1300 -0.6962
 8103SOL    HW135942   2.772   1.657   6.520  0.4522  0.3184 -0.7620
 8103SOL    HW235943   2.629   1.618   6.537 -0.7306  0.7424 -1.2569
 8104SOL     OW35944   1.416   2.222   1.848  0.1602 -0.0978 -0.5913
 8104SOL    HW135945   1.393   2.285   1.916  0.2331 -1.6411  0.8674
 8104SOL    HW235946   1.340   2.225   1.790 -1.6180  0.8396  1.7608
 8105SOL     OW35947   1.957   1.779   7.937  0.2662  0.0028  0.3409
 8105SOL    HW135948   2.047   1.782   7.968  0.7868  1.4585 -1.3570
 8105SOL    HW235949   1.931   1.871   7.943 -0.5969 -0.2239  0.1298
 8106SOL     OW35950   2.084   3.970   2.287  0.4191  0.7995 -0.1840
 8106SOL    HW135951   2.111   4.003   2.202  0.9265  0.7828 -0.0266
 8106SOL    HW235952   2.142   4.029   2.335  0.2784  2.9328 -2.6596
 8107SOL     OW35953   0.328   1.821   1.768 -0.7399 -0.0103 -0.3501
 8107SOL    HW135954   0.333   1.898   1.711 -2.4199  1.3309  1.2953
 8107SOL    HW235955   0.236   1.794   1.764 -0.0116 -2.0237 -2.8981
 8108SOL     OW35956   0.048   1.048  15.087 -0.2341  0.1526 -0.0093
 8108SOL    HW135957   4.693   1.061  15.112  0.1247  0.4681  1.1680
 8108SOL    HW235958   0.072   1.127  15.039 -0.5126  1.5480  2.1118
 8109SOL     OW35959   0.036   0.049  12.254 -0.8921 -0.6783  0.5578
 8109SOL    HW135960   0.081   0.122  12.296 -1.3133  0.0701 -0.2931
 8109SOL    HW235961   4.695   0.092  12.221  0.0615  0.8503  0.3350
 8110SOL     OW35962   1.322   0.178   2.073  0.1356 -0.1273 -0.6775
 8110SOL    HW135963   1.346   0.228   1.995  1.3054  0.0647 -0.1947
 8110SOL    HW235964   1.391   0.191   2.139  0.6802 -1.5248 -0.9750
 8111SOL     OW35965   2.068   4.666   1.633 -0.5314 -0.4533  0.2029
 8111SOL    HW135966   1.986   4.649   1.679 -0.6600 -0.7539 -0.1387
 8111SOL    HW235967   2.119   4.586   1.649  1.6258  1.0054  0.5960
 8112SOL     OW35968   2.591   2.537  16.651 -0.0413 -0.1041  0.5204
 8112SOL    HW135969   2.600   2.613  16.709  1.8811  1.8697 -2.3265
 8112SOL    HW235970   2.514   2.555  16.596 -0.1527  0.8291  0.9777
 8113SOL     OW35971   0.301   2.324   4.855 -0.0161  0.1383  0.1531
 8113SOL    HW135972   0.380   2.271   4.864 -1.2159 -1.2750  2.4888
 8113SOL    HW235973   0.281   2.319   4.762  0.8243 -0.8554  0.0218
 8114SOL     OW35974   4.600   0.685   8.483 -0.4346  0.1198 -0.2039
 8114SOL    HW135975   4.692   0.677   8.458 -0.2106 -0.3149  0.7612
 8114SOL    HW235976   4.600   0.667   8.577 -1.1386  1.4180  0.0531
 8115SOL     OW35977   0.434   3.134  12.188  0.2176 -0.0765  0.2809
 8115SOL    HW135978   0.529   3.131  12.182  0.2944 -0.5767  1.7953
 8115SOL    HW235979   0.420   3.055  12.135  0.0138 -0.1936  0.5056
 8116SOL     OW35980   0.093   1.727   5.685  0.4660 -0.6353 -0.4509
 8116SOL    HW135981   0.181   1.689   5.682  0.8223  0.3548 -2.4405
 8116SOL    HW235982   0.083   1.741   5.591  1.2050  0.2764 -0.3941
 8117SOL     OW35983   3.318   2.038   1.648  0.8068  0.2192  0.7911
 8117SOL    HW135984   3.393   1.981   1.628 -1.9944 -3.2286  0.1208
 8117SOL    HW235985   3.309   2.041   1.744  1.0802  0.7610  0.8006
 8118SOL     OW35986   0.053   1.305   2.743  0.5024  0.0842 -0.2578
 8118SOL    HW135987   0.022   1.264   2.663  0.2312 -1.1598  0.4883
 8118SOL    HW235988   4.708   1.333   2.784 -0.0101  1.6824 -2.3644
 8119SOL     OW35989   3.051   3.974  15.209 -0.0268  0.7377  0.0735
 8119SOL    HW135990   2.962   4.007  15.200 -0.6164 -1.2355 -1.2752
 8119SOL    HW235991   3.074   3.980  15.117 -0.0026  3.3620  0.2491
 8120SOL     OW35992   1.114   1.814   4.354 -0.5235  0.0572 -0.2630
 8120SOL    HW135993   1.084   1.747   4.415  1.7978 -0.8451 -0.1119
 8120SOL    HW235994   1.137   1.885   4.413 -0.3848 -0.6478  0.5319
 8121SOL     OW35995   0.973   1.468   7.632  0.4483 -0.2591  0.1943
 8121SOL    HW135996   0.963   1.545   7.576 -1.9580 -2.3073 -2.1920
 8121SOL    HW235997   1.042   1.501   7.690 -0.8398  4.3481 -0.9046
 8122SOL     OW35998   1.120   0.542  10.031 -0.5284  0.0608 -0.5192
 8122SOL    HW135999   1.148   0.612   9.972  1.4911  0.0956  0.4827
 8122SOL    HW236000   1.185   0.543  10.102 -1.4728 -2.1710  0.3748
 8123SOL     OW36001   1.417   3.775   8.683  0.0452 -0.5752 -0.0709
 8123SOL    HW136002   1.387   3.756   8.594 -0.7673  2.2314 -0.3944
 8123SOL    HW236003   1.381   3.863   8.689  2.8448  0.4492  1.6804
 8124SOL     OW36004   1.902   2.780   7.761 -0.1721 -0.0179 -0.3794
 8124SOL    HW136005   1.937   2.699   7.797 -0.9731 -0.4520 -0.5657
 8124SOL    HW236006   1.883   2.741   7.676 -0.4449  0.1152 -0.3795
 8125SOL     OW36007   1.070   0.195   2.158 -0.2594  0.1076 -0.0880
 8125SOL    HW136008   1.011   0.204   2.084  0.7098  0.7927 -0.7781
 8125SOL    HW236009   1.157   0.192   2.117 -0.1107  0.1046  0.2296
 8126SOL     OW36010   3.088   2.091   1.869 -0.6733 -0.0917 -0.4242
 8126SOL    HW136011   3.004   2.047   1.855 -1.7833  1.2123  2.2148
 8126SOL    HW236012   3.063   2.182   1.851 -2.9403 -0.6081  0.0885
 8127SOL     OW36013   2.486   0.196   0.253 -0.2648 -0.0288  0.0792
 8127SOL    HW136014   2.564   0.235   0.291 -0.8826 -0.2902  1.6199
 8127SOL    HW236015   2.483   0.242   0.169  1.4375  0.4494  0.2839
 8128SOL     OW36016   1.842   3.762   5.311  0.4586 -0.2476  0.2106
 8128SOL    HW136017   1.825   3.676   5.272 -2.7023 -0.0957  1.2828
 8128SOL    HW236018   1.793   3.813   5.247  0.0114 -0.0606  0.7004
 8129SOL     OW36019   2.357   0.576   1.770 -0.2898 -0.1093 -0.2949
 8129SOL    HW136020   2.414   0.615   1.837  0.2546  0.7362 -1.2558
 8129SOL    HW236021   2.285   0.547   1.827 -0.3377 -1.1680 -0.9045
 8130SOL     OW36022   2.565   3.823   1.557 -0.2751  0.4836  0.0496
 8130SOL    HW136023   2.660   3.811   1.561 -0.0418  2.6558  0.9564
 8130SOL    HW236024   2.534   3.732   1.557 -2.3267  1.1924  0.5659
 8131SOL     OW36025   2.941   1.912   8.001 -0.6930  0.0359  0.3098
 8131SOL    HW136026   2.883   1.885   8.073 -0.9406  1.0054  0.4657
 8131SOL    HW236027   2.880   1.941   7.932 -1.4061 -1.2252  0.4054
 8132SOL     OW36028   0.672   2.303   4.264 -0.1520 -0.1221  0.1813
 8132SOL    HW136029   0.632   2.303   4.177 -2.4127  2.0039  1.2190
 8132SOL    HW236030   0.756   2.343   4.240 -1.0308  1.5759 -0.1205
 8133SOL     OW36031   1.526   4.041   2.787  0.3703  0.5024  0.0288
 8133SOL    HW136032   1.497   3.992   2.710 -0.2870  1.0793 -0.0943
 8133SOL    HW236033   1.543   4.118   2.734  2.1318  0.1963  0.1465
 8134SOL     OW36034   4.193   4.528   7.295 -0.1244  0.2414  0.1469
 8134SOL    HW136035   4.146   4.600   7.254 -1.0454  0.8824  2.3232
 8134SOL    HW236036   4.137   4.452   7.283 -3.3511  2.3026  2.1531
 8135SOL     OW36037   2.296   3.712   7.828  0.8152  0.2607  0.1072
 8135SOL    HW136038   2.221   3.711   7.888 -0.4579  0.3615 -1.4910
 8135SOL    HW236039   2.267   3.784   7.772 -2.8170 -2.5729 -1.6264
 8136SOL     OW36040   1.638   3.733   2.186  0.5047  0.2958 -0.3762
 8136SOL    HW136041   1.566   3.796   2.197  1.3844  1.0205  1.1237
 8136SOL    HW236042   1.602   3.651   2.153  1.4897 -1.3269  2.6063
 8137SOL     OW36043   2.883   2.914   5.220  0.0544  0.2220 -0.3570
 8137SOL    HW136044   2.827   2.989   5.240 -0.8108 -0.8724  1.3343
 8137SOL    HW236045   2.876   2.868   5.304  3.3382  0.1042 -0.1634
 8138SOL     OW36046   0.428   3.065   8.778 -0.4776 -0.3524  0.1236
 8138SOL    HW136047   0.402   3.001   8.712  1.9416  1.7604 -2.8486
 8138SOL    HW236048   0.514   3.090   8.746 -0.6216  1.1768  0.9293
 8139SOL     OW36049   0.200   2.424   9.221 -0.6260 -0.2035  0.0898
 8139SOL    HW136050   0.255   2.383   9.288 -1.2873  2.1849  2.0713
 8139SOL    HW236051   0.255   2.496   9.189  1.0352 -0.7485  1.7393
 8140SOL     OW36052   0.589   2.800   3.940  0.2269 -0.1325 -0.0866
 8140SOL    HW136053   0.590   2.892   3.970  1.4455 -0.4103  0.7560
 8140SOL    HW236054   0.678   2.774   3.964  0.7211  0.9482 -0.7550
 8141SOL     OW36055   0.630   2.566   0.069  0.2601  0.0392  0.1001
 8141SOL    HW136056   0.705   2.602   0.117  1.7086  1.0354 -2.8999
 8141SOL    HW236057   0.683   2.499   0.025  1.0350  1.1797 -0.6998
 8142SOL     OW36058   1.892   0.196  10.215 -0.3508  0.1857  0.5705
 8142SOL    HW136059   1.929   0.209  10.127  0.4738  0.2518  0.9203
 8142SOL    HW236060   1.975   0.195  10.264 -0.3663  0.4668  0.6051
 8143SOL     OW36061   4.458   3.917   4.208  0.7578 -0.2351  0.4618
 8143SOL    HW136062   4.375   3.869   4.203  0.7253 -0.2381  1.0420
 8143SOL    HW236063   4.458   3.957   4.122 -0.6357  0.0602  0.6110
 8144SOL     OW36064   2.406   1.847   7.248 -0.4767 -0.3896  0.5661
 8144SOL    HW136065   2.467   1.780   7.280  0.4300 -1.2960 -3.1331
 8144SOL    HW236066   2.429   1.840   7.156 -0.2783  0.0506  0.5816
 8145SOL     OW36067   2.483   1.248   7.790 -0.1479 -0.3300  0.0954
 8145SOL    HW136068   2.524   1.162   7.773 -0.6734 -0.5313 -0.1599
 8145SOL    HW236069   2.531   1.303   7.728 -0.6037  1.6723  1.5241
 8146SOL     OW36070   0.741   0.487   1.386 -0.1039 -0.0334 -0.2676
 8146SOL    HW136071   0.787   0.431   1.448  1.1337  2.4880  1.1142
 8146SOL    HW236072   0.809   0.520   1.327 -0.5021 -0.0044 -0.7092
 8147SOL     OW36073   2.111   3.223  10.847 -0.5461 -0.2553 -0.5326
 8147SOL    HW136074   2.190   3.169  10.856 -0.0073  0.6847  0.3278
 8147SOL    HW236075   2.127   3.307  10.891 -0.7041 -0.7656  0.4926
 8148SOL     OW36076   3.107   1.672   4.018 -0.3207  0.0933 -0.0663
 8148SOL    HW136077   3.019   1.634   4.018  1.1173 -3.1644 -0.2984
 8148SOL    HW236078   3.097   1.746   4.078 -1.4860 -2.0800  2.4058
 8149SOL     OW36079   4.051   3.076  16.326  0.1362  0.1988 -0.6011
 8149SOL    HW136080   4.024   3.151  16.274  1.1814  1.3056  0.4592
 8149SOL    HW236081   4.146   3.089  16.331  0.1720  0.0994 -1.0234
 8150SOL     OW36082   3.000   0.282  12.528 -0.2729 -0.0734 -0.1805
 8150SOL    HW136083   3.022   0.364  12.572  2.8055 -1.6079  1.1849
 8150SOL    HW236084   2.949   0.246  12.601 -1.0594 -1.0538 -1.2151
 8151SOL     OW36085   0.337   2.629  13.974 -0.1202 -0.3783  0.5416
 8151SOL    HW136086   0.260   2.612  13.919 -0.4717 -2.0885  1.5891
 8151SOL    HW236087   0.297   2.615  14.059 -0.2065  3.4904  1.1339
 8152SOL     OW36088   3.577   4.217   1.272  0.3805 -0.0417 -0.5969
 8152SOL    HW136089   3.622   4.301   1.274  0.0141  0.1121  1.4992
 8152SOL    HW236090   3.596   4.185   1.184 -1.0390 -0.1477 -0.8663
 8153SOL     OW36091   0.906   0.995   9.002 -0.0026  0.5038 -0.1566
 8153SOL    HW136092   0.923   0.904   9.027 -1.0871  0.4273  0.3449
 8153SOL    HW236093   0.986   1.019   8.957  0.3656  1.6298  1.0975
 8154SOL     OW36094   3.259   2.450   6.863  0.3017  0.2493  0.0176
 8154SOL    HW136095   3.255   2.407   6.948 -2.1169 -2.1638 -1.3194
 8154SOL    HW236096   3.348   2.483   6.848 -0.1323  1.5683  0.4279
 8155SOL     OW36097   2.422   2.272   4.875 -0.1567  0.8247  0.5499
 8155SOL    HW136098   2.395   2.363   4.861 -1.1549  0.0810 -2.3820
 8155SOL    HW236099   2.513   2.267   4.845  0.0065  1.4631  0.9258
 8156SOL     OW36100   0.201   4.733   6.861  0.3607 -0.4471 -0.8651
 8156SOL    HW136101   0.192   0.008   6.955 -0.4433 -2.6024 -0.6674
 8156SOL    HW236102   0.124   4.681   6.840  0.7404 -0.4560 -2.2517
 8157SOL     OW36103   0.460   0.715   6.088 -0.2159 -0.1023  0.4359
 8157SOL    HW136104   0.409   0.763   6.022 -0.7844  1.1131  1.7593
 8157SOL    HW236105   0.541   0.689   6.044  0.9641  0.8529  2.0412
 8158SOL     OW36106   0.014   1.780   3.349 -0.0956  0.1570 -0.1404
 8158SOL    HW136107   0.068   1.845   3.304 -1.9596  1.1760 -0.8880
 8158SOL    HW236108   4.736   1.708   3.288 -0.9172  1.2177 -1.1681
 8159SOL     OW36109   2.336   0.558  16.117  0.3686 -0.2140 -0.2362
 8159SOL    HW136110   2.281   0.549  16.195  0.7323  1.5765  0.2153
 8159SOL    HW236111   2.419   0.532  16.158 -0.8179  0.9692  2.9271
 8160SOL     OW36112   1.166   4.156  15.221  0.4408 -0.1512 -0.3223
 8160SOL    HW136113   1.211   4.154  15.306 -0.4021  0.7233  0.1413
 8160SOL    HW236114   1.242   4.146  15.164  1.6806  1.0994  1.1352
 8161SOL     OW36115   1.439   4.163  15.692 -0.4817  0.1686 -0.5982
 8161SOL    HW136116   1.422   4.109  15.770 -0.4144  0.3283 -0.4726
 8161SOL    HW236117   1.526   4.199  15.709 -0.5420 -0.0778  0.2363
 8162SOL     OW36118   2.828   3.745   4.126 -0.2555  0.4398 -0.7716
 8162SOL    HW136119   2.862   3.803   4.057 -0.0084  0.5957 -0.5207
 8162SOL    HW236120   2.877   3.777   4.202 -0.7736 -0.7810  0.0583
 8163SOL     OW36121   3.081   3.059  14.329  0.4509 -0.0222 -0.0278
 8163SOL    HW136122   3.172   3.071  14.302  0.8977  0.3835  1.6899
 8163SOL    HW236123   3.045   3.014  14.253 -0.9974  0.9450  0.0821
 8164SOL     OW36124   3.194   0.283   5.091  0.5677  0.0074  0.2275
 8164SOL    HW136125   3.196   0.375   5.063  1.1649 -0.2926 -0.7233
 8164SOL    HW236126   3.195   0.240   5.005  1.0544 -0.0356  0.2580
 8165SOL     OW36127   3.448   2.553   5.940 -0.7138 -0.4783 -0.1376
 8165SOL    HW136128   3.362   2.570   5.978  0.8641  1.1197  2.6943
 8165SOL    HW236129   3.464   2.467   5.978  0.1126 -1.2660 -2.3040
 8166SOL     OW36130   0.103   2.970   0.819  0.4224  0.6682  0.7233
 8166SOL    HW136131   0.149   2.889   0.841  1.9501  1.5812  0.8674
 8166SOL    HW236132   0.160   3.010   0.754  0.7617  0.6185  0.9890
 8167SOL     OW36133   1.057   3.487   9.085 -0.1971 -0.0918  0.0199
 8167SOL    HW136134   1.090   3.537   9.159  0.0935  0.2801 -0.3618
 8167SOL    HW236135   1.021   3.417   9.139  1.4323 -0.1649  1.0252
 8168SOL     OW36136   0.141   4.637  14.831  0.0034 -0.4980  0.2040
 8168SOL    HW136137   0.205   4.702  14.802 -0.5225  0.5169  1.3292
 8168SOL    HW236138   0.204   4.590  14.885 -2.8269 -2.6264  1.6558
 8169SOL     OW36139   1.597   1.639   1.551 -0.0651 -0.4085 -0.1819
 8169SOL    HW136140   1.531   1.571   1.547  0.9902 -1.3886 -0.8408
 8169SOL    HW236141   1.634   1.645   1.463  0.1934  1.9465  0.0680
 8170SOL     OW36142   1.323   2.422  11.398 -0.7746 -0.0959  0.2160
 8170SOL    HW136143   1.418   2.423  11.397 -0.8210  3.8948  0.4167
 8170SOL    HW236144   1.308   2.428  11.303  1.1892  1.1113 -0.0127
 8171SOL     OW36145   3.029   4.381   1.629  0.3109 -0.5536  0.6231
 8171SOL    HW136146   2.996   4.312   1.571  0.7497  0.6585 -1.0430
 8171SOL    HW236147   3.102   4.416   1.578 -1.5312 -2.2531 -3.2084
 8172SOL     OW36148   3.393   2.750   5.102 -0.8223 -0.2243  0.0716
 8172SOL    HW136149   3.408   2.829   5.050  3.0797 -0.9690  0.0623
 8172SOL    HW236150   3.476   2.735   5.147 -0.1489  2.7229 -0.2015
 8173SOL     OW36151   4.542   3.265   3.120 -0.1073 -0.4084 -0.1106
 8173SOL    HW136152   4.555   3.179   3.081  1.1379 -1.2028  2.1199
 8173SOL    HW236153   4.497   3.312   3.049  1.7396  0.5388 -0.6721
 8174SOL     OW36154   0.779   2.102  10.313 -0.1831 -0.0929 -0.6619
 8174SOL    HW136155   0.684   2.112  10.303 -0.1424  0.6196 -0.3306
 8174SOL    HW236156   0.800   2.094  10.220 -1.0421  1.1859 -0.9665
 8175SOL     OW36157   4.338   3.512   5.633  0.3372 -0.3617 -0.4175
 8175SOL    HW136158   4.345   3.608   5.634  0.0305 -0.3239 -1.8981
 8175SOL    HW236159   4.289   3.498   5.553 -0.8350  1.4339 -0.0072
 8176SOL     OW36160   3.430   2.375   2.537 -0.0246 -0.0460 -0.1603
 8176SOL    HW136161   3.399   2.340   2.620  1.6141  0.0242  0.4800
 8176SOL    HW236162   3.361   2.344   2.479 -0.1816  0.5175 -0.2764
 8177SOL     OW36163   1.622   1.093   8.664 -0.6506  0.0776  0.5416
 8177SOL    HW136164   1.657   1.048   8.740  1.7776 -0.5958 -0.9694
 8177SOL    HW236165   1.551   1.143   8.705 -1.0216 -0.0967  0.1160
 8178SOL     OW36166   2.370   4.394  13.613  0.3058 -0.4752 -0.3534
 8178SOL    HW136167   2.375   4.447  13.534  1.6696 -0.3687 -0.2050
 8178SOL    HW236168   2.293   4.428  13.657 -1.2173 -1.0458 -2.6134
 8179SOL     OW36169   1.118   2.396  11.562 -0.2348 -0.2327  0.2318
 8179SOL    HW136170   1.187   2.423  11.501 -1.5714  1.2514 -0.6102
 8179SOL    HW236171   1.176   2.338  11.612  1.4749  1.3891  0.1506
 8180SOL     OW36172   2.124   2.327   2.479 -0.1240  0.2571  0.0716
 8180SOL    HW136173   2.039   2.371   2.486 -0.2610  0.1609 -0.9848
 8180SOL    HW236174   2.111   2.245   2.526 -0.2058 -0.4131 -1.1140
 8181SOL     OW36175   4.394   0.149   0.765  0.3268 -0.7218  0.4197
 8181SOL    HW136176   4.411   0.194   0.682 -0.0457 -1.5905 -0.1291
 8181SOL    HW236177   4.449   0.206   0.818  0.2804 -1.8903  1.7444
 8182SOL     OW36178   4.425   2.584  16.580  0.0736  0.5436  0.1623
 8182SOL    HW136179   4.409   2.562  16.488  0.1214  3.0610 -0.4448
 8182SOL    HW236180   4.336   2.586  16.616  0.5672 -2.3797  1.4773
 8183SOL     OW36181   4.689   2.424   4.705  0.2275 -0.2321  0.5252
 8183SOL    HW136182   0.003   2.345   4.725  2.1542  0.7336 -0.5788
 8183SOL    HW236183   4.698   2.438   4.611  0.7672 -0.1327  0.5923
 8184SOL     OW36184   0.448   2.478   6.919  0.2403 -0.1904 -0.1898
 8184SOL    HW136185   0.467   2.451   7.009 -1.4272 -0.8188 -0.0285
 8184SOL    HW236186   0.366   2.525   6.930 -1.5547 -2.9631 -1.5617
 8185SOL     OW36187   1.852   3.126   2.832  0.3384 -0.2109 -0.1791
 8185SOL    HW136188   1.928   3.107   2.777  0.2646  1.7638 -0.9814
 8185SOL    HW236189   1.817   3.044   2.867 -1.0030  0.9473  1.2135
 8186SOL     OW36190   3.739   0.728   4.325 -0.2238 -0.3448  0.3926
 8186SOL    HW136191   3.727   0.636   4.300  1.0492 -0.2171 -0.6793
 8186SOL    HW236192   3.690   0.772   4.255  0.6072 -2.4659 -1.5546
 8187SOL     OW36193   4.716   1.078  14.092 -0.0326 -0.3839  1.1391
 8187SOL    HW136194   0.038   1.112  14.024 -1.6318  1.3926  0.6481
 8187SOL    HW236195   4.651   1.028  14.042  1.8150 -0.8742 -0.8022
 8188SOL     OW36196   2.164   0.929  16.232  0.2611 -0.4378  0.3525
 8188SOL    HW136197   2.087   0.874  16.250 -0.6917  1.0341  0.7936
 8188SOL    HW236198   2.109   0.994  16.187  3.3246  2.6386  1.0804
 8189SOL     OW36199   3.182   1.839   5.322  0.0265  0.4261  0.4526
 8189SOL    HW136200   3.223   1.752   5.320  0.0853  0.4693 -0.1940
 8189SOL    HW236201   3.164   1.860   5.230 -1.5710  0.9647  0.8745
 8190SOL     OW36202   1.992   0.737  10.708  0.5033 -0.2623  0.5644
 8190SOL    HW136203   1.926   0.670  10.730 -0.9489  0.5302 -1.3539
 8190SOL    HW236204   1.961   0.756  10.620 -0.8846 -1.5103  0.7735
 8191SOL     OW36205   2.042   2.845   6.745 -0.4161  0.1529 -0.0193
 8191SOL    HW136206   2.012   2.755   6.729 -2.7723  0.9406 -0.0009
 8191SOL    HW236207   2.121   2.840   6.799  0.4218 -2.4269 -1.4792
 8192SOL     OW36208   2.382   1.428   6.300 -0.3389  0.4242 -0.3655
 8192SOL    HW136209   2.414   1.492   6.364 -1.9595 -0.6883  1.5909
 8192SOL    HW236210   2.439   1.359   6.334 -0.9059 -0.0619 -0.3978
 8193SOL     OW36211   0.607   0.731   9.060 -0.6434 -0.1868 -0.0555
 8193SOL    HW136212   0.701   0.713   9.055 -0.7194 -0.6530  0.2549
 8193SOL    HW236213   0.598   0.798   8.992  2.3860 -0.5772 -0.8677
 8194SOL     OW36214   3.937   3.857   2.576  0.7970 -0.0278 -0.1009
 8194SOL    HW136215   4.020   3.905   2.577 -1.1281  3.2887  0.2908
 8194SOL    HW236216   3.874   3.927   2.559 -1.6691 -1.7048  2.1520
 8195SOL     OW36217   4.290   3.707   7.789  0.2365  0.4737 -0.2669
 8195SOL    HW136218   4.272   3.613   7.780 -0.6944  0.8375 -2.1372
 8195SOL    HW236219   4.341   3.712   7.708  1.0740  1.5758  0.3272
 8196SOL     OW36220   3.827   1.510  16.554  0.0787  0.0234  0.3917
 8196SOL    HW136221   3.880   1.474  16.483  0.2809  0.7054  0.1979
 8196SOL    HW236222   3.758   1.444  16.560 -0.0276  0.3638  2.9538
 8197SOL     OW36223   1.919   0.751   2.898  0.2434  0.6647  0.0839
 8197SOL    HW136224   1.877   0.776   2.817 -2.0994 -1.6897  0.5623
 8197SOL    HW236225   1.852   0.695   2.939  0.7436  1.2856  1.7476
 8198SOL     OW36226   3.133   3.591   4.239  0.0568 -0.0894  0.4659
 8198SOL    HW136227   3.197   3.610   4.170  1.4972 -1.8203  1.3281
 8198SOL    HW236228   3.140   3.499   4.264  0.3225 -0.9577 -2.8040
 8199SOL     OW36229   2.331   2.187   6.433  0.0113 -0.3726  0.1017
 8199SOL    HW136230   2.311   2.224   6.347 -2.4414  0.0734  0.8703
 8199SOL    HW236231   2.426   2.188   6.440 -0.1527 -0.8382  2.3838
 8200SOL     OW36232   1.083   0.062   5.550 -0.7292  0.2562  0.2481
 8200SOL    HW136233   1.108   0.138   5.601  1.0958  0.2951 -0.6858
 8200SOL    HW236234   1.149   0.000   5.583 -0.0058 -0.2555 -2.1456
 8201SOL     OW36235   4.288   3.912   2.063  0.9541 -0.6049 -0.2816
 8201SOL    HW136236   4.328   3.992   2.096  0.9509  0.4394 -2.8096
 8201SOL    HW236237   4.271   3.932   1.971 -0.3475 -0.0859  0.0740
 8202SOL     OW36238   3.923   4.459   7.870  0.1272 -0.0582 -0.3236
 8202SOL    HW136239   3.924   4.481   7.777  0.7608 -1.0001 -0.5456
 8202SOL    HW236240   4.011   4.423   7.883 -0.2873 -1.4988 -1.5156
 8203SOL     OW36241   4.556   0.018   8.426  0.2525  0.3264 -0.4181
 8203SOL    HW136242   4.640   0.037   8.383 -0.1792  0.7139 -1.0914
 8203SOL    HW236243   4.513   0.102   8.408  1.5621  0.9937 -0.4869
 8204SOL     OW36244   2.378   4.675  10.978 -0.1547  0.1045 -0.2942
 8204SOL    HW136245   2.389   4.636  11.065  1.1517  0.9376 -0.0964
 8204SOL    HW236246   2.465   4.682  10.939 -0.2982 -0.5713 -0.7336
 8205SOL     OW36247   4.210   0.943  11.733 -0.6501  0.2489 -0.4969
 8205SOL    HW136248   4.295   0.901  11.748 -1.6014 -1.2896  0.5964
 8205SOL    HW236249   4.147   0.884  11.776  0.7748 -0.2331  0.9537
 8206SOL     OW36250   4.154   0.827   7.495 -0.2489 -0.0062  0.2181
 8206SOL    HW136251   4.170   0.916   7.525 -1.0196  0.1428  0.1870
 8206SOL    HW236252   4.216   0.778   7.550 -1.7669 -1.9079  0.2143
 8207SOL     OW36253   3.313   2.898  13.824 -0.6883  0.4252 -0.2044
 8207SOL    HW136254   3.356   2.930  13.745 -0.5654  0.3085 -0.1852
 8207SOL    HW236255   3.248   2.839  13.785  1.0766 -1.2023 -0.6303
 8208SOL     OW36256   2.014   0.364   1.497  1.1052  0.0102  0.2379
 8208SOL    HW136257   1.989   0.429   1.431 -4.1714 -0.2009  2.0691
 8208SOL    HW236258   2.047   0.421   1.566 -0.1150 -0.3395  1.1230
 8209SOL     OW36259   4.045   4.418   2.278 -0.3270 -0.3569  0.0495
 8209SOL    HW136260   3.963   4.375   2.255 -0.2917 -1.0114  1.1578
 8209SOL    HW236261   4.017   4.506   2.305 -2.9465 -0.4049 -2.6161
 8210SOL     OW36262   4.373   3.032   6.479  0.1252 -0.5191 -0.0613
 8210SOL    HW136263   4.296   2.985   6.445  0.7345 -1.7828  0.2768
 8210SOL    HW236264   4.430   2.958   6.500  0.5598 -0.3549 -0.6555
 8211SOL     OW36265   2.787   1.171  17.566  0.9860 -0.1442  0.5040
 8211SOL    HW136266   2.803   1.219  17.647  0.4486 -0.9505  1.0912
 8211SOL    HW236267   2.795   1.236  17.496 -2.3387  0.7046  0.8861
 8212SOL     OW36268   2.379   2.888   3.769  0.0389  0.1930  0.1456
 8212SOL    HW136269   2.304   2.945   3.781  0.3871  0.3945  1.4098
 8212SOL    HW236270   2.334   2.815   3.728 -0.9570  0.8546  0.0779
 8213SOL     OW36271   3.463   3.038  16.784  0.8579 -0.2537  0.3111
 8213SOL    HW136272   3.484   3.121  16.827 -0.1114 -0.0991  0.4888
 8213SOL    HW236273   3.554   3.013  16.768  1.0643  0.9173 -0.3237
 8214SOL     OW36274   2.303   3.672   2.953  0.5896 -0.5984  0.7980
 8214SOL    HW136275   2.369   3.713   3.009  1.4867  0.6393 -1.1594
 8214SOL    HW236276   2.306   3.731   2.877 -0.7879  0.0559  1.2588
 8215SOL     OW36277   0.446   2.672   6.336  0.2848  0.0722 -0.7254
 8215SOL    HW136278   0.462   2.748   6.392  2.7234  0.0981 -1.4206
 8215SOL    HW236279   0.507   2.611   6.378  0.4290 -0.3446 -1.5444
 8216SOL     OW36280   2.494   0.716   5.986 -0.3670  0.1130 -0.0036
 8216SOL    HW136281   2.580   0.675   5.987 -0.8518 -0.9277 -1.0689
 8216SOL    HW236282   2.487   0.737   5.893 -0.0429 -1.0788 -0.3032
 8217SOL     OW36283   1.697   4.144   1.984 -0.4094 -0.3448 -0.0236
 8217SOL    HW136284   1.643   4.207   1.937  0.6088  0.7641  0.3002
 8217SOL    HW236285   1.716   4.209   2.052 -1.2486 -0.1124 -0.0082
 8218SOL     OW36286   0.608   3.050  10.844  0.4831 -0.4287 -0.1999
 8218SOL    HW136287   0.565   2.965  10.834 -0.9708  0.2231  0.4591
 8218SOL    HW236288   0.686   3.030  10.895  0.3987  0.2988  0.2140
 8219SOL     OW36289   1.439   0.872   7.849 -0.6432 -0.4243 -0.2516
 8219SOL    HW136290   1.367   0.834   7.798 -1.2025 -0.8157  0.8312
 8219SOL    HW236291   1.402   0.868   7.937 -1.1330 -0.1343 -0.4422
 8220SOL     OW36292   1.349   4.510   4.389 -0.1273  0.1262  0.2251
 8220SOL    HW136293   1.349   4.601   4.359 -1.4147 -0.6602 -2.1416
 8220SOL    HW236294   1.399   4.512   4.471  0.3220  2.1181 -0.0785
 8221SOL     OW36295   1.746   0.233   0.841  0.4893  0.5658 -0.4493
 8221SOL    HW136296   1.681   0.264   0.778  2.2155  2.0599 -1.5109
 8221SOL    HW236297   1.791   0.164   0.792  0.8824  0.7784 -0.3861
 8222SOL     OW36298   3.496   3.380   5.134  0.0364  0.1994  0.7980
 8222SOL    HW136299   3.461   3.373   5.045  1.2807 -1.3449  0.4291
 8222SOL    HW236300   3.417   3.338   5.169 -0.3436  1.0524  0.9605
 8223SOL     OW36301   0.456   4.024   5.555  0.1816 -0.6479 -0.3388
 8223SOL    HW136302   0.518   4.084   5.597  0.5134 -2.0541  1.1954
 8223SOL    HW236303   0.496   3.938   5.566  2.9008  0.9149  1.8424
 8224SOL     OW36304   4.291   3.541   8.362 -0.5239  0.1599  0.4806
 8224SOL    HW136305   4.285   3.545   8.266 -0.4827  1.2737  0.5177
 8224SOL    HW236306   4.368   3.592   8.386 -1.3097  0.6812  1.9169
 8225SOL     OW36307   1.977   3.226   1.812 -0.5600  0.1367  0.0515
 8225SOL    HW136308   1.958   3.132   1.808  0.0070  0.0269 -0.1437
 8225SOL    HW236309   1.949   3.252   1.724  0.7688  0.8755 -0.1462
 8226SOL     OW36310   2.457   0.877  16.208 -0.7207 -0.8015 -0.1684
 8226SOL    HW136311   2.364   0.856  16.207 -0.6683 -1.0504  2.0994
 8226SOL    HW236312   2.446   0.968  16.237  2.3932 -1.0632  1.8377
 8227SOL     OW36313   0.330   0.646   4.288 -0.8777 -0.8324 -0.2404
 8227SOL    HW136314   0.293   0.558   4.276 -0.6758 -0.7179 -1.6196
 8227SOL    HW236315   0.405   0.628   4.345 -0.3484 -0.3974 -0.8100
 8228SOL     OW36316   3.301   3.580   7.821  0.2304 -0.3448 -0.0941
 8228SOL    HW136317   3.349   3.523   7.881 -2.6203 -0.1691  2.3305
 8228SOL    HW236318   3.265   3.517   7.758  1.7675 -1.5066  0.1862
 8229SOL     OW36319   1.427   3.054   1.794  0.2675 -0.2843 -0.2339
 8229SOL    HW136320   1.367   3.089   1.729 -0.1984  1.1842  0.9954
 8229SOL    HW236321   1.499   3.116   1.785  1.5214 -1.8618 -1.1387
 8230SOL     OW36322   3.406   2.641   9.393  0.1634  0.1549  0.4848
 8230SOL    HW136323   3.354   2.718   9.418  0.5339  1.3880 -2.5790
 8230SOL    HW236324   3.447   2.657   9.308 -1.3011 -0.9496 -0.4225
 8231SOL     OW36325   4.327   0.414   9.321  0.1294  0.2806 -0.2203
 8231SOL    HW136326   4.410   0.440   9.361  0.4972  0.3374 -1.0174
 8231SOL    HW236327   4.297   0.344   9.378 -0.8063  1.5468  0.8556
 8232SOL     OW36328   2.587   3.396   7.761  0.0631 -0.1051  0.1132
 8232SOL    HW136329   2.589   3.377   7.667 -1.3151  1.4019 -0.2109
 8232SOL    HW236330   2.567   3.309   7.796  0.6323 -0.6497 -0.9334
 8233SOL     OW36331   0.129   2.822   5.389 -0.1495  0.2744  0.2486
 8233SOL    HW136332   0.189   2.838   5.462  0.2798 -0.2396  0.0143
 8233SOL    HW236333   0.184   2.750   5.357 -0.7061 -1.1529  2.4806
 8234SOL     OW36334   2.529   4.599   1.960 -0.5584 -0.0035  0.5148
 8234SOL    HW136335   2.561   4.680   1.921  0.8582 -1.5651 -1.5380
 8234SOL    HW236336   2.435   4.614   1.972 -0.8182  1.2785 -2.9465
 8235SOL     OW36337   4.211   3.498   4.028 -0.2094 -0.1384 -0.4263
 8235SOL    HW136338   4.223   3.586   3.991  0.1366 -0.1483 -0.3343
 8235SOL    HW236339   4.268   3.444   3.973  1.4826 -1.5467  2.7800
 8236SOL     OW36340   1.433   1.188   3.878 -0.3736 -0.2126  0.0424
 8236SOL    HW136341   1.486   1.173   3.800  1.3181  1.8147  0.8213
 8236SOL    HW236342   1.490   1.160   3.949  0.7246 -1.8467 -1.4652
 8237SOL     OW36343   0.009   1.899   3.974  0.1729 -0.1472 -0.0199
 8237SOL    HW136344   4.654   1.876   3.961  0.3219 -0.6521 -0.1697
 8237SOL    HW236345   0.029   1.972   3.916  0.2758  0.5292  0.8594
 8238SOL     OW36346   0.301   1.224   4.817 -0.2362  0.3768  0.3836
 8238SOL    HW136347   0.340   1.282   4.752 -0.4662 -1.6507 -1.5895
 8238SOL    HW236348   0.238   1.288   4.850 -1.9840  0.4091 -3.0920
 8239SOL     OW36349   2.992   3.757   9.499  0.7268 -0.1397 -0.0003
 8239SOL    HW136350   2.935   3.834   9.501 -0.4714 -1.0365 -0.0571
 8239SOL    HW236351   2.970   3.707   9.421  0.1399  1.2843 -0.7485
 8240SOL     OW36352   0.181   2.834  12.297 -0.2165 -0.1827 -0.9235
 8240SOL    HW136353   0.231   2.788  12.365 -1.1043 -1.4848 -1.1360
 8240SOL    HW236354   0.250   2.835  12.231  2.5733 -3.6307  1.9328
 8241SOL     OW36355   1.555   2.975   2.187  0.0384 -0.3122 -0.4128
 8241SOL    HW136356   1.524   2.927   2.263  0.9894  1.0327  0.8089
 8241SOL    HW236357   1.647   2.985   2.212 -1.0155  0.6383  2.9834
 8242SOL     OW36358   0.274   3.776   9.511  0.1853 -0.4565  0.1729
 8242SOL    HW136359   0.179   3.784   9.503  0.1856 -0.4515  0.1742
 8242SOL    HW236360   0.285   3.749   9.603 -1.7766 -0.6928  0.3293
 8243SOL     OW36361   3.953   1.531  15.723  0.1478  0.2098 -0.2057
 8243SOL    HW136362   4.022   1.475  15.689 -0.3665 -0.6340  0.1464
 8243SOL    HW236363   3.873   1.482  15.706 -0.9830  1.8214  0.4146
 8244SOL     OW36364   0.687   3.140   7.455 -0.7829  0.2075 -0.1606
 8244SOL    HW136365   0.697   3.132   7.360 -1.6561  1.0957 -0.3248
 8244SOL    HW236366   0.623   3.209   7.471 -0.8452 -0.4389  2.3446
 8245SOL     OW36367   4.618   1.383  14.829 -0.2824 -0.3869 -0.3173
 8245SOL    HW136368   4.580   1.463  14.792  0.3624  1.2572  2.5577
 8245SOL    HW236369   4.563   1.377  14.907 -1.2539 -2.1300 -1.1352
 8246SOL     OW36370   1.824   3.605   7.258  1.2021 -0.1954 -0.0146
 8246SOL    HW136371   1.802   3.646   7.175 -2.1149 -0.1509  0.8977
 8246SOL    HW236372   1.750   3.625   7.315  1.4815  1.2938 -0.1700
 8247SOL     OW36373   2.119   2.734   7.385  0.2728  0.4447 -0.1444
 8247SOL    HW136374   2.098   2.777   7.302 -0.4335  2.2319  0.9480
 8247SOL    HW236375   2.188   2.789   7.422  1.0784 -1.7594  1.6285
 8248SOL     OW36376   4.406   4.282   4.260  0.0228  0.2626  0.1417
 8248SOL    HW136377   4.429   4.366   4.220  0.9007 -1.0563 -2.1094
 8248SOL    HW236378   4.314   4.303   4.270 -0.0667  0.1177 -0.3561
 8249SOL     OW36379   4.561   1.649   4.389 -0.1818  0.1110 -0.6712
 8249SOL    HW136380   4.584   1.697   4.469  0.6406 -0.5816 -0.4902
 8249SOL    HW236381   4.556   1.711   4.317 -2.4213  1.3953  0.6027
 8250SOL     OW36382   3.661   1.778   6.111  0.8219 -0.3327  0.3232
 8250SOL    HW136383   3.688   1.726   6.035 -0.3289 -0.5945  0.0929
 8250SOL    HW236384   3.611   1.713   6.160  0.6370 -0.1047  0.4355
 8251SOL     OW36385   0.463   3.253  10.485 -0.0814 -0.2015 -0.2280
 8251SOL    HW136386   0.473   3.348  10.489  0.5868 -0.2881  0.2266
 8251SOL    HW236387   0.546   3.222  10.522 -1.3439 -1.5047  1.4885
 8252SOL     OW36388   4.681   4.099  10.865  0.6350 -0.1052 -0.5313
 8252SOL    HW136389   4.658   4.162  10.933 -1.6118  0.4450 -1.7750
 8252SOL    HW236390   0.034   4.126  10.847  0.6730  0.7776  0.9985
 8253SOL     OW36391   0.806   1.617   2.835 -0.1619 -0.3113 -0.0972
 8253SOL    HW136392   0.790   1.542   2.893 -1.2066  0.3159  0.4293
 8253SOL    HW236393   0.786   1.572   2.753  0.5073 -1.7099  0.4989
 8254SOL     OW36394   3.044   2.647  10.790  0.2410 -0.1145 -0.0033
 8254SOL    HW136395   3.039   2.738  10.821 -1.7161 -1.1917  2.9120
 8254SOL    HW236396   3.120   2.658  10.733  0.9773  3.6417  1.7050
 8255SOL     OW36397   1.536   0.489   6.555 -0.1839 -0.8482  0.1420
 8255SOL    HW136398   1.518   0.415   6.613  0.6044  0.8714  2.5742
 8255SOL    HW236399   1.557   0.559   6.616 -1.0792 -1.0646  0.6863
 8256SOL     OW36400   2.830   1.374   8.600  0.2394 -0.1632  0.0654
 8256SOL    HW136401   2.772   1.421   8.659 -0.9684 -1.6573  0.0643
 8256SOL    HW236402   2.908   1.430   8.603  1.7797 -2.4435  2.8255
 8257SOL     OW36403   2.431   2.437   7.002  0.3693  0.0767 -0.0427
 8257SOL    HW136404   2.355   2.493   6.988  0.3474 -0.1996 -1.0719
 8257SOL    HW236405   2.410   2.372   6.934 -0.0605 -0.4462  0.5841
 8258SOL     OW36406   3.121   2.322   6.611  0.4187 -0.1034  0.2991
 8258SOL    HW136407   3.139   2.347   6.702  1.2417  0.4847 -0.0216
 8258SOL    HW236408   3.177   2.245   6.605  0.5661 -0.0250  0.7018
 8259SOL     OW36409   4.455   1.293   8.914  0.1072  0.0305 -0.1613
 8259SOL    HW136410   4.505   1.374   8.905  1.2488 -0.3912  2.5216
 8259SOL    HW236411   4.515   1.230   8.873  1.4745  1.1817  0.0846
 8260SOL     OW36412   0.859   2.347   7.803 -0.5269 -0.1422  0.1861
 8260SOL    HW136413   0.927   2.412   7.785 -1.2630  0.3681 -0.7399
 8260SOL    HW236414   0.837   2.371   7.893  1.0479 -0.9117  0.7797
 8261SOL     OW36415   4.162   0.493   5.916  0.3190 -0.1016  0.4451
 8261SOL    HW136416   4.179   0.470   6.008 -1.8346  0.0125  0.8754
 8261SOL    HW236417   4.071   0.521   5.929  0.1623 -0.2395 -0.4037
 8262SOL     OW36418   3.598   3.146   3.327  0.2880  0.3616  0.0499
 8262SOL    HW136419   3.651   3.223   3.349  1.4847  0.1076 -1.9624
 8262SOL    HW236420   3.536   3.184   3.265 -0.1048 -1.4103 -0.6235
 8263SOL     OW36421   2.444   0.423  11.771  0.0434 -0.1287  0.3425
 8263SOL    HW136422   2.377   0.485  11.743 -0.2976 -1.0677 -0.8893
 8263SOL    HW236423   2.457   0.372  11.691 -2.9558  0.1692 -0.3249
 8264SOL     OW36424   1.637   2.839   3.713  0.4904 -0.0992 -0.0621
 8264SOL    HW136425   1.553   2.883   3.719  1.3612  1.6956 -1.0167
 8264SOL    HW236426   1.669   2.882   3.633  0.7506 -1.5423 -0.7409
 8265SOL     OW36427   0.967   3.602   2.025  0.5214  0.0671 -0.4822
 8265SOL    HW136428   0.954   3.659   1.949 -0.0022 -0.5780 -0.8722
 8265SOL    HW236429   0.937   3.522   1.982 -1.3686 -0.8769  2.5551
 8266SOL     OW36430   4.319   2.627   3.701  0.3686  0.2191  0.2936
 8266SOL    HW136431   4.241   2.667   3.740  0.0799 -0.9886  0.9692
 8266SOL    HW236432   4.389   2.626   3.765  0.1477  0.4422  0.5369
 8267SOL     OW36433   1.947   2.170  17.729  0.6327 -0.8215  0.5933
 8267SOL    HW136434   1.892   2.127  17.664  0.9116  0.6320 -0.6202
 8267SOL    HW236435   2.028   2.130  17.697  0.1190 -1.9820  0.7596
 8268SOL     OW36436   0.220   3.479   4.962  0.2127 -0.5860  0.2981
 8268SOL    HW136437   0.239   3.549   4.899  2.6160 -1.5382 -0.0100
 8268SOL    HW236438   0.239   3.401   4.910  1.1603 -0.3290  0.2702
 8269SOL     OW36439   4.532   2.737   1.428 -0.2057 -0.5506  0.6112
 8269SOL    HW136440   4.592   2.713   1.358  0.1502  0.4577  0.5619
 8269SOL    HW236441   4.491   2.816   1.392 -1.1556 -1.2705  0.1069
 8270SOL     OW36442   1.821   3.274   4.311 -0.4381  0.0346  0.5469
 8270SOL    HW136443   1.854   3.196   4.265  0.4825  1.1817 -0.7357
 8270SOL    HW236444   1.821   3.244   4.402 -1.1813 -0.9550  0.2136
 8271SOL     OW36445   1.715   4.308   6.449 -0.4737 -0.1744 -0.1965
 8271SOL    HW136446   1.801   4.269   6.464 -0.1147  0.4243 -0.7190
 8271SOL    HW236447   1.725   4.310   6.353  1.6976  0.3469  0.0435
 8272SOL     OW36448   0.265   3.888   5.238  0.6797 -0.0549  0.5085
 8272SOL    HW136449   0.351   3.852   5.216  0.7023  0.5400 -0.3589
 8272SOL    HW236450   0.268   3.976   5.200  2.9186  0.3439  1.5947
 8273SOL     OW36451   2.880   1.289   9.267 -0.4072 -0.4841 -0.2917
 8273SOL    HW136452   2.956   1.271   9.323 -0.2353 -0.5614 -0.5501
 8273SOL    HW236453   2.806   1.264   9.321 -1.9483  0.4089 -2.0112
 8274SOL     OW36454   3.618   2.988   7.923 -0.0415  0.7535  0.3596
 8274SOL    HW136455   3.618   2.987   8.019 -1.9986  1.2268  0.3696
 8274SOL    HW236456   3.709   2.964   7.909  0.2011  0.7073  1.9726
 8275SOL     OW36457   1.045   4.618   7.159  0.7036 -0.1569  0.1001
 8275SOL    HW136458   0.968   4.648   7.111 -0.1271  1.3435  2.3488
 8275SOL    HW236459   1.112   4.659   7.104 -1.3457  0.4991 -1.8907
 8276SOL     OW36460   1.787   1.818  17.677  0.5052 -0.0979 -0.4812
 8276SOL    HW136461   1.857   1.832  17.740  0.1518 -1.8089  0.2940
 8276SOL    HW236462   1.793   1.896  17.621 -0.6709  1.9464  2.2335
 8277SOL     OW36463   3.816   0.769   2.662  0.6460  0.3061 -0.2221
 8277SOL    HW136464   3.813   0.719   2.581  0.3831 -1.4585  0.8884
 8277SOL    HW236465   3.767   0.717   2.725  2.7897  0.5262  1.6199
 8278SOL     OW36466   1.877   1.581   0.298  0.3057  0.5627 -0.5887
 8278SOL    HW136467   1.809   1.517   0.280  2.1298 -0.7652 -2.7694
 8278SOL    HW236468   1.925   1.592   0.215 -0.9947 -1.2009 -1.5756
 8279SOL     OW36469   0.079   0.442   6.254 -0.7299  0.3377 -0.7946
 8279SOL    HW136470   0.039   0.376   6.310 -0.7415  2.1191  1.3282
 8279SOL    HW236471   0.056   0.518   6.307 -0.1135  0.3389 -0.5224
 8280SOL     OW36472   4.673   4.321   8.465  0.5449 -0.1752  0.3180
 8280SOL    HW136473   4.588   4.352   8.497  1.0215  2.1688 -0.7258
 8280SOL    HW236474   4.680   4.365   8.381  0.2765  0.7209  0.7633
 8281SOL     OW36475   0.069   1.130   6.434 -0.0035  0.6071  0.0609
 8281SOL    HW136476   0.033   1.077   6.363 -0.7487 -1.3023  1.8688
 8281SOL    HW236477   0.039   1.217   6.405  2.2255  1.2993 -0.1609
 8282SOL     OW36478   3.531   2.238   0.054  0.0164  0.1378 -0.0175
 8282SOL    HW136479   3.445   2.276   0.068 -0.7150 -0.6672 -2.4235
 8282SOL    HW236480   3.520   2.175  17.729  1.0934  0.0816 -0.1386
 8283SOL     OW36481   1.873   2.920   7.344 -0.1323 -0.2840  0.0639
 8283SOL    HW136482   1.888   2.889   7.255  1.1231 -0.3100  0.2905
 8283SOL    HW236483   1.780   2.898   7.354  0.0990 -1.6766 -0.7878
 8284SOL     OW36484   2.027   2.603   8.162  0.1499 -0.3557  0.0288
 8284SOL    HW136485   1.947   2.627   8.209  0.7285  0.6135  0.5053
 8284SOL    HW236486   1.996   2.607   8.072 -1.5619 -1.3235  0.5648
 8285SOL     OW36487   4.298   0.329   4.505 -0.5096 -0.0701  0.0464
 8285SOL    HW136488   4.265   0.277   4.432 -2.4626 -0.8153  1.4588
 8285SOL    HW236489   4.238   0.298   4.573  1.4686 -0.6078  1.5662
 8286SOL     OW36490   4.544   2.923  15.842 -0.0517 -0.2428 -0.0190
 8286SOL    HW136491   4.535   2.830  15.866 -0.5141 -0.1693  0.0876
 8286SOL    HW236492   4.585   2.916  15.756  2.3562  0.6405  1.0524
 8287SOL     OW36493   3.117   3.110   5.561  1.1689  1.0355  0.0452
 8287SOL    HW136494   3.192   3.167   5.578  0.1446  2.9085 -1.7278
 8287SOL    HW236495   3.039   3.165   5.573 -0.0736 -0.6882 -0.1388
 8288SOL     OW36496   4.667   2.811   5.738  0.4271  0.4108 -0.2950
 8288SOL    HW136497   4.638   2.864   5.663  0.0915  0.0699 -0.4053
 8288SOL    HW236498   4.666   2.880   5.805  0.1350 -1.2276  1.3964
 8289SOL     OW36499   0.565   4.164   6.418  0.0005  0.4195  0.3665
 8289SOL    HW136500   0.588   4.234   6.480 -0.7835  0.4436  0.6380
 8289SOL    HW236501   0.651   4.142   6.383 -0.6336 -0.0002 -0.9083
 8290SOL     OW36502   2.604   1.242   8.339  0.1053  0.2025  0.0689
 8290SOL    HW136503   2.658   1.171   8.306  0.1070  0.5946 -0.7791
 8290SOL    HW236504   2.570   1.264   8.252 -1.0289 -0.8669  0.2462
 8291SOL     OW36505   0.177   4.496   6.486 -0.1616  0.1942  0.3270
 8291SOL    HW136506   0.204   4.548   6.410  0.8441 -0.5609  0.1722
 8291SOL    HW236507   0.253   4.502   6.543 -1.7687  1.0484  2.3752
 8292SOL     OW36508   1.119   1.048   6.532 -0.2198 -0.2918 -0.1037
 8292SOL    HW136509   1.066   1.053   6.452 -1.3022 -2.4807  0.4827
 8292SOL    HW236510   1.150   0.957   6.529 -0.6587 -0.5211  2.9077
 8293SOL     OW36511   3.724   1.049  11.275 -0.2966 -0.1708 -0.5469
 8293SOL    HW136512   3.713   1.134  11.231  1.6041  1.4533  2.1339
 8293SOL    HW236513   3.692   0.989  11.208  0.6248 -1.4538  0.1640
 8294SOL     OW36514   0.125   4.676   7.821  0.0166 -0.1316  0.1582
 8294SOL    HW136515   0.162   4.616   7.756  1.4729  1.5413 -0.5544
 8294SOL    HW236516   0.201   4.732   7.834  0.4908 -0.8848  0.6150
 8295SOL     OW36517   4.032   1.018   0.608  0.0937 -0.1261  0.1109
 8295SOL    HW136518   4.124   1.029   0.633 -0.9502 -0.3473  4.0294
 8295SOL    HW236519   3.983   0.998   0.687 -0.8279 -0.8201 -0.6259
 8296SOL     OW36520   4.548   1.519   2.637  0.3465 -0.1348 -0.2732
 8296SOL    HW136521   4.561   1.448   2.700  0.0860  0.1838  0.1339
 8296SOL    HW236522   4.528   1.464   2.560  1.3371  0.7709 -1.1686
 8297SOL     OW36523   0.039   0.650   3.251  0.5293  0.2530  0.0451
 8297SOL    HW136524   0.081   0.731   3.280  1.1403 -0.4189  1.0437
 8297SOL    HW236525   4.685   0.657   3.280  1.4397  2.7155  2.2889
 8298SOL     OW36526   0.872   0.100   8.171 -0.2945 -0.3260 -0.0442
 8298SOL    HW136527   0.851   0.071   8.260 -1.3090  0.6442  0.0364
 8298SOL    HW236528   0.857   0.015   8.129 -0.2480 -0.2637 -0.1864
 8299SOL     OW36529   1.997   1.422   1.368 -0.1564 -0.0134  0.6589
 8299SOL    HW136530   1.980   1.487   1.299 -1.5326 -0.8220  0.2374
 8299SOL    HW236531   1.947   1.464   1.438 -0.4856 -0.1951  0.5349
 8300SOL     OW36532   3.424   2.034   9.222  0.1016 -0.0088  0.5639
 8300SOL    HW136533   3.476   2.017   9.143  0.0598 -0.8975  0.7323
 8300SOL    HW236534   3.493   2.078   9.273  1.1646 -0.8620 -0.1332
 8301SOL     OW36535   1.368   1.641   4.660 -0.7367 -0.6191 -0.5933
 8301SOL    HW136536   1.421   1.563   4.676  2.0866  2.0014  2.6995
 8301SOL    HW236537   1.283   1.601   4.638 -1.2745 -0.5968  1.4525
 8302SOL     OW36538   1.087   4.526   3.283  0.5569  0.1374  0.0322
 8302SOL    HW136539   0.996   4.519   3.310 -0.0187  0.1371 -1.9207
 8302SOL    HW236540   1.142   4.501   3.358  0.5072  1.0464  0.3627
 8303SOL     OW36541   3.734   3.439   7.273 -0.2795  0.1813 -0.0467
 8303SOL    HW136542   3.644   3.423   7.304 -0.5332 -0.5278 -1.1386
 8303SOL    HW236543   3.719   3.527   7.239 -0.2035 -0.5798 -2.0617
 8304SOL     OW36544   4.243   2.964   9.159 -0.4540 -0.1787 -0.0139
 8304SOL    HW136545   4.264   3.054   9.133 -1.7388  0.5565  1.4790
 8304SOL    HW236546   4.147   2.966   9.157 -0.4144  0.0043 -1.4519
 8305SOL     OW36547   3.509   3.173   7.766 -0.2845 -0.3833 -0.4373
 8305SOL    HW136548   3.456   3.186   7.844 -0.1147  2.8956 -0.8655
 8305SOL    HW236549   3.568   3.107   7.801 -1.6573 -1.4175 -0.1102
 8306SOL     OW36550   1.835   3.170   3.859 -0.0271  0.3541  0.1677
 8306SOL    HW136551   1.856   3.232   3.929 -0.1657  1.2192 -0.5522
 8306SOL    HW236552   1.851   3.229   3.785 -1.6383 -1.8970 -1.9532
 8307SOL     OW36553   1.021   4.160   2.314  0.1070 -0.2798  0.0378
 8307SOL    HW136554   0.969   4.192   2.387  0.4863  2.7702 -1.0258
 8307SOL    HW236555   0.960   4.090   2.291 -0.2190 -0.3738  1.2321
 8308SOL     OW36556   2.716   0.108   5.158  0.0986 -0.4750  0.1628
 8308SOL    HW136557   2.790   0.066   5.114 -0.9398 -0.6214 -1.4515
 8308SOL    HW236558   2.766   0.183   5.191 -0.8510  0.5337 -0.6978
 8309SOL     OW36559   0.497   3.900   6.273 -0.7748  0.0227  0.0732
 8309SOL    HW136560   0.520   3.959   6.345  1.6281  1.8993 -2.2197
 8309SOL    HW236561   0.587   3.873   6.253 -1.3483 -3.2797  1.9510
 8310SOL     OW36562   0.825   0.486   6.691  0.7309 -0.3701 -0.1062
 8310SOL    HW136563   0.864   0.545   6.626  0.7293 -0.3858 -0.1215
 8310SOL    HW236564   0.792   0.559   6.742  1.1420  0.6116 -1.2594
 8311SOL     OW36565   1.573   0.368   3.115 -0.0835 -0.0812  0.4086
 8311SOL    HW136566   1.554   0.346   3.206  0.1739 -0.1272  0.4531
 8311SOL    HW236567   1.509   0.314   3.069 -0.5290  0.8818 -0.1250
 8312SOL     OW36568   2.190   0.324   8.320 -0.2864 -0.3896 -0.0588
 8312SOL    HW136569   2.158   0.243   8.281 -0.1881 -0.2998 -0.3223
 8312SOL    HW236570   2.242   0.358   8.248 -2.7317  0.5908 -1.3399
 8313SOL     OW36571   2.044   2.134  12.975  0.1280  0.2447 -0.2377
 8313SOL    HW136572   1.995   2.052  12.974 -0.6749  0.7681 -2.7585
 8313SOL    HW236573   1.980   2.202  12.956 -0.2592 -0.6092 -2.0070
 8314SOL     OW36574   2.834   2.085   6.520  0.5407  0.1061  0.1774
 8314SOL    HW136575   2.864   2.170   6.552 -0.2995  1.1476 -1.8235
 8314SOL    HW236576   2.824   2.036   6.602  2.4604  2.1969  1.6591
 8315SOL     OW36577   3.414   0.744   9.569  0.4290 -0.0282  0.3316
 8315SOL    HW136578   3.389   0.825   9.612 -0.5025 -0.2396  0.1793
 8315SOL    HW236579   3.474   0.707   9.634 -1.5252 -1.7861  1.1566
 8316SOL     OW36580   0.268   4.300  12.074 -0.0763 -0.0223 -0.1662
 8316SOL    HW136581   0.293   4.217  12.113  0.5796  0.5201  0.5543
 8316SOL    HW236582   0.355   4.337  12.055  0.6176 -1.6533 -0.1919
 8317SOL     OW36583   3.350   4.730   2.120  0.0605  0.8505  0.6188
 8317SOL    HW136584   3.374   4.729   2.028 -3.3672  1.1391 -0.2602
 8317SOL    HW236585   3.335   4.637   2.135 -0.0441  0.9313  1.0331
 8318SOL     OW36586   1.656   0.049  14.140  0.2274 -0.3058  0.2078
 8318SOL    HW136587   1.563   0.049  14.117 -0.4259 -0.7748  2.8287
 8318SOL    HW236588   1.696   0.063  14.054  2.4725  1.7152  1.5590
 8319SOL     OW36589   2.416   2.531   4.806 -0.1185  0.0006 -0.2271
 8319SOL    HW136590   2.488   2.568   4.858  1.3927 -1.2596 -1.4282
 8319SOL    HW236591   2.449   2.545   4.717 -0.1180 -0.6650 -0.3280
 8320SOL     OW36592   3.192   1.880   3.311  0.4394  0.5533 -0.0453
 8320SOL    HW136593   3.263   1.816   3.302  0.7920  0.9188  0.1995
 8320SOL    HW236594   3.216   1.941   3.242 -1.6342  0.6098 -0.7297
 8321SOL     OW36595   2.130   1.403   1.014 -0.2053  0.0393 -0.6120
 8321SOL    HW136596   2.074   1.448   0.951 -1.4737  0.7293  0.9940
 8321SOL    HW236597   2.180   1.478   1.047 -1.0608  0.1330  0.4742
 8322SOL     OW36598   1.312   3.934   3.968  0.4038  0.0584  0.2408
 8322SOL    HW136599   1.374   3.893   4.028  1.5792  1.8938  0.2658
 8322SOL    HW236600   1.325   4.028   3.978  0.9138  0.0846 -0.6768
 8323SOL     OW36601   4.488   1.859   9.303  0.5832  0.2555 -0.0245
 8323SOL    HW136602   4.499   1.765   9.318  0.1123  0.2997  0.6060
 8323SOL    HW236603   4.475   1.883   9.395  0.7418 -2.3213  0.6665
 8324SOL     OW36604   4.636   2.169   0.093 -0.2817 -0.4719  0.3644
 8324SOL    HW136605   4.637   2.151   0.187  1.8611  1.4069  0.6997
 8324SOL    HW236606   4.680   2.094   0.054 -0.3427 -0.7477  0.8234
 8325SOL     OW36607   0.756   4.007   7.422 -0.1935 -0.5292 -0.0571
 8325SOL    HW136608   0.754   4.086   7.475 -1.2473  2.1152 -4.0922
 8325SOL    HW236609   0.779   4.031   7.333 -3.1616  2.5316  0.0005
 8326SOL     OW36610   3.620   2.744   5.278 -0.2158 -0.3473  0.2141
 8326SOL    HW136611   3.647   2.683   5.346 -2.0323 -0.9193  0.3984
 8326SOL    HW236612   3.700   2.732   5.227  1.0114 -2.8589  2.7728
 8327SOL     OW36613   3.895   3.725  15.053 -0.1168 -0.0491  0.2097
 8327SOL    HW136614   3.875   3.719  14.959 -1.8099 -0.8572  0.6210
 8327SOL    HW236615   3.808   3.752  15.084  0.1768  0.8299  0.2722
 8328SOL     OW36616   2.869   2.180   2.399 -0.2645  0.2707  0.0490
 8328SOL    HW136617   2.860   2.088   2.426  2.2161 -1.2110 -4.1675
 8328SOL    HW236618   2.810   2.217   2.465  0.0482  1.5611 -0.4101
 8329SOL     OW36619   0.518   3.374  16.372  0.4917 -0.3425  1.0270
 8329SOL    HW136620   0.583   3.305  16.366  0.8346  0.0243  0.5407
 8329SOL    HW236621   0.486   3.375  16.281  2.8900  0.3636  0.2026
 8330SOL     OW36622   3.940   2.406  14.985  0.5986 -0.0464 -0.6288
 8330SOL    HW136623   3.982   2.374  15.064 -0.2080 -2.2890 -1.1185
 8330SOL    HW236624   3.880   2.469  15.025  1.5230  0.0952  0.5089
 8331SOL     OW36625   3.985   1.786   7.460  0.0042 -0.1264 -0.2685
 8331SOL    HW136626   4.076   1.792   7.489  1.0447 -0.2153 -3.5161
 8331SOL    HW236627   3.994   1.802   7.366  1.3841 -3.3109 -0.6620
 8332SOL     OW36628   3.282   3.266  16.740 -0.2901  0.0285 -0.1417
 8332SOL    HW136629   3.270   3.297  16.651  2.0723  0.6051 -0.2426
 8332SOL    HW236630   3.320   3.179  16.729 -1.5581 -0.5924  0.2510
 8333SOL     OW36631   3.877   0.147   0.628  0.0231  0.3476  0.0196
 8333SOL    HW136632   3.967   0.118   0.643 -0.6156 -1.5401  0.1586
 8333SOL    HW236633   3.857   0.089   0.554 -0.7407  0.8875 -0.1967
 8334SOL     OW36634   3.206   1.732   6.865 -0.0663 -0.0527  0.0040
 8334SOL    HW136635   3.249   1.817   6.869  0.1454 -0.0351 -2.6275
 8334SOL    HW236636   3.203   1.696   6.954  0.8479 -4.1889 -1.6190
 8335SOL     OW36637   0.265   3.170   2.887  0.3196  0.4858  0.3528
 8335SOL    HW136638   0.226   3.113   2.953  0.8694 -0.7205 -0.3546
 8335SOL    HW236639   0.218   3.252   2.903 -0.1400  0.1018  0.9433
 8336SOL     OW36640   0.064   3.061   8.890 -0.7384  0.0266 -0.5180
 8336SOL    HW136641   4.708   3.084   8.881 -0.5747  0.6231 -0.7018
 8336SOL    HW236642   0.064   3.061   8.986  0.4872 -1.8282 -0.5260
 8337SOL     OW36643   3.859   4.034   7.031  0.7385 -0.2183 -0.6027
 8337SOL    HW136644   3.896   3.973   6.967  1.7515 -0.6305  0.3881
 8337SOL    HW236645   3.794   4.081   6.978  0.4008 -2.1514 -1.9170
 8338SOL     OW36646   4.704   0.768   5.503  0.3808  0.1637  0.1249
 8338SOL    HW136647   4.687   0.747   5.411  2.7987  1.7342 -0.6630
 8338SOL    HW236648   4.622   0.733   5.539  1.8865 -1.0912  2.3128
 8339SOL     OW36649   1.042   4.407  10.855  0.5701  0.1714 -0.1096
 8339SOL    HW136650   1.026   4.361  10.773 -2.2999  1.0636 -0.0656
 8339SOL    HW236651   1.133   4.378  10.865 -0.2356 -2.0857  0.6349
 8340SOL     OW36652   4.356   3.449  15.158  0.3942 -0.3447  0.3537
 8340SOL    HW136653   4.404   3.370  15.185  2.1404  0.0653 -1.5700
 8340SOL    HW236654   4.269   3.423  15.190 -0.4371  2.7372  0.5590
 8341SOL     OW36655   1.880   2.945   4.668 -0.6986 -0.1614  0.2784
 8341SOL    HW136656   1.834   2.862   4.655 -0.0725 -0.3658 -0.6705
 8341SOL    HW236657   1.917   2.929   4.755 -0.0143 -1.0200 -0.1648
 8342SOL     OW36658   2.059   3.558   6.358  0.1752 -0.6226  0.0952
 8342SOL    HW136659   2.050   3.471   6.320 -0.0735 -0.8214  0.5967
 8342SOL    HW236660   2.123   3.533   6.425  1.1665  0.3140 -0.5104
 8343SOL     OW36661   2.010   2.251   5.108  0.2697 -0.2388  0.2919
 8343SOL    HW136662   1.952   2.248   5.184 -2.9068  2.0524 -2.0764
 8343SOL    HW236663   2.039   2.341   5.123  1.5738 -0.5691 -0.1845
 8344SOL     OW36664   3.869   0.078   2.155  0.0047 -0.3655  0.1378
 8344SOL    HW136665   3.810   0.022   2.105  2.6526 -2.4511 -0.6303
 8344SOL    HW236666   3.912   0.114   2.077  1.6475 -1.1972  0.6510
 8345SOL     OW36667   2.521   4.523   5.856 -0.2815  0.4578 -0.0165
 8345SOL    HW136668   2.561   4.514   5.943 -0.2504 -0.8033 -0.1594
 8345SOL    HW236669   2.490   4.436   5.832 -2.0723  1.2384 -0.4774
 8346SOL     OW36670   0.185   2.683  16.725  1.0420  0.0591  0.0133
 8346SOL    HW136671   0.247   2.647  16.662  1.2229 -0.7924  0.6796
 8346SOL    HW236672   0.125   2.608  16.727 -0.1166  0.9605 -0.7416
 8347SOL     OW36673   4.018   2.252  14.506  0.8276 -0.1595 -0.2314
 8347SOL    HW136674   4.099   2.298  14.489 -0.9828  3.0005 -0.2580
 8347SOL    HW236675   4.010   2.255  14.601 -1.7915 -3.3137 -0.3486
 8348SOL     OW36676   0.164   2.007   6.402 -0.1758 -0.6874  0.0437
 8348SOL    HW136677   0.204   1.921   6.386 -1.6617 -1.6774  1.5784
 8348SOL    HW236678   0.188   2.059   6.326 -0.0393 -0.8092  0.0037
 8349SOL     OW36679   1.630   3.229   1.503 -0.2582 -0.2474 -0.4231
 8349SOL    HW136680   1.585   3.174   1.439 -3.2179  0.9767  0.6064
 8349SOL    HW236681   1.561   3.262   1.560 -0.0113 -1.0288  0.3251
 8350SOL     OW36682   3.444   2.553   0.579 -0.3264 -0.2929  0.2597
 8350SOL    HW136683   3.475   2.462   0.579 -1.5397 -0.7028  0.1314
 8350SOL    HW236684   3.405   2.555   0.492  0.3169  1.4972  0.0259
 8351SOL     OW36685   0.964   4.265   9.603 -0.3029 -0.5653  0.1818
 8351SOL    HW136686   0.929   4.336   9.549 -0.6740 -0.0378  1.1145
 8351SOL    HW236687   0.968   4.325   9.678  1.3969 -0.6674  0.1835
 8352SOL     OW36688   1.008   0.413  10.610  0.8019  0.4007 -0.2563
 8352SOL    HW136689   1.064   0.380  10.540  2.1272  1.7534  0.1610
 8352SOL    HW236690   1.083   0.460  10.646  1.5769 -0.1899 -1.0980
 8353SOL     OW36691   0.957   2.554  16.822 -0.0827 -0.3216  0.4646
 8353SOL    HW136692   0.994   2.625  16.770  0.2823  2.3955  4.4026
 8353SOL    HW236693   0.875   2.596  16.846  0.6129 -0.6395  3.4001
 8354SOL     OW36694   2.285   1.062  10.117  0.5438 -0.8494 -0.1109
 8354SOL    HW136695   2.234   1.028  10.191  1.9195 -0.0016  1.2246
 8354SOL    HW236696   2.358   1.001  10.105  1.5135  0.9259 -3.0931
 8355SOL     OW36697   4.473   0.019   4.692  0.1799 -0.3237 -0.0328
 8355SOL    HW136698   4.443   0.045   4.779 -0.4316 -1.1413 -0.0015
 8355SOL    HW236699   4.549   4.702   4.715 -2.2632 -3.9548 -0.4504
 8356SOL     OW36700   2.719   1.033  16.824 -0.5270 -0.1207  0.0554
 8356SOL    HW136701   2.737   1.122  16.855 -3.1906  0.1926  0.7725
 8356SOL    HW236702   2.736   1.053  16.732 -0.7116 -1.0111 -0.1668
 8357SOL     OW36703   1.161   2.667   7.297  0.6154  0.3523  0.6925
 8357SOL    HW136704   1.116   2.666   7.381 -0.9741 -1.6966 -0.1876
 8357SOL    HW236705   1.121   2.596   7.248 -0.4128  1.2853  0.1933
 8358SOL     OW36706   4.143   3.278   4.178 -0.2187  0.0793 -0.0201
 8358SOL    HW136707   4.074   3.249   4.119 -2.2395  3.4982  0.6829
 8358SOL    HW236708   4.179   3.349   4.125  0.0556 -0.0393  0.0052
 8359SOL     OW36709   0.296   0.506   2.328 -0.2882  0.0473 -0.1075
 8359SOL    HW136710   0.299   0.432   2.388  0.2069 -0.1268 -0.3500
 8359SOL    HW236711   0.317   0.459   2.248  0.5707  0.4153 -0.1016
 8360SOL     OW36712   0.350   0.286   8.210 -1.4866 -0.7949  0.4582
 8360SOL    HW136713   0.352   0.380   8.230  1.2389 -0.3890 -1.7951
 8360SOL    HW236714   0.427   0.251   8.254 -0.4503  1.9126  0.8373
 8361SOL     OW36715   4.630   4.087  15.528 -0.0086  0.4559  0.5285
 8361SOL    HW136716   4.578   4.060  15.453  0.9482  1.1315 -0.3696
 8361SOL    HW236717   4.705   4.132  15.490 -0.0084  0.3794  0.4402
 8362SOL     OW36718   1.310   2.123  12.098  0.5518  0.3960  0.0493
 8362SOL    HW136719   1.218   2.116  12.076  0.9291 -1.9150 -0.7877
 8362SOL    HW236720   1.327   2.205  12.051  2.5620 -0.7855 -1.3156
 8363SOL     OW36721   2.052   0.179  13.229 -0.0464 -0.0354 -0.0041
 8363SOL    HW136722   1.985   0.157  13.164 -0.9908  1.1641  0.5576
 8363SOL    HW236723   2.053   0.275  13.225 -2.3445 -0.0714 -1.5087
 8364SOL     OW36724   4.336   2.783   5.343 -0.9002 -0.0780 -0.0269
 8364SOL    HW136725   4.301   2.700   5.311  0.5826 -1.0401  0.8489
 8364SOL    HW236726   4.429   2.777   5.322 -0.9550  3.2150 -1.2320
 8365SOL     OW36727   2.168   3.494   6.953  0.2372  0.0782 -0.1551
 8365SOL    HW136728   2.148   3.455   6.868  0.3068 -0.7099  0.1848
 8365SOL    HW236729   2.155   3.588   6.946 -1.7453 -0.0647  1.7669
 8366SOL     OW36730   3.431   4.058   1.414 -0.0980 -0.1096 -0.3295
 8366SOL    HW136731   3.344   4.082   1.380  0.5585  2.9618  0.1229
 8366SOL    HW236732   3.493   4.109   1.361 -0.3124  0.9074  0.3963
 8367SOL     OW36733   1.102   2.820   3.160  0.1747  0.0501  0.1467
 8367SOL    HW136734   1.022   2.773   3.135 -1.5275  3.8318 -1.5166
 8367SOL    HW236735   1.162   2.748   3.140 -2.0994 -2.3184  1.8619
 8368SOL     OW36736   2.538   4.583   7.398 -0.0889 -0.1177  0.0629
 8368SOL    HW136737   2.592   4.612   7.471 -2.3107  1.9661  0.8793
 8368SOL    HW236738   2.521   4.491   7.419  0.1614 -0.3789 -0.9121
 8369SOL     OW36739   3.832   4.011   9.010  0.1276  0.3657 -0.3058
 8369SOL    HW136740   3.927   4.001   9.008  0.2092  1.5452 -2.5088
 8369SOL    HW236741   3.809   3.919   8.995  1.6193  0.1031 -0.9368
 8370SOL     OW36742   4.643   3.970  13.969  0.4210  0.4416 -0.1488
 8370SOL    HW136743   4.633   4.030  13.896 -0.3982 -0.7697 -1.0420
 8370SOL    HW236744   4.735   3.959  13.990  0.6134 -0.5472 -1.5204
 8371SOL     OW36745   0.647   3.593   7.809 -0.2981 -0.0595 -0.1402
 8371SOL    HW136746   0.691   3.668   7.769 -1.4403  1.1615  0.8743
 8371SOL    HW236747   0.565   3.585   7.760 -0.5917 -1.8724  0.6438
 8372SOL     OW36748   0.155   2.406   3.327 -0.1908  0.3109 -0.1781
 8372SOL    HW136749   0.085   2.355   3.366  1.3092 -1.4583  0.2042
 8372SOL    HW236750   0.194   2.340   3.270  1.7716  2.6707 -1.6168
 8373SOL     OW36751   4.642   4.340  16.742  0.3796  0.0086 -0.0610
 8373SOL    HW136752   4.643   4.271  16.676 -0.4809 -0.3401  0.2871
 8373SOL    HW236753   4.581   4.299  16.804  0.4319 -1.4265 -0.9597
 8374SOL     OW36754   0.352   0.368   7.733 -0.6783  0.1154  0.1266
 8374SOL    HW136755   0.379   0.427   7.663  0.4580 -1.2029 -0.5656
 8374SOL    HW236756   0.437   0.327   7.749 -0.0875 -0.0769 -3.5421
 8375SOL     OW36757   0.995   0.399   8.001 -0.5814 -0.2192  0.0642
 8375SOL    HW136758   1.000   0.341   7.925  2.0639  2.6470 -1.9027
 8375SOL    HW236759   0.975   0.481   7.955  2.3202 -0.2511 -1.2088
 8376SOL     OW36760   0.134   2.941  11.459  0.4639 -0.2468  0.0077
 8376SOL    HW136761   0.175   2.994  11.528 -1.6984  1.7607 -0.2165
 8376SOL    HW236762   0.096   3.011  11.405  0.7311 -0.6666 -0.7073
 8377SOL     OW36763   4.463   1.943   8.194 -0.5931 -0.7205 -0.7919
 8377SOL    HW136764   4.473   2.004   8.268  0.2739 -0.1166 -1.4123
 8377SOL    HW236765   4.368   1.951   8.195 -0.5968 -0.7724  0.7562
 8378SOL     OW36766   4.247   1.417  11.409 -0.2161  0.0813  0.1169
 8378SOL    HW136767   4.304   1.486  11.441 -0.8922  0.8320 -0.2882
 8378SOL    HW236768   4.312   1.349  11.394  1.6883  1.2752  3.0880
 8379SOL     OW36769   1.096   3.918   4.303  0.7895 -0.4995 -0.1814
 8379SOL    HW136770   1.036   3.853   4.339  2.2563 -2.0325 -0.4915
 8379SOL    HW236771   1.165   3.861   4.267  1.8659  1.3693 -1.0831
 8380SOL     OW36772   3.817   0.802  15.847  0.0601 -0.6044  0.1936
 8380SOL    HW136773   3.900   0.767  15.879 -0.2977 -1.4635  0.1971
 8380SOL    HW236774   3.805   0.884  15.895  0.7308 -0.9375  0.9429
 8381SOL     OW36775   2.207   3.271   2.817  0.6018  0.3529 -0.7280
 8381SOL    HW136776   2.242   3.256   2.729  0.3704 -2.4705 -0.3226
 8381SOL    HW236777   2.265   3.343   2.841  1.0633 -0.6576  1.1284
 8382SOL     OW36778   1.074   0.495   4.932  0.5591  0.4726 -0.2949
 8382SOL    HW136779   1.057   0.485   4.838  1.4257  3.2312 -0.7478
 8382SOL    HW236780   0.987   0.527   4.957 -0.1244 -1.6262 -0.0670
 8383SOL     OW36781   2.790   1.967   6.782 -0.5915  0.3067  0.7783
 8383SOL    HW136782   2.723   1.997   6.844 -0.0864  0.1678  1.3814
 8383SOL    HW236783   2.872   1.989   6.824 -0.3916  0.6691  0.2004
 8384SOL     OW36784   3.271   3.235   1.594  0.3181  0.4000  0.3343
 8384SOL    HW136785   3.221   3.158   1.621 -0.3884  1.2024  1.3203
 8384SOL    HW236786   3.361   3.211   1.618 -0.2129 -1.3788  0.5839
 8385SOL     OW36787   3.146   1.714   8.479 -0.4733  0.4032 -0.8082
 8385SOL    HW136788   3.103   1.659   8.544 -0.5808 -0.2050 -1.4030
 8385SOL    HW236789   3.198   1.772   8.534 -2.0894  1.5342 -0.4517
 8386SOL     OW36790   0.648   3.911   8.704  0.5988  0.3477  0.2597
 8386SOL    HW136791   0.686   3.929   8.618  0.4842 -0.3629  0.0600
 8386SOL    HW236792   0.575   3.855   8.677  0.9427 -0.2372  0.5431
 8387SOL     OW36793   4.413   3.917  10.202  0.0515  0.1764 -0.1276
 8387SOL    HW136794   4.403   3.965  10.284 -0.3576 -3.4608  1.9477
 8387SOL    HW236795   4.366   3.979  10.147 -0.1238  0.2511  0.1111
 8388SOL     OW36796   0.281   1.137   4.062 -0.1409 -0.6642  0.3161
 8388SOL    HW136797   0.376   1.141   4.068 -0.1562 -0.1323  0.1710
 8388SOL    HW236798   0.259   1.068   4.125 -1.4919  0.8189  1.4837
 8389SOL     OW36799   4.695   0.653  15.082 -0.3505 -0.4065  0.2247
 8389SOL    HW136800   4.710   0.582  15.019 -1.1344 -0.9488  0.6437
 8389SOL    HW236801   4.728   0.610  15.161  2.1690  1.0197 -0.0686
 8390SOL     OW36802   0.947   2.614   3.024  0.0491 -0.3676  0.2915
 8390SOL    HW136803   0.916   2.537   3.072 -0.9044 -0.7704 -0.9596
 8390SOL    HW236804   1.000   2.573   2.955 -0.0866  1.1324 -0.7043
 8391SOL     OW36805   0.518   1.817   5.537  0.2702  0.3107 -0.6155
 8391SOL    HW136806   0.456   1.860   5.596  1.5971 -1.5742  2.1489
 8391SOL    HW236807   0.581   1.889   5.544  0.8861 -0.3756  0.7403
 8392SOL     OW36808   3.169   0.427   6.634  0.4118  0.5232 -0.3212
 8392SOL    HW136809   3.075   0.443   6.629  0.4512  0.7083 -0.4518
 8392SOL    HW236810   3.184   0.357   6.699  3.7640 -1.2699 -3.0389
 8393SOL     OW36811   1.758   1.891   2.423 -0.2549 -0.3905  0.6577
 8393SOL    HW136812   1.748   1.888   2.328 -0.2517 -0.6486  0.6646
 8393SOL    HW236813   1.703   1.814   2.435 -0.1192 -0.7632 -1.0774
 8394SOL     OW36814   1.783   3.608  15.725 -0.5397 -0.0937 -0.6770
 8394SOL    HW136815   1.842   3.569  15.790 -0.5516 -3.2544 -2.5467
 8394SOL    HW236816   1.826   3.591  15.641  1.9667  0.8085  0.4306
 8395SOL     OW36817   4.047   0.847   9.078  0.4288 -0.5010 -0.3286
 8395SOL    HW136818   3.999   0.765   9.070 -0.6716  0.2127 -1.0813
 8395SOL    HW236819   4.134   0.808   9.078  1.2955  1.4312  0.8297
 8396SOL     OW36820   2.389   0.232   6.009 -0.1089 -0.2880 -0.5259
 8396SOL    HW136821   2.474   0.200   5.980  1.1262  2.2419  0.2304
 8396SOL    HW236822   2.362   0.277   5.928 -1.6986  0.4141  0.4012
 8397SOL     OW36823   4.500   4.702   2.673 -0.6795 -0.2283 -0.5785
 8397SOL    HW136824   4.584   0.008   2.657 -0.6872  0.0879  0.2501
 8397SOL    HW236825   4.508   4.652   2.754 -1.3178  1.1418  0.3213
 8398SOL     OW36826   2.272   2.429   2.757 -0.2825  0.4104  0.2232
 8398SOL    HW136827   2.344   2.405   2.815  0.8544  3.8907  0.2711
 8398SOL    HW236828   2.278   2.370   2.682 -3.1894  0.7523 -0.2798
 8399SOL     OW36829   0.163   3.848   3.268  0.1232 -0.7100 -0.3862
 8399SOL    HW136830   0.189   3.917   3.329  0.8070 -0.7917 -0.5905
 8399SOL    HW236831   0.068   3.858   3.266  0.1541 -0.4579 -0.6121
 8400SOL     OW36832   2.530   1.882   5.580  0.2984  0.2642 -0.5550
 8400SOL    HW136833   2.606   1.935   5.555  0.1911  0.9290  0.5013
 8400SOL    HW236834   2.499   1.930   5.657  0.3508 -0.1084 -0.3020
 8401SOL     OW36835   1.650   4.108   9.292  0.6314  0.0786 -0.2394
 8401SOL    HW136836   1.656   4.013   9.280 -1.3152 -0.0481 -0.2813
 8401SOL    HW236837   1.640   4.122   9.386 -0.9967  0.5972 -0.4735
 8402SOL     OW36838   1.713   1.137  14.503  0.1539  0.0421  0.5219
 8402SOL    HW136839   1.638   1.096  14.546 -1.0432  1.5864 -0.1374
 8402SOL    HW236840   1.743   1.066  14.446  1.0684  0.5359  0.3840
 8403SOL     OW36841   3.379   0.363  11.709  0.1498 -0.0697  0.5781
 8403SOL    HW136842   3.471   0.368  11.683  0.7177 -3.2851  1.9195
 8403SOL    HW236843   3.356   0.312  11.631  0.4745  0.5985  0.0464
 8404SOL     OW36844   1.079   0.805  13.428  0.2855 -0.0678 -0.0063
 8404SOL    HW136845   1.075   0.757  13.510 -0.9104 -0.5758 -0.3570
 8404SOL    HW236846   1.029   0.884  13.450 -0.6668 -0.8226  0.5212
 8405SOL     OW36847   4.046   1.168   4.922  0.1097  0.3018  0.1614
 8405SOL    HW136848   3.995   1.095   4.885  2.2835 -1.9780  1.6601
 8405SOL    HW236849   4.120   1.117   4.956 -1.2516 -1.2139  0.8688
 8406SOL     OW36850   3.861   3.728   6.234 -0.4188 -0.2949  0.2020
 8406SOL    HW136851   3.886   3.817   6.259  0.2328 -1.5066  3.8578
 8406SOL    HW236852   3.869   3.745   6.140  2.6094 -1.3876  0.2527
 8407SOL     OW36853   3.078   1.922   7.501 -0.1424  0.5504  0.4382
 8407SOL    HW136854   3.064   1.975   7.579  1.1455  0.2078  0.9048
 8407SOL    HW236855   3.172   1.910   7.510  0.2018  2.0899 -1.0803
 8408SOL     OW36856   4.151   0.299   4.994 -0.4740 -0.0123  0.2546
 8408SOL    HW136857   4.121   0.251   5.070  2.3584 -1.5711  0.3911
 8408SOL    HW236858   4.134   0.239   4.922 -2.0182  1.5779 -0.7151
 8409SOL     OW36859   0.377   1.480   0.781 -0.0921  0.4178  0.1997
 8409SOL    HW136860   0.413   1.537   0.713  0.2574 -0.0974 -0.0477
 8409SOL    HW236861   0.287   1.463   0.753  0.2688 -2.1834  0.5572
 8410SOL     OW36862   1.066   0.124   1.167  0.0608  0.0971 -0.5725
 8410SOL    HW136863   1.042   0.032   1.164  1.5254 -0.3722  1.9711
 8410SOL    HW236864   0.983   0.168   1.186  0.5827  0.3811  1.0503
 8411SOL     OW36865   4.149   3.848  17.313 -0.5987 -0.0908 -0.7577
 8411SOL    HW136866   4.108   3.889  17.236 -1.6551 -2.4054 -1.4284
 8411SOL    HW236867   4.126   3.925  17.366 -0.6925 -0.9835  0.4935
 8412SOL     OW36868   1.719   0.844   1.461 -0.4183  0.9762 -0.4576
 8412SOL    HW136869   1.645   0.893   1.495 -2.9598 -2.3570 -1.0993
 8412SOL    HW236870   1.791   0.894   1.499  3.1888 -2.4694 -2.7670
 8413SOL     OW36871   1.143   1.063   7.804 -0.6011 -0.2939  0.2757
 8413SOL    HW136872   1.157   1.113   7.723 -0.8846 -0.0846  0.3553
 8413SOL    HW236873   1.215   1.092   7.859 -0.8940  0.2171  0.3868
 8414SOL     OW36874   3.476   1.892   4.617  0.0702 -0.2601  0.3376
 8414SOL    HW136875   3.514   1.979   4.623  1.7898 -1.0202  0.6183
 8414SOL    HW236876   3.547   1.854   4.566 -0.8304 -2.8228  0.9806
 8415SOL     OW36877   1.852   0.531   4.104 -0.6223 -0.4186 -0.4546
 8415SOL    HW136878   1.895   0.565   4.183 -1.4181 -0.7456  0.1240
 8415SOL    HW236879   1.849   0.437   4.123 -1.1084 -0.0261  1.4757
 8416SOL     OW36880   0.339   2.301   8.876  0.7203  0.0236  0.4492
 8416SOL    HW136881   0.338   2.251   8.958 -0.1329  0.5622  0.7627
 8416SOL    HW236882   0.355   2.391   8.905 -2.3964  0.9066 -0.5585
 8417SOL     OW36883   1.429   3.228   0.647  0.4238  0.3800  0.0586
 8417SOL    HW136884   1.361   3.202   0.586  0.7090 -0.9560  0.3003
 8417SOL    HW236885   1.459   3.309   0.606 -0.7165  0.3643 -0.7836
 8418SOL     OW36886   1.868   3.315   1.579 -0.3792 -0.0709  0.2621
 8418SOL    HW136887   1.775   3.306   1.558 -0.6176  0.6534  1.0269
 8418SOL    HW236888   1.902   3.326   1.491  0.9763  2.6082  1.1324
 8419SOL     OW36889   3.513   3.810   1.373  0.4581  0.3630  0.3072
 8419SOL    HW136890   3.478   3.896   1.398  1.1351  0.7322  0.0170
 8419SOL    HW236891   3.512   3.771   1.460  1.5262  1.4957  0.8270
 8420SOL     OW36892   0.176   0.391   3.314 -0.4333  0.0268 -0.0492
 8420SOL    HW136893   0.206   0.449   3.385 -1.6470  0.6278 -0.0306
 8420SOL    HW236894   0.142   0.459   3.257  1.9991  0.1822 -1.2951
 8421SOL     OW36895   3.029   4.072   3.817  0.1547 -0.2434  0.3018
 8421SOL    HW136896   2.946   4.038   3.784 -0.1088 -0.1857  0.8992
 8421SOL    HW236897   3.085   4.047   3.744  1.9036  1.2851  1.1160
 8422SOL     OW36898   2.094   1.008   7.527 -0.8635  0.2846 -0.0231
 8422SOL    HW136899   2.046   1.087   7.503 -0.3668  0.4400 -0.5060
 8422SOL    HW236900   2.020   0.969   7.575  0.5808 -2.3830  0.0391
 8423SOL     OW36901   4.213   3.274   7.397 -0.6527  0.4334  0.4265
 8423SOL    HW136902   4.240   3.363   7.376  2.2772 -0.6112 -0.1323
 8423SOL    HW236903   4.119   3.277   7.376 -0.7040 -2.0272  0.3062
 8424SOL     OW36904   2.655   4.541  10.395  0.0102  0.0679  0.3891
 8424SOL    HW136905   2.597   4.533  10.470 -0.1717 -2.1501 -0.0042
 8424SOL    HW236906   2.688   4.453  10.376  0.3326 -0.0887  1.6985
 8425SOL     OW36907   4.096   0.760   6.845 -0.1310 -0.0949  0.0697
 8425SOL    HW136908   4.003   0.739   6.830  0.3931 -2.6697  0.3537
 8425SOL    HW236909   4.098   0.709   6.927  1.4874 -2.8705 -1.7158
 8426SOL     OW36910   0.119   2.870   2.256 -1.0877 -0.1160  0.2789
 8426SOL    HW136911   0.174   2.864   2.334  0.9497 -1.8016 -1.2888
 8426SOL    HW236912   0.121   2.778   2.228  1.2959 -0.3914  1.3553
 8427SOL     OW36913   2.337   2.477  10.016 -0.7276 -0.2764  0.0915
 8427SOL    HW136914   2.282   2.539   9.968  0.9265  1.3399  0.2574
 8427SOL    HW236915   2.427   2.505  10.003 -0.3141 -2.1373 -0.9947
 8428SOL     OW36916   0.355   0.073   7.837  0.3181  0.0872 -0.4265
 8428SOL    HW136917   0.415   0.138   7.873 -0.0359 -0.5656  1.3277
 8428SOL    HW236918   0.418   0.013   7.798  1.0208 -0.6136  1.7900
 8429SOL     OW36919   2.879   2.029   2.071  0.6732 -0.4241 -0.0012
 8429SOL    HW136920   2.969   2.062   2.059  0.7166 -0.8902 -0.8877
 8429SOL    HW236921   2.855   2.023   1.979 -0.3782  1.2783  0.1545
 8430SOL     OW36922   1.640   1.189  10.138  0.2550 -0.1938  0.1023
 8430SOL    HW136923   1.599   1.178  10.224  2.2734 -0.8072  0.9852
 8430SOL    HW236924   1.598   1.263  10.096  1.3263  1.9931  2.8735
 8431SOL     OW36925   0.919   4.017  10.748  0.2128  0.0727  0.0223
 8431SOL    HW136926   0.933   4.090  10.687  3.1676  1.0259  1.8269
 8431SOL    HW236927   0.947   4.043  10.836 -1.7854  0.6384  0.4887
 8432SOL     OW36928   3.950   2.441   6.295  0.4652  0.0968  0.5159
 8432SOL    HW136929   3.931   2.504   6.225 -2.3123 -0.0973  1.1093
 8432SOL    HW236930   3.899   2.363   6.275 -0.5191  1.1204 -1.0198
 8433SOL     OW36931   2.226   1.496  17.690 -0.3554  0.3121  0.2881
 8433SOL    HW136932   2.145   1.448  17.709 -0.1123 -0.3763 -0.4323
 8433SOL    HW236933   2.236   1.560   0.014 -1.9605  1.0597 -0.1682
 8434SOL     OW36934   4.493   4.188   3.459  0.4303 -0.3371 -0.1409
 8434SOL    HW136935   4.583   4.209   3.483  1.3753 -1.9170 -2.2751
 8434SOL    HW236936   4.496   4.095   3.434 -0.6372 -0.5292  0.4524
 8435SOL     OW36937   0.749   1.252   5.259  0.0266 -0.2695 -0.3760
 8435SOL    HW136938   0.663   1.212   5.248  0.8955 -1.8539 -1.4828
 8435SOL    HW236939   0.746   1.278   5.351  1.5203 -3.1015  0.4679
 8436SOL     OW36940   4.532   2.653  10.655  0.2484  0.3368 -0.3983
 8436SOL    HW136941   4.492   2.663  10.569  0.5324 -1.0063 -0.6831
 8436SOL    HW236942   4.579   2.735  10.670 -1.5083  1.8243 -3.1748
 8437SOL     OW36943   0.720   1.630   7.421 -0.1258  0.0823  0.0397
 8437SOL    HW136944   0.656   1.677   7.367  0.0308  0.8654  0.5399
 8437SOL    HW236945   0.739   1.558   7.361  1.1087 -1.4468  2.2794
 8438SOL     OW36946   0.232   3.313   8.950  0.3595  0.1219  0.0572
 8438SOL    HW136947   0.274   3.362   9.021  1.2535 -1.3974  0.5872
 8438SOL    HW236948   0.256   3.220   8.959  2.0721  0.7617  2.2415
 8439SOL     OW36949   1.198   1.158  17.591 -0.4737  0.1236 -0.0642
 8439SOL    HW136950   1.278   1.106  17.583 -1.3250 -1.4994  1.9681
 8439SOL    HW236951   1.142   1.097  17.640  2.0985 -2.1541  0.0361
 8440SOL     OW36952   3.465   1.210   9.438  0.7488 -0.4800  0.3009
 8440SOL    HW136953   3.512   1.293   9.434  0.1175 -0.0843  1.0274
 8440SOL    HW236954   3.496   1.178   9.523 -0.0948 -1.1394  0.3603
 8441SOL     OW36955   2.507   3.079   2.817  0.0803 -0.1031 -0.1529
 8441SOL    HW136956   2.493   3.031   2.736 -0.2321 -1.1910  0.5536
 8441SOL    HW236957   2.556   3.155   2.787  1.1840 -0.0595  1.7556
 8442SOL     OW36958   4.392   0.512   9.629 -0.2169  0.1037 -0.0766
 8442SOL    HW136959   4.466   0.572   9.623  0.3135 -0.6759 -1.4090
 8442SOL    HW236960   4.427   0.445   9.688 -2.1962 -0.4741  0.4527
 8443SOL     OW36961   2.530   2.013   0.805 -0.4072  0.3557  0.0604
 8443SOL    HW136962   2.510   2.045   0.718 -0.9139  0.2261  0.1286
 8443SOL    HW236963   2.443   2.015   0.847  0.1375 -0.7136  1.2687
 8444SOL     OW36964   0.242   0.383  16.757  0.3937  0.4516 -0.2670
 8444SOL    HW136965   0.163   0.347  16.799 -0.1453  1.8918 -0.0582
 8444SOL    HW236966   0.275   0.445  16.822 -0.3345  0.0680  0.4667
 8445SOL     OW36967   3.692   2.542  11.759 -0.4091  0.4540  0.2058
 8445SOL    HW136968   3.747   2.478  11.715 -1.3591  0.3259 -0.8101
 8445SOL    HW236969   3.750   2.575  11.827  0.1323 -0.6503  0.2754
 8446SOL     OW36970   2.434   2.120   0.536 -0.1167 -0.3783  0.2638
 8446SOL    HW136971   2.400   2.181   0.470 -2.2505  1.6355  3.2479
 8446SOL    HW236972   2.387   2.159   0.609 -0.0107  0.0280  0.1160
 8447SOL     OW36973   3.528   2.245  12.238  0.5908 -0.0026  0.0392
 8447SOL    HW136974   3.527   2.327  12.188 -1.6298  0.7520  1.2784
 8447SOL    HW236975   3.534   2.266  12.331  2.4551  0.9988 -0.3084
 8448SOL     OW36976   0.901   0.107   3.413  0.1434 -0.4241 -0.9175
 8448SOL    HW136977   0.863   0.185   3.452 -1.0853  0.0966 -3.1693
 8448SOL    HW236978   0.943   0.062   3.486 -0.4741 -0.2565 -0.4647
 8449SOL     OW36979   4.021   3.105   2.280 -0.5242 -0.3593  0.3108
 8449SOL    HW136980   4.001   3.071   2.193  3.1105 -0.0621 -0.6625
 8449SOL    HW236981   4.100   3.153   2.253  0.2636 -2.0528 -0.3951
 8450SOL     OW36982   1.956   4.512   6.454  0.4244 -0.0624 -0.1284
 8450SOL    HW136983   1.934   4.423   6.481 -1.7846  0.7849  0.8612
 8450SOL    HW236984   2.023   4.486   6.391  1.4308  1.0182  0.4869
 8451SOL     OW36985   1.578   0.968   5.589 -0.0184 -0.5323  0.1948
 8451SOL    HW136986   1.495   0.929   5.561 -0.5306  0.0280  0.9576
 8451SOL    HW236987   1.616   0.997   5.506  1.9902 -0.9306  0.9650
 8452SOL     OW36988   2.268   3.434   4.717 -0.5601 -0.1836 -0.8370
 8452SOL    HW136989   2.296   3.449   4.807 -2.1359 -3.3843  0.1782
 8452SOL    HW236990   2.279   3.523   4.683  0.3499 -0.0102 -0.0816
 8453SOL     OW36991   4.392   0.326   5.881  0.0941 -0.2289  0.1624
 8453SOL    HW136992   4.347   0.409   5.864 -1.1121 -0.7583  0.7563
 8453SOL    HW236993   4.353   0.311   5.967  0.2486  0.6524  0.3817
 8454SOL     OW36994   2.584   1.576   5.225  0.7927  0.9034  0.1259
 8454SOL    HW136995   2.647   1.634   5.181 -0.2942  0.9815 -1.3281
 8454SOL    HW236996   2.528   1.554   5.151  3.1490 -2.1886 -0.7435
 8455SOL     OW36997   1.824   1.828   6.430 -0.0096  0.4251 -0.5339
 8455SOL    HW136998   1.750   1.886   6.417 -1.4380 -0.8062  2.2743
 8455SOL    HW236999   1.842   1.794   6.342 -3.1999 -0.0452 -0.9906
 8456SOL     OW37000   0.694   3.831   7.624  0.4683 -0.6123 -0.1587
 8456SOL    HW137001   0.665   3.773   7.554  0.3786 -1.0392  0.2308
 8456SOL    HW237002   0.738   3.900   7.575 -1.0748  0.4854 -0.0107
 8457SOL     OW37003   2.962   2.220   9.455 -0.7975 -0.0778 -0.0877
 8457SOL    HW137004   3.044   2.269   9.450 -0.4454 -0.6441  0.0359
 8457SOL    HW237005   2.980   2.186   9.543  0.8100  0.5010 -0.1931
 8458SOL     OW37006   0.730   1.225   2.589  0.5440 -0.2436 -0.6297
 8458SOL    HW137007   0.819   1.258   2.599 -0.3939  1.4309  2.1918
 8458SOL    HW237008   0.735   1.130   2.596  1.0358  0.0613  3.1577
 8459SOL     OW37009   2.682   1.732   1.868  0.5905  0.0044 -0.4598
 8459SOL    HW137010   2.598   1.689   1.883  0.9875 -0.1490  1.2991
 8459SOL    HW237011   2.739   1.656   1.877 -1.3294 -1.1620  1.6308
 8460SOL     OW37012   1.929   1.173   7.997 -0.0166  0.2954 -0.2326
 8460SOL    HW137013   1.844   1.155   7.957  1.4087  0.9900 -3.5174
 8460SOL    HW237014   1.952   1.084   8.026  0.3941  0.1992 -0.8510
 8461SOL     OW37015   0.539   2.853  15.133  0.3301 -0.1394  0.1629
 8461SOL    HW137016   0.482   2.930  15.135 -0.7864 -1.0012  1.5097
 8461SOL    HW237017   0.545   2.826  15.225 -0.2631 -0.9451 -0.0329
 8462SOL     OW37018   3.510   0.002   5.711 -0.2883 -0.3505  0.1719
 8462SOL    HW137019   3.594   0.043   5.732  0.3150 -0.9922 -0.9867
 8462SOL    HW237020   3.521   4.654   5.752  1.8012 -0.8212 -1.3895
 8463SOL     OW37021   2.948   4.093   1.172  0.1165  0.3487  0.1829
 8463SOL    HW137022   2.931   4.157   1.102  0.2179  0.5310  0.3267
 8463SOL    HW237023   2.859   4.072   1.199 -0.8525  2.7017 -1.0912
 8464SOL     OW37024   2.434   1.325   7.425 -0.0847 -0.3809 -0.3711
 8464SOL    HW137025   2.497   1.362   7.488 -0.0069  0.0516 -0.7037
 8464SOL    HW237026   2.434   1.394   7.359  2.2793  0.4456  0.4971
 8465SOL     OW37027   3.345   1.553   4.005 -0.1711  0.1271  0.3128
 8465SOL    HW137028   3.325   1.470   4.050  0.8095 -0.7031 -0.7859
 8465SOL    HW237029   3.254   1.584   4.006  0.0933  0.9579 -2.2998
 8466SOL     OW37030   1.266   1.338   7.836 -0.4306 -0.0730  0.3713
 8466SOL    HW137031   1.325   1.349   7.761 -1.0642 -0.0802 -0.1201
 8466SOL    HW237032   1.224   1.424   7.838  0.0181  0.1044  2.2732
 8467SOL     OW37033   2.332   2.803   8.892 -0.1222 -0.1903  0.6227
 8467SOL    HW137034   2.314   2.710   8.909 -1.5199 -0.4643 -2.4257
 8467SOL    HW237035   2.426   2.801   8.876 -0.1157 -1.6354  0.7767
 8468SOL     OW37036   1.171   0.868   2.574  0.2969 -0.6671 -0.4994
 8468SOL    HW137037   1.172   0.848   2.480 -1.2556  0.3746 -0.7286
 8468SOL    HW237038   1.258   0.836   2.599  0.4834  1.4126  1.5138
 8469SOL     OW37039   4.690   2.990  16.056  0.3812 -0.5921  0.1530
 8469SOL    HW137040   4.635   2.953  16.126 -0.7321 -0.7301 -0.8034
 8469SOL    HW237041   4.629   2.984  15.983  1.9244 -0.0258 -1.1850
 8470SOL     OW37042   0.193   0.840   4.624 -1.0253  0.3662 -0.7046
 8470SOL    HW137043   0.116   0.820   4.678  0.7518  0.1347  1.7472
 8470SOL    HW237044   0.220   0.748   4.628  0.1886  0.9120  3.7269
 8471SOL     OW37045   2.380   4.572   4.772 -0.3366  0.3309 -0.7322
 8471SOL    HW137046   2.445   4.502   4.768 -1.2475 -0.6382  1.1549
 8471SOL    HW237047   2.336   4.553   4.690 -3.4402  0.7278  0.8300
 8472SOL     OW37048   3.683   1.101   3.612  0.2305 -0.4184  0.1430
 8472SOL    HW137049   3.735   1.038   3.563 -0.4676 -0.1044 -1.0084
 8472SOL    HW237050   3.749   1.138   3.670  0.9915  1.1533 -1.7380
 8473SOL     OW37051   0.860   4.446   2.387  0.7140 -0.6674  0.7041
 8473SOL    HW137052   0.912   4.524   2.367  0.1451 -1.4232 -3.7358
 8473SOL    HW237053   0.909   4.404   2.457 -0.9301 -2.3807  0.8053
 8474SOL     OW37054   2.598   3.734   2.680 -0.6109  0.4379 -0.4064
 8474SOL    HW137055   2.555   3.740   2.595  0.0361  0.3836 -0.7414
 8474SOL    HW237056   2.563   3.651   2.712  0.6180  0.5583  1.2623
 8475SOL     OW37057   0.825   0.806   3.592  0.4335 -0.0194 -0.2394
 8475SOL    HW137058   0.790   0.875   3.649  0.5356  2.0952 -2.7565
 8475SOL    HW237059   0.858   0.861   3.521  0.0566  1.6856  0.8946
 8476SOL     OW37060   3.168   2.003   7.893 -0.2884  0.0457 -0.0402
 8476SOL    HW137061   3.087   1.959   7.921 -0.3931  1.0047  1.1839
 8476SOL    HW237062   3.142   2.048   7.813  0.5275  0.8077  0.1135
 8477SOL     OW37063   4.279   2.194   8.151  0.0344 -0.0654 -0.0678
 8477SOL    HW137064   4.270   2.252   8.076  2.8128  3.6508  2.4532
 8477SOL    HW237065   4.194   2.149   8.149 -0.4861  0.8866  0.4014
 8478SOL     OW37066   1.412   3.386   1.335 -0.0604  0.3050 -0.2992
 8478SOL    HW137067   1.482   3.442   1.302 -0.5074  0.7544 -0.4782
 8478SOL    HW237068   1.436   3.306   1.288 -0.4142 -0.4622  0.8241
 8479SOL     OW37069   0.753   2.328   2.220 -0.1837  0.1853 -0.3288
 8479SOL    HW137070   0.722   2.403   2.272 -1.6294 -1.2320  0.8265
 8479SOL    HW237071   0.764   2.261   2.287  1.7492  1.6079  0.8001
 8480SOL     OW37072   1.267   3.114  16.610  0.0157  0.0134  0.1102
 8480SOL    HW137073   1.201   3.054  16.577  0.6391 -0.7567  0.2590
 8480SOL    HW237074   1.284   3.061  16.688 -0.6268 -1.0626 -0.4848
 8481SOL     OW37075   0.747   3.771   6.214  0.6064 -0.1675 -0.5544
 8481SOL    HW137076   0.819   3.794   6.155  2.0741 -0.4337  1.1101
 8481SOL    HW237077   0.801   3.742   6.288  1.4513  0.5845 -0.8797
 8482SOL     OW37078   0.674   1.894   7.059 -0.0168  0.2180  0.4630
 8482SOL    HW137079   0.755   1.843   7.061  0.7674  1.3162 -3.9639
 8482SOL    HW237080   0.626   1.849   7.128 -0.7131 -2.3089 -1.6662
 8483SOL     OW37081   4.003   1.933   2.641 -0.2488  0.2658  0.1805
 8483SOL    HW137082   4.029   1.845   2.613 -0.7183 -0.2022  1.1896
 8483SOL    HW237083   4.015   1.919   2.736  0.3069 -2.8700 -0.3367
 8484SOL     OW37084   0.857   0.692  10.016  0.1029  0.0297 -0.2308
 8484SOL    HW137085   0.939   0.702  10.065 -0.3503  2.0008  0.1521
 8484SOL    HW237086   0.890   0.623   9.958  0.5525 -0.3960  0.5413
 8485SOL     OW37087   1.746   0.415   9.305 -0.1863  0.0964  0.0755
 8485SOL    HW137088   1.830   0.451   9.277  1.1749 -2.4232  0.9471
 8485SOL    HW237089   1.686   0.443   9.235  0.3162  2.2453  0.5265
 8486SOL     OW37090   1.066   0.135   3.887  0.3749  0.2658 -0.6871
 8486SOL    HW137091   1.012   0.147   3.808  0.8879 -0.7470 -1.1927
 8486SOL    HW237092   1.136   0.083   3.848  0.0315 -2.4085  2.3112
 8487SOL     OW37093   2.223   1.200   9.881  0.0867 -0.0765  0.6043
 8487SOL    HW137094   2.227   1.182   9.975 -0.5903 -1.5397  0.3586
 8487SOL    HW237095   2.209   1.112   9.845  1.7663 -0.2391  0.3179
 8488SOL     OW37096   1.368   2.816   5.262 -0.1936 -0.3066  0.3594
 8488SOL    HW137097   1.293   2.858   5.220  1.0655  2.0480  0.4797
 8488SOL    HW237098   1.362   2.848   5.351  0.6250  1.1206 -0.1086
 8489SOL     OW37099   3.704   3.396   2.049  0.2066  0.7346  0.2658
 8489SOL    HW137100   3.643   3.413   1.978  0.2410 -0.8045 -0.1456
 8489SOL    HW237101   3.767   3.338   2.005  1.6593  1.9307  0.7625
 8490SOL     OW37102   3.144   2.005   8.334  0.0153 -0.3075  0.4712
 8490SOL    HW137103   3.172   2.002   8.426  2.3336  0.0462 -0.2115
 8490SOL    HW237104   3.071   1.943   8.332  1.2615 -1.8160  1.2195
 8491SOL     OW37105   3.520   2.289   6.918 -0.2349 -0.6800  0.3994
 8491SOL    HW137106   3.541   2.360   6.978 -1.2758 -0.8962  1.0074
 8491SOL    HW237107   3.464   2.229   6.967 -1.0305  0.8709  1.4011
 8492SOL     OW37108   2.550   3.983   8.682 -0.2929  0.4669  0.5358
 8492SOL    HW137109   2.583   4.057   8.733  0.2079  1.2634 -0.9186
 8492SOL    HW237110   2.608   3.912   8.706 -1.5198  0.0644  2.2759
 8493SOL     OW37111   0.628   1.504   2.288 -0.4955  0.1960 -0.2886
 8493SOL    HW137112   0.688   1.578   2.292  0.3466 -0.4896 -0.0969
 8493SOL    HW237113   0.542   1.547   2.283 -0.4151  0.4932  0.9045
 8494SOL     OW37114   0.767   2.802   5.242 -0.2437 -0.0527  0.1286
 8494SOL    HW137115   0.738   2.845   5.162  0.5685 -1.5709 -0.9805
 8494SOL    HW237116   0.863   2.798   5.244 -0.3307 -1.5380  1.2525
 8495SOL     OW37117   2.189   0.299   3.994  0.2550  0.3031  0.2987
 8495SOL    HW137118   2.187   0.360   4.069  0.1985 -0.9678  1.3354
 8495SOL    HW237119   2.132   0.227   4.019 -0.8996  1.0472 -0.1975
 8496SOL     OW37120   1.005   3.342  10.977  0.1694 -0.5056  0.2244
 8496SOL    HW137121   0.983   3.409  11.041 -0.1386 -1.8560  1.5319
 8496SOL    HW237122   0.920   3.350  10.932 -0.7767  1.3805  2.3812
 8497SOL     OW37123   1.968   4.193   5.555 -0.4629  0.4154  0.4382
 8497SOL    HW137124   2.033   4.223   5.492 -0.3415 -1.9209 -0.5711
 8497SOL    HW237125   1.920   4.135   5.495  1.9244  0.1769 -1.2464
 8498SOL     OW37126   3.086   1.683   5.813 -0.0988 -0.5429 -0.6232
 8498SOL    HW137127   3.144   1.736   5.867 -0.8007  0.5112 -0.8943
 8498SOL    HW237128   3.028   1.666   5.887 -0.6321  1.5083 -0.5537
 8499SOL     OW37129   3.404   4.519   1.072  0.0814 -0.6226 -0.0248
 8499SOL    HW137130   3.385   4.537   0.980 -1.5334 -1.2630  0.1841
 8499SOL    HW237131   3.319   4.491   1.106 -0.8171 -0.7876 -2.4031
 8500SOL     OW37132   4.315   3.044   1.616  0.2831  0.6507  0.1270
 8500SOL    HW137133   4.385   3.106   1.598  0.3961  0.0042 -1.6024
 8500SOL    HW237134   4.367   2.971   1.650 -0.9060  1.1932  3.1687
 8501SOL     OW37135   1.694   2.658   1.436  0.1314  0.2406 -0.0567
 8501SOL    HW137136   1.785   2.643   1.409 -0.2975 -2.7593  0.1603
 8501SOL    HW237137   1.650   2.577   1.410  0.7310 -0.5232  1.3707
 8502SOL     OW37138   1.221   4.281   8.508  0.3275 -0.0144  0.1015
 8502SOL    HW137139   1.187   4.211   8.453  1.6776 -1.2374  0.8432
 8502SOL    HW237140   1.239   4.342   8.436  0.9051 -0.3877 -0.0702
 8503SOL     OW37141   2.387   1.003  10.532 -0.3469 -0.4198 -0.3165
 8503SOL    HW137142   2.427   0.920  10.559  2.6472  1.4692  1.1369
 8503SOL    HW237143   2.325   0.970  10.467 -1.7793  1.5331  0.0775
 8504SOL     OW37144   1.583   1.037  13.855 -0.4775  0.0507  0.0560
 8504SOL    HW137145   1.509   0.977  13.865  0.1726 -0.5087  1.5542
 8504SOL    HW237146   1.587   1.087  13.937  0.4678  0.5554 -0.2993
 8505SOL     OW37147   0.816   1.266  11.113 -0.1152  0.0256 -0.5900
 8505SOL    HW137148   0.853   1.353  11.095  0.5190 -0.1913 -0.3421
 8505SOL    HW237149   0.887   1.215  11.151  0.9457  0.6822 -1.7180
 8506SOL     OW37150   1.151   2.033   4.540 -0.1149 -0.0662  0.2374
 8506SOL    HW137151   1.090   1.991   4.601 -1.1532  0.3687 -0.5223
 8506SOL    HW237152   1.230   2.048   4.593 -1.7857  0.6080  2.5451
 8507SOL     OW37153   1.536   2.947   4.726 -0.1651  0.0354  0.5556
 8507SOL    HW137154   1.523   2.988   4.811 -1.4377 -0.5305  0.6434
 8507SOL    HW237155   1.585   2.869   4.750 -0.7634 -0.5393 -0.0669
 8508SOL     OW37156   2.743   0.202   8.009  0.2319 -0.4789  0.9459
 8508SOL    HW137157   2.813   0.177   8.070 -1.2334 -1.5426  2.1739
 8508SOL    HW237158   2.670   0.228   8.065  2.4267  1.7343  2.8597
 8509SOL     OW37159   1.696   3.876   1.539 -0.1233  0.1379  0.0562
 8509SOL    HW137160   1.688   3.941   1.470 -2.9557 -0.9822 -0.6755
 8509SOL    HW237161   1.648   3.919   1.609 -0.3680 -2.1300  1.2962
 8510SOL     OW37162   4.405   2.589  12.282  0.3424 -0.0460  0.2357
 8510SOL    HW137163   4.404   2.675  12.239 -1.5207 -0.2861 -0.2197
 8510SOL    HW237164   4.490   2.605  12.323  0.2598 -1.8119  1.0749
 8511SOL     OW37165   1.195   3.944   0.241 -0.5178 -0.8463  0.1817
 8511SOL    HW137166   1.261   3.875   0.227 -0.5502 -0.8722  0.1587
 8511SOL    HW237167   1.242   4.023   0.213 -2.5366 -0.2171 -1.3277
 8512SOL     OW37168   4.528   0.854   3.077 -0.2327 -0.0213 -0.8050
 8512SOL    HW137169   4.472   0.885   3.007 -0.2252  0.3600 -0.6425
 8512SOL    HW237170   4.503   0.913   3.148 -1.1695 -0.2033 -0.9874
 8513SOL     OW37171   0.311   2.809   5.591  0.8268 -0.1085 -0.2489
 8513SOL    HW137172   0.349   2.886   5.633 -2.0426  1.3282 -0.2809
 8513SOL    HW237173   0.390   2.754   5.592  0.9749  0.1023 -0.4224
 8514SOL     OW37174   3.213   2.354   1.254 -0.0158 -0.0644 -0.3264
 8514SOL    HW137175   3.212   2.320   1.343  1.2963  2.7181  0.7327
 8514SOL    HW237176   3.194   2.268   1.214 -1.1239  0.0762 -0.0966
 8515SOL     OW37177   1.568   1.685   5.098 -0.2532  0.1406  0.2130
 8515SOL    HW137178   1.619   1.752   5.052  2.5591 -2.4772 -0.4674
 8515SOL    HW237179   1.498   1.675   5.033  0.9012 -1.5350 -0.7618
 8516SOL     OW37180   4.206   0.098   3.442  0.3269 -0.0171  0.0904
 8516SOL    HW137181   4.265   0.110   3.367 -0.8025 -0.6316 -0.8876
 8516SOL    HW237182   4.236   0.170   3.498 -2.3968  1.1403  0.0332
 8517SOL     OW37183   2.187   0.885   8.836 -0.2684  0.1710  0.1318
 8517SOL    HW137184   2.158   0.941   8.764  2.8921  1.1255 -0.3938
 8517SOL    HW237185   2.182   0.958   8.898  1.9915  1.2924 -1.0113
 8518SOL     OW37186   1.788   1.905   4.302 -0.4388  0.1326 -0.4961
 8518SOL    HW137187   1.742   1.904   4.387  1.5610 -1.9052  0.5633
 8518SOL    HW237188   1.877   1.923   4.334 -0.7577 -1.0362  1.0347
 8519SOL     OW37189   3.897   2.037   7.621  0.1648  1.0073  0.1072
 8519SOL    HW137190   3.822   1.986   7.651 -0.3452  0.4688 -2.0926
 8519SOL    HW237191   3.937   1.989   7.549  1.8530 -1.4014  2.6336
 8520SOL     OW37192   2.269   0.728   5.406  0.4957 -0.3601  1.0296
 8520SOL    HW137193   2.187   0.699   5.446  0.3496 -0.3232  0.7528
 8520SOL    HW237194   2.256   0.818   5.434 -1.6382 -0.5094  0.5187
 8521SOL     OW37195   4.562   2.299   3.089  0.1864  0.3681 -0.0827
 8521SOL    HW137196   4.596   2.306   3.179 -1.1033  0.8007  0.3690
 8521SOL    HW237197   4.473   2.332   3.098  0.3083  0.3072  1.4705
 8522SOL     OW37198   2.750   2.797  13.347 -0.3548 -0.1296 -0.6651
 8522SOL    HW137199   2.707   2.735  13.406 -0.0505  0.5195  0.2460
 8522SOL    HW237200   2.826   2.744  13.323 -0.2782  0.5088 -1.8015
 8523SOL     OW37201   3.835   0.921   3.450 -0.3644 -0.3189 -0.9381
 8523SOL    HW137202   3.830   0.935   3.356 -1.2424  1.1693 -0.6632
 8523SOL    HW237203   3.770   0.856   3.480 -0.3614 -0.7269 -1.8096
 8524SOL     OW37204   1.323   4.248  10.573  0.0435  0.2567  0.1207
 8524SOL    HW137205   1.248   4.190  10.581  0.4515 -0.1054  1.3266
 8524SOL    HW237206   1.384   4.201  10.628 -0.8726  0.4346  1.2808
 8525SOL     OW37207   2.448   0.697   2.266 -0.0511  0.4433  0.2121
 8525SOL    HW137208   2.439   0.620   2.210 -1.3703  0.0294  0.9938
 8525SOL    HW237209   2.412   0.678   2.352 -0.4990 -0.6548 -0.2169
 8526SOL     OW37210   1.746   0.815  10.541 -0.0006  0.4517 -0.0478
 8526SOL    HW137211   1.698   0.806  10.623  1.0339 -0.4874  0.4542
 8526SOL    HW237212   1.735   0.730  10.500  1.2732 -0.0942  0.7158
 8527SOL     OW37213   2.872   1.298   9.728  0.1617 -0.4876 -0.1555
 8527SOL    HW137214   2.821   1.291   9.808  0.2274 -0.6848 -0.1308
 8527SOL    HW237215   2.920   1.378   9.749 -1.7790  0.3990  0.8765
 8528SOL     OW37216   3.240   3.481   1.504  0.1500 -0.1998 -0.0492
 8528SOL    HW137217   3.190   3.408   1.470 -0.4818  0.6082 -0.8626
 8528SOL    HW237218   3.294   3.423   1.557  2.0582  1.5341 -0.0568
 8529SOL     OW37219   3.819   3.495   8.120  0.4701 -0.1085 -0.0703
 8529SOL    HW137220   3.775   3.469   8.201  0.2267 -1.6883 -0.7107
 8529SOL    HW237221   3.856   3.580   8.142  0.1155  0.4499 -1.6245
 8530SOL     OW37222   3.214   4.307   7.652 -0.0362  0.1615 -0.4212
 8530SOL    HW137223   3.305   4.277   7.659  0.0893  0.6514  0.0697
 8530SOL    HW237224   3.212   4.315   7.557 -0.6715  1.7316 -0.2769
 8531SOL     OW37225   4.446   2.032   3.217 -0.0436 -0.4307  0.1924
 8531SOL    HW137226   4.352   2.032   3.199  0.1466 -0.9505 -0.8148
 8531SOL    HW237227   4.483   2.107   3.170 -2.8337  0.9018  0.0808
 8532SOL     OW37228   4.015   1.785   4.005  0.1964  0.2708 -0.0195
 8532SOL    HW137229   3.970   1.736   4.074 -0.5487  0.6825 -0.2114
 8532SOL    HW237230   4.103   1.751   4.017 -1.3406 -2.9096  2.3947
 8533SOL     OW37231   2.531   0.375   5.770 -0.2110  0.6424  0.2981
 8533SOL    HW137232   2.624   0.352   5.774 -0.2998  0.0492 -0.9303
 8533SOL    HW237233   2.518   0.340   5.682 -1.4609  1.5711  0.1198
 8534SOL     OW37234   0.804   0.421   0.422 -0.0819  0.0767 -1.0078
 8534SOL    HW137235   0.783   0.372   0.342  1.2805  0.6157 -1.7030
 8534SOL    HW237236   0.736   0.489   0.426 -0.1019  0.1375 -2.1763
 8535SOL     OW37237   0.935   1.105   6.941 -0.8075 -0.1537 -0.4109
 8535SOL    HW137238   0.884   1.061   6.873 -0.0077 -0.7477 -0.6270
 8535SOL    HW237239   0.961   1.024   6.985 -1.6839  0.1518  0.6814
 8536SOL     OW37240   3.489   2.985  13.629  0.5773 -0.1922 -0.4443
 8536SOL    HW137241   3.545   2.912  13.599  2.0965  1.6895 -2.1702
 8536SOL    HW237242   3.557   3.028  13.681 -0.4134 -1.1658  1.6501
 8537SOL     OW37243   3.709   2.881   2.207  0.3717  0.1865 -0.0690
 8537SOL    HW137244   3.711   2.972   2.177  2.7148  0.3534  0.5888
 8537SOL    HW237245   3.671   2.889   2.294 -0.6073 -2.1178 -0.2881
 8538SOL     OW37246   4.188   3.123  15.164  0.0802  0.6947 -0.5879
 8538SOL    HW137247   4.280   3.146  15.171  0.1727  0.7342 -1.9473
 8538SOL    HW237248   4.142   3.188  15.217 -1.1609 -1.6921  1.2398
 8539SOL     OW37249   3.110   2.303   2.476  0.2471 -0.3118 -0.6411
 8539SOL    HW137250   3.171   2.258   2.419  1.7853 -3.0373  3.1732
 8539SOL    HW237251   3.037   2.243   2.494  1.7981 -1.0743  3.2433
 8540SOL     OW37252   0.781   4.302   4.160 -0.4298  0.0103 -0.7807
 8540SOL    HW137253   0.868   4.270   4.138 -0.3433 -0.1683 -0.1894
 8540SOL    HW237254   0.751   4.222   4.205  1.3338  0.2557  0.8133
 8541SOL     OW37255   3.535   1.333   2.745  0.6088 -0.0627  0.4317
 8541SOL    HW137256   3.476   1.345   2.820 -1.7005 -0.0218 -1.3874
 8541SOL    HW237257   3.520   1.412   2.695 -0.7681  0.0934  1.0712
 8542SOL     OW37258   0.827   1.891  12.099 -0.2667 -0.1361 -0.1507
 8542SOL    HW137259   0.763   1.951  12.139 -0.7640 -1.1830  0.6232
 8542SOL    HW237260   0.787   1.805  12.110 -2.7468  0.9026 -1.0782
 8543SOL     OW37261   1.390   0.756   2.133 -0.0730 -0.0584 -0.1360
 8543SOL    HW137262   1.369   0.818   2.202  0.4973 -0.7565  0.6667
 8543SOL    HW237263   1.311   0.707   2.113 -0.9842  1.3331  0.0832
 8544SOL     OW37264   1.910   3.497  15.474 -0.4912 -0.2666 -0.4340
 8544SOL    HW137265   1.865   3.536  15.399 -0.8867  1.2633  0.6063
 8544SOL    HW237266   1.908   3.402  15.460  0.8772  0.0081 -2.5424
 8545SOL     OW37267   2.482   0.438   3.871  0.1504 -0.2149 -0.0378
 8545SOL    HW137268   2.446   0.460   3.785  0.0580 -1.2738 -0.2620
 8545SOL    HW237269   2.400   0.427   3.919  0.6413  1.0409  1.0980
 8546SOL     OW37270   0.365   2.593  16.530  0.3126 -0.1083  0.5729
 8546SOL    HW137271   0.413   2.645  16.466  0.9255 -0.4417  0.7567
 8546SOL    HW237272   0.401   2.509  16.500  1.3904  0.2838  0.7877
 8547SOL     OW37273   1.816   0.998   3.465  0.3801 -0.0442  0.2365
 8547SOL    HW137274   1.827   0.902   3.466  2.3896  0.2088  1.8850
 8547SOL    HW237275   1.871   1.024   3.539 -3.4593  4.6960  1.3713
 8548SOL     OW37276   2.174   3.417   5.655 -0.0841  0.0998  0.2129
 8548SOL    HW137277   2.147   3.432   5.565 -1.2781 -1.3378  0.3288
 8548SOL    HW237278   2.088   3.415   5.698  0.0137  0.6222  0.4411
 8549SOL     OW37279   4.141   0.423  11.279 -0.1765 -0.4714  0.1423
 8549SOL    HW137280   4.061   0.382  11.248  0.4641 -1.4839 -0.1918
 8549SOL    HW237281   4.106   0.470  11.355 -0.1745 -0.5462  0.1891
 8550SOL     OW37282   4.419   3.488   2.584  0.1575  0.1672 -0.1871
 8550SOL    HW137283   4.329   3.457   2.599  0.6777 -0.0599  2.3533
 8550SOL    HW237284   4.413   3.499   2.489  0.2621 -4.3134 -0.7377
 8551SOL     OW37285   4.535   0.548   2.937  0.2269 -0.7404 -0.3375
 8551SOL    HW137286   4.468   0.612   2.962  1.2334  0.7222 -1.3800
 8551SOL    HW237287   4.489   0.505   2.865 -2.2251  1.9855 -0.3873
 8552SOL     OW37288   2.380   0.360   3.629  0.7015  0.5403 -0.1852
 8552SOL    HW137289   2.292   0.397   3.639  0.4660  0.0953 -0.5680
 8552SOL    HW237290   2.361   0.295   3.562 -1.1383 -0.1512  1.0107
 8553SOL     OW37291   1.445   0.819   3.763  0.5008  0.1039  0.2051
 8553SOL    HW137292   1.509   0.748   3.766  1.0561  0.6375  1.1544
 8553SOL    HW237293   1.475   0.867   3.686 -0.3290  0.2421 -0.0330
 8554SOL     OW37294   2.353   3.214  12.653  0.5116 -0.1945 -0.6002
 8554SOL    HW137295   2.446   3.226  12.633 -0.2615  0.3287 -3.8333
 8554SOL    HW237296   2.332   3.153  12.583  0.8677 -0.1863 -0.7105
 8555SOL     OW37297   0.209   0.064   8.495 -0.1499  0.0679 -0.2869
 8555SOL    HW137298   0.297   0.045   8.463 -0.4740  1.8334 -2.1495
 8555SOL    HW237299   0.153   0.078   8.419  1.0175  1.0172 -0.9736
 8556SOL     OW37300   0.372   1.627  14.394  0.4657  0.1934 -0.2351
 8556SOL    HW137301   0.322   1.625  14.476  1.0632 -1.1245  0.0938
 8556SOL    HW237302   0.403   1.718  14.392  0.3867  0.2329  0.2001
 8557SOL     OW37303   3.747   4.696   1.953 -0.5247 -0.4377  0.2316
 8557SOL    HW137304   3.719   4.611   1.988 -0.2421 -1.6088 -2.3849
 8557SOL    HW237305   3.676   4.731   1.899  0.6235  3.1885  1.0943
 8558SOL     OW37306   3.025   1.011  15.549 -0.1027  0.4501  0.3167
 8558SOL    HW137307   2.942   1.052  15.572  0.5005  1.0854  1.4019
 8558SOL    HW237308   2.999   0.920  15.565 -0.0852  0.3224 -0.3817
 8559SOL     OW37309   3.866   2.702   5.149 -0.5099  0.0403 -0.5286
 8559SOL    HW137310   3.954   2.675   5.177 -0.4535  0.4760 -0.2798
 8559SOL    HW237311   3.886   2.716   5.056  0.4853 -0.1876 -0.3519
 8560SOL     OW37312   0.740   1.212   9.036 -0.6985 -0.2134  0.3303
 8560SOL    HW137313   0.796   1.136   9.024 -1.6493 -0.3578 -3.1785
 8560SOL    HW237314   0.736   1.228   8.941  4.2693  1.6139  0.4028
 8561SOL     OW37315   0.536   3.485  11.383 -0.2471  0.7105  0.2035
 8561SOL    HW137316   0.566   3.550  11.447  2.4807 -1.7997  1.4948
 8561SOL    HW237317   0.459   3.518  11.337 -3.5789 -3.7851  2.4608
 8562SOL     OW37318   4.351   2.779   2.955  0.2365  0.2931 -0.3453
 8562SOL    HW137319   4.297   2.749   2.882 -1.6586 -2.3078  2.1291
 8562SOL    HW237320   4.290   2.796   3.027 -0.5473  0.3049 -1.0049
 8563SOL     OW37321   3.816   3.179   7.313  0.0543 -0.1186 -0.9199
 8563SOL    HW137322   3.783   3.269   7.314 -0.1888 -0.2014 -1.2711
 8563SOL    HW237323   3.823   3.165   7.219 -0.3007 -1.6103 -0.7254
 8564SOL     OW37324   0.202   1.911   0.642  0.8413  0.0994  0.0784
 8564SOL    HW137325   0.191   1.945   0.553  1.3559 -2.9421 -1.1769
 8564SOL    HW237326   0.121   1.944   0.680  1.7611  1.2129  1.0507
 8565SOL     OW37327   1.162   0.816   2.300 -0.0874 -0.7251  0.5803
 8565SOL    HW137328   1.116   0.732   2.303  1.2764 -1.5282 -1.4022
 8565SOL    HW237329   1.106   0.859   2.235  0.6513  0.9768  1.0701
 8566SOL     OW37330   3.378   4.560  10.022 -0.2126 -0.1499  0.2525
 8566SOL    HW137331   3.392   4.501   9.948  0.1150 -1.1620  1.1174
 8566SOL    HW237332   3.448   4.533  10.081 -0.3187 -0.0123  0.4415
 8567SOL     OW37333   1.774   1.357  12.346 -0.3275  0.3563  0.1323
 8567SOL    HW137334   1.686   1.323  12.365 -0.5825 -0.2193 -2.0284
 8567SOL    HW237335   1.766   1.410  12.266  0.3089 -0.8522 -0.7272
 8568SOL     OW37336   2.788   4.229   0.343 -0.3803  0.3082  0.1960
 8568SOL    HW137337   2.737   4.148   0.354 -0.2735 -0.1017 -2.3667
 8568SOL    HW237338   2.855   4.195   0.283 -1.6741 -4.0019  1.1874
 8569SOL     OW37339   2.561   1.183   3.496 -0.0631 -0.0541  0.3078
 8569SOL    HW137340   2.591   1.103   3.453  1.6772 -0.6085  2.5354
 8569SOL    HW237341   2.546   1.149   3.585 -0.1886 -2.2071 -0.5211
 8570SOL     OW37342   4.121   0.213   4.685  0.3283  0.2015 -0.0242
 8570SOL    HW137343   4.161   0.127   4.700  0.8415  0.4250 -0.1037
 8570SOL    HW237344   4.030   0.187   4.670  0.5415  0.4053 -1.6102
 8571SOL     OW37345   0.884   0.209  16.492 -0.3945 -0.3645 -0.0902
 8571SOL    HW137346   0.977   0.189  16.500 -0.4344 -0.5495 -0.0927
 8571SOL    HW237347   0.844   0.199  16.578  2.1694 -0.9682  0.9948
 8572SOL     OW37348   2.911   2.785   3.014  0.3325  0.0121  0.1549
 8572SOL    HW137349   2.942   2.855   2.958  0.5862  0.2084  0.5429
 8572SOL    HW237350   2.906   2.718   2.946  0.4079 -2.4559  2.5511
 8573SOL     OW37351   2.563   3.962   4.766 -0.4142  0.2727  0.2464
 8573SOL    HW137352   2.580   3.889   4.707 -2.1354 -1.2470  1.6361
 8573SOL    HW237353   2.606   4.031   4.714  2.3273 -1.8924 -0.3903
 8574SOL     OW37354   3.607   4.273   0.894 -0.3598  0.1360 -0.1366
 8574SOL    HW137355   3.635   4.213   0.963 -1.1154  1.2097  1.1181
 8574SOL    HW237356   3.660   4.348   0.921  1.5189 -1.4601  0.6196
 8575SOL     OW37357   2.588   3.054   3.411  0.2133  0.0967  0.4660
 8575SOL    HW137358   2.523   3.074   3.343 -1.3183 -0.0436  1.8987
 8575SOL    HW237359   2.642   2.997   3.356 -2.0835 -0.1309 -1.6061
 8576SOL     OW37360   0.360   0.586  10.435 -0.0975 -0.4191 -0.3650
 8576SOL    HW137361   0.428   0.630  10.486 -0.5775 -1.3353  1.0874
 8576SOL    HW237362   0.281   0.633  10.461  0.5319  0.6175 -0.3195
 8577SOL     OW37363   0.044   2.703   6.572 -0.2229  0.2698  0.1572
 8577SOL    HW137364   0.097   2.755   6.511 -0.1454  0.3466  0.2912
 8577SOL    HW237365   0.110   2.645   6.610  0.5545  0.2030 -1.2583
 8578SOL     OW37366   1.609   3.440   5.725  0.1990  0.1037 -0.6178
 8578SOL    HW137367   1.561   3.442   5.642  0.8078 -1.3590 -1.0061
 8578SOL    HW237368   1.626   3.534   5.726  1.9386 -0.2412  0.7711
 8579SOL     OW37369   2.713   3.915   2.921 -0.3831 -0.8149 -0.2585
 8579SOL    HW137370   2.707   3.844   2.858  2.8055 -2.3389  1.2015
 8579SOL    HW237371   2.636   3.969   2.901  1.0115  0.0105 -3.3088
 8580SOL     OW37372   0.741   4.269   7.613  0.2733  0.4641  0.2041
 8580SOL    HW137373   0.772   4.349   7.657  0.7076  0.7787 -0.6804
 8580SOL    HW237374   0.697   4.228   7.688 -0.4628  0.2339 -0.3617
 8581SOL     OW37375   4.085   1.667  15.951 -0.1392 -0.0222  0.6874
 8581SOL    HW137376   4.032   1.645  15.875  2.2470 -0.8336 -0.7303
 8581SOL    HW237377   4.063   1.759  15.969 -1.8088  0.0931 -1.9536
 8582SOL     OW37378   3.848   1.867  13.474 -0.2441  0.4714 -0.4902
 8582SOL    HW137379   3.821   1.944  13.523  2.2024  0.9456  0.0787
 8582SOL    HW237380   3.803   1.802  13.529 -0.6814  0.8160 -0.4364
 8583SOL     OW37381   1.012   0.019   1.933  0.7225  0.0064 -0.1847
 8583SOL    HW137382   0.926   4.720   1.952  0.3462  0.1245 -1.6976
 8583SOL    HW237383   1.072   4.700   1.983 -0.0429 -1.1731 -0.5718
 8584SOL     OW37384   1.566   3.960   5.839  0.2466 -0.0575  0.5111
 8584SOL    HW137385   1.470   3.967   5.847  0.2618 -2.4692  2.8771
 8584SOL    HW237386   1.605   4.042   5.870  0.4833 -0.0959  0.3101
 8585SOL     OW37387   0.447   3.644   6.547  0.0564  0.3797 -0.2111
 8585SOL    HW137388   0.430   3.616   6.636  2.1086  0.7352  0.2976
 8585SOL    HW237389   0.515   3.582   6.521 -0.4189 -1.2014  2.3940
 8586SOL     OW37390   0.574   1.205   9.329  0.3898 -0.6282  0.0078
 8586SOL    HW137391   0.537   1.213   9.241  0.3038 -0.5414  0.0518
 8586SOL    HW237392   0.642   1.142   9.305  0.3348 -0.8300  0.3837
 8587SOL     OW37393   1.268   4.030   3.063 -0.0884 -0.1032  0.0639
 8587SOL    HW137394   1.221   4.104   3.024 -0.5310 -0.4395 -0.0394
 8587SOL    HW237395   1.274   4.057   3.155  2.8481 -3.5519  0.8850
 8588SOL     OW37396   0.900   2.023   5.859 -0.4031  0.3114  0.2912
 8588SOL    HW137397   0.884   2.106   5.904 -0.2632  0.7071 -0.3873
 8588SOL    HW237398   0.991   2.038   5.832 -0.2189  1.5544  1.5908
 8589SOL     OW37399   2.676   4.366   2.175  0.6643  0.1459 -0.0288
 8589SOL    HW137400   2.682   4.460   2.187  1.4665 -0.1074  1.4697
 8589SOL    HW237401   2.753   4.332   2.219 -0.1547  1.2333  2.2123
 8590SOL     OW37402   3.532   1.887  11.275  0.8430  0.5722  0.6251
 8590SOL    HW137403   3.551   1.976  11.306  2.2870  1.6336 -3.3165
 8590SOL    HW237404   3.559   1.894  11.183 -0.7239 -1.3801  0.0304
 8591SOL     OW37405   3.242   3.693   8.686 -0.2401  0.2320  0.2159
 8591SOL    HW137406   3.251   3.766   8.747 -0.8867  0.7277 -0.2839
 8591SOL    HW237407   3.333   3.678   8.660 -0.6862  0.2474 -1.3621
 8592SOL     OW37408   3.388   2.144   5.400 -0.1988 -0.0259 -0.1520
 8592SOL    HW137409   3.435   2.063   5.381  1.1760  0.6691  0.2985
 8592SOL    HW237410   3.305   2.115   5.437  0.1147 -3.1148 -1.8424
 8593SOL     OW37411   0.524   1.040   6.689 -0.4682 -0.8913 -0.6140
 8593SOL    HW137412   0.606   1.032   6.639 -0.4651  0.3338 -0.8131
 8593SOL    HW237413   0.471   1.091   6.627 -0.3371 -0.3618 -0.2886
 8594SOL     OW37414   2.161   4.495   6.260  0.0558 -0.7731 -0.1535
 8594SOL    HW137415   2.128   4.578   6.225 -1.3934 -0.5704  1.7163
 8594SOL    HW237416   2.224   4.470   6.192  1.0342  0.2523  0.3680
 8595SOL     OW37417   3.343   1.390   7.500 -0.8619  0.0778 -0.3031
 8595SOL    HW137418   3.304   1.425   7.420  3.2837  0.9611 -1.9219
 8595SOL    HW237419   3.290   1.310   7.504  1.2042 -1.2829 -0.4423
 8596SOL     OW37420   0.649   4.380   8.645 -0.0131  0.6128 -0.2471
 8596SOL    HW137421   0.572   4.349   8.692 -1.9868  2.1751 -2.3923
 8596SOL    HW237422   0.619   4.462   8.605  0.5054  1.5314  1.2779
 8597SOL     OW37423   3.286   2.991   3.321  0.2887 -0.9425  0.1646
 8597SOL    HW137424   3.341   3.032   3.255  3.2859 -1.3202  2.4139
 8597SOL    HW237425   3.276   2.904   3.283 -1.1775 -0.6491 -0.1205
 8598SOL     OW37426   1.737   3.705   3.666 -0.1287  0.0890 -0.6424
 8598SOL    HW137427   1.796   3.641   3.627  2.1166  0.5459  2.0120
 8598SOL    HW237428   1.665   3.723   3.605  1.0388 -0.5188 -2.1995
 8599SOL     OW37429   0.858   4.540  12.596 -0.4006  0.0306 -0.3808
 8599SOL    HW137430   0.780   4.596  12.587  1.0368  1.8460 -1.5141
 8599SOL    HW237431   0.921   4.601  12.556 -1.1894  0.5503 -0.8347
 8600SOL     OW37432   1.536   1.156  12.678 -0.3118  0.0651  0.5606
 8600SOL    HW137433   1.603   1.224  12.673 -0.1179 -0.2933 -1.6113
 8600SOL    HW237434   1.545   1.132  12.771  0.2803  0.3911  0.5851
 8601SOL     OW37435   2.041   1.591   4.853  0.2689  0.4826  0.3175
 8601SOL    HW137436   2.021   1.630   4.767 -1.4770  0.8057  0.8716
 8601SOL    HW237437   2.068   1.667   4.904  0.2015  1.9692 -1.8351
 8602SOL     OW37438   3.034   4.494   7.763 -0.1450  0.0012  0.5308
 8602SOL    HW137439   3.091   4.420   7.744 -0.4227  0.2952 -1.4293
 8602SOL    HW237440   3.061   4.555   7.695  0.0356  0.8785  1.3856
 8603SOL     OW37441   4.161   1.398   7.151 -0.3501 -0.2538  0.1156
 8603SOL    HW137442   4.236   1.455   7.170  0.7937 -0.7664 -2.8612
 8603SOL    HW237443   4.116   1.443   7.079  1.9390 -0.5027 -1.4493
 8604SOL     OW37444   1.549   1.882  10.855  0.2577 -0.0912  0.3912
 8604SOL    HW137445   1.626   1.927  10.820  0.0899 -1.3731 -1.6296
 8604SOL    HW237446   1.583   1.852  10.940  0.4796 -1.1044 -0.0598
 8605SOL     OW37447   3.522   1.306   8.945  0.0108 -0.5743 -0.0515
 8605SOL    HW137448   3.539   1.326   9.037  0.7677  1.4402 -0.6200
 8605SOL    HW237449   3.462   1.232   8.947  0.6424 -1.1186 -1.4990
 8606SOL     OW37450   0.219   1.335   2.379  0.0925 -0.3805  0.4304
 8606SOL    HW137451   0.287   1.338   2.446 -0.8949 -0.9036  1.4561
 8606SOL    HW237452   0.263   1.382   2.308 -1.8484  0.7689 -0.0339
 8607SOL     OW37453   0.074   0.471   4.945 -0.4907 -0.4152  0.3172
 8607SOL    HW137454   0.101   0.380   4.959  2.0777  0.1531 -0.9468
 8607SOL    HW237455   0.005   0.478   5.012  0.8253 -1.0132  1.7399
 8608SOL     OW37456   4.548   2.594   5.605  0.4748  0.1111 -0.0557
 8608SOL    HW137457   4.621   2.631   5.654  1.2043  0.8781 -1.7364
 8608SOL    HW237458   4.514   2.519   5.654 -0.1906  0.8205  0.5762
 8609SOL     OW37459   1.406   3.918  12.251  0.1927  0.0441 -0.7041
 8609SOL    HW137460   1.402   4.014  12.247 -1.4909  0.0959  2.0612
 8609SOL    HW237461   1.497   3.912  12.281 -0.4256 -2.1015  0.7508
 8610SOL     OW37462   1.364   2.767   2.420 -0.1097  0.1080  0.5748
 8610SOL    HW137463   1.329   2.820   2.491  0.5397 -0.3878  1.2684
 8610SOL    HW237464   1.393   2.693   2.473  1.9029  1.0244  0.7680
 8611SOL     OW37465   3.175   1.577   3.183  0.3720 -0.0364 -0.3677
 8611SOL    HW137466   3.260   1.578   3.227  0.5079  2.5411 -0.6815
 8611SOL    HW237467   3.117   1.576   3.260 -2.1469 -1.6133 -2.2665
 8612SOL     OW37468   4.180   2.197   2.584  0.0329 -0.4143  0.2358
 8612SOL    HW137469   4.208   2.170   2.672 -1.2359 -3.7316 -0.3617
 8612SOL    HW237470   4.200   2.118   2.532 -0.8879 -1.3734  1.3392
 8613SOL     OW37471   3.959   0.612   8.894  0.1665  0.2525  0.4630
 8613SOL    HW137472   3.869   0.639   8.879 -0.2319 -0.2325  1.9990
 8613SOL    HW237473   3.993   0.681   8.837 -1.5231  0.4890 -0.2374
 8614SOL     OW37474   0.996   1.653   4.129 -0.6410 -0.6047  0.1347
 8614SOL    HW137475   0.980   1.746   4.114 -0.3416 -0.4375  0.8178
 8614SOL    HW237476   1.084   1.660   4.167  0.4071  0.7628 -2.5909
 8615SOL     OW37477   2.114   2.462   3.381  0.2316 -0.4623  0.1199
 8615SOL    HW137478   2.128   2.489   3.471  0.8147  2.3615 -0.8309
 8615SOL    HW237479   2.019   2.456   3.388  0.3150 -1.0250  0.7749
 8616SOL     OW37480   4.508   2.610  15.604  0.2978  0.0119  0.2218
 8616SOL    HW137481   4.554   2.694  15.608 -0.4862  0.4632 -0.1603
 8616SOL    HW237482   4.541   2.577  15.520 -2.0075  0.6094 -0.9162
 8617SOL     OW37483   4.520   0.120  11.467 -0.5640  0.1114 -0.1541
 8617SOL    HW137484   4.424   0.129  11.463 -0.4043  1.4861 -1.0830
 8617SOL    HW237485   4.557   0.144  11.382  0.1150 -0.3796  0.0079
 8618SOL     OW37486   3.825   0.793   9.824  0.0389 -0.0052  0.0723
 8618SOL    HW137487   3.846   0.839   9.743 -0.0761 -0.2172 -0.0778
 8618SOL    HW237488   3.897   0.732   9.840 -1.3549 -1.5849  0.4356
 8619SOL     OW37489   3.701   0.679   8.800  0.0818 -0.3640  0.2643
 8619SOL    HW137490   3.623   0.734   8.788  0.0310 -0.8173 -1.4409
 8619SOL    HW237491   3.665   0.601   8.758  2.1286 -2.4542  2.4110
 8620SOL     OW37492   0.926   3.435  10.122  0.2643 -0.0675 -0.1076
 8620SOL    HW137493   0.842   3.418  10.164  0.9532  1.0214  1.7218
 8620SOL    HW237494   0.916   3.386  10.041  0.2425  3.2951 -2.1362
 8621SOL     OW37495   2.097   1.675   8.437 -0.1275  0.2710 -0.1726
 8621SOL    HW137496   2.027   1.695   8.375 -1.1515 -2.7655 -0.0307
 8621SOL    HW237497   2.046   1.696   8.516  1.4194 -5.0123  2.2113
 8622SOL     OW37498   0.350   3.819   8.296 -0.1423  0.3565 -0.5900
 8622SOL    HW137499   0.418   3.752   8.287 -0.6418 -0.0434 -1.4181
 8622SOL    HW237500   0.280   3.781   8.242 -0.0886 -0.2611 -0.2291
 8623SOL     OW37501   3.900   2.139   8.129 -1.0245  0.2469 -0.7461
 8623SOL    HW137502   3.819   2.098   8.159 -1.1507  1.6530  0.8115
 8623SOL    HW237503   3.907   2.215   8.186 -0.0528  0.0533 -0.6040
 8624SOL     OW37504   3.609   0.718   5.245 -0.2807 -0.0079  0.4918
 8624SOL    HW137505   3.664   0.767   5.306  0.1777  0.4018 -0.2500
 8624SOL    HW237506   3.651   0.636   5.219 -1.5240 -0.7390  0.8204
 8625SOL     OW37507   3.609   3.251  15.476  0.1920 -0.2386 -0.4361
 8625SOL    HW137508   3.597   3.314  15.406 -0.6780 -1.2991 -1.2542
 8625SOL    HW237509   3.694   3.213  15.456 -0.0421 -1.8241  1.4925
 8626SOL     OW37510   2.448   2.466  12.931  0.7268 -0.0008  0.5712
 8626SOL    HW137511   2.462   2.453  12.838 -1.0998 -1.1076  0.4697
 8626SOL    HW237512   2.353   2.459  12.936  0.6653 -0.5462 -1.6590
 8627SOL     OW37513   3.420   3.174   8.074 -0.0243  0.6324 -0.3448
 8627SOL    HW137514   3.475   3.125   8.134 -0.5607  0.1125 -0.2732
 8627SOL    HW237515   3.337   3.164   8.122  0.9752 -2.4508  0.7313
 8628SOL     OW37516   0.477   2.822  11.488 -0.3053 -0.0663  0.3073
 8628SOL    HW137517   0.501   2.915  11.494  1.6925 -0.5386 -0.4687
 8628SOL    HW237518   0.565   2.799  11.461 -1.0538 -0.8848 -1.4258
 8629SOL     OW37519   0.585   2.598   3.622 -0.4786 -0.2408 -0.0981
 8629SOL    HW137520   0.541   2.522   3.660 -0.9754  0.2160  0.2265
 8629SOL    HW237521   0.647   2.551   3.566 -2.0384 -0.9507 -1.2379
 8630SOL     OW37522   0.943   3.702   4.417  0.0582 -0.0972  0.0188
 8630SOL    HW137523   1.015   3.672   4.472  0.9318  1.9223 -0.0322
 8630SOL    HW237524   0.874   3.658   4.466  1.0531 -2.7816 -0.9990
 8631SOL     OW37525   1.279   1.367   4.762 -0.0706 -0.3600 -0.2563
 8631SOL    HW137526   1.236   1.304   4.820  0.7679  0.4508  1.2438
 8631SOL    HW237527   1.260   1.335   4.674  3.0481 -2.4501 -0.1470
 8632SOL     OW37528   2.086   0.662   1.556  0.2607  0.0765  0.2457
 8632SOL    HW137529   2.089   0.647   1.651 -1.0424  1.0435  0.4368
 8632SOL    HW237530   2.107   0.755   1.545  1.2715 -0.0898  0.7630
 8633SOL     OW37531   1.232   0.784   6.543 -0.2921  0.3345  0.3983
 8633SOL    HW137532   1.251   0.786   6.637 -1.4922 -1.3407  0.6641
 8633SOL    HW237533   1.183   0.703   6.528 -1.2652  1.2736 -1.4210
 8634SOL     OW37534   3.147   2.690   8.983  0.1516 -0.1559 -0.0377
 8634SOL    HW137535   3.089   2.762   8.961 -0.5860 -0.8006 -0.1853
 8634SOL    HW237536   3.223   2.730   9.026 -0.6644  2.4645 -1.0926
 8635SOL     OW37537   4.451   3.996  15.710 -0.3269 -0.4261 -0.0295
 8635SOL    HW137538   4.524   4.019  15.652 -1.4273 -1.5263 -1.8753
 8635SOL    HW237539   4.476   3.912  15.748 -0.5304  0.0225  1.0842
 8636SOL     OW37540   0.541   1.996   1.906  0.3269 -0.0729  0.3811
 8636SOL    HW137541   0.558   1.911   1.867  0.4578  0.3764 -0.5551
 8636SOL    HW237542   0.468   2.036   1.858  1.8742 -0.0563 -1.9840
 8637SOL     OW37543   2.646   2.457   0.772 -0.2638 -0.0625 -0.7238
 8637SOL    HW137544   2.653   2.446   0.677  1.5711 -2.6028 -0.2820
 8637SOL    HW237545   2.741   2.450   0.784 -0.4253 -1.0682 -0.1128
 8638SOL     OW37546   4.444   2.526   7.378 -0.0794  0.3315  0.2537
 8638SOL    HW137547   4.369   2.474   7.408 -0.4623  1.3394  1.0370
 8638SOL    HW237548   4.403   2.587   7.316 -2.6443 -1.5707  0.0695
 8639SOL     OW37549   4.083   2.972   8.444 -0.1806 -0.0654  0.6702
 8639SOL    HW137550   4.127   3.027   8.508 -1.5088  0.6342  0.9718
 8639SOL    HW237551   4.017   2.930   8.499 -0.2410 -2.0250 -0.8877
 8640SOL     OW37552   4.196   1.816   5.380  0.4944 -0.2982 -0.2291
 8640SOL    HW137553   4.112   1.856   5.402 -0.7072 -2.0545 -1.6389
 8640SOL    HW237554   4.252   1.891   5.359  0.3361  0.3391  1.6185
 8641SOL     OW37555   4.362   4.592   6.785 -0.0583 -0.0572  0.1635
 8641SOL    HW137556   4.447   4.550   6.799 -0.5413 -1.0380  0.2024
 8641SOL    HW237557   4.322   4.602   6.871 -1.8295  0.4208 -0.7129
 8642SOL     OW37558   1.976   4.698  16.020  0.0000 -0.1510  0.0646
 8642SOL    HW137559   1.932   4.613  16.022  0.0520 -0.1758  0.1744
 8642SOL    HW237560   1.949   0.011  16.098  1.1724 -2.0179  1.6582
 8643SOL     OW37561   2.051   3.023   7.532  0.0403 -0.2102 -0.6140
 8643SOL    HW137562   2.022   2.973   7.456 -0.5735  1.5839 -1.5645
 8643SOL    HW237563   1.970   3.056   7.572 -0.7969 -0.6083 -1.9839
 8644SOL     OW37564   1.306   0.727   7.066 -0.0980 -0.3474  0.4659
 8644SOL    HW137565   1.327   0.729   7.160 -0.0937  2.2277  0.3908
 8644SOL    HW237566   1.377   0.666   7.046 -1.2682 -1.8807  0.9909
 8645SOL     OW37567   4.175   4.422   4.696  0.1767 -0.5159 -0.2304
 8645SOL    HW137568   4.203   4.356   4.758  0.6723 -0.8261 -0.7878
 8645SOL    HW237569   4.238   4.412   4.625 -0.9258 -1.1189 -1.1305
 8646SOL     OW37570   1.523   0.788  11.874 -0.2475 -0.5296  0.1619
 8646SOL    HW137571   1.609   0.773  11.911  0.4755 -0.1403 -1.3572
 8646SOL    HW237572   1.508   0.706  11.827  1.8102 -1.0769  0.4658
 8647SOL     OW37573   0.476   0.651   0.735 -0.6738 -0.6651  0.8844
 8647SOL    HW137574   0.530   0.725   0.705  0.4653 -1.8032  0.1338
 8647SOL    HW237575   0.486   0.657   0.830 -1.8033 -0.7481  1.0123
 8648SOL     OW37576   1.101   3.267   6.943  0.0568 -0.9773 -0.0716
 8648SOL    HW137577   1.081   3.295   7.033  0.6042 -0.9585  0.0451
 8648SOL    HW237578   1.024   3.213   6.927 -1.4029  1.0418  0.1803
 8649SOL     OW37579   3.063   1.704  15.961  0.0574  0.1063  0.1184
 8649SOL    HW137580   3.053   1.719  16.055  1.0168 -2.2517  0.5898
 8649SOL    HW237581   3.059   1.798  15.942 -0.7837  0.9048  4.1707
 8650SOL     OW37582   4.352   1.157   3.816  0.3817 -0.0691 -0.5348
 8650SOL    HW137583   4.313   1.202   3.891 -0.6693  1.1268 -1.8031
 8650SOL    HW237584   4.326   1.066   3.827 -1.7560  0.5906 -0.0759
 8651SOL     OW37585   1.587   3.047   4.463  0.2338 -0.6320  0.0218
 8651SOL    HW137586   1.538   3.128   4.452  3.6326  1.8679  3.2753
 8651SOL    HW237587   1.560   3.021   4.552  0.0638  0.0775  0.1803
 8652SOL     OW37588   3.333   3.697   1.653  1.1675 -0.2995  0.4844
 8652SOL    HW137589   3.428   3.702   1.644  1.0374  0.9385 -0.2132
 8652SOL    HW237590   3.316   3.625   1.593  1.8898  1.9128 -2.3713
 8653SOL     OW37591   4.286   1.784   4.247 -0.4141 -0.6882 -0.0765
 8653SOL    HW137592   4.229   1.715   4.281  2.1698 -2.3353  0.9537
 8653SOL    HW237593   4.314   1.745   4.164  3.3370  0.7600  0.5155
 8654SOL     OW37594   0.582   1.606   4.111  0.0338  0.0688 -0.3119
 8654SOL    HW137595   0.651   1.542   4.127 -0.5524 -0.8939 -1.6496
 8654SOL    HW237596   0.500   1.559   4.096 -0.5504  0.1482  2.5690
 8655SOL     OW37597   2.848   1.363   4.372 -0.2768 -0.1087  0.0735
 8655SOL    HW137598   2.900   1.425   4.424  0.1393  1.3493 -2.0588
 8655SOL    HW237599   2.800   1.427   4.319 -2.3187 -2.5262 -0.9688
 8656SOL     OW37600   2.584   1.477   7.611 -0.3819 -0.3956  0.1377
 8656SOL    HW137601   2.543   1.564   7.619 -0.1129  0.0558 -3.2693
 8656SOL    HW237602   2.665   1.480   7.662  0.8959  0.5039 -1.9694
 8657SOL     OW37603   0.852   1.631   3.705 -0.0631 -0.3847  0.0601
 8657SOL    HW137604   0.835   1.659   3.794  0.5922 -0.3350  0.1668
 8657SOL    HW237605   0.929   1.575   3.719 -1.8116 -2.6412  0.7092
 8658SOL     OW37606   4.545   1.039   8.625  0.4090  0.3939  0.9525
 8658SOL    HW137607   4.536   0.980   8.700 -1.0117 -0.5949  0.0028
 8658SOL    HW237608   4.634   1.012   8.600  0.0097  0.1649 -0.2214
 8659SOL     OW37609   0.630   0.198   8.603 -0.2413 -0.1104  0.0380
 8659SOL    HW137610   0.558   0.261   8.604  1.2329  1.6152 -0.7186
 8659SOL    HW237611   0.605   0.151   8.682 -2.4019 -0.2448 -0.7157
 8660SOL     OW37612   2.731   3.550   2.316 -0.0537 -0.0475 -0.2125
 8660SOL    HW137613   2.771   3.589   2.237  0.4440  2.7400  1.4323
 8660SOL    HW237614   2.641   3.568   2.290  0.1852  2.5062  0.6947
 8661SOL     OW37615   3.434   0.820   2.484  0.1634 -0.1337 -0.2717
 8661SOL    HW137616   3.346   0.837   2.449  0.8041  1.5928 -1.0528
 8661SOL    HW237617   3.441   0.893   2.546 -1.0856  0.6021 -0.9981
 8662SOL     OW37618   3.059   0.435  10.726  0.3275  0.3947 -0.3428
 8662SOL    HW137619   3.005   0.375  10.778  1.1850 -1.8006 -1.9925
 8662SOL    HW237620   3.143   0.395  10.749 -0.1784 -1.3294 -1.4480
 8663SOL     OW37621   3.833   4.630   9.761 -0.4552 -0.1435  0.5291
 8663SOL    HW137622   3.764   4.571   9.732  2.9294 -4.3929  1.0395
 8663SOL    HW237623   3.794   4.716   9.775  0.6612  0.5647 -0.6707
 8664SOL     OW37624   1.057   0.588   7.214  0.1808 -0.5616 -0.5801
 8664SOL    HW137625   0.982   0.620   7.264  2.2119  2.8661  0.2084
 8664SOL    HW237626   1.108   0.536   7.275  0.7671 -0.3490 -0.8855
 8665SOL     OW37627   4.081   0.452  16.882 -0.1241 -0.3968  0.0187
 8665SOL    HW137628   4.106   0.363  16.857  0.6244  0.0651 -0.8612
 8665SOL    HW237629   4.046   0.488  16.800  0.2007  0.2871  0.1843
 8666SOL     OW37630   1.956   2.843   5.889  0.0262  0.3657  0.1441
 8666SOL    HW137631   1.943   2.871   5.799  0.2489 -1.2315 -0.3713
 8666SOL    HW237632   1.958   2.929   5.931  2.8214  0.8768 -1.0136
 8667SOL     OW37633   2.536   4.590  10.665  0.4450 -0.2777  0.5519
 8667SOL    HW137634   2.563   4.660  10.725  3.7133 -1.1368  0.1034
 8667SOL    HW237635   2.562   4.511  10.711  1.2559  0.3531  1.1724
 8668SOL     OW37636   3.973   2.064   1.558 -0.5998 -0.3578  0.6296
 8668SOL    HW137637   4.008   2.102   1.638 -0.7690  0.3622  0.3565
 8668SOL    HW237638   3.890   2.110   1.548  0.7076  1.9939  0.7798
 8669SOL     OW37639   2.809   0.909   3.149  0.3929  0.0435  0.3689
 8669SOL    HW137640   2.761   0.968   3.091 -1.0516 -1.6466 -0.1521
 8669SOL    HW237641   2.858   0.850   3.092 -1.1315  1.0791 -2.0507
 8670SOL     OW37642   4.087   1.639   6.637 -0.5418 -0.2129 -0.0213
 8670SOL    HW137643   4.031   1.652   6.713  0.5279  0.3630  0.6677
 8670SOL    HW237644   4.127   1.726   6.633 -1.2067  0.0458 -0.9655
 8671SOL     OW37645   3.317   4.613   2.590  0.7706 -0.4921  0.2201
 8671SOL    HW137646   3.380   4.632   2.659  0.5432  1.7646 -0.2142
 8671SOL    HW237647   3.355   4.659   2.515 -0.6269  0.4218  0.0885
 8672SOL     OW37648   0.049   0.492   7.530  0.1304  0.1301 -0.1424
 8672SOL    HW137649   0.124   0.543   7.559 -1.1853  0.9144  1.8374
 8672SOL    HW237650   0.074   0.483   7.438  0.9204 -2.3171  0.3084
 8673SOL     OW37651   2.421   3.214   4.046 -0.2352  0.1168 -0.3892
 8673SOL    HW137652   2.464   3.129   4.054 -1.2885 -0.2100  1.6546
 8673SOL    HW237653   2.489   3.251   3.989 -0.4518  0.1001 -0.6593
 8674SOL     OW37654   3.833   0.400   7.402  0.2955  0.1245  0.0801
 8674SOL    HW137655   3.890   0.421   7.475 -0.5805 -0.8038  1.0156
 8674SOL    HW237656   3.865   0.310   7.397  0.6154  0.2710 -0.5949
 8675SOL     OW37657   1.530   1.388   2.253  0.4377 -0.5578 -0.0949
 8675SOL    HW137658   1.494   1.321   2.195  0.8139 -0.3801 -0.5331
 8675SOL    HW237659   1.542   1.467   2.201  0.6184 -1.1761 -0.9795
 8676SOL     OW37660   3.072   3.717  10.773  0.0301 -0.0958 -0.2255
 8676SOL    HW137661   2.979   3.699  10.758 -0.0452 -0.9845  1.2428
 8676SOL    HW237662   3.067   3.801  10.818  2.0907 -0.0993 -0.0007
 8677SOL     OW37663   4.108   4.490  10.198  0.3486  0.5128 -0.3295
 8677SOL    HW137664   4.067   4.454  10.119 -0.3970  2.4785 -0.8452
 8677SOL    HW237665   4.165   4.563  10.175  0.4526  0.2381 -0.9251
 8678SOL     OW37666   2.370   3.163   4.724  0.4424  0.6246  0.1636
 8678SOL    HW137667   2.351   3.252   4.696 -1.9107  0.5719  1.5729
 8678SOL    HW237668   2.364   3.129   4.635  0.6710 -3.0113  1.5130
 8679SOL     OW37669   0.670   0.409   4.931 -0.7012  0.0551  0.4630
 8679SOL    HW137670   0.587   0.451   4.954  0.2995  0.8608  2.6145
 8679SOL    HW237671   0.669   0.330   4.987 -0.0573  0.0650  0.4824
 8680SOL     OW37672   3.897   4.485  13.273  0.3170 -0.7382  0.3374
 8680SOL    HW137673   3.898   4.566  13.325  2.6484 -0.8908  0.5355
 8680SOL    HW237674   3.908   4.522  13.186 -2.6119  0.3327  0.3967
 8681SOL     OW37675   0.490   2.476   4.387 -0.0863  0.8837 -0.9534
 8681SOL    HW137676   0.549   2.410   4.349  2.1698  0.4068  3.3118
 8681SOL    HW237677   0.543   2.505   4.462 -1.9167  0.7972  0.3641
 8682SOL     OW37678   1.519   2.881   1.021  0.0603  0.4120  0.8264
 8682SOL    HW137679   1.571   2.942   1.073  0.1614 -1.0072  2.3912
 8682SOL    HW237680   1.478   2.935   0.953  1.7298  1.1242  0.3956
 8683SOL     OW37681   0.429   1.674   4.612 -0.1648  0.5817 -0.9293
 8683SOL    HW137682   0.428   1.596   4.667 -0.3143 -0.4944 -2.4557
 8683SOL    HW237683   0.465   1.648   4.527  0.1610 -0.5523 -0.4377
 8684SOL     OW37684   4.116   3.928  17.028 -0.6507 -1.0174 -0.0434
 8684SOL    HW137685   4.211   3.923  17.028 -0.6663 -1.3631 -0.1080
 8684SOL    HW237686   4.087   3.890  16.944  0.6099  0.4144 -1.1121
 8685SOL     OW37687   0.623   0.279   1.726  0.4409  0.3507 -0.0291
 8685SOL    HW137688   0.554   0.239   1.673  1.0831  0.6181 -1.0557
 8685SOL    HW237689   0.664   0.196   1.752  1.7570  0.3087 -2.1891
 8686SOL     OW37690   2.817   2.679   4.389  0.2319  0.2123  0.6334
 8686SOL    HW137691   2.764   2.754   4.416 -1.6055 -0.2076 -1.8073
 8686SOL    HW237692   2.783   2.657   4.302  3.1148 -0.3922 -0.3503
 8687SOL     OW37693   2.820   1.128   7.028  0.8563 -0.0133  0.9629
 8687SOL    HW137694   2.900   1.076   7.018  0.3401 -0.1693 -2.3128
 8687SOL    HW237695   2.823   1.163   6.939 -2.2167  1.9539  1.6318
 8688SOL     OW37696   3.719   0.672   2.892  0.3064 -0.0646 -0.2450
 8688SOL    HW137697   3.628   0.643   2.892  0.0611  0.6944  0.8147
 8688SOL    HW237698   3.724   0.717   2.976 -1.3144  1.4261 -0.9462
 8689SOL     OW37699   0.597   2.651   0.917  0.3714  0.0929  0.4315
 8689SOL    HW137700   0.604   2.622   0.826  0.2084  4.1639 -0.8853
 8689SOL    HW237701   0.685   2.623   0.944  0.5347  1.0561  0.8878
 8690SOL     OW37702   4.502   2.415   3.916  0.0220  0.0811  0.3904
 8690SOL    HW137703   4.583   2.387   3.958 -1.4933  0.1263  3.3678
 8690SOL    HW237704   4.459   2.445   3.996 -2.3493  1.7028 -1.4715
 8691SOL     OW37705   2.156   2.907   8.700  0.0752 -0.4210 -0.0305
 8691SOL    HW137706   2.223   2.887   8.765 -1.0252  0.9869  1.5418
 8691SOL    HW237707   2.213   2.939   8.630 -1.5189  0.4004 -0.9419
 8692SOL     OW37708   0.110   4.503   7.558 -0.3486 -0.6328 -0.0944
 8692SOL    HW137709   0.132   4.464   7.473 -0.2509 -1.3264  0.2574
 8692SOL    HW237710   0.104   4.425   7.612  1.6119 -0.0271  0.9723
 8693SOL     OW37711   1.789   0.581  13.908 -0.5616 -0.4339  0.2195
 8693SOL    HW137712   1.826   0.669  13.901  0.5239 -0.8639  0.6616
 8693SOL    HW237713   1.743   0.578  13.992  0.8937  1.6007  1.0733
 8694SOL     OW37714   3.622   0.190  11.216 -0.4539  0.3079  0.0335
 8694SOL    HW137715   3.696   0.249  11.232  0.2786 -1.8345  4.6723
 8694SOL    HW237716   3.656   0.102  11.230  0.4537  0.5609 -0.5651
 8695SOL     OW37717   2.309   3.810   0.651 -0.0702 -0.0449  0.2215
 8695SOL    HW137718   2.227   3.856   0.635 -0.9280 -1.8763 -0.6788
 8695SOL    HW237719   2.346   3.869   0.717 -1.6200  2.9090 -1.5555
 8696SOL     OW37720   0.012   2.227   7.999 -0.2968  0.2617 -0.4130
 8696SOL    HW137721   4.718   2.291   7.935 -1.0139 -1.3061 -1.6286
 8696SOL    HW237722   4.711   2.264   8.079  0.3041  0.7629 -0.3609
 8697SOL     OW37723   1.912   2.565   6.716 -0.0851  0.4724 -0.1039
 8697SOL    HW137724   1.876   2.477   6.731 -0.1632  0.1988 -1.8257
 8697SOL    HW237725   1.990   2.542   6.665  0.0495  1.4660 -0.3489
 8698SOL     OW37726   1.703   3.833  15.334  0.2148  0.1586 -0.0410
 8698SOL    HW137727   1.615   3.871  15.333  0.3727  0.5452  0.7890
 8698SOL    HW237728   1.761   3.909  15.325 -0.9796  1.2602  1.4299
 8699SOL     OW37729   0.341   0.383   3.914 -0.1844  0.5900 -0.0014
 8699SOL    HW137730   0.362   0.467   3.872  0.2135  0.3696 -0.2404
 8699SOL    HW237731   0.426   0.357   3.950  0.0664  2.4446  0.7764
 8700SOL     OW37732   2.805   2.367   7.371 -0.0043 -0.2201 -0.7960
 8700SOL    HW137733   2.777   2.287   7.327 -0.2383  0.3087 -1.6097
 8700SOL    HW237734   2.784   2.427   7.299 -0.3759 -2.0667 -2.2185
 8701SOL     OW37735   2.167   3.067   3.753 -0.6495  0.2984 -0.4687
 8701SOL    HW137736   2.095   3.005   3.769  1.8683 -2.3271  0.5907
 8701SOL    HW237737   2.165   3.111   3.838  0.6730  0.3510 -0.4728
 8702SOL     OW37738   1.788   2.000  15.586 -0.1288  0.1839  0.1103
 8702SOL    HW137739   1.697   2.017  15.612 -0.4318 -1.1346 -0.0965
 8702SOL    HW237740   1.773   2.004  15.492 -0.7209 -1.4496  0.1343
 8703SOL     OW37741   4.115   3.997   8.928  0.2191  0.0949  0.4173
 8703SOL    HW137742   4.174   3.927   8.899  0.0533 -0.4694  1.4432
 8703SOL    HW237743   4.098   4.041   8.845  2.7799 -1.0685 -0.7363
 8704SOL     OW37744   2.451   1.399  10.843  0.2315 -0.4821 -0.6123
 8704SOL    HW137745   2.529   1.392  10.897 -0.9682 -0.0246  1.2053
 8704SOL    HW237746   2.395   1.327  10.871 -0.0671 -0.1527 -0.3596
 8705SOL     OW37747   4.101   2.545  14.241  0.5069  0.1051  0.0392
 8705SOL    HW137748   4.078   2.631  14.276  0.3420 -0.8522  2.2497
 8705SOL    HW237749   4.159   2.509  14.308  0.7835 -1.0035 -0.8162
 8706SOL     OW37750   3.563   0.510  15.077 -0.1802  0.1835  0.3322
 8706SOL    HW137751   3.597   0.595  15.051 -0.9019  0.6174  0.8042
 8706SOL    HW237752   3.495   0.537  15.140 -0.5767 -1.6234  0.6779
 8707SOL     OW37753   4.527   0.315   1.802 -0.0680  0.1536 -0.4424
 8707SOL    HW137754   4.584   0.243   1.826 -1.8772  0.1071  3.7020
 8707SOL    HW237755   4.508   0.295   1.710  0.8343 -0.2440 -0.5415
 8708SOL     OW37756   3.070   2.954   9.765 -0.5932  0.0209 -0.6818
 8708SOL    HW137757   3.048   2.881   9.708 -1.4905 -1.2368  1.3063
 8708SOL    HW237758   3.164   2.955   9.747 -0.3670 -1.2875  0.4921
 8709SOL     OW37759   4.272   2.086   9.184  0.3161 -0.3513  0.4557
 8709SOL    HW137760   4.285   2.060   9.275 -2.3239 -0.5330  0.7661
 8709SOL    HW237761   4.262   2.180   9.199  0.9615 -0.1679 -0.2453
 8710SOL     OW37762   0.677   4.605   5.746  0.1477 -0.5724  0.5890
 8710SOL    HW137763   0.658   4.673   5.682  1.0756 -1.8460 -1.0135
 8710SOL    HW237764   0.745   4.553   5.704  1.0671 -0.1032  1.4963
 8711SOL     OW37765   1.734   4.511   8.978 -0.2834 -0.4320  0.2231
 8711SOL    HW137766   1.768   4.514   8.889 -1.5047 -1.8357 -0.3101
 8711SOL    HW237767   1.654   4.561   8.965  1.1547  1.7527 -0.0683
 8712SOL     OW37768   1.832   4.112   1.093 -0.4805 -0.1665  0.0193
 8712SOL    HW137769   1.762   4.053   1.123  0.1342 -0.0499  1.6654
 8712SOL    HW237770   1.791   4.198   1.095 -0.6306 -0.2396  0.1225
 8713SOL     OW37771   1.804   1.486   1.823  0.1380  0.6931  0.3345
 8713SOL    HW137772   1.867   1.414   1.828  0.6460  1.0775 -0.4435
 8713SOL    HW237773   1.736   1.440   1.870 -0.6723  1.9193  0.3648
 8714SOL     OW37774   3.728   1.903   6.358 -0.8315 -0.1358  0.4297
 8714SOL    HW137775   3.661   1.887   6.424 -1.3152 -1.4072 -0.3494
 8714SOL    HW237776   3.711   1.830   6.297  0.9218  1.7971 -2.3602
 8715SOL     OW37777   1.626   2.387   4.558 -0.6329  0.7152  0.3417
 8715SOL    HW137778   1.623   2.441   4.479 -2.0913  0.7352  0.4175
 8715SOL    HW237779   1.712   2.346   4.546 -0.8192 -0.2062  2.1236
 8716SOL     OW37780   0.314   3.340  11.506  0.0062  0.5149 -0.2401
 8716SOL    HW137781   0.279   3.375  11.588  0.5213 -1.9893  1.0249
 8716SOL    HW237782   0.246   3.363  11.443 -0.3461 -0.8556 -0.3512
 8717SOL     OW37783   1.412   0.599   5.115  0.4905 -0.3412  0.3129
 8717SOL    HW137784   1.478   0.601   5.185  0.9029 -2.1404 -0.0182
 8717SOL    HW237785   1.361   0.521   5.139 -0.7423  0.1282 -0.8372
 8718SOL     OW37786   3.290   1.393   5.582 -0.0694 -0.2600  0.3106
 8718SOL    HW137787   3.219   1.450   5.555  0.6405 -0.0779 -1.1601
 8718SOL    HW237788   3.252   1.366   5.666 -0.1696  0.0717  0.3736
 8719SOL     OW37789   4.285   0.691   1.799 -0.8078  0.1454  0.9445
 8719SOL    HW137790   4.321   0.641   1.725  0.0502 -0.7119  1.9541
 8719SOL    HW237791   4.274   0.623   1.865  0.0727 -0.3173  0.6108
 8720SOL     OW37792   3.578   0.308   6.040 -0.1763 -0.2428 -0.1509
 8720SOL    HW137793   3.625   0.324   6.122  0.2026  1.6131 -0.7337
 8720SOL    HW237794   3.583   0.396   6.005  2.1016 -0.9149 -1.4934
 8721SOL     OW37795   3.955   3.782   1.420 -0.2318 -0.3718  0.1342
 8721SOL    HW137796   3.980   3.729   1.495 -0.9476  0.1070  0.7211
 8721SOL    HW237797   3.892   3.840   1.462 -0.7069 -1.5750  1.0816
 8722SOL     OW37798   3.145   0.306   2.793 -0.2874 -0.1194  0.3088
 8722SOL    HW137799   3.103   0.221   2.784  1.6782 -0.6453 -3.8037
 8722SOL    HW237800   3.087   0.366   2.745 -0.8802 -1.1723 -0.2809
 8723SOL     OW37801   1.986   4.310   3.826  0.5895 -0.3064  0.0057
 8723SOL    HW137802   1.913   4.259   3.792 -0.4449  0.8624  0.4528
 8723SOL    HW237803   2.052   4.337   3.762  2.3901 -1.2649  1.4214
 8724SOL     OW37804   4.348   2.868   4.272  0.4615 -0.9079 -0.5877
 8724SOL    HW137805   4.296   2.938   4.314  0.7653 -2.2012  1.9150
 8724SOL    HW237806   4.292   2.790   4.274  0.2184 -0.6969  1.3855
 8725SOL     OW37807   3.226   4.424   1.405 -0.6242  0.0827 -0.2389
 8725SOL    HW137808   3.218   4.334   1.374 -1.6231 -0.5679  1.9262
 8725SOL    HW237809   3.182   4.473   1.335 -1.9706  0.6114  0.9876
 8726SOL     OW37810   0.849   0.444  17.446  0.1945 -0.2250 -0.0595
 8726SOL    HW137811   0.891   0.374  17.497 -1.1342 -0.2785  0.9516
 8726SOL    HW237812   0.782   0.478  17.505  0.5941  1.3170 -0.5158
 8727SOL     OW37813   3.170   3.356   4.369  0.4136  0.2536  0.6897
 8727SOL    HW137814   3.252   3.332   4.411  0.1133 -0.4488  0.8704
 8727SOL    HW237815   3.128   3.380   4.452  0.6752 -0.8429  1.1390
 8728SOL     OW37816   4.169   0.676   5.710 -0.6473  0.2501 -0.2125
 8728SOL    HW137817   4.088   0.724   5.731 -0.3117  0.1792  1.2964
 8728SOL    HW237818   4.175   0.615   5.784  0.0462  1.3870  0.6748
 8729SOL     OW37819   1.103   1.763   1.073  0.2512 -0.2277 -0.0089
 8729SOL    HW137820   1.072   1.676   1.047 -0.0669 -0.1390  0.0685
 8729SOL    HW237821   1.023   1.817   1.073  0.2490 -0.2273 -0.6072
 8730SOL     OW37822   3.499   1.109   3.221  0.6408  0.1708 -0.1232
 8730SOL    HW137823   3.535   1.195   3.241  0.8937 -0.2037  1.0820
 8730SOL    HW237824   3.448   1.096   3.301  0.0721  0.5778 -0.4231
 8731SOL     OW37825   4.293   2.559   1.698 -0.3571 -0.0441 -0.1111
 8731SOL    HW137826   4.198   2.544   1.701  0.1180 -2.8568  0.4616
 8731SOL    HW237827   4.300   2.575   1.792  0.6482 -1.4903  0.0547
 8732SOL     OW37828   3.067   2.076   6.848 -0.2688  0.3684  0.1461
 8732SOL    HW137829   3.128   2.036   6.786 -0.1537 -0.5926  0.8776
 8732SOL    HW237830   3.108   2.056   6.933 -0.6499 -1.6004 -0.1381
 8733SOL     OW37831   1.999   1.440   4.497 -0.0141 -0.2168  0.1236
 8733SOL    HW137832   2.046   1.482   4.425  1.8432 -2.3152  0.1414
 8733SOL    HW237833   2.015   1.498   4.571  0.4232 -0.8673  0.5366
 8734SOL     OW37834   2.816   2.700  12.997 -0.2805 -0.0768 -0.7529
 8734SOL    HW137835   2.876   2.627  12.986 -0.8978 -0.5833 -0.7709
 8734SOL    HW237836   2.732   2.658  13.017  0.4361 -0.9910  0.2650
 8735SOL     OW37837   0.917   4.138   3.594 -0.2979 -0.6008  0.2291
 8735SOL    HW137838   0.843   4.184   3.633 -0.7874  0.4999 -1.9839
 8735SOL    HW237839   0.865   4.094   3.527  0.9043 -1.4177 -0.1673
 8736SOL     OW37840   2.462   3.911   5.220  0.3273 -0.4136 -0.5726
 8736SOL    HW137841   2.508   3.994   5.205  1.9111 -0.7845  2.3706
 8736SOL    HW237842   2.491   3.858   5.146 -2.6239  0.0260 -2.0845
 8737SOL     OW37843   3.599   1.715  10.615  0.3492 -0.0003 -0.2207
 8737SOL    HW137844   3.580   1.622  10.603  0.6332 -0.1687  0.7046
 8737SOL    HW237845   3.647   1.719  10.697  2.4299  0.9573 -1.4957
 8738SOL     OW37846   3.391   2.540   4.217 -0.0301 -0.1275  0.8300
 8738SOL    HW137847   3.352   2.534   4.130  0.4217 -2.1876  0.7670
 8738SOL    HW237848   3.321   2.573   4.274 -0.6191 -0.4007  0.2599
 8739SOL     OW37849   2.311   2.236  16.404 -0.3790  0.1549  0.3764
 8739SOL    HW137850   2.392   2.191  16.378  0.1845  1.3543  0.0597
 8739SOL    HW237851   2.259   2.248  16.325  1.3331  1.3460 -0.5612
 8740SOL     OW37852   0.160   1.768   7.312 -0.4073 -0.3039  0.1652
 8740SOL    HW137853   0.204   1.688   7.340  0.8214  0.5575  0.7383
 8740SOL    HW237854   0.224   1.791   7.244  0.9126 -3.0291  0.5168
 8741SOL     OW37855   1.676   3.390  14.648 -0.5230  0.2278  0.5224
 8741SOL    HW137856   1.599   3.439  14.619  0.2280  0.3347 -1.2449
 8741SOL    HW237857   1.725   3.460  14.690 -0.3045  0.1195  0.4431
 8742SOL     OW37858   1.732   1.704  14.717 -0.9745  0.3259  0.1089
 8742SOL    HW137859   1.782   1.717  14.636 -0.1537  3.5759  1.1419
 8742SOL    HW237860   1.645   1.733  14.690 -1.1738 -0.8483 -0.5306
 8743SOL     OW37861   1.067   1.852   8.775  0.1076  0.2598  0.2822
 8743SOL    HW137862   1.028   1.803   8.847  0.5304  2.1582  1.8079
 8743SOL    HW237863   1.148   1.880   8.818  0.0511  0.1771  0.4391
 8744SOL     OW37864   3.361   2.324   7.695  0.2582  0.1994  0.1235
 8744SOL    HW137865   3.298   2.377   7.645  1.4562  2.5486  1.1139
 8744SOL    HW237866   3.437   2.382   7.695 -1.8063  2.9608 -2.5055
 8745SOL     OW37867   0.624   0.845   4.472 -0.0965 -0.3081 -0.2296
 8745SOL    HW137868   0.585   0.759   4.456 -1.1313  0.0454  0.3551
 8745SOL    HW237869   0.548   0.893   4.507  2.8163  2.0497  2.8834
 8746SOL     OW37870   2.611   3.188   5.989  0.5209  0.3096  0.4321
 8746SOL    HW137871   2.608   3.207   6.083  0.2223 -0.5947  0.6024
 8746SOL    HW237872   2.702   3.212   5.971  0.1444  2.6572  1.7034
 8747SOL     OW37873   3.607   4.590   3.010  0.3114 -0.1338  0.0534
 8747SOL    HW137874   3.580   4.609   2.921  0.2310  0.6101  0.2438
 8747SOL    HW237875   3.526   4.598   3.060  0.1765 -2.0294  0.1396
 8748SOL     OW37876   0.429   0.182  11.207 -0.5811 -0.1944 -0.3432
 8748SOL    HW137877   0.462   0.188  11.117 -0.4755  0.2017 -0.2782
 8748SOL    HW237878   0.429   0.087  11.217 -1.4603 -0.3608 -2.0879
 8749SOL     OW37879   4.383   4.692   6.122  0.3149 -0.1827 -0.0761
 8749SOL    HW137880   4.390   4.628   6.193 -0.9001 -0.2254 -0.0054
 8749SOL    HW237881   4.288   4.701   6.115  0.3446  1.3002  1.2330
 8750SOL     OW37882   0.118   2.971   3.520  0.0785 -0.6912  0.2130
 8750SOL    HW137883   0.054   2.911   3.483  0.4199 -0.3421 -0.9431
 8750SOL    HW237884   0.104   3.054   3.475  0.2532 -0.8154 -0.0756
 8751SOL     OW37885   4.406   3.152   0.844 -0.5582 -0.3454  0.4428
 8751SOL    HW137886   4.361   3.092   0.904  0.2061 -0.2421  1.1309
 8751SOL    HW237887   4.490   3.147   0.890 -0.6703  1.6672  0.8767
 8752SOL     OW37888   2.454   4.661  14.404 -0.0239  0.5050 -0.2531
 8752SOL    HW137889   2.543   4.653  14.437  0.0077 -1.1005 -0.7196
 8752SOL    HW237890   2.443   0.019  14.403  0.1717  0.5431  1.4191
 8753SOL     OW37891   0.232   4.025  10.560 -0.4268  0.3690 -0.0160
 8753SOL    HW137892   0.280   3.953  10.599 -0.3441  1.1494  1.3333
 8753SOL    HW237893   0.304   4.088  10.559  0.2931 -0.4614  0.2731
 8754SOL     OW37894   0.339   0.879   1.719 -0.1584 -0.5684  0.0215
 8754SOL    HW137895   0.313   0.948   1.658  2.4077  1.1318  0.8326
 8754SOL    HW237896   0.433   0.895   1.730 -0.6965  1.2473  1.9800
 8755SOL     OW37897   2.787   1.099   7.308 -0.4364  0.0791  0.5520
 8755SOL    HW137898   2.805   1.104   7.214  1.6684 -2.6236  0.8390
 8755SOL    HW237899   2.851   1.156   7.349 -1.6455  0.6234  1.6750
 8756SOL     OW37900   2.246   4.350  10.967 -0.0282 -0.0364  0.6872
 8756SOL    HW137901   2.273   4.438  10.943 -1.2840 -0.3326 -1.7410
 8756SOL    HW237902   2.196   4.372  11.045  0.3901  0.3669  0.8404
 8757SOL     OW37903   4.678   0.734   6.859 -0.5093  0.0072  0.5652
 8757SOL    HW137904   4.585   0.759   6.861 -0.3674  0.5517  0.3853
 8757SOL    HW237905   4.669   0.640   6.876 -1.0301 -0.5148 -2.5317
 8758SOL     OW37906   4.257   0.805   4.370 -0.0796  0.2532  0.2739
 8758SOL    HW137907   4.172   0.799   4.326 -0.0443  1.7487 -0.0173
 8758SOL    HW237908   4.242   0.889   4.413  2.6858  0.3703  1.0243
 8759SOL     OW37909   0.479   4.670   2.387  0.1599  0.0421  0.5120
 8759SOL    HW137910   0.456   4.603   2.323  1.4328  1.1017 -1.0681
 8759SOL    HW237911   0.571   4.678   2.364  0.4063  0.3293  1.6005
 8760SOL     OW37912   2.550   4.451   6.221 -0.1865 -0.2096  0.2243
 8760SOL    HW137913   2.600   4.524   6.258 -0.2789 -0.8780  1.6612
 8760SOL    HW237914   2.470   4.487   6.183  0.4370  2.8976  1.7950
 8761SOL     OW37915   0.150   2.783   1.669  0.8341 -0.5283  0.1252
 8761SOL    HW137916   0.095   2.714   1.707  1.6998 -0.8583  0.7937
 8761SOL    HW237917   0.146   2.764   1.576 -0.1952 -0.7532  0.2059
 8762SOL     OW37918   0.713   0.353   5.682 -0.0804  0.1411  0.7661
 8762SOL    HW137919   0.783   0.396   5.634 -1.5818 -0.9090 -2.3259
 8762SOL    HW237920   0.719   0.391   5.770 -0.3958  1.2460  0.3075
 8763SOL     OW37921   2.101   0.927   5.092  0.2033  0.0887 -0.4442
 8763SOL    HW137922   2.050   0.990   5.143 -0.9657 -2.5795  1.6839
 8763SOL    HW237923   2.191   0.952   5.113 -0.2533  0.4480  1.1125
 8764SOL     OW37924   2.249   2.175   2.184 -0.6140  1.0422 -0.2644
 8764SOL    HW137925   2.319   2.154   2.246  0.5645 -0.4359 -2.0632
 8764SOL    HW237926   2.185   2.116   2.223 -0.8933  0.6575 -1.3079
 8765SOL     OW37927   1.908   1.145   5.506  0.3543 -0.3566 -0.3453
 8765SOL    HW137928   1.899   1.081   5.577  2.4450  0.5675  0.7435
 8765SOL    HW237929   1.829   1.194   5.527  0.1212 -0.8651 -0.0474
 8766SOL     OW37930   4.341   1.285  13.876  0.1947  0.2735 -0.3486
 8766SOL    HW137931   4.342   1.347  13.804 -0.3983  0.8345  0.1265
 8766SOL    HW237932   4.255   1.303  13.914  1.8567  0.1867  3.4513
 8767SOL     OW37933   4.717   2.162  13.944 -0.1685  0.0178  0.5244
 8767SOL    HW137934   0.044   2.149  14.014  1.0590 -1.5706 -0.9111
 8767SOL    HW237935   4.645   2.111  13.981  0.3821 -0.9864  0.2192
 8768SOL     OW37936   3.897   4.247   6.332 -0.2579  0.8953 -0.0198
 8768SOL    HW137937   3.829   4.305   6.299 -0.3874 -0.1324 -1.5517
 8768SOL    HW237938   3.957   4.316   6.359  1.6820 -0.3157 -1.2312
 8769SOL     OW37939   3.565   3.926   8.783  0.1108  0.5905  0.1131
 8769SOL    HW137940   3.626   3.977   8.729  0.4124  0.1108 -0.0002
 8769SOL    HW237941   3.511   4.000   8.810 -3.8567 -2.3991  0.2849
 8770SOL     OW37942   3.766   1.355   5.374 -0.2726  0.4438 -0.0640
 8770SOL    HW137943   3.676   1.343   5.344 -0.5353 -1.2697  1.4658
 8770SOL    HW237944   3.800   1.268   5.392  0.5691  0.3909 -1.8596
 8771SOL     OW37945   1.604   4.324   2.742 -0.2506  0.3829  0.4866
 8771SOL    HW137946   1.560   4.389   2.687  1.5184 -0.6333 -2.0856
 8771SOL    HW237947   1.553   4.341   2.822 -0.3169 -1.5231  0.8339
 8772SOL     OW37948   4.359   2.124   7.181  0.0757  0.3676 -0.1680
 8772SOL    HW137949   4.393   2.042   7.217 -0.7845  0.2525  0.3694
 8772SOL    HW237950   4.434   2.182   7.197 -0.1769  0.1182  1.8945
 8773SOL     OW37951   2.674   0.727   9.159 -0.0685 -0.3832 -0.2153
 8773SOL    HW137952   2.746   0.789   9.153 -1.7157  1.4528 -1.2836
 8773SOL    HW237953   2.618   0.765   9.091 -1.4830  0.3679  1.3423
 8774SOL     OW37954   0.164   2.583   4.283  0.2606  0.4150  0.2231
 8774SOL    HW137955   0.080   2.627   4.274 -0.3244 -0.5279  1.0613
 8774SOL    HW237956   0.146   2.519   4.352  0.7476  1.3505  1.2224
 8775SOL     OW37957   1.089   0.701   3.265  0.6454  0.2562  0.0330
 8775SOL    HW137958   1.157   0.634   3.271 -0.0619 -0.4900 -0.3448
 8775SOL    HW237959   1.013   0.654   3.299  2.1490 -2.3955 -0.2770
 8776SOL     OW37960   2.604   2.759   3.892 -0.1054  0.2515  0.4782
 8776SOL    HW137961   2.533   2.819   3.872 -0.0550  0.8724  2.1396
 8776SOL    HW237962   2.632   2.740   3.802  0.8903 -2.3737  1.3646
 8777SOL     OW37963   4.433   2.632   6.259  0.0837  0.3805 -0.3194
 8777SOL    HW137964   4.506   2.579   6.226  1.3274  0.7453  1.8868
 8777SOL    HW237965   4.420   2.694   6.186 -1.6013  2.5683  1.8466
 8778SOL     OW37966   3.054   2.152   6.225  0.0325 -0.4664 -0.0775
 8778SOL    HW137967   3.093   2.237   6.247 -0.9010 -0.3774  1.2009
 8778SOL    HW237968   2.965   2.182   6.207  1.2789  2.6247 -1.1421
 8779SOL     OW37969   4.502   4.553   2.911  0.0358  0.0303 -0.1021
 8779SOL    HW137970   4.483   4.618   2.978  1.0805 -0.7949  1.0107
 8779SOL    HW237971   4.576   4.512   2.956  1.7733  1.7664 -1.4087
 8780SOL     OW37972   1.715   4.131   3.727  0.3330 -0.7724  0.6798
 8780SOL    HW137973   1.760   4.080   3.794 -1.5927 -3.0610  0.2098
 8780SOL    HW237974   1.663   4.066   3.680  0.4668 -1.2423  1.1888
 8781SOL     OW37975   0.375   1.569  10.727  0.1888 -0.2354 -0.4701
 8781SOL    HW137976   0.387   1.524  10.643  0.7986 -0.3504 -0.3197
 8781SOL    HW237977   0.455   1.620  10.741  0.0596  0.1339 -1.0620
 8782SOL     OW37978   2.961   2.382   2.701 -0.2888  0.3215  0.5483
 8782SOL    HW137979   3.042   2.409   2.659 -1.1067  3.0124  0.6887
 8782SOL    HW237980   2.973   2.288   2.711 -2.6012 -0.0712 -0.4613
 8783SOL     OW37981   1.812   1.784   1.903  0.1745 -0.4552 -0.5607
 8783SOL    HW137982   1.832   1.696   1.872  0.2163 -0.8077  0.5045
 8783SOL    HW237983   1.779   1.831   1.826  0.2101 -2.0815 -1.5670
 8784SOL     OW37984   4.534   3.113   9.125  0.0718 -0.1211  0.2300
 8784SOL    HW137985   4.498   3.196   9.095  1.1295  0.0349 -0.5980
 8784SOL    HW237986   4.520   3.121   9.220 -4.7197 -0.2468 -0.4809
 8785SOL     OW37987   0.099   1.651  16.460 -0.3912 -0.1391  0.1754
 8785SOL    HW137988   0.087   1.718  16.392  0.5373 -1.0749 -0.9083
 8785SOL    HW237989   0.025   1.592  16.444  1.3654 -2.0631 -0.7273
 8786SOL     OW37990   2.124   4.289  14.584 -0.2004 -0.6682 -0.0210
 8786SOL    HW137991   2.094   4.335  14.663 -3.0836 -0.5281 -1.1769
 8786SOL    HW237992   2.157   4.361  14.531  0.0001  0.0680  1.1034
 8787SOL     OW37993   3.438   1.785   8.777  0.1706  0.0741 -0.1017
 8787SOL    HW137994   3.436   1.717   8.845 -1.9810  0.5637  0.3078
 8787SOL    HW237995   3.531   1.772   8.755  0.1554  1.3755 -0.8859
 8788SOL     OW37996   2.869   1.602  12.210 -0.6204 -0.3425  0.0441
 8788SOL    HW137997   2.928   1.578  12.138  1.4850  0.1277  1.6092
 8788SOL    HW237998   2.792   1.615  12.154 -0.7555 -2.2949 -0.2301
 8789SOL     OW37999   3.533   2.740   1.107 -0.3515  0.2294 -0.0872
 8789SOL    HW138000   3.578   2.753   1.191 -0.4338 -1.2116  0.1817
 8789SOL    HW238001   3.485   2.660   1.130  0.2744  0.1485  0.9593
 8790SOL     OW38002   4.028   3.652   8.234  0.1102 -0.3795 -0.3823
 8790SOL    HW138003   4.118   3.682   8.221 -0.4020  0.6034 -1.7092
 8790SOL    HW238004   4.017   3.656   8.329 -1.7028  1.0310 -0.6481
 8791SOL     OW38005   1.402   2.886  14.614 -0.0511 -0.1591  0.7323
 8791SOL    HW138006   1.378   2.926  14.531  2.0991 -0.5021 -0.0508
 8791SOL    HW238007   1.477   2.936  14.647  0.3088 -1.0689  1.2983
 8792SOL     OW38008   2.988   3.008  10.023 -0.2146 -0.3274  0.0647
 8792SOL    HW138009   3.007   2.979   9.934 -2.1235 -1.4277  0.0201
 8792SOL    HW238010   2.893   2.996  10.026  0.0676 -2.4104  0.8387
 8793SOL     OW38011   2.611   2.217   0.959 -0.8303  0.3623 -0.0847
 8793SOL    HW138012   2.621   2.142   0.900 -1.4618 -0.8295  1.3169
 8793SOL    HW238013   2.598   2.296   0.907 -1.9244 -0.2554 -0.7546
 8794SOL     OW38014   2.247   1.696   3.020  0.0621  0.1413  0.3825
 8794SOL    HW138015   2.250   1.620   2.961  0.8349  1.2227 -0.9920
 8794SOL    HW238016   2.219   1.660   3.104  3.3200  1.3638  2.0083
 8795SOL     OW38017   4.519   0.218  14.230 -0.3877 -0.3454 -0.2555
 8795SOL    HW138018   4.567   0.175  14.160  1.3883 -0.3075  0.9337
 8795SOL    HW238019   4.427   0.211  14.205 -0.1837 -3.3701 -0.1473
 8796SOL     OW38020   0.904   0.058   7.605 -0.0629  0.1114  0.0707
 8796SOL    HW138021   0.923   0.079   7.513 -2.5791  0.4197 -0.3894
 8796SOL    HW238022   0.930   4.703   7.602 -1.9159 -0.4175  0.0023
 8797SOL     OW38023   4.309   1.258  17.479  0.1029  0.2208 -0.0855
 8797SOL    HW138024   4.294   1.314  17.403 -1.4636 -0.0470  0.0178
 8797SOL    HW238025   4.218   1.251  17.511  0.2909  0.2721  0.4626
 8798SOL     OW38026   0.243   1.774   6.296 -0.1622 -0.4221 -0.3304
 8798SOL    HW138027   0.244   1.779   6.201  2.3770  0.8194 -0.2183
 8798SOL    HW238028   0.242   1.679   6.310 -1.5624 -0.6106 -1.7137
 8799SOL     OW38029   0.263   0.812   7.350 -0.0193 -0.4057 -0.3861
 8799SOL    HW138030   0.358   0.821   7.360 -0.2496 -0.2382  1.6966
 8799SOL    HW238031   0.241   0.892   7.301  1.8953 -0.2597 -1.0090
 8800SOL     OW38032   1.024   2.175  14.449 -0.2752 -0.0522 -0.1069
 8800SOL    HW138033   0.969   2.158  14.373  0.9478 -0.5718 -0.8644
 8800SOL    HW238034   1.022   2.092  14.497 -1.0645 -1.0324 -1.8343
 8801SOL     OW38035   3.843   4.578  11.875  0.3898  0.1073  0.1003
 8801SOL    HW138036   3.911   4.610  11.934  0.2650 -0.7076  0.6970
 8801SOL    HW238037   3.774   4.642  11.890  0.2732  0.4139 -1.7636
 8802SOL     OW38038   3.234   0.070   8.853 -0.1757 -0.0365  0.5016
 8802SOL    HW138039   3.198   0.158   8.846  0.8372  0.5857  3.1848
 8802SOL    HW238040   3.202   0.023   8.775  1.5167  0.7296 -0.6528
 8803SOL     OW38041   1.563   4.297   7.548 -0.1582  0.6232 -0.6106
 8803SOL    HW138042   1.534   4.361   7.613  2.3226 -0.4859  1.5895
 8803SOL    HW238043   1.486   4.293   7.491 -0.3462 -0.4081 -0.2793
 8804SOL     OW38044   1.621   0.218   8.195  0.1296 -0.0511  0.2277
 8804SOL    HW138045   1.633   0.313   8.193 -1.3579  0.1574  0.8574
 8804SOL    HW238046   1.619   0.182   8.107  0.7227 -0.8871  0.5497
 8805SOL     OW38047   3.533   3.697   6.547  0.1738  0.0116 -0.4639
 8805SOL    HW138048   3.586   3.678   6.470 -2.6470 -1.5158 -2.0068
 8805SOL    HW238049   3.520   3.605   6.573  1.8317  0.0660  0.5773
 8806SOL     OW38050   3.860   0.998   2.248 -0.2989 -0.2610  0.2475
 8806SOL    HW138051   3.857   1.007   2.153  1.5401  0.1860  0.2518
 8806SOL    HW238052   3.947   0.963   2.264 -0.0885 -1.2994 -3.2246
 8807SOL     OW38053   4.008   1.939   5.006  0.3191 -0.1680  0.3623
 8807SOL    HW138054   3.946   1.935   5.078 -0.9746  1.7888 -0.6301
 8807SOL    HW238055   3.950   1.934   4.930  0.4933  1.7984  0.1147
 8808SOL     OW38056   1.600   2.489   5.408 -0.1116  0.5700  0.0349
 8808SOL    HW138057   1.649   2.408   5.393 -0.1768  0.8850 -1.8771
 8808SOL    HW238058   1.509   2.469   5.429 -0.4223  1.1994 -0.7145
 8809SOL     OW38059   1.477   3.575   5.260  0.3531 -0.2896  0.4269
 8809SOL    HW138060   1.497   3.572   5.166  0.4326 -0.3232  0.4453
 8809SOL    HW238061   1.441   3.664   5.258 -2.5014 -1.4088  2.3410
 8810SOL     OW38062   2.706   2.862   6.729 -0.1008 -0.0568 -0.2120
 8810SOL    HW138063   2.668   2.838   6.645 -1.8102  0.9223  0.2918
 8810SOL    HW238064   2.667   2.949   6.737 -0.5264 -0.4129  1.6145
 8811SOL     OW38065   0.694   3.579   9.647 -0.4545  0.1967  0.5017
 8811SOL    HW138066   0.632   3.612   9.582 -2.5434 -2.0961  1.3518
 8811SOL    HW238067   0.639   3.538   9.713 -1.1324 -0.9432 -0.7919
 8812SOL     OW38068   4.101   3.906   4.348  0.0727  0.1245  0.9568
 8812SOL    HW138069   4.071   3.994   4.326 -1.5634 -0.0980  2.2851
 8812SOL    HW238070   4.135   3.865   4.269 -1.9449  1.3251 -0.5273
 8813SOL     OW38071   1.049   1.992   6.348  0.3185  0.3320 -0.1210
 8813SOL    HW138072   1.036   1.904   6.382  0.0946  0.3483 -0.1660
 8813SOL    HW238073   1.132   1.971   6.306 -0.2541 -0.6801 -0.7360
 8814SOL     OW38074   3.024   0.909  15.153 -0.1860  0.1892  0.2982
 8814SOL    HW138075   3.004   0.816  15.167 -0.7434  0.0902 -1.1519
 8814SOL    HW238076   2.991   0.923  15.064  4.1248 -0.5498 -1.3750
 8815SOL     OW38077   2.907   0.474   9.151  0.9056 -0.4119 -0.1524
 8815SOL    HW138078   2.849   0.503   9.081  0.0438 -1.0826  0.2732
 8815SOL    HW238079   2.859   0.503   9.229  0.6341 -0.1575 -0.4151
 8816SOL     OW38080   1.615   2.603   6.534  0.0600 -0.1884  0.3958
 8816SOL    HW138081   1.647   2.688   6.501 -1.2679 -0.0969 -0.6524
 8816SOL    HW238082   1.684   2.583   6.597  1.8478 -0.5772 -1.6689
 8817SOL     OW38083   2.779   2.457   3.434 -0.2017 -0.2949  0.1210
 8817SOL    HW138084   2.750   2.545   3.411 -0.3889 -0.1581  0.8767
 8817SOL    HW238085   2.698   2.406   3.449 -1.1861  1.8006  1.9266
 8818SOL     OW38086   4.270   1.304  15.388  0.0279 -0.0079 -0.4507
 8818SOL    HW138087   4.352   1.339  15.423 -0.4626 -0.5779  1.2707
 8818SOL    HW238088   4.266   1.326  15.295 -0.2028  1.3516 -0.1110
 8819SOL     OW38089   4.736   2.021   2.706 -0.3406 -0.0520 -0.7874
 8819SOL    HW138090   0.016   2.063   2.621 -2.9603  2.7488  0.0808
 8819SOL    HW238091   4.685   2.092   2.745 -0.4158 -1.2639  1.3071
 8820SOL     OW38092   2.265   0.108   2.370  0.1565  0.3619 -0.3847
 8820SOL    HW138093   2.272   0.197   2.337 -0.7332  0.2691 -0.8041
 8820SOL    HW238094   2.197   0.064   2.319 -0.3867 -0.2101  0.8442
 8821SOL     OW38095   1.509   4.512   4.899 -0.0497  0.8732 -0.1732
 8821SOL    HW138096   1.533   4.603   4.883 -1.1353  1.1734 -0.1210
 8821SOL    HW238097   1.486   4.526   4.991  0.3642 -0.9140  0.1980
 8822SOL     OW38098   1.951   2.903  11.995  0.5272 -0.3644 -0.4464
 8822SOL    HW138099   1.869   2.920  12.041 -1.2153 -0.9531 -3.3167
 8822SOL    HW238100   1.936   2.956  11.916 -3.0219  0.3761  0.7402
 8823SOL     OW38101   3.928   2.095   2.921 -0.4010  0.0719  0.1362
 8823SOL    HW138102   3.895   2.117   3.008 -2.3493 -2.4841  0.0436
 8823SOL    HW238103   3.865   2.033   2.885 -1.4742 -0.2235  2.5446
 8824SOL     OW38104   1.511   3.625  15.741 -0.2088 -0.1798 -0.2427
 8824SOL    HW138105   1.521   3.592  15.831  1.4426 -2.4502 -1.2727
 8824SOL    HW238106   1.604   3.641  15.728 -0.6985  1.8098 -1.2910
 8825SOL     OW38107   3.472   0.056   6.537 -0.1448  0.4612  0.3349
 8825SOL    HW138108   3.454   4.701   6.558  0.9873 -0.5794 -3.1938
 8825SOL    HW238109   3.452   0.056   6.443  2.4574 -3.6127 -0.2509
 8826SOL     OW38110   2.347   0.334   6.495 -0.0651  0.5389  0.5785
 8826SOL    HW138111   2.321   0.425   6.478 -1.2182  0.3411  1.2151
 8826SOL    HW238112   2.424   0.328   6.439 -0.3011  3.6036 -0.0734
 8827SOL     OW38113   1.611   2.765   3.114  0.7922  0.0570 -0.2187
 8827SOL    HW138114   1.682   2.809   3.069  0.0176  1.7080  0.1758
 8827SOL    HW238115   1.541   2.780   3.051 -0.0115  2.9725  1.4009
 8828SOL     OW38116   4.049   3.197   7.921  0.3826 -0.4875 -0.3039
 8828SOL    HW138117   4.075   3.246   7.844 -1.4087  0.6964 -0.1639
 8828SOL    HW238118   4.090   3.111   7.907  2.6370  0.6036 -0.3568
 8829SOL     OW38119   2.685   3.448   1.943  0.0396 -0.1270 -0.2010
 8829SOL    HW138120   2.760   3.471   1.998 -0.5114 -0.5471  0.7215
 8829SOL    HW238121   2.633   3.528   1.936 -0.3398 -0.2307  1.5223
 8830SOL     OW38122   2.316   0.114   5.476 -0.3294  0.0187  0.1384
 8830SOL    HW138123   2.305   0.200   5.434  0.8788 -1.4698 -3.1888
 8830SOL    HW238124   2.395   0.073   5.444 -0.3845 -1.0794  1.4389
 8831SOL     OW38125   2.262   3.478  10.286 -0.6122 -0.3305 -0.9193
 8831SOL    HW138126   2.285   3.507  10.375 -1.6130 -2.4184  0.0396
 8831SOL    HW238127   2.343   3.433  10.261  0.5270  1.8285 -1.1270
 8832SOL     OW38128   1.408   1.844   6.603 -0.1047  0.2963 -0.1494
 8832SOL    HW138129   1.465   1.796   6.544  0.5659  0.0518  0.6940
 8832SOL    HW238130   1.426   1.798   6.685 -2.1709 -1.6819 -0.8043
 8833SOL     OW38131   1.494   0.874   6.489 -0.4642 -0.5269  0.7055
 8833SOL    HW138132   1.516   0.807   6.424 -1.3712 -1.8388  1.7551
 8833SOL    HW238133   1.410   0.842   6.523  0.1014 -1.7993  0.8712
 8834SOL     OW38134   1.671   3.074  13.689  0.1507  0.7479  0.2454
 8834SOL    HW138135   1.651   3.168  13.692  0.6586  0.8581  0.2162
 8834SOL    HW238136   1.603   3.047  13.627  0.8123 -0.4572  0.0594
 8835SOL     OW38137   1.284   2.745   2.135 -0.0156  0.3776 -0.1281
 8835SOL    HW138138   1.338   2.782   2.064 -1.3895 -0.4379 -1.5908
 8835SOL    HW238139   1.334   2.763   2.215  1.6028 -1.4179 -0.7236
 8836SOL     OW38140   2.674   0.148   2.279 -0.0874  0.0019 -0.2866
 8836SOL    HW138141   2.727   0.204   2.337 -1.1470  0.4291  0.2862
 8836SOL    HW238142   2.667   0.202   2.201 -1.7253 -1.5660 -1.2191
 8837SOL     OW38143   0.698   0.182   7.215 -0.3174 -0.3966  0.2624
 8837SOL    HW138144   0.683   0.272   7.188 -0.2275 -0.0661  1.3037
 8837SOL    HW238145   0.684   0.189   7.310  0.0148  2.4852  0.0992
 8838SOL     OW38146   0.020   1.640   9.150  0.1290  0.7092 -0.6454
 8838SOL    HW138147   4.736   1.733   9.140  1.9354  1.1125 -0.6879
 8838SOL    HW238148   4.719   1.621   9.236  0.7048  0.5013 -0.4362
 8839SOL     OW38149   4.481   2.051   5.759 -0.1837  0.4721 -1.0583
 8839SOL    HW138150   4.470   1.982   5.694 -0.5089 -1.4285  1.0114
 8839SOL    HW238151   4.409   2.112   5.739 -0.4530  1.6465  3.3489
 8840SOL     OW38152   2.670   2.437  14.478  0.3388  0.2788 -0.3467
 8840SOL    HW138153   2.650   2.480  14.396 -1.7787 -0.8637 -0.4189
 8840SOL    HW238154   2.676   2.349  14.440 -1.1244 -0.7481  1.7726
 8841SOL     OW38155   1.203   0.755   9.068 -0.0978  0.0052  0.3188
 8841SOL    HW138156   1.270   0.785   9.008 -0.9182 -1.0162 -1.1022
 8841SOL    HW238157   1.232   0.788   9.153  1.7001 -0.7871  0.0080
 8842SOL     OW38158   0.971   2.321  11.793  0.1184  0.3356 -0.2462
 8842SOL    HW138159   0.990   2.227  11.795  1.1055  0.5757  1.5173
 8842SOL    HW238160   1.018   2.354  11.717  0.6187  0.5289  0.1480
 8843SOL     OW38161   3.938   0.367   2.714  0.3349  0.7277 -0.0632
 8843SOL    HW138162   3.997   0.344   2.785 -1.8326  3.5816  2.6935
 8843SOL    HW238163   3.974   0.454   2.702  2.6415 -0.6207 -2.8824
 8844SOL     OW38164   2.706   2.491   5.737  0.2004  0.2405  0.0022
 8844SOL    HW138165   2.675   2.502   5.826  0.5349 -0.3215  0.1897
 8844SOL    HW238166   2.655   2.412   5.716  0.5635 -0.6349  2.4289
 8845SOL     OW38167   1.541   0.939   7.599  0.1531 -0.0234 -0.2153
 8845SOL    HW138168   1.507   0.958   7.686 -1.0549  2.2838 -1.1838
 8845SOL    HW238169   1.546   1.030   7.570  0.6657 -0.3821 -1.2974
 8846SOL     OW38170   1.263   3.516   6.124 -0.1717  0.1394  0.3327
 8846SOL    HW138171   1.349   3.480   6.147  0.6588  0.3943 -2.3749
 8846SOL    HW238172   1.283   3.584   6.061  2.0561  0.7206  1.6877
 8847SOL     OW38173   2.223   0.981  15.805 -0.3774  0.2947 -0.3150
 8847SOL    HW138174   2.223   0.907  15.866 -0.1919  1.5525  1.2217
 8847SOL    HW238175   2.317   0.997  15.800 -0.3286  0.1766  0.1837
 8848SOL     OW38176   1.644   2.009  14.423  0.8026 -0.2032 -0.2211
 8848SOL    HW138177   1.626   1.934  14.480  0.1490 -0.3976 -0.6865
 8848SOL    HW238178   1.562   2.012  14.373  0.1968  0.0433  0.7956
 8849SOL     OW38179   3.773   0.845   0.781 -0.2383 -0.2666 -0.2616
 8849SOL    HW138180   3.761   0.750   0.783  2.4157 -0.5357  3.0061
 8849SOL    HW238181   3.787   0.870   0.690  0.9206 -2.0360 -0.5617
 8850SOL     OW38182   0.784   0.125   5.587  0.4423  0.2161 -0.3792
 8850SOL    HW138183   0.752   0.208   5.622  1.9621  1.2647 -1.4542
 8850SOL    HW238184   0.878   0.142   5.584  0.2442  1.4813  0.6681
 8851SOL     OW38185   3.626   2.267   2.347 -0.0031  0.0426 -0.0028
 8851SOL    HW138186   3.557   2.321   2.385 -1.7243 -0.6964 -2.1080
 8851SOL    HW238187   3.591   2.181   2.368  2.3995 -1.0602 -0.4676
 8852SOL     OW38188   4.178   0.957  10.120 -0.1279  0.2416  0.4324
 8852SOL    HW138189   4.186   0.969  10.025 -1.3094  0.5333  0.3685
 8852SOL    HW238190   4.273   0.952  10.133 -0.1128  2.2133  1.1647
 8853SOL     OW38191   2.841   1.944   2.525 -0.4492  0.0175 -0.0458
 8853SOL    HW138192   2.789   1.871   2.558 -0.4437 -0.2071 -0.5241
 8853SOL    HW238193   2.830   2.009   2.594  0.0856  0.0425  0.0133
 8854SOL     OW38194   1.856   0.619   1.414  0.4315 -0.0640 -0.9458
 8854SOL    HW138195   1.935   0.638   1.466  1.1333 -0.6382 -1.7941
 8854SOL    HW238196   1.805   0.692   1.449  0.3672  0.2495 -1.6865
 8855SOL     OW38197   1.397   2.506   8.260 -0.1290 -0.3838 -0.3004
 8855SOL    HW138198   1.357   2.549   8.336  0.0633  1.3479 -1.1686
 8855SOL    HW238199   1.316   2.470   8.225 -2.6432  3.7081  1.3303
 8856SOL     OW38200   3.836   2.785  11.210  0.2279 -0.8420 -0.0084
 8856SOL    HW138201   3.797   2.851  11.153  0.2710  0.0718  1.0285
 8856SOL    HW238202   3.858   2.834  11.289 -2.4184 -1.5152  1.1519
 8857SOL     OW38203   4.477   2.723  16.832 -0.5612  0.0549  0.3491
 8857SOL    HW138204   4.495   2.638  16.872 -0.3766 -0.3038 -0.5041
 8857SOL    HW238205   4.492   2.703  16.740 -2.5781 -0.3117  0.0977
 8858SOL     OW38206   2.694   2.248  17.035 -0.0531 -0.2931  0.0467
 8858SOL    HW138207   2.611   2.230  17.079  1.6032  0.1377  3.3280
 8858SOL    HW238208   2.675   2.341  17.017 -1.1277 -0.5110  0.0135
 8859SOL     OW38209   1.296   0.507   1.454  0.1864  0.3317  0.0368
 8859SOL    HW138210   1.316   0.590   1.410  0.3285 -0.4132 -1.2873
 8859SOL    HW238211   1.203   0.508   1.431  0.1392  1.3027  0.2359
 8860SOL     OW38212   4.052   3.672   5.593  0.0608  0.9259  0.1889
 8860SOL    HW138213   4.074   3.758   5.558 -0.8799  1.2834  0.4650
 8860SOL    HW238214   4.062   3.682   5.688  0.0146  0.5185  0.2377
 8861SOL     OW38215   1.793   1.216   6.970 -0.2996  0.6179 -0.0265
 8861SOL    HW138216   1.858   1.169   6.918 -1.3207 -0.4491 -0.3267
 8861SOL    HW238217   1.711   1.193   6.926  0.6450 -1.4815 -0.6854
 8862SOL     OW38218   4.114   0.943  12.855  0.0272 -0.3969  0.1230
 8862SOL    HW138219   4.099   0.865  12.800  0.9990  0.3542 -1.2127
 8862SOL    HW238220   4.131   1.015  12.794 -0.5858 -2.6813 -2.7747
 8863SOL     OW38221   1.766   3.592  15.275  0.0413 -0.3539 -0.2054
 8863SOL    HW138222   1.738   3.681  15.293  1.4899  0.4677 -1.9585
 8863SOL    HW238223   1.698   3.570  15.210 -0.4736 -1.7816  0.8189
 8864SOL     OW38224   0.215   3.556  10.003  0.1891  0.3420 -0.3629
 8864SOL    HW138225   0.132   3.597  10.026  0.2147  1.1115 -1.6020
 8864SOL    HW238226   0.273   3.595  10.068  0.2909 -0.1720 -0.1467
 8865SOL     OW38227   3.084   1.054   5.829 -0.4316  0.2696 -0.5607
 8865SOL    HW138228   3.106   1.049   5.922  1.7949  0.7327 -1.0539
 8865SOL    HW238229   3.105   1.146   5.810 -1.5697  0.9412  1.4318
 8866SOL     OW38230   2.249   2.290  14.122  0.7230 -0.1534  0.1975
 8866SOL    HW138231   2.238   2.329  14.209 -0.0939  1.2207 -0.5134
 8866SOL    HW238232   2.161   2.300  14.085  1.0177  3.2142  0.3615
 8867SOL     OW38233   2.333   1.179   8.593  0.0774  0.1065  0.0552
 8867SOL    HW138234   2.426   1.158   8.577  0.1442  0.0652  0.5113
 8867SOL    HW238235   2.329   1.224   8.509 -0.6817  0.0627  0.0725
 8868SOL     OW38236   0.126   1.498   1.940 -0.3233 -0.1297  0.3800
 8868SOL    HW138237   0.099   1.581   1.901  2.6663  0.9728  0.6668
 8868SOL    HW238238   0.050   1.449   1.909  0.8036 -0.2363 -2.2589
 8869SOL     OW38239   2.687   3.802   8.807  0.2548  0.2440  0.1915
 8869SOL    HW138240   2.760   3.846   8.849  0.7620 -2.1094  1.8123
 8869SOL    HW238241   2.726   3.727   8.761  0.1404 -2.2424  4.1317
 8870SOL     OW38242   3.834   0.081   7.245  0.1575  0.1194 -0.2647
 8870SOL    HW138243   3.836   0.079   7.341  1.1979 -0.6032 -0.3022
 8870SOL    HW238244   3.750   0.035   7.235  0.4219 -0.4920  0.2948
 8871SOL     OW38245   0.518   2.653   6.062 -0.1232  0.3581  0.9578
 8871SOL    HW138246   0.487   2.665   6.152  1.3758  1.1628  1.3660
 8871SOL    HW238247   0.437   2.624   6.020 -0.3968  0.9046  1.1075
 8872SOL     OW38248   1.927   1.209  15.337  0.0360 -0.0130  0.2549
 8872SOL    HW138249   1.873   1.147  15.289 -1.4262  0.2815  1.5203
 8872SOL    HW238250   2.016   1.191  15.306  0.6821  4.3060 -0.4007
 8873SOL     OW38251   3.054   1.592   5.003  0.0841 -0.2822 -0.9527
 8873SOL    HW138252   3.093   1.511   4.970  1.5495 -0.1435  0.4362
 8873SOL    HW238253   3.004   1.556   5.076 -0.8294  2.4009 -0.2424
 8874SOL     OW38254   4.110   1.980   2.146 -0.0040 -0.4563  0.1443
 8874SOL    HW138255   4.094   1.892   2.180 -0.5849 -0.0665  0.8827
 8874SOL    HW238256   4.082   2.032   2.222 -1.4048 -1.2721  0.2091
 8875SOL     OW38257   1.321   0.255  13.218 -0.0890  0.5987  0.4420
 8875SOL    HW138258   1.285   0.309  13.147  1.3585 -2.4863 -2.5773
 8875SOL    HW238259   1.415   0.272  13.220  0.2078 -0.7094 -2.3378
 8876SOL     OW38260   0.160   2.881   9.574 -0.1319  0.0719  0.1409
 8876SOL    HW138261   0.242   2.928   9.558 -1.3389  1.8896 -0.7486
 8876SOL    HW238262   0.119   2.859   9.491  0.1731 -2.8085  0.7585
 8877SOL     OW38263   1.815   4.405  16.305 -0.3078 -0.2110  0.5113
 8877SOL    HW138264   1.856   4.490  16.325  1.2357 -1.1953  1.5531
 8877SOL    HW238265   1.724   4.436  16.300 -0.0990  0.5797  1.5484
 8878SOL     OW38266   4.233   2.928   3.607 -0.6572  0.6587 -0.7402
 8878SOL    HW138267   4.313   2.880   3.591 -0.1119 -0.2299  4.4808
 8878SOL    HW238268   4.175   2.871   3.657  0.6526 -1.0679 -1.2169
 8879SOL     OW38269   3.337   1.776   2.400  0.0223 -0.1419 -0.0886
 8879SOL    HW138270   3.377   1.797   2.484  0.3128  0.3758 -0.3534
 8879SOL    HW238271   3.246   1.801   2.414  0.1315  0.7264 -0.8817
 8880SOL     OW38272   4.062   2.722   3.409  0.2063  0.2073 -0.2241
 8880SOL    HW138273   4.096   2.632   3.409  0.8866  0.4669  1.6758
 8880SOL    HW238274   4.063   2.753   3.318  0.2715  0.7324 -0.0432
 8881SOL     OW38275   0.078   4.112  12.602 -0.2525 -0.1067  0.4886
 8881SOL    HW138276   0.048   4.180  12.662  0.1030  1.0817 -0.6855
 8881SOL    HW238277   0.147   4.154  12.551 -1.3273  0.3262 -0.6194
 8882SOL     OW38278   4.384   1.555   9.127 -0.6425 -0.3686  0.0855
 8882SOL    HW138279   4.342   1.470   9.116 -0.9521 -0.3092  0.7997
 8882SOL    HW238280   4.459   1.534   9.184 -0.7025 -1.5860 -0.2920
 8883SOL     OW38281   0.721   1.483   4.635  0.7897 -0.3348 -0.2365
 8883SOL    HW138282   0.772   1.419   4.685  3.2109  1.7950  0.0495
 8883SOL    HW238283   0.630   1.454   4.631  0.9171 -0.4326 -2.2582
 8884SOL     OW38284   3.028   2.458   6.031  0.1952 -0.1990 -0.0297
 8884SOL    HW138285   2.939   2.486   6.051  0.6034  0.9729  0.1359
 8884SOL    HW238286   3.012   2.391   5.965 -0.3932  0.8686 -0.9626
 8885SOL     OW38287   4.301   4.077   7.468 -0.0313 -0.0317  0.0882
 8885SOL    HW138288   4.334   4.113   7.385  0.7750 -1.1206 -0.0723
 8885SOL    HW238289   4.377   4.088   7.525 -0.5525  0.5781  0.6590
 8886SOL     OW38290   3.007   0.403   7.417 -0.2614 -0.2310 -0.0210
 8886SOL    HW138291   3.081   0.464   7.413 -1.3532  1.1564  0.8123
 8886SOL    HW238292   2.984   0.421   7.509  1.7907 -0.1213  0.4673
 8887SOL     OW38293   0.740   2.449   1.636  0.2462  0.0700  1.0663
 8887SOL    HW138294   0.774   2.535   1.661 -0.9230  0.4983  1.1910
 8887SOL    HW238295   0.646   2.454   1.655  0.0956 -0.1306  0.3683
 8888SOL     OW38296   1.779   1.052  10.477  0.8688 -0.1408 -0.4738
 8888SOL    HW138297   1.775   1.072  10.571  0.7228 -1.9764 -0.0736
 8888SOL    HW238298   1.756   0.959  10.481 -1.1560  0.3113 -1.4263
 8889SOL     OW38299   4.691   4.161   9.020 -0.0404  0.7235  0.0882
 8889SOL    HW138300   4.726   4.200   8.940 -1.9034  1.8546 -0.1720
 8889SOL    HW238301   4.614   4.115   8.986  1.9569 -3.0630  0.6749
 8890SOL     OW38302   1.588   2.431   8.477 -0.6215  0.4553 -0.0993
 8890SOL    HW138303   1.527   2.454   8.407 -0.6332  0.1691 -0.1863
 8890SOL    HW238304   1.612   2.519   8.505 -0.5924  0.9024 -1.5712
 8891SOL     OW38305   0.372   3.092   9.031  0.0224  0.2801 -0.0524
 8891SOL    HW138306   0.396   3.090   8.939 -1.2440  0.1140 -0.3774
 8891SOL    HW238307   0.302   3.027   9.039  1.5126 -0.9386  3.1875
 8892SOL     OW38308   1.383   3.313   3.107  0.2428  0.1229  0.6274
 8892SOL    HW138309   1.309   3.369   3.085 -0.5054 -0.5103  1.5185
 8892SOL    HW238310   1.366   3.225   3.074 -1.3814  1.8758 -3.1941
 8893SOL     OW38311   2.752   4.147  17.112  0.1119 -0.2067  0.3365
 8893SOL    HW138312   2.734   4.053  17.105 -3.7654  0.4887  0.8540
 8893SOL    HW238313   2.835   4.140  17.159  0.9760  0.0156 -1.1733
 8894SOL     OW38314   1.419   2.188   8.256 -0.2006  0.0497 -0.6220
 8894SOL    HW138315   1.431   2.231   8.171  1.4137 -1.5039 -1.1805
 8894SOL    HW238316   1.511   2.173   8.276 -0.6248  0.7263  1.9289
 8895SOL     OW38317   2.349   2.367   8.287 -0.1497 -0.3983 -0.4942
 8895SOL    HW138318   2.293   2.324   8.351  0.5400  0.2789  0.5629
 8895SOL    HW238319   2.296   2.446   8.280 -1.0880 -1.2183 -2.7503
 8896SOL     OW38320   2.091   2.732  17.407 -0.3104 -0.1164  0.1069
 8896SOL    HW138321   2.035   2.782  17.349  1.3523 -1.1720 -2.3820
 8896SOL    HW238322   2.026   2.717  17.476 -0.1607  0.5461  0.3900
 8897SOL     OW38323   1.321   3.243   5.907 -0.2590 -0.5296  0.4230
 8897SOL    HW138324   1.383   3.186   5.952  0.2530 -1.0625 -0.9710
 8897SOL    HW238325   1.250   3.259   5.970  0.7565 -0.3249  1.5121
 8898SOL     OW38326   4.000   2.124  12.049 -0.2176  0.4390  0.4929
 8898SOL    HW138327   3.992   2.167  11.964 -3.3034 -0.2836  0.3893
 8898SOL    HW238328   3.931   2.059  12.035 -1.0030  1.0613  1.4134
 8899SOL     OW38329   2.290   3.171  10.336  0.4851  0.1968 -0.4563
 8899SOL    HW138330   2.333   3.178  10.421  0.4596  0.9670 -0.5146
 8899SOL    HW238331   2.213   3.116  10.352  0.6783 -0.0853 -0.4833
 8900SOL     OW38332   4.089   4.538   6.329 -0.4644  0.1646 -0.1408
 8900SOL    HW138333   4.104   4.631   6.347  1.0227 -0.4740  1.9422
 8900SOL    HW238334   4.019   4.540   6.263 -0.1678 -3.2399 -0.5437
 8901SOL     OW38335   3.377   2.431   7.964  0.1777  0.3785 -0.6713
 8901SOL    HW138336   3.416   2.468   7.885 -0.6131 -0.5243 -1.4798
 8901SOL    HW238337   3.341   2.354   7.920  1.7106 -0.0258 -1.2232
 8902SOL     OW38338   2.492   4.095   2.889 -0.6899 -0.1266 -0.6245
 8902SOL    HW138339   2.499   4.178   2.842  0.5008  0.5036  0.6646
 8902SOL    HW238340   2.416   4.113   2.944  0.0948 -0.9540  0.7234
 8903SOL     OW38341   3.346   2.770   3.186  0.3550  0.3514  0.1528
 8903SOL    HW138342   3.416   2.770   3.121 -0.9015 -0.1671 -1.2064
 8903SOL    HW238343   3.274   2.736   3.132 -1.0406  1.1411  1.5052
 8904SOL     OW38344   0.065   1.236   7.812 -0.1513  0.1322  0.6535
 8904SOL    HW138345   0.059   1.224   7.717  0.7479 -0.0182  0.6112
 8904SOL    HW238346   0.068   1.146   7.845  2.5424 -0.6212 -1.6034
 8905SOL     OW38347   2.411   4.014   4.125  0.1709 -0.2586 -0.0324
 8905SOL    HW138348   2.435   3.977   4.040 -0.2746  0.4775 -0.4733
 8905SOL    HW238349   2.403   3.929   4.169  2.9228 -0.6997 -0.3837
 8906SOL     OW38350   3.704   1.583  17.652  0.3247 -0.4740 -0.3198
 8906SOL    HW138351   3.790   1.615  17.623  0.2177  1.0491  1.0141
 8906SOL    HW238352   3.653   1.652  17.610 -1.4183 -0.9157  1.0884
 8907SOL     OW38353   1.580   1.324   6.101 -0.2376 -0.2995  0.1599
 8907SOL    HW138354   1.664   1.306   6.144 -0.1429 -3.1446 -1.2004
 8907SOL    HW238355   1.527   1.249   6.129  1.0511 -1.5724 -0.7870
 8908SOL     OW38356   2.987   1.228   7.410  0.4997  0.1201 -0.2359
 8908SOL    HW138357   2.994   1.322   7.397  1.0002 -0.0106 -0.9036
 8908SOL    HW238358   3.005   1.215   7.504  1.8645  1.6396 -0.3029
 8909SOL     OW38359   4.197   1.620   4.845 -0.5497 -0.4022 -0.3717
 8909SOL    HW138360   4.119   1.641   4.895 -0.0784  0.2314  0.0963
 8909SOL    HW238361   4.248   1.691   4.883 -0.4291 -0.2531 -0.8013
 8910SOL     OW38362   1.217   0.260   7.588 -0.0848  0.3285 -0.2209
 8910SOL    HW138363   1.275   0.281   7.661 -0.1399 -2.7633  0.7073
 8910SOL    HW238364   1.267   0.190   7.547 -0.4141 -0.6523  1.0594
 8911SOL     OW38365   1.649   3.441   6.006 -0.4021  0.1661 -0.2367
 8911SOL    HW138366   1.571   3.492   6.026 -0.4863 -0.0368 -0.0502
 8911SOL    HW238367   1.641   3.424   5.912 -1.3512  0.3217 -0.1836
 8912SOL     OW38368   3.251   4.547  11.127 -0.0790 -0.0951 -0.7866
 8912SOL    HW138369   3.333   4.497  11.129  0.4814  0.8717  0.6343
 8912SOL    HW238370   3.192   4.478  11.155 -0.9817  0.4836 -1.2678
 8913SOL     OW38371   1.955   2.530   5.937 -0.3376  0.0225  0.3432
 8913SOL    HW138372   1.912   2.592   5.996  0.3535  1.2163 -0.4104
 8913SOL    HW238373   1.960   2.590   5.863 -0.7060  0.0249  0.3198
 8914SOL     OW38374   4.527   4.017   6.985 -0.7572 -0.2436 -0.4129
 8914SOL    HW138375   4.579   4.027   6.905  1.7312 -4.5979  0.6789
 8914SOL    HW238376   4.490   3.931   6.962 -1.0542 -0.0860 -0.5275
 8915SOL     OW38377   1.819   3.486   6.707 -0.2819  0.1224  0.2385
 8915SOL    HW138378   1.833   3.505   6.614 -0.9447 -1.4284 -0.1835
 8915SOL    HW238379   1.782   3.565   6.747 -0.1884 -0.3481  1.2614
 8916SOL     OW38380   0.608   2.888   5.609 -0.7274 -0.0133 -0.0755
 8916SOL    HW138381   0.673   2.894   5.539 -0.7369  1.4666  0.0594
 8916SOL    HW238382   0.614   2.794   5.627  0.3990  0.3830  1.5660
 8917SOL     OW38383   3.359   4.611   7.116  0.1067  0.6070 -1.1004
 8917SOL    HW138384   3.342   4.558   7.038 -0.4532 -1.5596  0.4932
 8917SOL    HW238385   3.278   4.661   7.122 -1.2052 -1.7726  0.8146
 8918SOL     OW38386   2.956   1.602   4.451 -0.2758 -0.3851 -0.0645
 8918SOL    HW138387   2.916   1.684   4.420 -1.9275 -1.3950 -0.6140
 8918SOL    HW238388   2.967   1.618   4.544  3.4788 -1.6388 -0.3110
 8919SOL     OW38389   1.935   4.177   4.855 -0.0548 -0.0194 -0.1860
 8919SOL    HW138390   1.913   4.266   4.885 -0.1522  0.1545 -0.7818
 8919SOL    HW238391   1.844   4.153   4.834 -0.7953  2.0678  0.6245
 8920SOL     OW38392   1.887   2.415   7.629 -0.1431  0.5228  0.1838
 8920SOL    HW138393   1.961   2.415   7.569  0.0550 -0.6124  0.4309
 8920SOL    HW238394   1.832   2.490   7.604  0.5384  0.9462 -0.0531
 8921SOL     OW38395   3.663   2.687   1.994  0.2207 -0.6623 -0.4098
 8921SOL    HW138396   3.578   2.722   1.964  0.4566  0.7902  0.6408
 8921SOL    HW238397   3.687   2.754   2.058 -0.0187 -1.0782  0.1150
 8922SOL     OW38398   3.159   4.660  15.698  0.6844  0.1244 -0.0378
 8922SOL    HW138399   3.226   4.615  15.647 -0.9905 -1.2764 -1.0030
 8922SOL    HW238400   3.207   4.724  15.750 -1.3447  1.3654  0.3052
 8923SOL     OW38401   1.706   2.063   2.899 -0.1741  0.3782 -0.0499
 8923SOL    HW138402   1.766   2.121   2.853 -0.5355  0.8234  0.0359
 8923SOL    HW238403   1.750   2.034   2.978  0.9638  0.3059 -0.7185
 8924SOL     OW38404   0.664   2.692   8.290  0.1546  0.3514  0.2861
 8924SOL    HW138405   0.669   2.685   8.385  1.4492 -0.0681  0.1825
 8924SOL    HW238406   0.577   2.654   8.274 -0.6593  1.9872  0.8950
 8925SOL     OW38407   0.941   1.057   6.331  0.3043  0.2765  0.5022
 8925SOL    HW138408   0.948   1.000   6.255  1.3505  2.4816 -1.0719
 8925SOL    HW238409   0.875   1.118   6.299  0.3922 -0.2082 -0.5910
 8926SOL     OW38410   2.806   3.736   8.455 -0.1756  0.0061  0.0118
 8926SOL    HW138411   2.783   3.673   8.386  1.5217 -0.2094 -0.3493
 8926SOL    HW238412   2.816   3.681   8.533  2.7018  0.1228 -0.2830
 8927SOL     OW38413   0.612   2.050   7.934 -0.2219  0.8429 -0.3549
 8927SOL    HW138414   0.621   2.015   7.845  2.4637  0.2047  0.1774
 8927SOL    HW238415   0.544   1.989   7.963 -0.8742  1.4814 -0.5484
 8928SOL     OW38416   2.812   2.033  13.956 -0.2295  0.0654  0.0180
 8928SOL    HW138417   2.829   2.112  14.007 -1.8333  0.2193  0.3122
 8928SOL    HW238418   2.753   2.066  13.888  1.3020 -0.1777 -1.4319
 8929SOL     OW38419   0.006   3.331   3.588  0.0419 -0.6401  0.3154
 8929SOL    HW138420   4.722   3.424   3.574  0.0894 -0.5627  0.7674
 8929SOL    HW238421   0.085   3.323   3.534  1.8968 -0.5549  3.0446
 8930SOL     OW38422   1.560   3.704   7.996 -0.0492  0.1278 -0.0250
 8930SOL    HW138423   1.601   3.791   7.999  1.4680 -0.5497 -0.6192
 8930SOL    HW238424   1.514   3.706   7.912 -0.6053  1.9559  0.3037
 8931SOL     OW38425   2.659   0.837   1.780  0.6776  0.1816  0.1958
 8931SOL    HW138426   2.648   0.754   1.733 -1.3048 -1.0430  2.8846
 8931SOL    HW238427   2.738   0.813   1.829 -0.8064 -2.9935  1.0715
 8932SOL     OW38428   1.561   4.257   6.095 -0.0971  0.0610 -0.0943
 8932SOL    HW138429   1.532   4.344   6.068 -3.0268 -0.7076  0.6704
 8932SOL    HW238430   1.649   4.277   6.129  0.4608 -0.4820 -1.2194
 8933SOL     OW38431   3.693   1.813   7.064 -0.0158  0.0380 -0.0681
 8933SOL    HW138432   3.614   1.838   7.014  1.0694 -0.3155 -1.9608
 8933SOL    HW238433   3.697   1.886   7.125  0.6944  1.2774 -1.5952
 8934SOL     OW38434   2.414   3.731   6.833  0.2505  0.6263 -0.3190
 8934SOL    HW138435   2.412   3.711   6.740 -0.9842 -0.4819 -0.0573
 8934SOL    HW238436   2.475   3.665   6.868 -2.1923 -0.8188  1.2597
 8935SOL     OW38437   4.666   4.045   0.167 -0.2870 -0.5349 -0.2203
 8935SOL    HW138438   4.575   4.047   0.194  0.3889  0.8647  1.9444
 8935SOL    HW238439   4.696   4.079   0.251 -1.8076 -2.3902  1.0740
 8936SOL     OW38440   2.127   0.780  14.625  0.0330  0.2407  0.3334
 8936SOL    HW138441   2.204   0.757  14.573  0.3271 -0.4353  1.0817
 8936SOL    HW238442   2.182   0.829  14.686  0.7463  1.1800 -1.0358
 8937SOL     OW38443   4.101   2.840  11.590  0.1534  0.2172 -0.0513
 8937SOL    HW138444   4.158   2.896  11.642 -1.6197 -0.9913  3.2237
 8937SOL    HW238445   4.109   2.751  11.623  0.2629  0.6327  1.0258
 8938SOL     OW38446   4.214   2.708   2.380  0.4816  0.2883 -0.1062
 8938SOL    HW138447   4.133   2.691   2.331  0.5178  0.3300 -0.1803
 8938SOL    HW238448   4.284   2.663   2.334 -0.6292 -1.4367 -0.0911
 8939SOL     OW38449   3.492   4.318   8.496 -0.2457 -0.1023  0.4500
 8939SOL    HW138450   3.440   4.391   8.529 -3.5042 -1.9207 -0.6846
 8939SOL    HW238451   3.529   4.277   8.574 -0.5083 -0.1298  0.5570
 8940SOL     OW38452   3.955   2.708   2.263 -0.0038 -0.0850  0.5698
 8940SOL    HW138453   3.875   2.761   2.264 -0.6944 -1.1146  0.7660
 8940SOL    HW238454   3.923   2.626   2.302 -0.8565 -0.9316 -1.8880
 8941SOL     OW38455   2.601   2.952   7.609 -0.3134  0.0881  0.3960
 8941SOL    HW138456   2.518   2.942   7.562  0.3327  1.6727 -1.0468
 8941SOL    HW238457   2.624   2.864   7.638 -2.5709 -0.3286  0.9744
 8942SOL     OW38458   1.813   3.878   6.269 -0.8554  0.3492 -0.4554
 8942SOL    HW138459   1.776   3.822   6.201  1.9683  0.6403 -2.2154
 8942SOL    HW238460   1.850   3.943   6.209 -2.6469  1.1012 -0.7309
 8943SOL     OW38461   3.386   1.962   8.196 -0.1542 -0.3036 -0.6922
 8943SOL    HW138462   3.426   2.007   8.271 -1.0417 -0.2473 -0.2487
 8943SOL    HW238463   3.292   1.963   8.217 -0.1337 -2.0022 -0.4766
 8944SOL     OW38464   2.728   2.869  11.925 -0.1289 -0.2364 -0.1751
 8944SOL    HW138465   2.666   2.855  11.853  1.0312 -2.6488 -0.7156
 8944SOL    HW238466   2.810   2.880  11.875 -1.2039  0.2508 -1.8188
 8945SOL     OW38467   1.675   1.332   5.526 -0.1714 -0.0659 -0.2462
 8945SOL    HW138468   1.658   1.330   5.621 -1.4653 -0.8375 -0.5000
 8945SOL    HW238469   1.630   1.411   5.496  0.4992 -0.0978 -1.3397
 8946SOL     OW38470   4.320   3.104   6.957  0.2006 -0.4564 -0.1746
 8946SOL    HW138471   4.376   3.181   6.961 -1.0834  0.3275  2.7996
 8946SOL    HW238472   4.238   3.139   6.925  0.0542 -1.7606 -1.2250
 8947SOL     OW38473   3.108   0.604   2.660 -0.2237  0.5312  0.2686
 8947SOL    HW138474   3.017   0.633   2.670  0.0954  1.6031  0.1244
 8947SOL    HW238475   3.107   0.577   2.568  2.0981  0.8332  0.1692
 8948SOL     OW38476   4.451   2.758   8.375  0.5405  0.7969  0.3984
 8948SOL    HW138477   4.511   2.684   8.385  1.6244  1.8506  1.7068
 8948SOL    HW238478   4.372   2.714   8.344  0.8635  2.0661 -2.2111
 8949SOL     OW38479   2.243   1.951   5.444 -0.4652 -0.2865  0.7310
 8949SOL    HW138480   2.319   1.909   5.485  0.7004  0.6927 -0.3853
 8949SOL    HW238481   2.268   2.043   5.444 -3.3254  0.4732  0.3441
 8950SOL     OW38482   1.218   1.909   1.554 -0.2952 -0.2756 -0.5719
 8950SOL    HW138483   1.145   1.935   1.498 -1.3169 -0.7868  0.5267
 8950SOL    HW238484   1.228   1.988   1.607 -0.0903 -0.0367 -0.9659
 8951SOL     OW38485   0.838   4.567   8.082  0.0211  0.7455  0.2260
 8951SOL    HW138486   0.768   4.507   8.107 -0.8576  1.6808 -0.0083
 8951SOL    HW238487   0.912   4.534   8.134 -1.1934  0.8503  2.0148
 8952SOL     OW38488   0.642   1.334   7.958  0.3191  0.0565 -0.0367
 8952SOL    HW138489   0.579   1.405   7.971  0.8425  0.7558 -1.3998
 8952SOL    HW238490   0.666   1.323   7.866  1.2876 -2.3927  0.4983
 8953SOL     OW38491   2.639   0.722   6.894 -0.2641  0.4951 -0.4269
 8953SOL    HW138492   2.566   0.691   6.841 -0.7647 -0.4764  0.8504
 8953SOL    HW238493   2.585   0.772   6.956  1.5774  0.8517  0.9077
 8954SOL     OW38494   1.244   4.654   2.042 -0.0116 -0.5022 -0.1812
 8954SOL    HW138495   1.294   4.671   1.962  4.2025 -1.9992  2.1610
 8954SOL    HW238496   1.278   4.728   2.092 -0.1313 -0.2030 -0.5374
 8955SOL     OW38497   1.609   3.176   8.061 -0.3467 -0.1940 -0.4015
 8955SOL    HW138498   1.674   3.114   8.027 -0.0334  0.0214 -0.1884
 8955SOL    HW238499   1.555   3.186   7.983 -0.0849 -1.1904 -0.7178
 8956SOL     OW38500   4.386   3.705   8.047  0.6410 -0.4285 -0.3912
 8956SOL    HW138501   4.405   3.798   8.033  0.8303 -0.2085  1.3764
 8956SOL    HW238502   4.360   3.682   7.957 -1.0045  0.7378 -0.2183
 8957SOL     OW38503   3.160   0.445  15.242  0.1193 -0.3158  0.1404
 8957SOL    HW138504   3.189   0.373  15.299 -3.0445  0.0318  2.1894
 8957SOL    HW238505   3.162   0.397  15.159  0.1182  2.1106 -1.2585
 8958SOL     OW38506   3.895   0.942   8.098  0.1167 -0.1403 -0.6686
 8958SOL    HW138507   3.878   0.908   8.010 -0.2950  0.1371 -0.6943
 8958SOL    HW238508   3.883   0.856   8.139  1.8390  0.3182  0.7817
 8959SOL     OW38509   0.567   3.020   9.924  0.1928 -0.0962  0.6858
 8959SOL    HW138510   0.575   3.115   9.928 -1.5663  0.0142  1.6410
 8959SOL    HW238511   0.603   2.994  10.008  1.8113  0.3595  0.1322
 8960SOL     OW38512   0.509   2.079  10.276 -0.0988 -0.3171 -0.0407
 8960SOL    HW138513   0.462   2.036  10.205 -0.6961 -0.4983  0.4666
 8960SOL    HW238514   0.432   2.113  10.322  1.0640  1.5292  0.5601
 8961SOL     OW38515   3.454   2.131   5.915 -0.1651  0.1280 -0.0796
 8961SOL    HW138516   3.385   2.183   5.874 -0.5093  0.8234  1.3654
 8961SOL    HW238517   3.504   2.192   5.970  1.2975 -0.5157 -0.6923
 8962SOL     OW38518   3.379   2.905   1.617 -0.5835 -0.1405 -0.1159
 8962SOL    HW138519   3.293   2.932   1.649 -0.5476 -0.2258  0.0514
 8962SOL    HW238520   3.363   2.906   1.523  0.1415  0.8214 -0.2379
 8963SOL     OW38521   2.825   1.312  17.350  0.2475  0.6727 -0.3100
 8963SOL    HW138522   2.920   1.308  17.347  0.1538 -1.3216 -0.5614
 8963SOL    HW238523   2.797   1.312  17.259 -0.3460 -1.3658 -0.1396
 8964SOL     OW38524   2.945   3.021   2.771  0.0279  1.1360 -0.1148
 8964SOL    HW138525   3.008   3.093   2.773  0.9334  0.2796  1.5741
 8964SOL    HW238526   2.971   2.972   2.693 -3.1668 -0.8754  0.0830
 8965SOL     OW38527   2.572   3.100   6.702  0.2672 -0.1174 -0.0364
 8965SOL    HW138528   2.511   3.059   6.641  0.1327 -0.3125  0.2292
 8965SOL    HW238529   2.546   3.190   6.683 -0.1777 -0.0649  0.8409
 8966SOL     OW38530   1.254   2.368   8.746  0.7495 -0.3481  0.1043
 8966SOL    HW138531   1.339   2.339   8.713 -0.2684 -1.0795 -1.8759
 8966SOL    HW238532   1.214   2.288   8.779 -2.1318  0.8267 -0.4934
 8967SOL     OW38533   1.869   4.510   2.933 -0.0365  0.4201  0.3304
 8967SOL    HW138534   1.807   4.439   2.918 -0.5596  1.1955 -1.1205
 8967SOL    HW238535   1.941   4.484   2.875 -1.4461  0.7750 -1.5709
 8968SOL     OW38536   0.405   0.021   6.682  0.0648  0.0703  0.2151
 8968SOL    HW138537   0.422   4.663   6.681 -0.9295 -0.1005 -0.7013
 8968SOL    HW238538   0.317   0.011   6.718 -0.6648 -2.5363 -2.2989
 8969SOL     OW38539   3.242   3.350  16.482 -0.4012  0.1607 -0.6680
 8969SOL    HW138540   3.336   3.341  16.462 -0.1395 -1.0461  1.1025
 8969SOL    HW238541   3.201   3.351  16.395  0.6295  1.9032 -1.1227
 8970SOL     OW38542   0.798   1.463   4.175 -0.1494 -0.2209  0.3386
 8970SOL    HW138543   0.834   1.380   4.144  0.7201  0.7438 -1.1956
 8970SOL    HW238544   0.865   1.524   4.147  0.0165  0.0781  1.3810
 8971SOL     OW38545   2.021   2.315  14.633  0.7107  0.0371 -0.3041
 8971SOL    HW138546   2.100   2.331  14.684  0.4739  3.9475 -1.1686
 8971SOL    HW238547   1.995   2.238  14.683  0.7438 -1.5558 -2.7291
 8972SOL     OW38548   3.421   1.613   7.230  0.1848 -0.1340 -0.5786
 8972SOL    HW138549   3.462   1.527   7.240  1.5938  0.5332 -0.5309
 8972SOL    HW238550   3.461   1.665   7.300 -0.5563  2.2441 -1.9114
 8973SOL     OW38551   1.015   2.299   8.407  0.3185 -0.4235 -0.2594
 8973SOL    HW138552   1.045   2.382   8.444 -1.9577  1.1740 -2.0544
 8973SOL    HW238553   1.087   2.237   8.421  1.4211  0.5307 -1.5955
 8974SOL     OW38554   1.729   3.580   4.427  0.0650  0.0367  0.7098
 8974SOL    HW138555   1.798   3.637   4.393  0.8078 -0.3641  1.5317
 8974SOL    HW238556   1.663   3.581   4.358  0.4889  0.6856  0.3220
 8975SOL     OW38557   2.189   0.513  14.763  0.0553 -0.4971  0.2029
 8975SOL    HW138558   2.177   0.526  14.857 -1.3816 -1.4757  0.1585
 8975SOL    HW238559   2.143   0.587  14.723 -0.1986 -1.4734 -1.3139
 8976SOL     OW38560   4.365   3.121  15.999  0.7235 -0.3481 -0.2125
 8976SOL    HW138561   4.376   3.028  15.978 -1.9927 -0.8813  0.7551
 8976SOL    HW238562   4.293   3.111  16.062  1.6388 -2.0326  0.5729
 8977SOL     OW38563   0.289   2.777  11.263  0.0899 -0.5977 -0.3644
 8977SOL    HW138564   0.273   2.833  11.339  0.4059 -1.7687  0.5744
 8977SOL    HW238565   0.376   2.806  11.237 -1.0105  0.7189 -2.6124
 8978SOL     OW38566   1.674   4.713   2.743  0.6531 -0.0195  0.2129
 8978SOL    HW138567   1.717   0.003   2.663 -0.6500 -1.7228 -1.0770
 8978SOL    HW238568   1.747   4.666   2.783  1.3341 -0.0598 -1.0971
 8979SOL     OW38569   4.286   2.090  10.887 -0.0439 -0.4928  0.9256
 8979SOL    HW138570   4.358   2.033  10.912  3.2204  2.4508 -1.6547
 8979SOL    HW238571   4.294   2.165  10.946 -0.1254  0.6065 -0.4317
 8980SOL     OW38572   1.220   1.559  12.954  0.0219  0.0844  0.1595
 8980SOL    HW138573   1.302   1.519  12.923  0.6871  1.2528  0.4122
 8980SOL    HW238574   1.237   1.652  12.971 -0.0953 -0.2126  1.8823
 8981SOL     OW38575   1.474   3.394   1.701  0.1140  0.5294  0.1385
 8981SOL    HW138576   1.498   3.486   1.690 -3.0197  1.2374 -0.5291
 8981SOL    HW238577   1.390   3.406   1.744 -0.4739 -1.8970 -0.3201
 8982SOL     OW38578   1.527   0.496   2.106 -0.5618 -0.3850  0.4372
 8982SOL    HW138579   1.491   0.569   2.156  0.2152 -0.7623  1.5636
 8982SOL    HW238580   1.448   0.467   2.061  0.6879  0.5522 -2.3392
 8983SOL     OW38581   2.992   2.466  12.154  0.0400 -0.5586 -0.2986
 8983SOL    HW138582   2.978   2.372  12.161 -1.3702 -0.3884 -0.8183
 8983SOL    HW238583   3.082   2.479  12.185 -1.4144  2.1609  2.8090
 8984SOL     OW38584   3.458   1.320   4.952 -0.7151 -0.2840 -0.5378
 8984SOL    HW138585   3.459   1.229   4.982  1.4589 -0.3681 -0.9084
 8984SOL    HW238586   3.531   1.320   4.890 -1.8716  2.3664 -1.9152
 8985SOL     OW38587   0.275   0.733   5.361 -0.1040 -0.3526 -0.9433
 8985SOL    HW138588   0.241   0.801   5.303 -1.4424 -0.0699  0.1446
 8985SOL    HW238589   0.212   0.661   5.351  0.0101 -0.9169  2.1734
 8986SOL     OW38590   3.993   3.614   3.135  0.0378  0.6179 -0.2586
 8986SOL    HW138591   4.031   3.602   3.048  0.6994  0.4769  0.0496
 8986SOL    HW238592   4.073   3.603   3.186 -0.3507  2.7250  0.8073
 8987SOL     OW38593   1.948   0.415   8.719  0.0359 -0.5839 -0.2733
 8987SOL    HW138594   1.994   0.349   8.668 -1.3549 -1.5124 -0.3223
 8987SOL    HW238595   1.956   0.497   8.669  1.7300 -1.4678 -1.4315
 8988SOL     OW38596   1.667   3.781   6.049 -0.2511 -0.1671 -0.1178
 8988SOL    HW138597   1.590   3.726   6.035  1.4349 -2.6960  0.5594
 8988SOL    HW238598   1.647   3.849   5.985 -0.5638  0.1402  0.3071
 8989SOL     OW38599   0.048   1.068   4.434  0.3161 -0.6589  0.9244
 8989SOL    HW138600   0.073   0.979   4.460  2.1342 -0.3277  0.3506
 8989SOL    HW238601   0.008   1.056   4.348  0.4882 -2.0025  1.0284
 8990SOL     OW38602   2.797   1.464  12.444 -0.0872  0.5501  0.8327
 8990SOL    HW138603   2.874   1.519  12.460 -1.0178  1.7885  0.9907
 8990SOL    HW238604   2.805   1.473  12.349  1.9715 -2.2396  0.7250
 8991SOL     OW38605   4.208   3.669   2.184  0.0607  0.0538  0.2560
 8991SOL    HW138606   4.150   3.706   2.251 -0.4347  0.0834 -0.1973
 8991SOL    HW238607   4.238   3.751   2.144 -1.9126  1.7035  2.1219
 8992SOL     OW38608   3.372   2.877   9.737  0.0873 -0.3963 -0.2137
 8992SOL    HW138609   3.359   2.859   9.830 -1.1474 -1.0630 -0.5106
 8992SOL    HW238610   3.390   2.971   9.737  1.0042 -0.5782 -0.6232
 8993SOL     OW38611   3.699   1.888   3.752  0.2395  0.3067 -0.2812
 8993SOL    HW138612   3.656   1.929   3.827  1.2946  1.2261 -0.1666
 8993SOL    HW238613   3.622   1.884   3.696 -0.7521 -1.2613  1.1846
 8994SOL     OW38614   2.915   0.484   4.288 -0.4395 -0.4122  0.3631
 8994SOL    HW138615   2.918   0.399   4.244  2.6641  0.0350 -0.3428
 8994SOL    HW238616   3.008   0.509   4.281 -0.5294 -0.4308 -0.9528
 8995SOL     OW38617   2.170   2.435  12.928  0.4105  0.1682 -0.2255
 8995SOL    HW138618   2.144   2.477  13.010  0.5797  0.6296 -0.4061
 8995SOL    HW238619   2.097   2.447  12.867  1.7784 -2.0355 -2.3189
 8996SOL     OW38620   1.586   1.692   7.210 -0.2122  0.8945  0.1952
 8996SOL    HW138621   1.671   1.674   7.252 -0.7373  0.4154  1.0405
 8996SOL    HW238622   1.570   1.610   7.165 -3.2043  1.5677  0.0716
 8997SOL     OW38623   1.171   4.208   8.843  0.0152 -0.0699 -0.2339
 8997SOL    HW138624   1.145   4.140   8.905  0.7578 -1.2997 -1.2647
 8997SOL    HW238625   1.107   4.193   8.773 -0.2796  0.7435 -0.1490
 8998SOL     OW38626   1.972   2.974   3.102  0.3158 -0.7090 -0.5017
 8998SOL    HW138627   1.889   2.954   3.059 -0.2758 -0.2358  0.4388
 8998SOL    HW238628   1.956   3.019   3.185  0.3737  0.6729 -1.2309
 8999SOL     OW38629   4.545   2.945   3.652  0.3100  0.1600 -0.0775
 8999SOL    HW138630   4.549   2.991   3.736 -0.9616 -0.5035  0.3440
 8999SOL    HW238631   4.556   2.860   3.694 -0.1216  1.9873  3.7375
 9000SOL     OW38632   2.564   0.351   9.563 -0.1379  0.5401  0.2066
 9000SOL    HW138633   2.525   0.346   9.476  1.8403 -0.5297 -0.6081
 9000SOL    HW238634   2.609   0.267   9.574  0.8055  1.0841  0.4572
 9001SOL     OW38635   1.571   3.173   3.833 -0.0933  0.1915  0.2796
 9001SOL    HW138636   1.664   3.193   3.837 -0.0682  0.4966 -1.6952
 9001SOL    HW238637   1.563   3.134   3.920 -2.0875 -0.0536 -0.0019
 9002SOL     OW38638   2.634   2.912   7.273 -0.2320 -0.1941  0.3644
 9002SOL    HW138639   2.555   2.966   7.271  0.2059  0.3530 -1.7696
 9002SOL    HW238640   2.679   2.928   7.190 -1.6896 -1.5153 -0.6851
 9003SOL     OW38641   1.348   0.806   1.347  0.1495 -0.0200 -0.3243
 9003SOL    HW138642   1.338   0.854   1.429 -0.5719  0.9416 -0.9685
 9003SOL    HW238643   1.423   0.848   1.305 -0.9812  0.4358 -1.8781
 9004SOL     OW38644   2.101   0.619   7.175  0.6433  0.3775 -0.6615
 9004SOL    HW138645   2.140   0.609   7.262 -0.3042  0.1141 -0.2714
 9004SOL    HW238646   2.182   0.650   7.135  1.6344 -1.6722 -0.2667
 9005SOL     OW38647   4.168   2.394   5.965 -0.0938 -0.0382  0.0861
 9005SOL    HW138648   4.076   2.403   5.990  0.0823  2.2843 -0.1565
 9005SOL    HW238649   4.177   2.484   5.935 -1.7389 -0.0313 -0.3687
 9006SOL     OW38650   0.551   2.729  10.791 -1.0436  0.2468 -0.0291
 9006SOL    HW138651   0.472   2.753  10.838 -0.8096 -3.1386  2.0274
 9006SOL    HW238652   0.523   2.659  10.732 -0.1802  0.4800 -0.7288
 9007SOL     OW38653   2.877   2.099   0.711  0.1861  0.1678 -0.4557
 9007SOL    HW138654   2.936   2.030   0.681  2.3886  2.1805 -0.7202
 9007SOL    HW238655   2.806   2.099   0.646  1.8753  0.6610 -2.2848
 9008SOL     OW38656   4.342   2.653   8.672  0.5255 -0.2934  0.1192
 9008SOL    HW138657   4.294   2.602   8.737 -1.0056 -0.0462 -0.8175
 9008SOL    HW238658   4.319   2.602   8.595 -1.0838 -0.7038  0.8833
 9009SOL     OW38659   3.072   3.536   9.067  0.0631  0.4838 -0.0621
 9009SOL    HW138660   2.985   3.505   9.093  0.0688  0.3225 -0.2273
 9009SOL    HW238661   3.068   3.507   8.975 -0.7087  0.9864 -0.1846
 9010SOL     OW38662   0.918   4.412   6.469  0.2294 -0.0336  0.4435
 9010SOL    HW138663   1.012   4.398   6.457  0.3621  1.8535 -0.6334
 9010SOL    HW238664   0.921   4.498   6.510  3.3017  0.9361 -1.7439
 9011SOL     OW38665   1.184   1.587   2.603 -0.5560  0.4121  0.4134
 9011SOL    HW138666   1.238   1.531   2.658 -1.9673 -1.0189  0.3138
 9011SOL    HW238667   1.245   1.605   2.531 -0.4453 -1.5922  0.0155
 9012SOL     OW38668   2.458   0.927  12.123 -0.5262 -0.5836  0.2374
 9012SOL    HW138669   2.455   0.916  12.218  2.0259 -2.2480  0.1405
 9012SOL    HW238670   2.389   0.992  12.112 -0.1086 -0.6231 -2.7865
 9013SOL     OW38671   1.487   2.749   9.114  0.6534 -0.9106 -0.1946
 9013SOL    HW138672   1.484   2.688   9.041 -1.7248 -0.1036 -0.7631
 9013SOL    HW238673   1.506   2.693   9.189 -3.3118 -2.0977 -0.0848
 9014SOL     OW38674   3.939   3.356   4.536  0.4376  0.4132  0.0380
 9014SOL    HW138675   3.910   3.415   4.467  0.1252 -1.2434 -1.2391
 9014SOL    HW238676   3.929   3.281   4.477 -1.4959  0.7535 -0.0597
 9015SOL     OW38677   3.480   0.506   8.223 -0.5113 -0.7306 -0.1291
 9015SOL    HW138678   3.565   0.464   8.235  0.2859  0.8374 -0.3590
 9015SOL    HW238679   3.498   0.571   8.156  0.2599 -1.4205 -0.5816
 9016SOL     OW38680   4.402   0.878   7.951  0.4428  0.1137  0.0251
 9016SOL    HW138681   4.450   0.823   8.013 -0.0103  1.3995  1.5108
 9016SOL    HW238682   4.330   0.894   8.011 -0.3092  0.6804 -1.0361
 9017SOL     OW38683   3.136   2.652   4.283 -0.1646  0.1524  0.1116
 9017SOL    HW138684   3.106   2.740   4.304  0.0685  0.0363  0.9516
 9017SOL    HW238685   3.125   2.647   4.188 -0.6450  0.9893  0.1265
 9018SOL     OW38686   1.418   2.572   4.522 -0.2107  0.2766  0.1913
 9018SOL    HW138687   1.469   2.584   4.442 -0.9763  1.2946 -0.1489
 9018SOL    HW238688   1.455   2.494   4.562 -0.8115 -0.9570 -1.6396
 9019SOL     OW38689   0.924   2.813   5.964  0.2125 -0.2465  0.0324
 9019SOL    HW138690   0.973   2.805   6.046 -1.2815 -2.1278  0.7731
 9019SOL    HW238691   0.861   2.741   5.972  2.1883 -2.0470 -0.5900
 9020SOL     OW38692   4.037   2.458   6.746  0.7672 -0.5697  0.7142
 9020SOL    HW138693   4.036   2.412   6.662 -0.4508 -0.6579  0.7642
 9020SOL    HW238694   4.106   2.521   6.728 -0.2593  0.7771  1.5733
 9021SOL     OW38695   1.153   2.181   5.810  0.3085  0.2573  0.0821
 9021SOL    HW138696   1.186   2.110   5.866 -2.1992  0.4938  1.8532
 9021SOL    HW238697   1.230   2.238   5.804  0.6983 -0.4722 -1.8737
 9022SOL     OW38698   0.337   1.150   3.230 -0.1154  0.2653 -0.0312
 9022SOL    HW138699   0.352   1.189   3.316  0.9989  0.4471 -0.3106
 9022SOL    HW238700   0.427   1.158   3.199  0.1819  1.4053  1.1215
 9023SOL     OW38701   2.957   1.104   4.617 -0.7528 -0.0807 -0.1922
 9023SOL    HW138702   2.890   1.079   4.554 -0.7708 -3.5649  1.2192
 9023SOL    HW238703   2.898   1.162   4.666 -1.8365 -0.5401 -0.9712
 9024SOL     OW38704   3.590   2.140   4.599 -0.3691 -0.2264  0.3801
 9024SOL    HW138705   3.557   2.229   4.611  0.8814  0.0113  1.9853
 9024SOL    HW238706   3.684   2.157   4.603 -0.6999  0.4050  5.1705
 9025SOL     OW38707   4.016   4.693  12.469  0.4096  0.1348 -0.1483
 9025SOL    HW138708   3.925   4.715  12.453  0.6952  1.8282  0.6044
 9025SOL    HW238709   4.005   4.603  12.500 -0.3764  0.8858  1.7309
 9026SOL     OW38710   4.129   4.037   7.164 -0.5723 -0.4137  0.0516
 9026SOL    HW138711   4.148   3.948   7.193  0.6273  0.1302  0.9313
 9026SOL    HW238712   4.048   4.014   7.118  0.4515 -1.9867 -0.9660
 9027SOL     OW38713   0.561   1.601   3.077 -0.2789  0.5574 -0.1772
 9027SOL    HW138714   0.589   1.678   3.125 -2.5617  0.9732  0.4940
 9027SOL    HW238715   0.474   1.583   3.115 -0.3770  1.8822  0.2094
 9028SOL     OW38716   0.067   4.029   6.091 -0.0235 -0.0798  0.3434
 9028SOL    HW138717   0.050   4.037   5.997  1.1359  2.2492  0.3446
 9028SOL    HW238718   0.154   3.990   6.086 -0.5628 -0.9164 -2.9408
 9029SOL     OW38719   0.005   2.649   8.023  0.6788 -0.1423  0.6011
 9029SOL    HW138720   0.003   2.626   8.116  0.1705 -2.9200 -0.1125
 9029SOL    HW238721   0.090   2.691   8.008  0.8457  0.0870  2.2578
 9030SOL     OW38722   4.423   1.643  15.969  0.0593 -0.2350 -0.1762
 9030SOL    HW138723   4.329   1.662  15.958 -0.5040 -2.3235  0.9557
 9030SOL    HW238724   4.441   1.630  15.876  0.2747 -3.4757  0.3092
 9031SOL     OW38725   0.259   2.210   7.857  0.2519 -0.1335  0.9389
 9031SOL    HW138726   0.281   2.302   7.842  1.1873 -0.8863 -2.3140
 9031SOL    HW238727   0.167   2.210   7.881 -0.2284  0.9605 -0.8974
 9032SOL     OW38728   3.225   1.546   5.227  0.0139  0.4335 -0.0567
 9032SOL    HW138729   3.252   1.465   5.270 -0.7351 -0.0057 -0.4156
 9032SOL    HW238730   3.279   1.538   5.148  0.6728  1.0310  0.3380
 9033SOL     OW38731   1.306   2.247   3.178  0.1505 -0.0782 -0.2553
 9033SOL    HW138732   1.377   2.186   3.159 -0.2696 -0.5383 -0.3654
 9033SOL    HW238733   1.238   2.180   3.188  0.3739 -0.2401  0.2068
 9034SOL     OW38734   2.834   3.701   5.060  0.3844  0.3963  0.2707
 9034SOL    HW138735   2.912   3.654   5.089  1.2308  1.8423  0.3625
 9034SOL    HW238736   2.826   3.741   5.147 -0.4724 -1.4004  1.0186
 9035SOL     OW38737   0.469   3.901  16.039 -0.6099  0.1099  0.3016
 9035SOL    HW138738   0.499   3.814  16.065 -1.4329  0.0231  0.9519
 9035SOL    HW238739   0.529   3.902  15.964  1.9280 -0.5516  2.2872
 9036SOL     OW38740   4.311   1.278   9.127 -0.4219 -0.0808 -0.2207
 9036SOL    HW138741   4.357   1.284   9.043 -0.9723 -1.0386 -0.5778
 9036SOL    HW238742   4.246   1.209   9.117 -1.4768  0.5382  2.4306
 9037SOL     OW38743   4.689   4.434  14.751  0.7219 -0.3348 -0.6114
 9037SOL    HW138744   0.025   4.493  14.770  1.5531 -1.4444 -0.4267
 9037SOL    HW238745   4.625   4.458  14.819  0.5492  2.2022 -1.6689
 9038SOL     OW38746   1.893   0.589   5.103 -0.0305  0.4971  1.0754
 9038SOL    HW138747   1.858   0.648   5.171 -0.7988 -0.2272  1.3154
 9038SOL    HW238748   1.820   0.532   5.080  0.8639 -0.0992 -0.2692
 9039SOL     OW38749   1.934   0.652   8.153  0.3999  0.2490  0.0868
 9039SOL    HW138750   1.942   0.565   8.115  0.8854  0.8841 -1.2460
 9039SOL    HW238751   2.025   0.655   8.185 -0.0010 -2.5192  1.4929
 9040SOL     OW38752   3.473   0.527   7.782  0.2603 -0.7324 -0.1438
 9040SOL    HW138753   3.473   0.578   7.701  0.5258  1.4490  1.2342
 9040SOL    HW238754   3.563   0.506   7.804  0.7562  0.9501 -0.5259
 9041SOL     OW38755   1.091   2.648  12.403 -0.0457 -0.5941 -0.5604
 9041SOL    HW138756   1.036   2.570  12.412 -1.3500  0.3063 -0.7578
 9041SOL    HW238757   1.177   2.607  12.399 -0.1228 -1.0339  2.0130
 9042SOL     OW38758   0.165   3.903   4.352  0.0538  0.1702  1.0491
 9042SOL    HW138759   0.079   3.899   4.396  0.0027  0.7154  0.9900
 9042SOL    HW238760   0.167   3.985   4.303  0.4428 -0.4511  0.0245
 9043SOL     OW38761   3.277   1.784   9.251  0.3418 -0.0057 -0.0146
 9043SOL    HW138762   3.308   1.864   9.207  1.8690 -1.2824 -1.2692
 9043SOL    HW238763   3.299   1.808   9.341  0.5320 -2.3833  0.5517
 9044SOL     OW38764   4.618   3.688   9.873 -0.2412 -0.5787  0.1708
 9044SOL    HW138765   4.553   3.623   9.901 -0.8309  0.9704  2.3951
 9044SOL    HW238766   4.620   3.749   9.946 -0.6117 -0.3267 -0.0317
 9045SOL     OW38767   0.341   2.850  16.923 -0.6179  0.1957 -0.4580
 9045SOL    HW138768   0.332   2.942  16.898  0.2356  1.1630  2.8640
 9045SOL    HW238769   0.306   2.802  16.848 -3.4139  1.7323 -0.1154
 9046SOL     OW38770   1.261   1.089   2.701  0.1277 -0.6314 -0.0350
 9046SOL    HW138771   1.207   1.015   2.673  1.1736 -1.9276  1.3910
 9046SOL    HW238772   1.345   1.070   2.659  0.5223 -0.3983  0.6520
 9047SOL     OW38773   4.630   3.178   2.295  0.2531  0.2576  0.0564
 9047SOL    HW138774   4.551   3.191   2.348  1.1222 -0.1446  1.4555
 9047SOL    HW238775   4.632   3.083   2.285  4.0075  0.7121 -3.4494
 9048SOL     OW38776   3.228   1.361  12.114  0.4471  0.1458  0.3289
 9048SOL    HW138777   3.262   1.447  12.087 -0.9558 -0.2783 -2.7224
 9048SOL    HW238778   3.203   1.325  12.029  2.3625 -0.4797  0.0292
 9049SOL     OW38779   3.149   2.899   9.252  0.4180  0.2268  0.3930
 9049SOL    HW138780   3.136   2.846   9.330 -0.4556 -0.5219 -0.2630
 9049SOL    HW238781   3.241   2.923   9.266  0.0491  2.2677 -0.7360
 9050SOL     OW38782   4.170   3.341  16.162  0.1756 -0.3698 -0.0234
 9050SOL    HW138783   4.253   3.364  16.204 -0.5793 -0.9219  1.7516
 9050SOL    HW238784   4.192   3.370  16.073  1.5100  0.5818  0.6138
 9051SOL     OW38785   3.912   3.224   2.488  0.3092  0.3076  0.0184
 9051SOL    HW138786   3.927   3.166   2.413  0.0589  1.6443 -1.0605
 9051SOL    HW238787   3.919   3.168   2.566 -1.2289 -1.0351 -0.8135
 9052SOL     OW38788   0.886   2.938   8.105  0.2780 -0.2600 -0.5976
 9052SOL    HW138789   0.880   2.844   8.085  0.1085 -0.2005 -0.8328
 9052SOL    HW238790   0.804   2.965   8.064  0.8064 -1.0471 -2.1787
 9053SOL     OW38791   1.824   1.208   1.437 -0.2272 -0.3111 -0.0980
 9053SOL    HW138792   1.891   1.259   1.392  0.5893  0.9434  2.5007
 9053SOL    HW238793   1.750   1.210   1.377  0.6362  2.1344 -1.0794
 9054SOL     OW38794   3.387   0.675  13.679 -0.2969  0.3966  0.2413
 9054SOL    HW138795   3.382   0.681  13.584 -0.5752 -1.6772  0.1167
 9054SOL    HW238796   3.303   0.642  13.711  1.0654 -2.7220  0.5927
 9055SOL     OW38797   2.304   3.554  10.550 -0.0302 -0.2374 -0.3185
 9055SOL    HW138798   2.331   3.510  10.630  0.8269 -0.6048 -0.8145
 9055SOL    HW238799   2.311   3.649  10.559 -2.1085  0.0614 -1.8956
 9056SOL     OW38800   3.560   1.398   1.811  0.0714 -0.2210 -0.3306
 9056SOL    HW138801   3.575   1.392   1.717 -1.8785 -1.2419 -0.5816
 9056SOL    HW238802   3.469   1.370   1.802 -0.8498  2.3532  1.1063
 9057SOL     OW38803   4.517   1.738  15.480 -0.1463  0.2443  0.2193
 9057SOL    HW138804   4.467   1.820  15.483  1.3724  1.1515  0.9450
 9057SOL    HW238805   4.600   1.759  15.436  0.1232 -0.1942  0.5148
 9058SOL     OW38806   2.500   2.055  16.316  0.0495  0.2625 -0.0532
 9058SOL    HW138807   2.559   2.115  16.271 -1.5531  1.1268 -0.9964
 9058SOL    HW238808   2.561   2.020  16.382 -1.6741 -1.4066  0.6502
 9059SOL     OW38809   2.947   3.725   0.880 -0.4409 -0.3988 -0.0888
 9059SOL    HW138810   2.980   3.767   0.960  1.8001 -1.2629 -0.5424
 9059SOL    HW238811   3.028   3.729   0.829 -2.0475 -1.8534 -2.7114
 9060SOL     OW38812   3.275   0.085   9.998 -0.2175  0.0948 -0.7547
 9060SOL    HW138813   3.332   0.135   9.939 -0.6686  0.9968 -0.4226
 9060SOL    HW238814   3.312   4.734   9.999  1.6102  0.8692 -0.7498
 9061SOL     OW38815   3.210   4.456   6.431 -0.1663 -0.0439  0.0281
 9061SOL    HW138816   3.130   4.412   6.461  0.3944 -0.6409  0.6577
 9061SOL    HW238817   3.216   4.433   6.338 -0.4505 -2.2447  0.5448
 9062SOL     OW38818   0.744   4.023   3.380 -0.0276 -0.2521 -0.4750
 9062SOL    HW138819   0.709   3.970   3.451  2.2531  1.3616  1.8551
 9062SOL    HW238820   0.692   3.977   3.314 -2.7722  1.0935  0.7744
 9063SOL     OW38821   0.984   3.757   7.789  0.7341 -0.9473 -1.2408
 9063SOL    HW138822   1.064   3.710   7.763  0.6076 -1.5047 -0.6144
 9063SOL    HW238823   1.000   3.843   7.751 -0.5911  0.7566  2.0602
 9064SOL     OW38824   2.931   4.289   5.867 -0.1265 -0.1298 -0.4588
 9064SOL    HW138825   2.914   4.206   5.911  1.4608  0.3164  0.9930
 9064SOL    HW238826   2.896   4.346   5.935  0.1691 -0.5018 -0.0044
 9065SOL     OW38827   1.790   0.066  13.112 -0.3062 -0.1422 -0.0695
 9065SOL    HW138828   1.762   4.725  13.158  1.5178 -1.2625 -0.8636
 9065SOL    HW238829   1.822   0.025  13.032 -0.1061  1.3580 -0.7672
 9066SOL     OW38830   0.733   3.272   6.970 -0.0540 -0.2495 -0.1783
 9066SOL    HW138831   0.687   3.265   6.886  1.4343 -2.5665 -0.8049
 9066SOL    HW238832   0.789   3.195   6.977  1.2393  0.7994  1.0873
 9067SOL     OW38833   1.899   0.835  16.256 -0.0933 -0.1237 -0.0768
 9067SOL    HW138834   1.825   0.838  16.317 -1.3624 -0.9866 -1.5804
 9067SOL    HW238835   1.865   0.822  16.167 -0.7757 -2.6909  0.5765
 9068SOL     OW38836   4.524   1.476   1.651  0.0317 -0.0452 -0.6316
 9068SOL    HW138837   4.456   1.458   1.586  0.9134  0.5991 -1.7311
 9068SOL    HW238838   4.548   1.568   1.640  0.7652 -0.1941 -0.2553
 9069SOL     OW38839   0.666   2.582   6.758 -0.0444  0.2455 -0.4439
 9069SOL    HW138840   0.724   2.631   6.816 -1.3270 -0.2418  1.2542
 9069SOL    HW238841   0.596   2.549   6.814  1.0336 -1.0551  0.1487
 9070SOL     OW38842   0.116   2.331   7.529 -0.2162  0.5848  0.0635
 9070SOL    HW138843   0.029   2.371   7.534 -1.3908 -1.9552 -0.0179
 9070SOL    HW238844   0.175   2.405   7.513  1.0383 -0.3870  0.2287
 9071SOL     OW38845   0.043   1.544   9.950 -0.3307 -0.1818 -0.6296
 9071SOL    HW138846   0.100   1.621   9.953 -0.6236 -0.0445  2.0018
 9071SOL    HW238847   0.102   1.472   9.974  0.2086  1.0045  1.6018
 9072SOL     OW38848   4.319   0.971   5.588 -0.3867  0.1319 -0.0124
 9072SOL    HW138849   4.381   0.967   5.514  0.9452  3.6534  0.8778
 9072SOL    HW238850   4.361   0.906   5.644  0.3905  0.1530 -0.5634
 9073SOL     OW38851   4.227   1.092   1.828 -0.4869 -0.1734  0.2729
 9073SOL    HW138852   4.291   1.035   1.871  0.0096 -1.2208 -1.8739
 9073SOL    HW238853   4.220   1.161   1.894 -1.8710  0.7772 -0.8851
 9074SOL     OW38854   0.720   3.069   8.728 -0.3538 -0.1625 -0.0148
 9074SOL    HW138855   0.711   3.034   8.639 -0.3774  1.2396 -0.5721
 9074SOL    HW238856   0.796   3.127   8.729 -0.1407 -0.4404  0.1104
 9075SOL     OW38857   0.698   3.350   9.129 -0.8534 -0.1199 -0.6889
 9075SOL    HW138858   0.769   3.358   9.193 -2.7707 -0.1871  1.4169
 9075SOL    HW238859   0.722   3.402   9.052 -1.5100  1.7990  0.4100
 9076SOL     OW38860   2.231   0.504  13.208  0.7185 -0.1169  0.0377
 9076SOL    HW138861   2.232   0.592  13.245 -1.8704 -1.2085  2.7298
 9076SOL    HW238862   2.308   0.497  13.152 -0.6407  0.4476 -1.9146
 9077SOL     OW38863   4.358   2.252   0.019 -0.4148  0.6105 -0.1498
 9077SOL    HW138864   4.289   2.289   0.074 -0.0390  0.2440  0.5693
 9077SOL    HW238865   4.431   2.260   0.080  0.3530 -2.8487 -0.6299
 9078SOL     OW38866   1.266   0.096   5.116  0.2508  0.4962  0.1462
 9078SOL    HW138867   1.254   0.002   5.130 -1.4425  0.9862  1.9430
 9078SOL    HW238868   1.246   0.092   5.022 -0.1041  0.4861  0.2214
 9079SOL     OW38869   4.423   2.261   5.591  0.1213  0.4171  0.1666
 9079SOL    HW138870   4.515   2.282   5.605  0.8306 -2.5444  0.0236
 9079SOL    HW238871   4.378   2.307   5.662 -0.2263  0.5496 -0.1388
 9080SOL     OW38872   1.551   4.347   8.759 -0.1378  0.0520 -0.3085
 9080SOL    HW138873   1.464   4.367   8.724  0.8754  1.9864 -1.7272
 9080SOL    HW238874   1.590   4.424   8.718 -1.2718  0.9322  0.2442
 9081SOL     OW38875   3.279   1.974   6.421 -0.1180  0.1591  0.3065
 9081SOL    HW138876   3.317   2.008   6.340 -0.8970 -0.5799 -0.3700
 9081SOL    HW238877   3.186   1.960   6.404  0.3330  1.6346 -3.2303
 9082SOL     OW38878   0.621   0.073   8.855 -0.0333 -0.3598  0.5015
 9082SOL    HW138879   0.557   0.093   8.923 -0.9088 -2.3793  0.2645
 9082SOL    HW238880   0.701   0.063   8.907  0.4373  0.3248 -0.0937
 9083SOL     OW38881   1.891   4.398   7.834  0.6018  0.1520  0.3623
 9083SOL    HW138882   1.960   4.462   7.850  1.8144 -1.6146  2.1682
 9083SOL    HW238883   1.882   4.407   7.739  0.7335 -0.0169  0.3347
 9084SOL     OW38884   1.020   1.265  10.893  0.0918 -0.4577 -0.4570
 9084SOL    HW138885   1.102   1.314  10.899  0.2625 -1.1171  2.8115
 9084SOL    HW238886   1.033   1.224  10.808  0.7562 -0.4135 -0.3742
 9085SOL     OW38887   3.073   2.493  16.725  0.1140  0.0203  0.4288
 9085SOL    HW138888   2.986   2.471  16.691 -0.9776  0.2068  3.1331
 9085SOL    HW238889   3.084   2.433  16.799 -0.4501 -1.0789 -0.3816
 9086SOL     OW38890   2.001   3.940  16.331  0.1037  0.0402  0.1944
 9086SOL    HW138891   2.035   4.019  16.371  0.7330  0.8601 -1.9309
 9086SOL    HW238892   2.029   3.872  16.393 -2.6223 -3.0453 -1.9098
 9087SOL     OW38893   3.985   1.155   0.390 -0.1004  0.2613 -0.4816
 9087SOL    HW138894   4.005   1.102   0.313  0.2819 -3.7250  2.3365
 9087SOL    HW238895   4.027   1.104   0.460  0.0165 -0.9969 -1.4572
 9088SOL     OW38896   3.012   3.174   4.247  0.7415  0.2634 -0.5359
 9088SOL    HW138897   3.080   3.189   4.181  1.4686  0.7866  0.3421
 9088SOL    HW238898   3.048   3.239   4.307  1.1119 -1.1069  0.7098
 9089SOL     OW38899   1.399   0.867  15.990 -0.1937  0.4923  0.1399
 9089SOL    HW138900   1.342   0.838  15.919 -0.3234  0.4614  0.2554
 9089SOL    HW238901   1.482   0.836  15.954 -1.5225 -0.8154 -1.7774
 9090SOL     OW38902   4.352   4.341   3.206 -0.2422 -0.2554  0.3937
 9090SOL    HW138903   4.283   4.408   3.210 -2.5724 -2.4893 -2.0593
 9090SOL    HW238904   4.366   4.328   3.300 -0.7130 -0.0649  0.4900
 9091SOL     OW38905   0.561   2.443  16.002 -0.0872 -0.0272  0.3193
 9091SOL    HW138906   0.548   2.350  15.983  1.4086 -0.3098  0.7428
 9091SOL    HW238907   0.618   2.468  15.929  0.8870 -1.1870  0.7022
 9092SOL     OW38908   3.216   1.069   5.465 -0.3444 -0.2281  0.0928
 9092SOL    HW138909   3.282   1.000   5.469 -0.5739 -0.4257  0.5221
 9092SOL    HW238910   3.140   1.012   5.457 -0.9092  0.4863  0.4357
 9093SOL     OW38911   1.837   1.371  14.347  0.0345 -0.5080  0.4521
 9093SOL    HW138912   1.882   1.411  14.421  0.6199 -1.3583  0.5622
 9093SOL    HW238913   1.790   1.302  14.394 -1.7241 -0.7978 -1.7318
 9094SOL     OW38914   2.108   2.417   7.446 -0.0966 -0.2376 -0.0297
 9094SOL    HW138915   2.085   2.506   7.417 -1.8616 -0.2429  1.3456
 9094SOL    HW238916   2.203   2.423   7.439 -0.1786  0.3352 -0.5940
 9095SOL     OW38917   3.848   0.604   7.219  0.3108 -0.3371  0.2032
 9095SOL    HW138918   3.904   0.577   7.146 -0.6828  0.7541 -0.9697
 9095SOL    HW238919   3.846   0.533   7.282  0.9894 -0.3449  0.2095
 9096SOL     OW38920   0.890   1.695   2.009 -0.2494 -0.0660 -0.4044
 9096SOL    HW138921   0.853   1.752   2.077  0.3583  1.2983 -1.2168
 9096SOL    HW238922   0.822   1.708   1.943 -0.3068  2.1541  0.0877
 9097SOL     OW38923   0.482   1.277   0.958  0.3172 -0.0168  0.3331
 9097SOL    HW138924   0.530   1.360   0.958 -0.1384  0.2428  1.2931
 9097SOL    HW238925   0.409   1.305   0.903  1.1652  2.5463  0.4834
 9098SOL     OW38926   1.012   4.701   2.322 -0.0240  0.5995 -0.2900
 9098SOL    HW138927   1.034   4.725   2.412 -3.7019  1.7438  0.3279
 9098SOL    HW238928   1.052   0.038   2.276 -1.1496  0.8856 -0.8111
 9099SOL     OW38929   2.726   3.439   3.361 -0.4141  0.2818  0.6187
 9099SOL    HW138930   2.700   3.374   3.295 -0.8661  0.4512  0.6284
 9099SOL    HW238931   2.794   3.390   3.407  0.0950 -1.2562 -1.8058
 9100SOL     OW38932   0.987   1.011  15.683  0.2546  0.0049 -0.4711
 9100SOL    HW138933   0.931   0.947  15.639 -0.6480  0.6273 -0.2126
 9100SOL    HW238934   1.039   0.959  15.745 -1.3182  0.1400  0.9655
 9101SOL     OW38935   2.951   2.733   1.896 -0.4009  0.1207  0.2776
 9101SOL    HW138936   2.913   2.650   1.867 -0.6866 -0.5205  2.5141
 9101SOL    HW238937   2.883   2.792   1.864 -0.8945 -1.2628 -1.2320
 9102SOL     OW38938   4.029   2.197   8.731 -0.1422 -0.1116  0.1820
 9102SOL    HW138939   4.065   2.128   8.787  2.1973  1.0950  0.1502
 9102SOL    HW238940   4.026   2.271   8.791  0.6247  0.5746 -0.6348
 9103SOL     OW38941   1.869   1.985   1.385 -0.3133 -0.1896 -0.5222
 9103SOL    HW138942   1.775   1.999   1.381 -0.5665 -2.6805 -2.9035
 9103SOL    HW238943   1.910   2.063   1.348 -1.6536  0.3348 -0.8710
 9104SOL     OW38944   3.936   4.615   5.903 -0.4635  0.2140  0.5956
 9104SOL    HW138945   3.994   4.545   5.872  1.2515  2.0154 -0.2944
 9104SOL    HW238946   3.895   4.639   5.820 -1.9499 -1.2670  0.8992
 9105SOL     OW38947   1.022   2.156   7.091 -0.3423 -0.5281 -0.5033
 9105SOL    HW138948   1.093   2.206   7.131 -0.8057 -1.3379  1.3573
 9105SOL    HW238949   1.048   2.150   7.000  3.1008  0.1467  0.4167
 9106SOL     OW38950   4.566   2.298  17.305  0.0925  0.2334 -0.6637
 9106SOL    HW138951   4.614   2.253  17.375  1.7792 -1.5236 -2.9417
 9106SOL    HW238952   4.539   2.378  17.350 -1.0078 -0.0971 -0.7334
 9107SOL     OW38953   3.872   0.069  14.953 -0.4747  0.1646  0.2158
 9107SOL    HW138954   3.925   0.084  14.874  1.9604 -2.1484  1.4368
 9107SOL    HW238955   3.831   0.153  14.975  0.7074  0.2770  1.9687
 9108SOL     OW38956   0.846   1.954   5.061  0.4582 -0.0813 -0.3091
 9108SOL    HW138957   0.764   1.916   5.094  0.2409 -1.1438 -2.0195
 9108SOL    HW238958   0.845   1.920   4.971 -3.2578  1.7926 -0.9764
 9109SOL     OW38959   4.071   2.055   9.005 -0.1091 -0.3374  0.1020
 9109SOL    HW138960   4.153   2.043   9.053 -0.4357  0.1216  0.7649
 9109SOL    HW238961   4.053   1.963   8.984  1.5286 -0.6364 -0.0342
 9110SOL     OW38962   3.361   0.395   3.285  0.2362 -0.1809  0.5132
 9110SOL    HW138963   3.343   0.394   3.379 -2.2562 -0.4881  0.0359
 9110SOL    HW238964   3.455   0.412   3.277 -0.4802  2.8608 -1.6451
 9111SOL     OW38965   0.712   0.920  17.525  0.1404 -0.0862  0.0190
 9111SOL    HW138966   0.724   0.913  17.430 -2.3669 -1.0465 -0.2278
 9111SOL    HW238967   0.771   0.852  17.557  0.8726  1.0378  1.0280
 9112SOL     OW38968   0.889   1.288   4.723 -0.2458  0.0287  0.5142
 9112SOL    HW138969   0.971   1.262   4.764  0.1272  2.8236  1.5660
 9112SOL    HW238970   0.872   1.206   4.676 -1.5498  1.2723 -1.1970
 9113SOL     OW38971   2.703   3.777   3.158 -0.8824 -0.1728  0.3099
 9113SOL    HW138972   2.608   3.784   3.166 -0.8651  1.3684 -0.8395
 9113SOL    HW238973   2.725   3.822   3.076 -2.1446  2.6943  1.5383
 9114SOL     OW38974   0.423   2.123   5.348 -0.1292 -0.2846  0.4335
 9114SOL    HW138975   0.341   2.114   5.299 -0.0957 -2.1757  0.7255
 9114SOL    HW238976   0.476   2.151   5.273  1.4478 -2.6977  0.6441
 9115SOL     OW38977   3.272   2.530  16.064  0.2367  0.0827 -0.0687
 9115SOL    HW138978   3.355   2.507  16.022 -1.4001 -1.5251 -2.3767
 9115SOL    HW238979   3.211   2.501  15.997  1.6747 -2.0583 -0.4485
 9116SOL     OW38980   1.481   0.150   6.645  0.5920  0.1373  0.0125
 9116SOL    HW138981   1.529   0.074   6.611 -1.0992 -1.1677  0.5877
 9116SOL    HW238982   1.450   0.117   6.729 -0.4387  0.6676 -0.1646
 9117SOL     OW38983   4.006   0.041   9.616 -0.6874 -0.0832  0.3134
 9117SOL    HW138984   3.935   0.104   9.602 -0.0649 -0.0373 -2.5528
 9117SOL    HW238985   3.961   4.706   9.660 -0.7344  0.3638  1.0074
 9118SOL     OW38986   0.296   4.667   5.186 -0.2216  0.1091  0.2203
 9118SOL    HW138987   0.324   0.001   5.129 -0.6593  0.4179  0.3819
 9118SOL    HW238988   0.207   4.694   5.209 -0.7038 -0.4855 -0.9740
 9119SOL     OW38989   4.713   3.701  11.674  0.0976 -0.1915  0.2413
 9119SOL    HW138990   4.644   3.758  11.641  0.3655  0.8858  1.5075
 9119SOL    HW238991   4.663   3.671  11.750 -0.8666  0.5990 -0.0888
 9120SOL     OW38992   3.774   0.455   6.865  0.2473 -0.1788 -0.1596
 9120SOL    HW138993   3.762   0.546   6.891  1.7450  0.5224 -1.9441
 9120SOL    HW238994   3.761   0.409   6.948 -0.8438  1.2651  0.4679
 9121SOL     OW38995   0.409   2.854   7.438  0.2399 -1.0461 -0.1364
 9121SOL    HW138996   0.490   2.842   7.488  0.7816  0.7278 -0.5843
 9121SOL    HW238997   0.347   2.797   7.484  0.7240 -0.4477  1.2500
 9122SOL     OW38998   3.326   3.163   9.346 -0.5082  0.3832 -0.3186
 9122SOL    HW138999   3.248   3.122   9.382  0.7638 -2.8573 -1.2345
 9122SOL    HW239000   3.287   3.245   9.317  2.7742  1.9635 -0.2961
 9123SOL     OW39001   2.054   1.423   6.980  0.0793 -0.5711  0.0615
 9123SOL    HW139002   1.990   1.389   6.918  0.0919  1.2047 -0.9032
 9123SOL    HW239003   2.031   1.354   7.043 -2.0191 -1.9970 -2.2770
 9124SOL     OW39004   0.179   2.384   1.863 -0.2628  0.3987 -0.3995
 9124SOL    HW139005   0.121   2.451   1.825 -1.2767  0.9063  2.0601
 9124SOL    HW239006   0.231   2.444   1.916  0.9151 -0.6869 -0.3331
 9125SOL     OW39007   0.023   4.481   1.785  0.3370 -0.0997  0.1122
 9125SOL    HW139008   0.100   4.471   1.840 -1.1371 -0.2392  2.1635
 9125SOL    HW239009   0.060   4.480   1.698 -0.0690 -0.8232 -0.0537
 9126SOL     OW39010   1.719   2.946   9.426 -0.2686  0.7709 -0.5715
 9126SOL    HW139011   1.709   2.854   9.403 -0.6396  0.0512  2.3782
 9126SOL    HW239012   1.652   2.953   9.495  0.3928  2.2772 -0.0788
 9127SOL     OW39013   2.377   3.351   3.717 -0.6230 -0.2973  0.0637
 9127SOL    HW139014   2.417   3.264   3.726 -0.8204 -0.6585 -2.4294
 9127SOL    HW239015   2.287   3.343   3.747 -0.4382  0.6016  0.8604
 9128SOL     OW39016   0.499   3.719   8.033  0.2928  0.5353 -0.3193
 9128SOL    HW139017   0.514   3.668   7.953 -1.6467  1.9632 -1.6031
 9128SOL    HW239018   0.403   3.721   8.023  0.2181 -0.9622  0.0744
 9129SOL     OW39019   3.702   1.476   1.515 -0.4518  0.4169  0.0099
 9129SOL    HW139020   3.686   1.389   1.478  0.0679  1.3348 -2.3760
 9129SOL    HW239021   3.664   1.533   1.448 -0.8125 -1.1504 -1.1251
 9130SOL     OW39022   2.904   3.033   6.857  0.9392 -0.0578 -0.6574
 9130SOL    HW139023   2.856   2.950   6.851  0.0043  0.5002 -0.9174
 9130SOL    HW239024   2.859   3.087   6.922  2.6446  2.0801 -1.2884
 9131SOL     OW39025   1.736   0.041   5.354 -0.1372  0.3520 -0.4279
 9131SOL    HW139026   1.809   4.718   5.341  1.5976  2.2129  0.5586
 9131SOL    HW239027   1.745   0.092   5.273  0.5558  1.1588  0.1638
 9132SOL     OW39028   1.472   1.938  12.205  0.1321 -0.1372 -0.5979
 9132SOL    HW139029   1.417   2.014  12.187 -1.6852 -0.7498  2.3430
 9132SOL    HW239030   1.470   1.894  12.119 -0.3254  1.3047 -1.3192
 9133SOL     OW39031   3.101   1.256   6.063 -0.8363 -0.4427 -0.1616
 9133SOL    HW139032   3.039   1.283   6.131 -1.5247 -0.6480 -0.7138
 9133SOL    HW239033   3.180   1.240   6.115 -1.2541  0.2304  0.6963
 9134SOL     OW39034   3.109   0.106   7.961  0.3604 -0.1050  0.5122
 9134SOL    HW139035   3.111   0.100   8.057  0.7401  0.9314  0.5730
 9134SOL    HW239036   3.029   0.063   7.932 -0.1736  1.3978 -0.1937
 9135SOL     OW39037   1.716   0.944  14.730  0.0712  0.3055  0.7682
 9135SOL    HW139038   1.751   0.915  14.645 -0.8580 -1.5619  1.0138
 9135SOL    HW239039   1.622   0.949  14.712  0.5780  1.1227 -1.6329
 9136SOL     OW39040   1.035   0.186   7.820 -0.0845 -0.3112  0.0797
 9136SOL    HW139041   0.981   0.139   7.757 -1.1160  1.9986 -0.7732
 9136SOL    HW239042   1.084   0.114   7.860 -0.3513 -0.8560 -0.5833
 9137SOL     OW39043   2.749   3.840   5.291 -0.0425  0.3468  0.1046
 9137SOL    HW139044   2.657   3.860   5.304  0.0320  0.2741  0.7478
 9137SOL    HW239045   2.788   3.927   5.305 -1.6031  1.0513  0.0325
 9138SOL     OW39046   0.975   3.719   1.217 -0.7923 -0.6514  0.0388
 9138SOL    HW139047   0.988   3.806   1.178  0.2537 -0.7289  0.2293
 9138SOL    HW239048   1.056   3.679   1.186 -0.4684 -0.8352  1.1152
 9139SOL     OW39049   2.494   3.855  17.415  0.2475  0.4874 -0.0503
 9139SOL    HW139050   2.566   3.795  17.434 -0.5475 -0.4397  0.1049
 9139SOL    HW239051   2.420   3.796  17.396  1.3719 -1.0441  0.3261
 9140SOL     OW39052   4.651   4.382   3.061 -0.2768  0.1375 -0.8096
 9140SOL    HW139053   4.580   4.390   3.124  0.0914  2.1882 -0.6705
 9140SOL    HW239054   4.681   4.296   3.091  2.2970  1.0766 -0.6745
 9141SOL     OW39055   2.222   3.755   4.892 -0.0318  0.3020  0.0923
 9141SOL    HW139056   2.219   3.840   4.936  2.4519 -0.1149  1.0542
 9141SOL    HW239057   2.155   3.701   4.934  0.1416  0.9133  1.1448
 9142SOL     OW39058   3.076   3.694  16.935  0.1694  0.0281 -0.2551
 9142SOL    HW139059   3.123   3.719  16.855 -0.7743  1.9470 -0.1951
 9142SOL    HW239060   2.987   3.677  16.905 -0.4297 -1.4518  2.3583
 9143SOL     OW39061   3.067   1.879   6.126 -0.1211  0.7976 -0.0503
 9143SOL    HW139062   3.063   1.974   6.139 -0.3792  0.6359  1.0335
 9143SOL    HW239063   3.143   1.871   6.068  0.8501  0.4112  1.2783
 9144SOL     OW39064   4.322   0.884   3.830 -0.3584 -0.3081 -0.4844
 9144SOL    HW139065   4.354   0.801   3.864 -1.4103 -1.3869 -2.1226
 9144SOL    HW239066   4.338   0.871   3.736 -0.1835 -3.3405 -0.0105
 9145SOL     OW39067   0.692   2.893   4.468 -0.3896 -0.3054 -0.0005
 9145SOL    HW139068   0.710   2.956   4.537  0.0256 -2.2242  1.6573
 9145SOL    HW239069   0.699   2.807   4.511 -2.1976 -0.8331 -0.7379
 9146SOL     OW39070   0.783   3.088  11.584  0.2159  0.4407 -0.2075
 9146SOL    HW139071   0.734   3.167  11.605  0.6770 -0.0269  2.6528
 9146SOL    HW239072   0.759   3.078  11.492 -1.9005 -0.6908  0.4662
 9147SOL     OW39073   1.230   3.234  16.213  0.7353 -0.5023 -0.6460
 9147SOL    HW139074   1.244   3.159  16.154  2.2656 -1.5995  1.1131
 9147SOL    HW239075   1.292   3.221  16.285 -0.5557  2.9518  1.0759
 9148SOL     OW39076   2.013   3.454  10.128  0.5261 -0.0623  0.5229
 9148SOL    HW139077   1.951   3.436  10.199  1.1541  1.8556  1.5672
 9148SOL    HW239078   2.098   3.453  10.173  1.5204  1.1827 -1.2947
 9149SOL     OW39079   3.218   2.462   9.147 -0.1631  0.5970  0.1103
 9149SOL    HW139080   3.135   2.421   9.122 -0.1945 -1.7770  4.0930
 9149SOL    HW239081   3.211   2.551   9.111  0.2602  2.1936  3.9465
 9150SOL     OW39082   4.694   4.336   2.756 -0.0238 -0.1034  0.3642
 9150SOL    HW139083   4.703   4.241   2.749  0.0147  0.0586 -1.7357
 9150SOL    HW239084   4.686   4.335   2.852 -2.1665 -0.6394  0.1819
 9151SOL     OW39085   3.218   1.507   1.936 -0.6930  0.3119 -0.0887
 9151SOL    HW139086   3.208   1.532   2.027  0.6922 -0.6124  0.3145
 9151SOL    HW239087   3.259   1.423   1.955  2.0190  1.8080  0.6239
 9152SOL     OW39088   4.347   4.216   8.756  0.0939 -0.3870 -0.2602
 9152SOL    HW139089   4.264   4.170   8.741 -0.7932  0.8396  0.9021
 9152SOL    HW239090   4.384   4.181   8.837 -1.6997 -2.8515 -0.4840
 9153SOL     OW39091   2.633   4.223   8.782  0.1174  0.1183 -0.3169
 9153SOL    HW139092   2.638   4.238   8.688  0.1362 -2.9685 -0.8196
 9153SOL    HW239093   2.719   4.252   8.814 -0.3035  0.3127  0.6351
 9154SOL     OW39094   2.771   0.019   3.383 -0.1765 -0.2194 -0.0812
 9154SOL    HW139095   2.827   0.067   3.321  0.8324 -2.5061 -0.9344
 9154SOL    HW239096   2.821   4.675   3.396  0.7917  0.4728  0.5309
 9155SOL     OW39097   4.166   3.404   3.682 -0.2980 -0.4968  0.3709
 9155SOL    HW139098   4.183   3.454   3.762  0.5936  3.9747 -2.6221
 9155SOL    HW239099   4.225   3.329   3.685 -0.6222 -0.8382 -1.5528
 9156SOL     OW39100   0.771   3.297   3.027 -0.1664 -0.5487  0.2013
 9156SOL    HW139101   0.739   3.208   3.012 -1.6599  0.1034 -0.5139
 9156SOL    HW239102   0.734   3.312   3.114  0.0975 -0.1737  0.2500
 9157SOL     OW39103   1.738   2.368   4.807  0.0331 -0.4986 -0.1181
 9157SOL    HW139104   1.711   2.289   4.855 -1.6564 -0.7698 -1.4859
 9157SOL    HW239105   1.678   2.377   4.733  0.5594  2.5455 -0.1727
 9158SOL     OW39106   1.383   1.276   4.345 -0.1018 -0.2375 -0.3803
 9158SOL    HW139107   1.393   1.371   4.355 -0.6810 -0.1346 -0.7122
 9158SOL    HW239108   1.290   1.261   4.361 -0.1668  1.2573  0.6925
 9159SOL     OW39109   0.129   4.263   7.712 -0.1351  0.1918  0.0706
 9159SOL    HW139110   0.200   4.206   7.685  1.6864  2.2439  0.5090
 9159SOL    HW239111   0.081   4.216   7.780  2.1737 -1.3818  0.5985
 9160SOL     OW39112   0.531   1.405   8.746  0.1815 -0.3792  0.7850
 9160SOL    HW139113   0.444   1.445   8.746 -0.3513 -1.5540  0.0591
 9160SOL    HW239114   0.547   1.427   8.654 -1.2088  2.3054  1.1811
 9161SOL     OW39115   4.622   1.894   6.229 -0.2376  0.1227 -0.1446
 9161SOL    HW139116   4.631   1.808   6.187 -3.5804  0.2972 -1.2117
 9161SOL    HW239117   4.705   1.933   6.203  0.7209 -1.0791  1.1190
 9162SOL     OW39118   3.547   1.638  13.021  0.1802 -0.0254 -0.3903
 9162SOL    HW139119   3.476   1.652  12.958  1.0324 -2.8235 -1.9502
 9162SOL    HW239120   3.511   1.564  13.069 -0.6608 -0.3440 -1.5190
 9163SOL     OW39121   0.282   0.984  16.085 -0.1721  0.0834 -0.4308
 9163SOL    HW139122   0.302   0.894  16.060 -0.5394 -0.0351 -0.2909
 9163SOL    HW239123   0.342   0.985  16.159 -0.2805  0.1121 -0.3445
 9164SOL     OW39124   1.431   1.188   6.832  0.2643  0.2553  0.2903
 9164SOL    HW139125   1.338   1.168   6.819  0.4974  0.7800 -2.2596
 9164SOL    HW239126   1.445   1.238   6.751  0.9287 -0.4305 -0.0169
 9165SOL     OW39127   3.140   3.783   5.905  0.3744 -0.3141 -0.0022
 9165SOL    HW139128   3.211   3.730   5.868  2.8202  1.0365  2.7916
 9165SOL    HW239129   3.194   3.829   5.969  0.1264  0.5301 -0.4039
 9166SOL     OW39130   0.820   4.155   4.654  0.1660  0.3701  0.2805
 9166SOL    HW139131   0.812   4.071   4.608 -2.2352  0.2176  0.9714
 9166SOL    HW239132   0.854   4.208   4.582  0.4527 -1.1872 -0.7297
 9167SOL     OW39133   3.569   3.479  11.675  0.2605  0.5044  0.2862
 9167SOL    HW139134   3.512   3.537  11.624  0.3943  1.8260  1.6722
 9167SOL    HW239135   3.655   3.517  11.661 -0.2963  2.0729  1.1111
 9168SOL     OW39136   1.567   0.814   3.045  0.3412 -0.2414  0.2039
 9168SOL    HW139137   1.481   0.810   3.003 -0.1570  2.4384  0.9910
 9168SOL    HW239138   1.596   0.893   3.000  1.5330 -0.2918  0.8774
 9169SOL     OW39139   1.516   0.074   2.528  0.5393 -0.0080  0.4175
 9169SOL    HW139140   1.535   4.732   2.578 -0.6883 -0.8118 -0.3826
 9169SOL    HW239141   1.535   0.135   2.599 -0.9263 -0.9129  1.5741
 9170SOL     OW39142   3.043   2.009  15.614 -0.0416 -0.3527 -0.2374
 9170SOL    HW139143   3.076   2.086  15.569  2.1357 -0.5698  0.9810
 9170SOL    HW239144   3.080   1.940  15.559  0.2508  1.4415 -2.2665
 9171SOL     OW39145   0.653   2.992   3.363 -0.0712  0.0983 -0.4769
 9171SOL    HW139146   0.719   2.970   3.297 -0.9046 -0.7273 -1.0403
 9171SOL    HW239147   0.606   2.909   3.372 -0.0653 -0.1792 -2.8828
 9172SOL     OW39148   0.001   4.306   6.508 -0.0117 -0.3013 -0.3161
 9172SOL    HW139149   0.018   4.234   6.448  0.5739 -1.4772  1.2963
 9172SOL    HW239150   0.076   4.364   6.493 -1.5383  1.6089 -0.6813
 9173SOL     OW39151   2.316   2.939   7.513  0.1967 -0.7202  0.0846
 9173SOL    HW139152   2.230   2.966   7.544 -0.2634  0.2721 -2.0245
 9173SOL    HW239153   2.332   2.863   7.568 -1.4206 -1.5059 -0.5407
 9174SOL     OW39154   3.341   3.703   7.555 -0.5192 -0.0773 -0.3395
 9174SOL    HW139155   3.295   3.783   7.580 -2.1292 -1.2542  0.4744
 9174SOL    HW239156   3.334   3.662   7.641  0.1904  0.1914 -0.1554
 9175SOL     OW39157   4.587   0.896  17.329  0.0267  0.8401 -0.2806
 9175SOL    HW139158   4.491   0.895  17.320 -0.1789  1.0812  1.7942
 9175SOL    HW239159   4.583   0.913  17.423  0.2166 -0.5845 -0.0191
 9176SOL     OW39160   1.887   0.360   8.082 -0.4471  0.1431  0.3161
 9176SOL    HW139161   1.901   0.271   8.116 -0.3395 -0.3169 -0.9153
 9176SOL    HW239162   1.879   0.348   7.987 -1.2780 -0.2398  0.4377
 9177SOL     OW39163   3.856   1.323   9.392  0.2886  0.4050 -0.1950
 9177SOL    HW139164   3.821   1.247   9.346  1.2819 -2.1744  3.3123
 9177SOL    HW239165   3.940   1.341   9.350 -0.1666  1.4964 -0.6389
 9178SOL     OW39166   3.414   3.393   8.678 -0.1839  0.0501 -0.1159
 9178SOL    HW139167   3.502   3.409   8.710  0.2781  1.1960 -1.9068
 9178SOL    HW239168   3.373   3.479   8.688 -1.2742 -0.0457 -3.4646
 9179SOL     OW39169   3.892   0.984   4.089 -0.1891 -0.0205 -0.3126
 9179SOL    HW139170   3.953   0.987   4.162 -1.6708  1.9997  0.8459
 9179SOL    HW239171   3.816   0.952   4.138  0.0352  0.3169  0.2518
 9180SOL     OW39172   2.099   2.398  11.010  0.2810  0.3295  0.2939
 9180SOL    HW139173   2.168   2.459  11.035  1.6537 -1.5106  1.0177
 9180SOL    HW239174   2.027   2.454  11.039  0.1565 -0.3058  1.2000
 9181SOL     OW39175   4.657   0.805   2.052  1.0606 -0.8594 -0.0188
 9181SOL    HW139176   4.643   0.714   2.078  0.0847 -1.0093 -1.0517
 9181SOL    HW239177   4.736   0.800   1.998  1.3101  0.3122  0.2467
 9182SOL     OW39178   4.459   2.759   4.530  0.3603  0.2663  0.1645
 9182SOL    HW139179   4.441   2.785   4.440  1.0311  1.0148  0.2400
 9182SOL    HW239180   4.554   2.755   4.535  0.3834  0.0147 -0.5481
 9183SOL     OW39181   0.367   2.180  13.206  0.2872 -0.2714  0.0419
 9183SOL    HW139182   0.316   2.158  13.283  0.0583 -0.8768 -0.2790
 9183SOL    HW239183   0.404   2.098  13.175 -0.5005 -0.5591 -0.1265
 9184SOL     OW39184   3.415   3.858   6.304 -0.1335 -0.0725 -0.0848
 9184SOL    HW139185   3.433   3.847   6.397 -0.5934  0.0904  0.0226
 9184SOL    HW239186   3.395   3.770   6.271  1.1022 -0.7921  1.0867
 9185SOL     OW39187   1.164   4.393  10.098  0.1829  0.4503  0.2929
 9185SOL    HW139188   1.227   4.393  10.171  1.4613 -1.1008 -0.7843
 9185SOL    HW239189   1.160   4.482  10.065  3.3779  0.7346  0.5908
 9186SOL     OW39190   2.072   1.065   6.299 -0.1696 -0.3620 -0.4222
 9186SOL    HW139191   2.077   1.019   6.215 -0.4602  1.7411 -1.6001
 9186SOL    HW239192   2.084   0.993   6.360  2.5731 -0.6144 -1.2721
 9187SOL     OW39193   0.904   2.617   1.842  0.0965  0.4367  0.0118
 9187SOL    HW139194   0.945   2.645   1.923 -1.5067  1.3030  0.5230
 9187SOL    HW239195   0.986   2.599   1.795 -0.7505 -0.9064 -0.9458
 9188SOL     OW39196   4.613   0.173  14.949 -0.6498 -0.0075 -0.1501
 9188SOL    HW139197   4.660   0.240  14.899 -0.0685 -0.8541 -0.7382
 9188SOL    HW239198   4.521   0.185  14.927 -1.0781 -0.3434  1.4562
 9189SOL     OW39199   3.978   0.274  12.081 -0.0752  0.4789 -0.2923
 9189SOL    HW139200   4.032   0.305  12.154  0.1488 -0.1617 -0.1865
 9189SOL    HW239201   3.924   0.206  12.121  0.3457 -0.3457 -1.1211
 9190SOL     OW39202   2.048   4.457   2.729  0.1260 -0.3316  0.0712
 9190SOL    HW139203   2.075   4.412   2.649  0.3016 -0.3643  0.1492
 9190SOL    HW239204   2.136   4.463   2.765 -0.5843 -1.8623  2.0670
 9191SOL     OW39205   1.450   0.147   6.963  0.3799 -0.1202 -0.4917
 9191SOL    HW139206   1.539   0.155   6.999  0.0598  0.1343  0.2251
 9191SOL    HW239207   1.416   0.234   6.980 -0.6048 -0.7353  0.6313
 9192SOL     OW39208   0.530   4.639   2.837  0.0177  0.3728  0.4322
 9192SOL    HW139209   0.554   4.578   2.767  0.4774 -0.5196  1.3780
 9192SOL    HW239210   0.466   4.587   2.885 -0.3987  0.8477  0.3950
 9193SOL     OW39211   2.613   2.905   5.630  0.5608 -0.0921  0.3964
 9193SOL    HW139212   2.606   2.861   5.545  1.8521 -0.2562  0.3816
 9193SOL    HW239213   2.682   2.850   5.669  2.5485  0.7690 -1.9621
 9194SOL     OW39214   1.113   4.471   5.435  0.0348  0.4007 -0.0056
 9194SOL    HW139215   1.031   4.521   5.444 -0.2013 -0.2313  1.4295
 9194SOL    HW239216   1.188   4.523   5.464  1.6606 -0.6483 -2.3082
 9195SOL     OW39217   4.725   4.690  15.045  0.4440  0.0180  0.8117
 9195SOL    HW139218   0.056   4.714  14.982 -3.4843  1.3897 -2.8787
 9195SOL    HW239219   4.670   0.030  15.034 -0.0053 -0.2643  1.1185
 9196SOL     OW39220   0.716   1.168   0.842 -0.4976  0.1515 -0.2276
 9196SOL    HW139221   0.633   1.197   0.880 -0.2753 -0.1409  0.4925
 9196SOL    HW239222   0.720   1.218   0.761 -2.3914 -1.7541 -1.5235
 9197SOL     OW39223   2.327   4.542   8.140  0.3577 -0.8694 -0.5008
 9197SOL    HW139224   2.250   4.487   8.123  0.1655 -0.9274  0.5853
 9197SOL    HW239225   2.396   4.480   8.166  0.1735 -1.8467 -2.3057
 9198SOL     OW39226   1.574   0.609   3.700  0.1822 -0.0783 -0.3634
 9198SOL    HW139227   1.529   0.596   3.616  0.4286 -0.4610 -0.4392
 9198SOL    HW239228   1.647   0.548   3.692 -0.0415 -0.3155 -0.6114
 9199SOL     OW39229   0.539   0.807   9.639 -0.5235  0.1495  0.2342
 9199SOL    HW139230   0.577   0.806   9.727 -2.5518  1.0461  1.1025
 9199SOL    HW239231   0.607   0.846   9.583  0.4303 -1.4109  0.2884
 9200SOL     OW39232   1.404   1.993  14.269  0.2937 -0.3773 -0.0191
 9200SOL    HW139233   1.366   2.081  14.279  0.9114 -0.1463  0.3041
 9200SOL    HW239234   1.348   1.941  14.327 -2.0746  0.8329 -1.2423
 9201SOL     OW39235   4.246   1.189   7.343  0.0561 -0.4508  0.3482
 9201SOL    HW139236   4.200   1.142   7.272 -0.4290  0.5385  0.0086
 9201SOL    HW239237   4.239   1.270   7.292  1.6302 -0.5244  0.0211
 9202SOL     OW39238   2.189   3.822  15.789 -0.3933  0.0912  0.0481
 9202SOL    HW139239   2.149   3.768  15.857  1.7307 -1.4850  0.0205
 9202SOL    HW239240   2.147   3.796  15.707 -0.9545  3.1329 -0.6220
 9203SOL     OW39241   2.658   1.769   2.686 -0.4559 -0.4504  0.0694
 9203SOL    HW139242   2.573   1.730   2.667 -0.1177 -0.3405 -1.6848
 9203SOL    HW239243   2.666   1.740   2.777 -0.9301 -1.5340 -0.2368
 9204SOL     OW39244   4.294   0.887  16.615  0.2970 -0.6742 -0.0601
 9204SOL    HW139245   4.347   0.887  16.535  0.1344  0.5114 -0.1716
 9204SOL    HW239246   4.351   0.864  16.688  0.7315 -1.6951 -0.7072
 9205SOL     OW39247   3.698   2.948   3.511 -0.1479  0.1131 -0.2220
 9205SOL    HW139248   3.662   2.998   3.438 -2.5603  0.3945  1.1907
 9205SOL    HW239249   3.791   2.957   3.487 -0.1949 -1.0845 -0.8396
 9206SOL     OW39250   1.652   3.830   7.607 -0.0718  0.1467 -0.0608
 9206SOL    HW139251   1.676   3.771   7.536 -0.1457 -1.5456  1.3162
 9206SOL    HW239252   1.575   3.786   7.645  2.7291 -1.8259  3.3107
 9207SOL     OW39253   2.252   0.196   3.450 -0.2431 -0.5179 -0.0391
 9207SOL    HW139254   2.302   0.135   3.396 -1.2050 -2.0450  0.8033
 9207SOL    HW239255   2.190   0.239   3.391 -2.2782 -0.0809  2.4247
 9208SOL     OW39256   0.234   2.592   5.974 -0.2745  0.6379 -0.1778
 9208SOL    HW139257   0.219   2.678   6.013  2.3543  0.9056  0.2278
 9208SOL    HW239258   0.210   2.611   5.884 -0.9113  0.0135 -0.1426
 9209SOL     OW39259   1.264   3.360   2.387 -0.2126  0.0740  0.5256
 9209SOL    HW139260   1.298   3.395   2.304 -1.6476 -1.6262 -0.8001
 9209SOL    HW239261   1.341   3.356   2.443 -0.7451  0.3514  1.2753
 9210SOL     OW39262   0.999   2.084   4.095  0.2117 -0.5415  0.5361
 9210SOL    HW139263   0.980   2.165   4.143  1.9844  0.7826 -0.9679
 9210SOL    HW239264   0.917   2.034   4.101 -1.0570  1.7546  2.3499
 9211SOL     OW39265   0.511   0.747   4.891 -0.2049 -0.0958  0.0133
 9211SOL    HW139266   0.537   0.767   4.981  0.2998  1.5402 -0.4987
 9211SOL    HW239267   0.443   0.813   4.876  0.4923  0.8472  1.0221
 9212SOL     OW39268   0.883   0.898  16.573  0.2916 -0.2355 -0.5797
 9212SOL    HW139269   0.960   0.932  16.526 -0.5349  3.9028  1.0965
 9212SOL    HW239270   0.849   0.969  16.626  0.4363 -2.0201  1.8717
 9213SOL     OW39271   3.363   0.473   2.268  0.6964 -0.0256  0.9506
 9213SOL    HW139272   3.397   0.535   2.203 -2.1013 -0.4039 -0.8501
 9213SOL    HW239273   3.365   0.392   2.218 -0.9508  2.0134 -2.4366
 9214SOL     OW39274   0.026   3.671   9.656 -0.2200  0.4172  0.3663
 9214SOL    HW139275   0.005   3.741   9.594  0.2751  1.7672  1.7082
 9214SOL    HW239276   4.714   3.692   9.735 -1.4886  2.4550 -0.9770
 9215SOL     OW39277   4.469   1.272   8.453  0.3047 -0.0922 -0.0937
 9215SOL    HW139278   4.525   1.207   8.496  1.2686  2.0274  1.8908
 9215SOL    HW239279   4.403   1.211   8.421  1.3067 -0.9743 -0.4702
 9216SOL     OW39280   3.983   3.827   4.002 -0.1121 -0.1077 -0.1021
 9216SOL    HW139281   3.905   3.832   3.947 -0.0682  1.1491 -0.0481
 9216SOL    HW239282   4.023   3.911   3.979  1.3603 -1.1599 -1.4111
 9217SOL     OW39283   4.508   1.536   0.549  0.4357  0.9134 -0.0958
 9217SOL    HW139284   4.443   1.527   0.480 -0.1344  1.4454  0.3773
 9217SOL    HW239285   4.539   1.626   0.540  1.7839  0.5605  0.9598
 9218SOL     OW39286   0.455   3.651   2.557  0.0111  0.1782 -0.1799
 9218SOL    HW139287   0.466   3.712   2.630  0.0475 -1.1326  0.9088
 9218SOL    HW239288   0.478   3.572   2.604  1.3678 -0.8355 -2.5290
 9219SOL     OW39289   1.705   0.785   7.822  0.2593 -0.1685 -0.6477
 9219SOL    HW139290   1.620   0.783   7.778 -1.4147 -0.2859  2.5623
 9219SOL    HW239291   1.679   0.843   7.894 -2.6717 -2.5765  0.2488
 9220SOL     OW39292   2.827   0.961   9.129  0.3681 -0.0301 -0.2674
 9220SOL    HW139293   2.766   1.033   9.111  0.8343  0.3213 -0.4541
 9220SOL    HW239294   2.908   1.011   9.138  0.2181  0.0054  0.9990
 9221SOL     OW39295   2.240   2.901  13.609 -0.1497 -0.2378 -0.0022
 9221SOL    HW139296   2.163   2.956  13.621  0.7361  0.8071  0.8504
 9221SOL    HW239297   2.309   2.955  13.570 -1.9495  1.5914 -0.6345
 9222SOL     OW39298   0.840   2.935   2.096 -0.7333 -0.1152 -0.4111
 9222SOL    HW139299   0.896   2.860   2.076  0.3482  0.1045  1.7443
 9222SOL    HW239300   0.780   2.905   2.164 -0.3567  0.8717  0.3521
 9223SOL     OW39301   2.522   0.560   4.726 -0.8544  0.2214 -0.0278
 9223SOL    HW139302   2.495   0.562   4.818 -1.2566 -4.2874 -0.0125
 9223SOL    HW239303   2.452   0.503   4.693 -1.2751  1.3291 -1.0236
 9224SOL     OW39304   0.474   1.529  12.460  0.3081 -0.2433 -0.2020
 9224SOL    HW139305   0.451   1.496  12.373 -3.2811  1.1859  0.2087
 9224SOL    HW239306   0.535   1.459  12.483 -0.2894 -0.4597  0.6963
 9225SOL     OW39307   2.227   2.601   8.381 -0.4548  0.0799 -0.8911
 9225SOL    HW139308   2.161   2.634   8.321  0.9243  1.9291 -1.4342
 9225SOL    HW239309   2.187   2.609   8.468  0.2000  1.7770 -0.7323
 9226SOL     OW39310   2.651   1.111   3.967 -0.2364  0.1299 -0.2674
 9226SOL    HW139311   2.676   1.092   3.877  0.3551  1.1552 -0.3197
 9226SOL    HW239312   2.706   1.042   4.004 -0.0470  0.6010  0.3240
 9227SOL     OW39313   3.490   2.460   3.853 -0.0878 -0.1051  0.1233
 9227SOL    HW139314   3.550   2.425   3.919 -1.6358 -1.0151  1.0532
 9227SOL    HW239315   3.488   2.381   3.799  0.1723 -1.4224  2.0427
 9228SOL     OW39316   4.281   2.238  13.746 -0.7591  0.0965  0.1088
 9228SOL    HW139317   4.197   2.283  13.741  0.2352  1.7528 -1.7903
 9228SOL    HW239318   4.306   2.251  13.654 -0.8393  0.5512  0.1508
 9229SOL     OW39319   2.856   3.655   5.986 -0.5406 -0.1828  0.4514
 9229SOL    HW139320   2.818   3.690   6.066  1.0996  2.8987 -0.1177
 9229SOL    HW239321   2.933   3.712   5.979  0.6701 -2.1083 -2.3405
 9230SOL     OW39322   0.994   3.972  17.659  0.3049  0.3530 -0.2135
 9230SOL    HW139323   0.988   3.985  17.564 -1.3455 -1.1350 -0.3216
 9230SOL    HW239324   1.069   4.028  17.676  2.6765 -3.1083  0.6157
 9231SOL     OW39325   0.815   4.137  15.421  0.8800 -0.6306  0.4704
 9231SOL    HW139326   0.858   4.219  15.396  0.9015 -0.3640  1.3889
 9231SOL    HW239327   0.875   4.106  15.489  0.0165 -1.9488  0.6347
 9232SOL     OW39328   3.333   0.948   6.048 -0.2087  0.4901  0.2040
 9232SOL    HW139329   3.359   1.021   6.105  2.1330 -0.6169  0.5626
 9232SOL    HW239330   3.323   0.884   6.119 -0.5735  0.6963  0.3384
 9233SOL     OW39331   2.924   2.961   0.294  0.9123 -0.5506  0.3069
 9233SOL    HW139332   2.887   2.893   0.350 -0.4341  0.7840  1.0311
 9233SOL    HW239333   3.003   2.916   0.265  1.0337  0.1948 -0.5150
 9234SOL     OW39334   3.003   2.825   3.462 -0.3624  0.2368  0.4449
 9234SOL    HW139335   3.004   2.768   3.539  0.4081  1.1116  1.0904
 9234SOL    HW239336   3.003   2.755   3.397  1.6685 -1.1386  1.9092
 9235SOL     OW39337   1.099   1.158   4.865 -0.4215 -0.1855 -0.1036
 9235SOL    HW139338   1.175   1.120   4.907 -1.0642 -0.0843  1.1455
 9235SOL    HW239339   1.040   1.142   4.939  1.9952  0.7914  2.0282
 9236SOL     OW39340   1.755   0.297   1.614  0.3265  0.1276 -0.4612
 9236SOL    HW139341   1.741   0.217   1.564  3.8800  0.8285 -2.6531
 9236SOL    HW239342   1.844   0.319   1.584  0.1363  1.7901  0.2063
 9237SOL     OW39343   3.593   2.844   3.752  0.3311 -0.1131 -0.3682
 9237SOL    HW139344   3.626   2.872   3.667 -1.2739 -1.5693 -1.4879
 9237SOL    HW239345   3.572   2.929   3.791  1.2812  0.3175 -0.7962
 9238SOL     OW39346   1.389   3.844   7.269  0.2574 -0.2088 -0.3315
 9238SOL    HW139347   1.411   3.899   7.344 -1.9183  2.8844 -1.9555
 9238SOL    HW239348   1.394   3.903   7.194  3.3212 -2.1820 -1.6717
 9239SOL     OW39349   4.175   1.591  12.638  0.6131 -0.2275  0.3252
 9239SOL    HW139350   4.219   1.540  12.570  2.1120 -0.3193  1.3698
 9239SOL    HW239351   4.242   1.646  12.678 -0.6764 -0.0590  2.2668
 9240SOL     OW39352   1.166   4.201  15.851 -0.2548 -0.4159  0.2821
 9240SOL    HW139353   1.103   4.237  15.913  2.0884  2.3627  1.0659
 9240SOL    HW239354   1.241   4.258  15.867 -0.8579 -0.4540  3.2914
 9241SOL     OW39355   0.007   4.715   4.190 -0.0416 -0.3225  0.4760
 9241SOL    HW139356   0.005   0.064   4.231 -0.9257  0.4981 -1.3349
 9241SOL    HW239357   0.049   4.666   4.261 -0.5465 -0.4730  0.6702
 9242SOL     OW39358   0.820   2.317   6.900  0.3833 -0.3131  0.3976
 9242SOL    HW139359   0.779   2.338   6.816  1.9326  3.4619  0.5729
 9242SOL    HW239360   0.902   2.279   6.870 -0.0189 -0.5744 -0.3800
 9243SOL     OW39361   4.157   1.596   4.377  1.3803  0.3328  0.2853
 9243SOL    HW139362   4.121   1.510   4.356  0.6210  0.9102 -0.7760
 9243SOL    HW239363   4.210   1.572   4.453  2.1147 -2.7011 -1.1929
 9244SOL     OW39364   4.320   0.933   2.901  0.6479 -0.1144 -0.3792
 9244SOL    HW139365   4.242   0.976   2.866  0.1206 -0.2253  0.6590
 9244SOL    HW239366   4.294   0.842   2.913 -2.4020  0.8708  0.4309
 9245SOL     OW39367   3.165   4.375  13.880 -0.0143  0.7070  0.1432
 9245SOL    HW139368   3.102   4.322  13.928 -0.8525  2.2197  0.7085
 9245SOL    HW239369   3.103   4.423  13.825 -0.0087  0.4762 -0.0641
 9246SOL     OW39370   2.815   1.943   9.333  0.3192 -0.1805  0.6374
 9246SOL    HW139371   2.729   1.984   9.341  0.1057 -0.2223 -1.3183
 9246SOL    HW239372   2.877   2.001   9.379  0.1193 -0.0146  0.6976
 9247SOL     OW39373   0.700   0.272   2.440  0.0806  0.5297  0.4351
 9247SOL    HW139374   0.657   0.296   2.358  0.0911 -0.2874  0.1905
 9247SOL    HW239375   0.655   0.342   2.488 -0.6079  0.8128 -0.6323
 9248SOL     OW39376   3.609   3.143   2.677  0.3793  0.2146  0.1376
 9248SOL    HW139377   3.615   3.233   2.646 -0.8883 -0.5067 -2.2323
 9248SOL    HW239378   3.591   3.096   2.596  2.2813 -2.0510  1.0049
 9249SOL     OW39379   3.107   1.177   1.630  0.1541 -0.0319  0.3243
 9249SOL    HW139380   3.026   1.127   1.641  0.5217 -1.0206 -1.5083
 9249SOL    HW239381   3.138   1.138   1.549  0.7911 -1.7578  1.3976
 9250SOL     OW39382   1.171   0.373   6.764  0.5092 -0.0468 -0.3381
 9250SOL    HW139383   1.091   0.327   6.789  0.9373 -0.5455  0.0892
 9250SOL    HW239384   1.196   0.395   6.854  2.2656 -0.0258 -0.8272
 9251SOL     OW39385   1.377   4.686   1.790  0.1918  0.6768  0.4514
 9251SOL    HW139386   1.410   0.035   1.765 -3.0357  1.7152 -0.1970
 9251SOL    HW239387   1.318   4.666   1.717  2.1836  0.2549 -1.0613
 9252SOL     OW39388   1.794   1.719   3.383 -0.5641 -0.0985  0.8676
 9252SOL    HW139389   1.715   1.746   3.430 -0.5951  0.3590  0.5456
 9252SOL    HW239390   1.756   1.712   3.295  1.8803  2.3574 -0.3990
 9253SOL     OW39391   2.488   3.501   3.479 -0.0804  0.0385 -0.2922
 9253SOL    HW139392   2.449   3.456   3.555  0.7835 -0.8338 -0.3761
 9253SOL    HW239393   2.572   3.460   3.460 -0.3867 -1.4306  1.4272
 9254SOL     OW39394   2.532   0.128  10.189 -0.2016 -0.1174  0.0163
 9254SOL    HW139395   2.626   0.117  10.204 -0.4559  0.3432  2.0010
 9254SOL    HW239396   2.519   0.062  10.120 -0.9798 -0.3220  0.3608
 9255SOL     OW39397   4.111   1.394   6.530  0.3058  0.3661 -0.0557
 9255SOL    HW139398   4.141   1.387   6.440 -1.3368  1.9034 -0.7104
 9255SOL    HW239399   4.100   1.487   6.548  2.4217  0.9634 -1.8544
 9256SOL     OW39400   1.146   2.142   7.882  0.0269 -0.4105  0.2601
 9256SOL    HW139401   1.228   2.185   7.908 -1.5981  1.6596  1.9725
 9256SOL    HW239402   1.115   2.090   7.956 -1.9773  1.2003  0.5415
 9257SOL     OW39403   2.970   0.512  15.693 -0.2021  0.1790 -0.1991
 9257SOL    HW139404   2.926   0.441  15.646 -0.9888 -0.3832  1.3523
 9257SOL    HW239405   3.046   0.474  15.737  0.2371  1.3121  0.0166
 9258SOL     OW39406   1.738   1.651   6.846  0.0682 -0.1557  0.5514
 9258SOL    HW139407   1.645   1.673   6.847 -0.1336 -1.0194  0.7721
 9258SOL    HW239408   1.735   1.558   6.869 -0.5509 -0.0872  0.7523
 9259SOL     OW39409   3.580   3.104   0.066  0.5368  0.0438 -0.4811
 9259SOL    HW139410   3.598   3.142  17.727 -1.7955 -1.4310 -1.6423
 9259SOL    HW239411   3.670   3.083   0.090 -0.3760 -1.7595  1.4026
 9260SOL     OW39412   2.424   3.766   8.837 -0.0433  0.2375  0.0148
 9260SOL    HW139413   2.519   3.771   8.851 -0.2010 -0.8426  1.4183
 9260SOL    HW239414   2.416   3.781   8.742  0.9655  3.6202  0.4347
 9261SOL     OW39415   0.294   0.808   8.883 -0.1585 -1.1341 -0.7969
 9261SOL    HW139416   0.383   0.839   8.865 -0.6128  0.7128  0.1657
 9261SOL    HW239417   0.299   0.713   8.878 -0.1619 -1.2645  1.6234
 9262SOL     OW39418   3.561   0.176   7.714 -0.3400 -0.2940 -0.2942
 9262SOL    HW139419   3.574   0.250   7.654 -1.1113  0.4743  0.4663
 9262SOL    HW239420   3.650   0.171   7.747 -0.4102 -1.2765 -0.2742
 9263SOL     OW39421   2.466   0.641  13.133 -0.9072  0.4616  0.6280
 9263SOL    HW139422   2.527   0.667  13.202  0.3080  0.4820 -0.4418
 9263SOL    HW239423   2.392   0.690  13.169 -1.8701  2.2587 -3.7801
 9264SOL     OW39424   2.825   4.600  12.634  0.1538  0.0054 -0.0824
 9264SOL    HW139425   2.850   4.588  12.725 -0.4007  0.3541  0.1184
 9264SOL    HW239426   2.883   4.536  12.592 -0.8452  0.6095 -2.3871
 9265SOL     OW39427   3.575   1.919   4.246 -0.0367 -0.2849  0.0620
 9265SOL    HW139428   3.592   1.895   4.337 -2.9132 -1.8681  0.1701
 9265SOL    HW239429   3.581   1.833   4.206  1.5716  0.0012 -0.3485
 9266SOL     OW39430   4.230   2.633   9.014  0.1012 -0.0540 -0.4493
 9266SOL    HW139431   4.188   2.675   9.089 -1.9323 -0.1674 -1.5074
 9266SOL    HW239432   4.173   2.651   8.939 -0.8102 -0.8869  0.0402
 9267SOL     OW39433   4.257   0.312   6.429 -0.2844 -0.1981 -0.5160
 9267SOL    HW139434   4.293   0.309   6.518 -3.3961  0.9273  0.7965
 9267SOL    HW239435   4.329   0.284   6.374  0.0866 -2.1265  0.9595
 9268SOL     OW39436   3.764   2.328  12.028  0.1502  0.5113 -0.2227
 9268SOL    HW139437   3.827   2.309  11.958 -0.4251  2.9405 -1.4068
 9268SOL    HW239438   3.680   2.310  11.986  0.6118  0.0973 -0.9611
 9269SOL     OW39439   1.004   1.929  14.608  0.2289 -0.6993  0.0512
 9269SOL    HW139440   0.939   1.894  14.547 -0.7171 -1.9227  1.7799
 9269SOL    HW239441   1.015   1.879  14.689  0.1518  1.2601  1.2712
 9270SOL     OW39442   4.694   2.030   0.653  0.1394 -0.9074  0.2458
 9270SOL    HW139443   4.617   2.053   0.705  0.3409 -0.3029  0.2733
 9270SOL    HW239444   4.706   2.103   0.593 -1.7367 -1.3362 -0.6619
 9271SOL     OW39445   1.307   4.048   4.440 -0.6094  0.6260  0.1973
 9271SOL    HW139446   1.238   3.993   4.402  0.4164  0.8506 -1.9852
 9271SOL    HW239447   1.374   3.982   4.459 -0.5708  0.1910 -1.4024
 9272SOL     OW39448   0.211   3.986  11.539  0.3386  0.5741  0.5827
 9272SOL    HW139449   0.238   4.061  11.485 -0.8995  1.2521  0.9235
 9272SOL    HW239450   0.128   4.010  11.579  0.1122  3.1718 -1.3618
 9273SOL     OW39451   0.255   1.546   9.079  0.2687  0.1013 -0.0298
 9273SOL    HW139452   0.285   1.594   9.156 -0.7502  0.3056  0.2345
 9273SOL    HW239453   0.164   1.574   9.075 -0.0892 -1.3397 -1.9405
 9274SOL     OW39454   3.000   4.078  17.186 -0.4443  0.7791 -0.3060
 9274SOL    HW139455   3.004   4.113  17.275 -1.8347  1.8194 -0.6486
 9274SOL    HW239456   3.091   4.074  17.157 -0.9464 -0.3556 -1.7358
 9275SOL     OW39457   3.186   1.614  14.985 -0.2403 -0.1842  0.7542
 9275SOL    HW139458   3.255   1.568  14.937 -1.4309 -1.3748  0.1919
 9275SOL    HW239459   3.130   1.541  15.012 -1.7875  0.1762 -1.5189
 9276SOL     OW39460   1.511   0.862   4.798  0.0462  0.4402 -0.0811
 9276SOL    HW139461   1.602   0.841   4.778  0.1916  1.2696 -0.2989
 9276SOL    HW239462   1.486   0.916   4.723 -1.4953  1.7536  1.3603
 9277SOL     OW39463   4.172   3.687   5.845 -0.4768  0.5022 -0.1170
 9277SOL    HW139464   4.112   3.670   5.918  1.1896  2.7202  1.7462
 9277SOL    HW239465   4.257   3.659   5.882  0.1186 -0.5234 -2.2635
 9278SOL     OW39466   3.928   1.358   3.033 -0.3349  0.0512 -0.2538
 9278SOL    HW139467   3.913   1.319   2.947 -3.1885  1.0962 -0.2347
 9278SOL    HW239468   4.002   1.418   3.023  0.6851 -1.4059 -1.4719
 9279SOL     OW39469   2.141   1.178   2.809 -0.4379 -0.6079 -0.6919
 9279SOL    HW139470   2.105   1.113   2.748  0.6335 -1.4325 -0.4648
 9279SOL    HW239471   2.076   1.247   2.820 -0.8042 -0.8418 -1.4235
 9280SOL     OW39472   3.556   0.041  11.540  0.2857 -0.2118 -0.9071
 9280SOL    HW139473   3.477   0.083  11.506 -1.6639 -1.6790  1.8283
 9280SOL    HW239474   3.551   4.707  11.476 -0.8517 -0.0649 -0.9909
 9281SOL     OW39475   1.222   1.041   8.474 -0.2978  0.1233 -0.3748
 9281SOL    HW139476   1.261   1.126   8.455  0.5152 -0.5120 -1.5609
 9281SOL    HW239477   1.282   1.015   8.543 -0.3158  0.4671 -0.2306
 9282SOL     OW39478   2.613   1.134   8.587 -0.0770  0.0477  0.4995
 9282SOL    HW139479   2.632   1.198   8.519  1.2349 -2.0846 -1.1284
 9282SOL    HW239480   2.667   1.063   8.553  0.6068  1.6314 -1.6793
 9283SOL     OW39481   0.132   4.270   5.693 -0.5217  0.0242  0.1540
 9283SOL    HW139482   0.163   4.360   5.707 -0.0334  0.3037 -2.8880
 9283SOL    HW239483   0.065   4.260   5.761 -0.1518  1.4286  0.7326
 9284SOL     OW39484   0.004   3.943   2.962 -0.7799 -0.3806  0.4757
 9284SOL    HW139485   0.029   3.991   3.041  0.7214  0.0146 -0.2449
 9284SOL    HW239486   4.659   3.901   2.987 -1.1624 -0.2699 -0.5999
 9285SOL     OW39487   0.162   4.432   6.108  0.3281  0.6662 -0.3952
 9285SOL    HW139488   0.181   4.519   6.144 -3.5527  1.4855 -0.4057
 9285SOL    HW239489   0.204   4.371   6.170  0.6848 -0.1522 -1.4339
 9286SOL     OW39490   3.433   1.296  11.493  0.2469 -0.0036  0.0596
 9286SOL    HW139491   3.448   1.239  11.569  0.9247 -1.0993 -0.9002
 9286SOL    HW239492   3.393   1.228  11.438  0.3085  0.3110 -0.3670
 9287SOL     OW39493   2.143   4.252   2.987  0.2154  0.4845 -0.1242
 9287SOL    HW139494   2.183   4.206   3.061 -0.3138  2.0484  1.1389
 9287SOL    HW239495   2.186   4.338   2.990 -2.3343  1.7653 -0.5735
 9288SOL     OW39496   0.650   4.155  13.781 -0.0415  0.2998  0.4050
 9288SOL    HW139497   0.601   4.115  13.709 -1.8181  0.6768  1.3962
 9288SOL    HW239498   0.587   4.179  13.849 -0.7531  1.2342 -0.5933
 9289SOL     OW39499   0.794   0.763   0.080 -0.1435  0.0404 -0.6874
 9289SOL    HW139500   0.741   0.721   0.148  1.7518 -0.9434  0.2050
 9289SOL    HW239501   0.881   0.725   0.099 -1.4661 -1.8392  1.6238
 9290SOL     OW39502   2.083   0.020   6.158  0.1998  0.2779 -0.3897
 9290SOL    HW139503   2.007   0.060   6.198 -1.3698 -1.9882 -1.1087
 9290SOL    HW239504   2.152   0.074   6.196  0.3037  0.1448 -0.3868
 9291SOL     OW39505   3.211   1.050   7.219  0.5508  0.1816  0.1639
 9291SOL    HW139506   3.145   1.004   7.168  1.5286 -0.3017 -0.6543
 9291SOL    HW239507   3.200   1.141   7.190 -0.3233  0.8956  2.6543
 9292SOL     OW39508   1.562   1.771   3.199 -0.1580 -0.1004  0.5811
 9292SOL    HW139509   1.586   1.680   3.186 -0.1090  0.1762 -1.2819
 9292SOL    HW239510   1.492   1.779   3.134  0.3894 -0.3795 -0.0438
 9293SOL     OW39511   4.696   1.864   7.063 -0.5130 -0.2863 -0.0257
 9293SOL    HW139512   0.035   1.809   7.042 -0.0637  0.6048 -0.6985
 9293SOL    HW239513   4.708   1.878   7.157 -0.9724  3.6297 -0.5526
 9294SOL     OW39514   3.398   1.679   3.322 -0.5825  0.4818  0.5950
 9294SOL    HW139515   3.455   1.662   3.397 -0.4428  2.8499  1.0127
 9294SOL    HW239516   3.457   1.728   3.264  0.3111  1.6931  2.5158
 9295SOL     OW39517   1.694   3.249  10.176 -0.3194  0.2637 -0.7512
 9295SOL    HW139518   1.737   3.286  10.253 -2.2224 -0.2743  0.6001
 9295SOL    HW239519   1.607   3.271  10.211 -0.8680 -2.2392 -0.4858
 9296SOL     OW39520   3.408   2.005   6.166 -0.7665 -0.1810 -0.5875
 9296SOL    HW139521   3.415   2.038   6.076 -1.7860  1.6977  0.0117
 9296SOL    HW239522   3.501   1.996   6.186 -0.5320  1.0357 -1.0644
 9297SOL     OW39523   3.865   0.891   6.637  0.2087  0.2276 -0.4954
 9297SOL    HW139524   3.859   0.796   6.634 -0.9172  0.2418  1.6556
 9297SOL    HW239525   3.791   0.910   6.695  0.7534  0.8908 -0.0104
 9298SOL     OW39526   4.205   0.538   3.747  0.3472  0.2726  0.1189
 9298SOL    HW139527   4.220   0.564   3.838  1.7227  2.4561 -0.7238
 9298SOL    HW239528   4.243   0.615   3.703 -0.7674  2.3346  2.7908
 9299SOL     OW39529   0.307   3.479  15.302 -0.0762 -0.6223 -0.4472
 9299SOL    HW139530   0.215   3.489  15.327 -0.0270 -0.4337 -0.3451
 9299SOL    HW239531   0.312   3.530  15.221 -0.2679 -0.3075 -0.2610
 9300SOL     OW39532   4.053   4.415   8.185 -0.1611  0.0788  0.1656
 9300SOL    HW139533   3.960   4.411   8.164 -0.3365 -0.7382  1.1098
 9300SOL    HW239534   4.098   4.429   8.102  1.5793  0.1614  1.1273
 9301SOL     OW39535   1.125   2.451   8.221  0.4836 -0.1091  0.2318
 9301SOL    HW139536   1.125   2.406   8.136 -0.7014  0.4191 -0.0510
 9301SOL    HW239537   1.061   2.396   8.266 -1.3784 -1.2951 -3.8491
 9302SOL     OW39538   3.447   3.413  17.103  0.3018 -0.2969  0.2354
 9302SOL    HW139539   3.353   3.431  17.100  0.0406 -1.3281  2.2069
 9302SOL    HW239540   3.475   3.492  17.148  1.1935  0.5130 -1.7184
 9303SOL     OW39541   4.703   1.995   4.587 -0.4085  0.3479 -0.3477
 9303SOL    HW139542   4.654   1.912   4.589 -1.4093  0.8949 -1.8826
 9303SOL    HW239543   0.053   1.955   4.587 -0.5713 -0.0148  1.3565
 9304SOL     OW39544   0.984   4.386   8.299  0.3097  1.1583 -0.0775
 9304SOL    HW139545   0.989   4.420   8.388  1.1721 -0.9876  0.7030
 9304SOL    HW239546   0.894   4.355   8.293  0.8326 -0.7049  1.4324
 9305SOL     OW39547   3.692   0.927  16.195 -0.0038 -0.5466 -0.1036
 9305SOL    HW139548   3.682   1.013  16.238  0.9898 -0.0434 -0.8877
 9305SOL    HW239549   3.743   0.958  16.120 -0.3945 -0.9958 -0.5514
 9306SOL     OW39550   2.984   3.514   3.690  0.2378  0.3008 -0.1448
 9306SOL    HW139551   2.890   3.515   3.671  0.0905  2.7706  0.7070
 9306SOL    HW239552   2.987   3.507   3.785  0.8381  2.6991  0.0026
 9307SOL     OW39553   3.658   0.224  16.096 -0.0790 -0.4812  0.1037
 9307SOL    HW139554   3.719   0.298  16.090  1.8742 -2.2248 -2.0037
 9307SOL    HW239555   3.679   0.185  16.011  0.1420  0.0349 -0.0777
 9308SOL     OW39556   0.115   3.699  16.837  0.6906 -0.4530 -0.0100
 9308SOL    HW139557   0.153   3.683  16.924 -0.8480 -1.0345  0.5485
 9308SOL    HW239558   0.024   3.677  16.855 -0.6959  4.1783 -1.3253
 9309SOL     OW39559   4.481   3.282   4.105 -0.7255 -0.3144  0.4701
 9309SOL    HW139560   4.494   3.191   4.131  1.4525 -0.4134 -0.9454
 9309SOL    HW239561   4.438   3.309   4.186  0.1996 -1.1818  1.2662
 9310SOL     OW39562   2.596   3.088  15.635  0.4551 -0.2111 -0.0483
 9310SOL    HW139563   2.557   3.106  15.549  0.8219  1.0335  0.0498
 9310SOL    HW239564   2.679   3.136  15.634  1.1337 -1.3808  0.6872
 9311SOL     OW39565   3.387   2.351  17.356  0.1199 -0.0027  0.2314
 9311SOL    HW139566   3.453   2.364  17.425  1.5888 -3.3253 -0.5363
 9311SOL    HW239567   3.426   2.281  17.304  2.8715  1.2566  0.5632
 9312SOL     OW39568   0.853   0.373  10.829  0.3067 -0.6252  0.4116
 9312SOL    HW139569   0.769   0.347  10.792  1.4942 -0.9396 -2.0859
 9312SOL    HW239570   0.904   0.386  10.749 -0.0902 -2.4246 -0.1321
 9313SOL     OW39571   2.494   3.963   2.498 -0.2010 -0.0534 -0.8666
 9313SOL    HW139572   2.431   3.895   2.474  0.8777 -1.6774  0.9099
 9313SOL    HW239573   2.440   4.040   2.514 -0.3566 -0.5485  0.9031
 9314SOL     OW39574   4.051   4.473   1.768 -0.3297 -0.6759 -0.3747
 9314SOL    HW139575   3.957   4.467   1.757 -0.2839 -0.5387 -0.8471
 9314SOL    HW239576   4.072   4.381   1.785 -1.8733 -1.1884 -1.2975
 9315SOL     OW39577   3.755   3.453   7.877 -0.3655  0.5315  0.1182
 9315SOL    HW139578   3.835   3.416   7.840 -1.7904  0.6209 -3.0362
 9315SOL    HW239579   3.788   3.494   7.957 -0.2063  1.3641 -0.3812
 9316SOL     OW39580   2.596   2.313   4.008  0.0502 -0.0391  0.2249
 9316SOL    HW139581   2.572   2.328   3.917 -0.0824  1.0589  0.4363
 9316SOL    HW239582   2.658   2.242   3.994 -0.6468  0.0193 -3.0997
 9317SOL     OW39583   2.049   0.110   8.101 -0.0116  0.2131  0.4522
 9317SOL    HW139584   2.028   0.032   8.049  1.6974 -0.2367  0.4223
 9317SOL    HW239585   2.129   0.132   8.054  0.5243 -0.6671  0.9469
 9318SOL     OW39586   0.518   0.496   2.047  0.6072 -0.0229 -0.0855
 9318SOL    HW139587   0.486   0.585   2.055 -2.7980 -1.1855 -0.6300
 9318SOL    HW239588   0.453   0.460   1.986  0.5375 -0.1945  0.0889
 9319SOL     OW39589   1.207   3.798   8.083 -0.4289  0.4193 -0.2603
 9319SOL    HW139590   1.229   3.833   7.997  0.4385 -0.6607 -0.4685
 9319SOL    HW239591   1.244   3.867   8.138  0.6312 -1.7105  1.7028
 9320SOL     OW39592   1.713   4.651   4.218 -0.7251  0.4458  0.4272
 9320SOL    HW139593   1.712   4.651   4.314  1.8877 -0.8061  0.4467
 9320SOL    HW239594   1.632   4.699   4.201 -1.1993 -0.2040  0.8528
 9321SOL     OW39595   3.502   1.317   3.554 -0.0137 -0.1958  0.4723
 9321SOL    HW139596   3.423   1.267   3.530  0.0851  0.3959 -1.1032
 9321SOL    HW239597   3.563   1.248   3.579 -1.9388 -1.5424  1.4806
 9322SOL     OW39598   3.811   2.761   1.752 -0.4420 -0.0235 -0.1557
 9322SOL    HW139599   3.740   2.763   1.816 -2.4801 -0.8208 -2.3738
 9322SOL    HW239600   3.876   2.725   1.812  0.9086  0.2274 -1.4663
 9323SOL     OW39601   4.174   0.025   7.936 -0.1561  0.4519 -0.1370
 9323SOL    HW139602   4.152   0.075   7.857 -0.7411 -1.1867 -1.0226
 9323SOL    HW239603   4.269   0.028   7.940  0.0663 -0.5849 -4.2145
 9324SOL     OW39604   1.706   4.736   6.755 -0.3274  0.2536 -0.0654
 9324SOL    HW139605   1.756   4.731   6.837  0.4481 -0.5566 -0.5890
 9324SOL    HW239606   1.695   4.644   6.730  1.9808 -0.6417  2.1881
 9325SOL     OW39607   1.869   2.286   6.753 -0.0169 -0.0189  0.2602
 9325SOL    HW139608   1.939   2.241   6.800  0.6727  0.4835 -0.2831
 9325SOL    HW239609   1.793   2.268   6.809 -2.5030  2.4635 -2.2666
 9326SOL     OW39610   2.091   3.946   2.701 -0.2383  0.2881  0.0234
 9326SOL    HW139611   2.175   3.900   2.696 -0.1203  0.6816 -1.4307
 9326SOL    HW239612   2.027   3.905   2.643  3.6699  0.2612 -4.2194
 9327SOL     OW39613   1.031   4.113  15.636 -0.1701  0.0653 -0.4403
 9327SOL    HW139614   1.054   4.024  15.665 -1.8671 -0.7423 -1.5961
 9327SOL    HW239615   1.081   4.160  15.703  0.9942 -1.3283 -0.3017
 9328SOL     OW39616   0.384   1.058   2.264  0.1853  0.2822  0.0888
 9328SOL    HW139617   0.389   1.054   2.168 -0.3894  2.2586 -0.0237
 9328SOL    HW239618   0.420   1.144   2.287 -3.1773  2.2244 -1.8867
 9329SOL     OW39619   2.898   1.940   4.804 -0.2503 -0.0288  0.6455
 9329SOL    HW139620   2.960   1.993   4.754  0.6267 -0.3864  1.3258
 9329SOL    HW239621   2.927   1.856   4.766 -1.1730 -0.1013  0.1235
 9330SOL     OW39622   0.594   1.547   0.937 -0.1033  0.3646 -0.0795
 9330SOL    HW139623   0.511   1.535   0.890 -0.3292 -0.3087  0.4933
 9330SOL    HW239624   0.641   1.613   0.886 -0.3853 -1.7229 -3.0000
 9331SOL     OW39625   2.753   1.930   9.084  0.3148  0.2800 -0.0465
 9331SOL    HW139626   2.788   1.954   9.170 -1.8256  1.3300  0.5142
 9331SOL    HW239627   2.700   1.855   9.111  1.2266  0.0512  1.1133
 9332SOL     OW39628   3.040   3.424  12.056  0.3272  0.0456  0.3134
 9332SOL    HW139629   3.116   3.471  12.023 -1.0428  0.3936 -2.3130
 9332SOL    HW239630   3.085   3.347  12.090 -2.4562 -1.5652  0.3545
 9333SOL     OW39631   2.364   4.479   5.300  0.1032 -0.1339 -0.1469
 9333SOL    HW139632   2.445   4.526   5.280 -0.4545  0.5011 -0.9327
 9333SOL    HW239633   2.365   4.405   5.238  3.2309 -0.2476  0.0286
 9334SOL     OW39634   3.163   0.277  15.043  0.0528  0.6833 -0.0403
 9334SOL    HW139635   3.249   0.304  15.009 -1.0960  1.6596 -2.1463
 9334SOL    HW239636   3.172   0.182  15.033 -0.6070  0.6238 -0.0566
 9335SOL     OW39637   1.764   1.460  15.503  0.5924 -0.3086  0.0911
 9335SOL    HW139638   1.697   1.394  15.486  0.1220 -0.0512  0.8988
 9335SOL    HW239639   1.794   1.462  15.412 -0.1848  0.7157 -0.1380
 9336SOL     OW39640   3.847   3.933  12.228 -0.2775  0.3247 -0.1605
 9336SOL    HW139641   3.886   3.862  12.279  2.3361  1.7790 -0.1718
 9336SOL    HW239642   3.890   3.941  12.143 -1.8135  0.6339 -0.8986
 9337SOL     OW39643   1.929   1.957   5.076  0.7911 -0.0812 -0.1594
 9337SOL    HW139644   1.984   1.901   5.132 -0.3872 -1.2580 -0.1815
 9337SOL    HW239645   1.971   2.043   5.087 -2.8412  1.2787  3.1004
 9338SOL     OW39646   3.061   3.992   5.514 -0.0344 -0.1415  0.3726
 9338SOL    HW139647   3.015   3.933   5.454 -1.6909  3.6373 -2.0510
 9338SOL    HW239648   3.026   4.076   5.486  2.8431  0.9744  0.1349
 9339SOL     OW39649   0.498   2.419   5.738  0.0008 -0.3118 -0.3923
 9339SOL    HW139650   0.407   2.420   5.708  0.0755  1.0311 -0.5545
 9339SOL    HW239651   0.486   2.343   5.795  2.0508  1.0801  1.9350
 9340SOL     OW39652   0.316   4.502   7.991 -0.6809  0.4179  0.0008
 9340SOL    HW139653   0.239   4.461   7.951 -1.4129  1.0964  0.7278
 9340SOL    HW239654   0.275   4.569   8.046 -0.8773 -0.4195  0.8934
 9341SOL     OW39655   0.275   2.001   2.180 -0.4529  0.2479  0.1314
 9341SOL    HW139656   0.271   2.094   2.161 -1.5355  0.4512  1.3752
 9341SOL    HW239657   0.184   1.972   2.174 -0.2338 -0.2348 -0.9639
 9342SOL     OW39658   0.248   4.459   1.930  1.0441 -0.3663 -0.3799
 9342SOL    HW139659   0.242   4.441   2.023  1.6569 -0.2542 -0.3183
 9342SOL    HW239660   0.302   4.537   1.935  0.1005  0.3054 -0.6193
 9343SOL     OW39661   4.604   0.767   8.178 -0.4058 -0.3185 -0.6870
 9343SOL    HW139662   4.609   0.682   8.133  1.9691 -0.3289 -0.3990
 9343SOL    HW239663   4.577   0.740   8.266  0.8621 -1.2970 -0.6042
 9344SOL     OW39664   3.924   1.060   1.982  0.1893 -0.0653 -0.1530
 9344SOL    HW139665   3.843   1.103   1.955 -0.6250 -1.7175 -0.2976
 9344SOL    HW239666   3.923   0.982   1.926  1.3364  0.1192 -0.4311
 9345SOL     OW39667   0.683   0.068   5.982  0.0965 -0.0801  0.7322
 9345SOL    HW139668   0.676   4.733   5.918  1.4337  1.0930 -0.7400
 9345SOL    HW239669   0.729   0.125   5.921 -1.4930 -2.0926 -2.4016
 9346SOL     OW39670   3.801   3.731   9.005 -0.3481  0.3488 -0.2340
 9346SOL    HW139671   3.804   3.643   9.043  0.6848  0.4035 -0.1763
 9346SOL    HW239672   3.707   3.746   9.011 -0.4909  0.3349 -2.5657
 9347SOL     OW39673   1.801   4.372   8.277 -0.6389 -0.5805  0.2879
 9347SOL    HW139674   1.844   4.356   8.361  0.9964  3.0694  0.1877
 9347SOL    HW239675   1.850   4.301   8.236 -1.5491 -0.1745 -1.4899
 9348SOL     OW39676   4.070   4.368  17.565 -0.3195 -0.0606  0.6681
 9348SOL    HW139677   3.981   4.345  17.593 -0.1654 -0.3062  0.9474
 9348SOL    HW239678   4.097   4.417  17.642  0.2711 -0.8499  0.9575
 9349SOL     OW39679   2.054   4.358   9.115  0.3501  0.5266  0.2433
 9349SOL    HW139680   2.091   4.350   9.203 -2.7046 -0.8905  1.4171
 9349SOL    HW239681   2.131   4.329   9.067  1.7374  1.2325  2.0235
 9350SOL     OW39682   1.194   2.454   4.352 -0.2191  0.1546  0.0699
 9350SOL    HW139683   1.165   2.531   4.302 -0.6795 -0.3610 -0.4715
 9350SOL    HW239684   1.286   2.471   4.369 -0.8743  1.9484  1.8297
 9351SOL     OW39685   2.669   0.031  15.160 -0.6476  0.1926  1.2128
 9351SOL    HW139686   2.760   0.014  15.135 -0.2661  2.6659  0.9447
 9351SOL    HW239687   2.636   0.058  15.075 -0.0889 -1.8040  0.3555
 9352SOL     OW39688   1.232   3.407   1.553  0.7993  0.1766 -0.0975
 9352SOL    HW139689   1.309   3.412   1.496 -0.3001 -0.3973 -1.6361
 9352SOL    HW239690   1.181   3.476   1.511  1.3365  0.2136 -0.6914
 9353SOL     OW39691   1.606   0.279   3.381 -0.2024 -0.6621  0.1929
 9353SOL    HW139692   1.622   0.333   3.459  2.6022 -0.0126 -0.8460
 9353SOL    HW239693   1.661   0.203   3.399  0.3258 -0.3182  0.0207
 9354SOL     OW39694   3.957   0.382   9.024 -0.1694  0.1869  0.2926
 9354SOL    HW139695   3.973   0.465   8.978 -2.1222  0.9124  0.9031
 9354SOL    HW239696   3.990   0.317   8.962  1.1904  0.6529  0.5258
 9355SOL     OW39697   0.428   0.463  10.188  0.4551 -0.2401 -0.0670
 9355SOL    HW139698   0.381   0.480  10.270  1.3106  2.4052 -0.1255
 9355SOL    HW239699   0.495   0.531  10.196  0.8257 -0.7531  1.1977
 9356SOL     OW39700   2.384   3.481  11.312  0.5973  0.2222 -0.3235
 9356SOL    HW139701   2.430   3.400  11.335  0.6322  0.3700  0.1273
 9356SOL    HW239702   2.332   3.450  11.237  0.0068  0.3890  0.0159
 9357SOL     OW39703   2.411   0.623   3.187 -0.2160 -0.3454  0.9053
 9357SOL    HW139704   2.419   0.711   3.223 -1.0413  0.2112 -0.2692
 9357SOL    HW239705   2.458   0.566   3.248  1.1107 -1.0635 -0.7719
 9358SOL     OW39706   0.967   0.467   5.882  0.6201 -0.3189 -0.3040
 9358SOL    HW139707   0.883   0.435   5.915  0.5872 -0.7668 -0.8098
 9358SOL    HW239708   0.954   0.560   5.899  2.0341 -0.1741 -0.0396
 9359SOL     OW39709   0.579   1.218   7.023 -0.7200 -0.0997  0.1916
 9359SOL    HW139710   0.672   1.205   7.007 -0.4577  0.0279  1.6335
 9359SOL    HW239711   0.548   1.127   7.021  0.5250 -0.4996 -0.6372
 9360SOL     OW39712   0.560   4.202   4.851  0.4137  0.6083  0.1096
 9360SOL    HW139713   0.531   4.198   4.760 -1.2859  0.0681  0.6739
 9360SOL    HW239714   0.474   4.213   4.892 -0.0566 -1.8555 -0.2340
 9361SOL     OW39715   1.091   4.032   9.025 -0.1256 -0.3609  0.1311
 9361SOL    HW139716   1.160   3.994   9.079  2.3620  1.4910 -1.7513
 9361SOL    HW239717   1.014   3.986   9.057 -1.5958  0.4272 -2.2471
 9362SOL     OW39718   3.811   3.600   5.439  0.0040  0.0371  0.3974
 9362SOL    HW139719   3.901   3.608   5.468  0.5228  1.1219 -1.4864
 9362SOL    HW239720   3.828   3.564   5.352  0.8733  1.2417  0.0651
 9363SOL     OW39721   1.509   1.064   0.172 -0.1074  0.0608 -0.0458
 9363SOL    HW139722   1.536   1.108   0.254  0.2943 -0.1134 -0.0860
 9363SOL    HW239723   1.596   1.062   0.132  0.6503  1.7919  1.4578
 9364SOL     OW39724   0.831   1.140  16.729 -0.2588  0.1877 -0.0387
 9364SOL    HW139725   0.901   1.118  16.791 -0.0220 -0.5010 -0.5546
 9364SOL    HW239726   0.865   1.208  16.670 -2.8254  2.3678  1.0141
 9365SOL     OW39727   2.526   2.078   2.634 -0.3334  0.0181  0.3502
 9365SOL    HW139728   2.592   2.031   2.684  0.3773 -0.8536 -1.4072
 9365SOL    HW239729   2.564   2.164   2.649 -0.9665  0.1219  1.3907
 9366SOL     OW39730   3.992   2.707   8.866  0.1411  0.1192  0.2272
 9366SOL    HW139731   3.898   2.716   8.852 -0.2367 -0.1750  2.6033
 9366SOL    HW239732   4.020   2.786   8.819 -1.0145 -0.6883 -1.7734
 9367SOL     OW39733   4.427   3.682   6.559  0.1660  0.3876 -0.1025
 9367SOL    HW139734   4.512   3.703   6.599  1.3008 -1.1560 -1.6820
 9367SOL    HW239735   4.445   3.594   6.527  0.7819 -0.3849  2.4049
 9368SOL     OW39736   1.939   2.185   8.432  0.8497  0.3599  0.2318
 9368SOL    HW139737   2.009   2.227   8.480  0.7612 -0.3530  0.9891
 9368SOL    HW239738   1.978   2.111   8.385  2.1813  0.6095  0.9571
 9369SOL     OW39739   4.392   1.881   0.259  0.4847 -0.0693  0.7628
 9369SOL    HW139740   4.357   1.817   0.321 -0.4953 -0.6582 -0.3960
 9369SOL    HW239741   4.471   1.830   0.242  0.4291  0.7182 -1.8799
 9370SOL     OW39742   3.606   0.671  16.072  0.2789 -0.1386  0.0035
 9370SOL    HW139743   3.516   0.679  16.042  0.3552  1.7156  0.2773
 9370SOL    HW239744   3.613   0.754  16.118 -0.8591  0.2518 -0.5248
 9371SOL     OW39745   0.410   3.012   0.935  0.5959 -0.2790 -0.3454
 9371SOL    HW139746   0.341   3.079   0.936  0.3911 -0.4416 -4.1029
 9371SOL    HW239747   0.359   2.939   0.901 -0.2855  1.0806 -1.9629
 9372SOL     OW39748   2.208   0.828   4.655  0.4576 -0.0524  0.7686
 9372SOL    HW139749   2.123   0.790   4.633  0.3249  0.3021  0.6739
 9372SOL    HW239750   2.273   0.762   4.631  0.5953  0.2980  0.1640
 9373SOL     OW39751   1.999   1.654   4.030  0.3418  0.4282  0.5717
 9373SOL    HW139752   2.049   1.575   4.048  0.3424 -0.1004 -1.8419
 9373SOL    HW239753   1.908   1.627   4.020  0.4957  0.7120 -1.5502
 9374SOL     OW39754   2.060   3.440   2.660 -0.0280 -0.3050 -0.3810
 9374SOL    HW139755   2.075   3.401   2.746 -1.1219 -0.6462 -0.3450
 9374SOL    HW239756   2.017   3.522   2.684  1.4271  0.7294 -1.2432
 9375SOL     OW39757   4.048   3.478   9.903  0.4938  0.1853 -0.1183
 9375SOL    HW139758   4.139   3.455   9.886  1.1322  2.3046  0.4582
 9375SOL    HW239759   4.041   3.435   9.988  0.8059  0.2711 -0.0527
 9376SOL     OW39760   4.695   3.278   5.902  0.3222 -0.4985 -0.0667
 9376SOL    HW139761   0.053   3.289   5.890  0.3652 -0.3905  0.3557
 9376SOL    HW239762   4.661   3.333   5.832 -1.0537  0.7072  1.5603
 9377SOL     OW39763   2.364   2.101   7.105 -0.2870  0.3553 -0.8086
 9377SOL    HW139764   2.370   2.180   7.157 -2.7303 -0.8372  1.2610
 9377SOL    HW239765   2.349   2.039   7.177  0.2031  1.1745 -0.0070
 9378SOL     OW39766   3.806   4.655  16.208 -0.3253  0.2407  0.0174
 9378SOL    HW139767   3.891   4.634  16.169 -0.3876  0.2505 -0.1232
 9378SOL    HW239768   3.830   4.712  16.280  0.3223  2.7445 -2.1978
 9379SOL     OW39769   3.805   3.626   9.940 -0.4167  0.5330 -1.0963
 9379SOL    HW139770   3.795   3.604  10.032 -0.8217 -0.3242 -1.3500
 9379SOL    HW239771   3.896   3.601   9.921 -0.2994  0.9085 -1.0324
 9380SOL     OW39772   2.445   2.274   1.161  0.2559 -0.3050  0.0290
 9380SOL    HW139773   2.491   2.246   1.081 -1.0824 -1.4564 -0.3346
 9380SOL    HW239774   2.365   2.222   1.163 -0.7198  1.2205  0.3826
 9381SOL     OW39775   1.436   3.449   5.511  0.6088  0.0437 -0.0534
 9381SOL    HW139776   1.448   3.515   5.442 -2.5535  0.5707 -0.1087
 9381SOL    HW239777   1.393   3.379   5.460 -0.5322  0.1627  0.7447
 9382SOL     OW39778   0.912   3.359   1.886 -0.3179  0.7698  0.4173
 9382SOL    HW139779   0.880   3.297   1.821  0.6708 -2.1154  2.6833
 9382SOL    HW239780   0.900   3.306   1.965 -1.0226  1.0326  0.4881
 9383SOL     OW39781   0.035   2.969   7.806 -0.1908 -0.0534 -0.1058
 9383SOL    HW139782   0.111   2.913   7.822  0.5620  1.0599  0.1647
 9383SOL    HW239783   4.730   2.899   7.756 -0.7721  0.1615  0.0806
 9384SOL     OW39784   2.737   2.780   2.658  0.4240  0.0616 -0.1285
 9384SOL    HW139785   2.659   2.725   2.658  1.9859 -2.1566  0.8908
 9384SOL    HW239786   2.695   2.865   2.645 -1.2934 -0.5301  1.5451
 9385SOL     OW39787   1.650   3.774   7.104  0.2597  0.1439 -0.2066
 9385SOL    HW139788   1.620   3.716   7.034 -2.6022  0.7108  0.5486
 9385SOL    HW239789   1.692   3.846   7.057  1.0977 -0.0261  0.2827
 9386SOL     OW39790   3.438   4.035   4.130  0.4911  0.1946 -0.4393
 9386SOL    HW139791   3.384   4.002   4.058 -0.9772  3.1634 -0.6639
 9386SOL    HW239792   3.512   4.079   4.088 -0.1693  3.4038  1.7771
 9387SOL     OW39793   4.050   0.849   1.810 -0.2722 -0.2177  0.2657
 9387SOL    HW139794   4.125   0.789   1.808 -0.9004 -0.9531 -1.4260
 9387SOL    HW239795   4.101   0.930   1.812  0.6775 -0.8795  2.5201
 9388SOL     OW39796   1.960   0.537   8.958  0.0885  0.6102  0.0372
 9388SOL    HW139797   1.958   0.487   8.876 -0.0725  0.0631  0.3721
 9388SOL    HW239798   1.967   0.629   8.932 -0.8541  1.2969  2.2260
 9389SOL     OW39799   0.745   0.899   4.120  0.1656  0.8875 -0.0678
 9389SOL    HW139800   0.789   0.936   4.197  0.5906 -1.2694  0.7208
 9389SOL    HW239801   0.747   0.804   4.132 -1.1823  0.6750 -1.5415
 9390SOL     OW39802   0.453   1.879   4.110 -0.2506  0.1740  0.2651
 9390SOL    HW139803   0.429   1.948   4.048 -1.9077  1.2015  2.0532
 9390SOL    HW239804   0.382   1.816   4.104 -0.0429  0.1280 -1.8547
 9391SOL     OW39805   3.720   0.378   8.170 -0.4379  0.0520  0.1488
 9391SOL    HW139806   3.702   0.295   8.125 -0.3611  0.1486 -0.0587
 9391SOL    HW239807   3.814   0.366   8.187 -0.4401 -0.9209 -0.5389
 9392SOL     OW39808   2.082   4.117   7.915  0.1324 -0.0851  0.3255
 9392SOL    HW139809   2.005   4.061   7.900  0.0268  0.6633 -2.0179
 9392SOL    HW239810   2.154   4.055   7.907 -0.0068 -0.4860  2.2327
 9393SOL     OW39811   1.459   3.046  17.267  0.4605 -0.5021 -0.1679
 9393SOL    HW139812   1.543   3.076  17.233  0.6450 -0.4602  0.3168
 9393SOL    HW239813   1.453   3.101  17.346  0.0950 -2.0559  0.8947
 9394SOL     OW39814   1.483   4.436   2.063  0.7334 -0.1960 -0.3735
 9394SOL    HW139815   1.416   4.375   2.032  2.4082 -1.4988 -1.4635
 9394SOL    HW239816   1.536   4.386   2.125 -1.1220  0.0351  1.3616
 9395SOL     OW39817   4.138   1.239   2.048  0.2938 -0.3257  0.1043
 9395SOL    HW139818   4.067   1.176   2.037  0.2142 -0.4861  1.4842
 9395SOL    HW239819   4.123   1.265   2.139 -1.7277 -0.6005 -0.1574
 9396SOL     OW39820   4.382   3.040   5.867  0.0885  0.5238  0.5560
 9396SOL    HW139821   4.401   3.119   5.817 -2.5547  0.4985 -0.4782
 9396SOL    HW239822   4.287   3.046   5.865  0.1050  1.0243  1.6980
 9397SOL     OW39823   3.054   3.442   4.835 -0.2884  1.0552 -0.1943
 9397SOL    HW139824   3.046   3.489   4.752 -0.6235 -0.6045 -1.0930
 9397SOL    HW239825   3.100   3.509   4.885  0.6224  3.7389 -4.6166
 9398SOL     OW39826   1.314   0.721   9.337 -0.2903 -0.0195  0.1982
 9398SOL    HW139827   1.394   0.743   9.384  0.1657  0.8840 -0.9918
 9398SOL    HW239828   1.312   0.625   9.341  0.6768 -0.0804 -0.7449
 9399SOL     OW39829   1.095   1.932   5.096 -0.0289  0.7946 -0.4446
 9399SOL    HW139830   1.112   1.989   5.021  0.9910 -1.0381 -1.6137
 9399SOL    HW239831   1.000   1.930   5.085  0.0092  2.3715 -1.1073
 9400SOL     OW39832   3.243   2.669   7.597 -0.0194 -0.5106  0.4908
 9400SOL    HW139833   3.160   2.701   7.634 -0.5847 -1.1022 -0.2796
 9400SOL    HW239834   3.296   2.722   7.656  2.4567 -1.5648 -0.8063
 9401SOL     OW39835   1.905   2.603   7.021  0.0792 -0.0785  0.9134
 9401SOL    HW139836   1.815   2.575   7.041  0.4507 -1.2330  0.9970
 9401SOL    HW239837   1.924   2.556   6.940  2.3821 -3.1753  3.2444
 9402SOL     OW39838   2.585   3.622   7.876  0.4961  0.1147  0.0264
 9402SOL    HW139839   2.489   3.620   7.876  0.5574 -2.6279  1.7552
 9402SOL    HW239840   2.597   3.535   7.839  3.6065 -0.2097  1.7874
 9403SOL     OW39841   1.325   2.758   1.147  0.1954  0.1906  0.2030
 9403SOL    HW139842   1.251   2.817   1.130  0.1511 -0.3078 -1.3364
 9403SOL    HW239843   1.394   2.810   1.106 -1.3574  1.6063 -0.6490
 9404SOL     OW39844   1.079   0.705  13.093 -0.4194  0.0936  0.3130
 9404SOL    HW139845   1.152   0.690  13.152 -1.0788 -1.2782  0.7876
 9404SOL    HW239846   1.114   0.764  13.026 -0.1205 -1.1920 -0.6765
 9405SOL     OW39847   3.711   2.412   2.610 -0.2382  0.1759 -0.0854
 9405SOL    HW139848   3.653   2.344   2.578 -0.7203  0.5799 -0.0817
 9405SOL    HW239849   3.767   2.353   2.660 -0.2791 -1.0286 -1.4742
 9406SOL     OW39850   4.552   2.243   4.268 -0.3138 -0.0556  0.3408
 9406SOL    HW139851   4.489   2.314   4.261  1.2805  1.0362 -2.6981
 9406SOL    HW239852   4.624   2.271   4.212  0.3853  2.2265  2.3557
 9407SOL     OW39853   3.152   3.402  11.778 -0.0084  0.1348 -0.7324
 9407SOL    HW139854   3.213   3.459  11.824 -1.5322  1.0285  0.1879
 9407SOL    HW239855   3.222   3.338  11.770 -2.2168 -2.2767 -0.7605
 9408SOL     OW39856   3.024   4.229   7.072  0.4523  0.4845 -0.5784
 9408SOL    HW139857   3.086   4.216   7.143  0.3122 -0.7737 -0.6941
 9408SOL    HW239858   3.018   4.139   7.042  1.3804  0.2126  0.0521
 9409SOL     OW39859   0.422   3.217  12.542  0.3639 -0.1335  0.0980
 9409SOL    HW139860   0.413   3.144  12.481  0.4121 -1.7291  2.0061
 9409SOL    HW239861   0.360   3.281  12.506  0.4232  0.0274  0.2820
 9410SOL     OW39862   2.930   0.935   6.439 -0.4313 -0.5655  0.2400
 9410SOL    HW139863   2.998   0.868   6.436 -2.3942 -2.5528 -0.8588
 9410SOL    HW239864   2.908   0.945   6.346 -0.6059 -1.4471  0.1777
 9411SOL     OW39865   3.410   0.435   9.850  0.0676 -0.3915 -0.0610
 9411SOL    HW139866   3.361   0.429   9.768  0.4203  0.9668 -0.3740
 9411SOL    HW239867   3.432   0.345   9.876  2.0729 -0.0365 -0.5705
 9412SOL     OW39868   3.956   2.510   7.834 -0.2209  0.3738 -0.2962
 9412SOL    HW139869   4.039   2.550   7.808 -1.1976  1.5396 -1.5778
 9412SOL    HW239870   3.985   2.424   7.863 -1.1459  0.9506  2.2799
 9413SOL     OW39871   3.851   0.652   4.830  0.3034 -0.3331  0.3924
 9413SOL    HW139872   3.802   0.577   4.796 -0.6030  0.0175  0.9155
 9413SOL    HW239873   3.943   0.629   4.819 -0.1705 -2.1020  0.1895
 9414SOL     OW39874   0.796   0.416   7.499  0.1137  0.3060  0.2545
 9414SOL    HW139875   0.811   0.501   7.457  0.7879  0.4166  0.7106
 9414SOL    HW239876   0.878   0.416   7.548  1.4115 -3.8461 -1.9644
 9415SOL     OW39877   3.937   1.341   7.386  0.2175 -0.1721 -0.1313
 9415SOL    HW139878   4.014   1.384   7.422  1.5491 -2.3935 -0.2927
 9415SOL    HW239879   3.955   1.315   7.296  2.3714  0.1450  0.2111
 9416SOL     OW39880   1.127   2.570   3.449  0.0344 -0.8281  0.0611
 9416SOL    HW139881   1.115   2.537   3.538  2.2122  0.9782  1.0325
 9416SOL    HW239882   1.055   2.531   3.400  0.8629 -0.1843 -1.6623
 9417SOL     OW39883   1.555   2.264   5.200  0.2583  0.4105  0.0678
 9417SOL    HW139884   1.593   2.221   5.124 -0.4398  1.5876 -0.9504
 9417SOL    HW239885   1.486   2.311   5.153 -1.5263 -1.7230  0.5731
 9418SOL     OW39886   4.044   2.374   3.324  0.2523 -0.1588  0.3797
 9418SOL    HW139887   4.109   2.395   3.391 -0.5923  2.0361  0.4948
 9418SOL    HW239888   3.968   2.415   3.364  0.1765 -1.6133  1.7127
 9419SOL     OW39889   3.802   1.908   5.217  0.0269  0.1215  0.4486
 9419SOL    HW139890   3.812   1.990   5.265 -2.4315  0.9298 -0.4675
 9419SOL    HW239891   3.849   1.847   5.274 -0.6495 -0.9020 -0.0982
 9420SOL     OW39892   0.502   0.424   4.699 -0.3480  0.1186 -0.6567
 9420SOL    HW139893   0.544   0.338   4.702  3.3903  1.9978  0.6404
 9420SOL    HW239894   0.506   0.438   4.793 -0.1769  2.1946 -0.9762
 9421SOL     OW39895   0.466   2.541  16.238  0.7017  0.0415 -0.1693
 9421SOL    HW139896   0.491   2.510  16.152  0.1293 -0.8489 -0.0138
 9421SOL    HW239897   0.371   2.526  16.241  1.0075 -1.9134 -0.6528
 9422SOL     OW39898   1.630   2.650   1.001 -0.1777 -0.1335 -0.1624
 9422SOL    HW139899   1.597   2.739   1.010  0.2835 -0.2684  2.8527
 9422SOL    HW239900   1.610   2.609   1.085  0.2959 -2.9074 -1.3946
 9423SOL     OW39901   0.637   2.668  12.053  0.2120  0.3092 -0.3971
 9423SOL    HW139902   0.714   2.723  12.036 -0.1811  1.5940  2.1313
 9423SOL    HW239903   0.643   2.606  11.980  2.0729 -0.1170  0.1058
 9424SOL     OW39904   1.076   3.446   4.492  0.7868  0.5397  0.5821
 9424SOL    HW139905   1.009   3.460   4.426 -0.1109 -2.4046  0.8883
 9424SOL    HW239906   1.037   3.380   4.549 -0.6624  0.5900 -0.3474
 9425SOL     OW39907   3.101   2.979   1.178 -0.1462 -0.3668  0.3202
 9425SOL    HW139908   3.135   2.970   1.089 -0.2613  0.3472  0.2065
 9425SOL    HW239909   3.067   2.889   1.183 -0.7211 -0.2519 -1.5746
 9426SOL     OW39910   4.041   0.306   4.030  0.7211 -0.4973 -0.5340
 9426SOL    HW139911   4.020   0.398   4.013 -0.1935 -0.9513 -1.8219
 9426SOL    HW239912   3.954   0.274   4.008  0.1303  0.9183 -0.2850
 9427SOL     OW39913   4.672   1.690   3.656  0.0604 -0.2112 -0.1322
 9427SOL    HW139914   4.708   1.658   3.738  1.2314  0.1309 -0.5075
 9427SOL    HW239915   4.722   1.769   3.640 -0.9409  1.2557  4.1522
 9428SOL     OW39916   2.212   1.562   7.988  0.4762 -0.4802  0.1778
 9428SOL    HW139917   2.256   1.501   7.928  0.8292 -0.6320  0.5915
 9428SOL    HW239918   2.127   1.523   8.009 -0.1731  0.0947 -1.3446
 9429SOL     OW39919   0.001   1.014   8.225  0.5226 -0.4131  0.1036
 9429SOL    HW139920   0.095   1.006   8.243  0.1423 -3.7045  0.6299
 9429SOL    HW239921   4.713   0.922   8.233 -0.5241 -0.1915 -0.6722
 9430SOL     OW39922   1.426   2.193   4.395  0.1729 -0.1664  0.2697
 9430SOL    HW139923   1.434   2.187   4.490  1.3210 -0.8154  0.1305
 9430SOL    HW239924   1.332   2.193   4.373  0.6088 -0.2424 -1.6298
 9431SOL     OW39925   3.007   2.288   9.099  0.1639  0.5689  0.6262
 9431SOL    HW139926   2.924   2.257   9.062  0.8204 -1.7932  1.1061
 9431SOL    HW239927   3.051   2.205   9.120 -2.2398 -0.8476  0.1239
 9432SOL     OW39928   2.006   1.978   9.265 -0.3474 -0.2035 -0.1393
 9432SOL    HW139929   2.017   2.052   9.324 -0.2721  1.0890 -1.7500
 9432SOL    HW239930   1.981   1.909   9.326 -1.4173 -1.7081 -2.2632
 9433SOL     OW39931   1.145   0.170   6.129  0.0006 -0.6833 -0.3084
 9433SOL    HW139932   1.125   0.262   6.112  0.3640 -0.5705 -0.1111
 9433SOL    HW239933   1.240   0.179   6.124  0.0174 -1.1342 -0.7770
 9434SOL     OW39934   0.555   2.159   5.823 -0.5107 -0.4735  0.3424
 9434SOL    HW139935   0.584   2.148   5.732 -0.3070  2.5200  0.0306
 9434SOL    HW239936   0.634   2.155   5.877  0.3606  0.2845 -0.8631
 9435SOL     OW39937   4.635   3.911   5.217  0.1022 -0.0841 -0.3368
 9435SOL    HW139938   4.686   3.856   5.277 -1.5003 -2.6573 -1.3390
 9435SOL    HW239939   4.550   3.926   5.258 -0.8191 -3.8822 -0.8924
 9436SOL     OW39940   0.525   2.587  17.323 -0.2958  0.4945  0.0894
 9436SOL    HW139941   0.436   2.561  17.349 -0.8046  0.7800 -1.3692
 9436SOL    HW239942   0.509   2.671  17.280 -0.8533 -1.2068 -2.9928
 9437SOL     OW39943   2.942   2.314   5.789  0.3003 -0.2812  0.0644
 9437SOL    HW139944   2.864   2.368   5.788  1.5710  1.5698  1.5081
 9437SOL    HW239945   2.958   2.297   5.696 -0.4551  0.9709 -0.2909
 9438SOL     OW39946   0.660   3.687   3.167  0.1642  0.2180 -0.0659
 9438SOL    HW139947   0.708   3.626   3.223 -1.4200 -0.3563  0.6509
 9438SOL    HW239948   0.573   3.649   3.166  0.8148 -1.3216  1.8948
 9439SOL     OW39949   0.367   2.380   3.565  0.3833 -0.2482 -0.5312
 9439SOL    HW139950   0.275   2.403   3.553  0.8706  2.6229  1.3767
 9439SOL    HW239951   0.382   2.419   3.652  0.4943 -1.1450 -0.1413
 9440SOL     OW39952   2.829   0.459   5.144  0.6587 -0.0896  0.4016
 9440SOL    HW139953   2.845   0.382   5.198 -0.2067 -0.2084  0.4932
 9440SOL    HW239954   2.911   0.472   5.097  1.0235 -1.0087  0.7894
 9441SOL     OW39955   0.427   0.767   2.074 -0.4595  0.2632 -0.6017
 9441SOL    HW139956   0.461   0.851   2.043  1.0927 -1.1199 -2.6423
 9441SOL    HW239957   0.336   0.775   2.046 -0.7168 -1.4656 -0.2569
 9442SOL     OW39958   1.631   0.518  17.576  0.2432 -0.1344 -0.0129
 9442SOL    HW139959   1.616   0.610  17.553  0.2346 -0.4788 -1.3774
 9442SOL    HW239960   1.579   0.515  17.657 -1.2159  1.1287 -0.9012
 9443SOL     OW39961   3.720   4.368   9.505 -0.1780  0.4318  0.2063
 9443SOL    HW139962   3.684   4.393   9.591 -0.7994  2.3144 -0.5986
 9443SOL    HW239963   3.812   4.393   9.502 -0.8579  2.9569 -0.0819
 9444SOL     OW39964   0.939   0.246   6.853  0.1906 -0.1344 -0.1048
 9444SOL    HW139965   0.894   0.282   6.776 -1.2846 -0.6915  0.4922
 9444SOL    HW239966   0.921   0.316   6.916 -2.0713  0.2385 -1.1390
 9445SOL     OW39967   0.156   1.230   5.920  0.7289 -0.7200  0.1015
 9445SOL    HW139968   0.128   1.138   5.922 -2.2113  0.1067 -1.5776
 9445SOL    HW239969   0.169   1.246   5.826  1.8239  0.0449  0.3904
 9446SOL     OW39970   4.293   2.404  12.052  0.1029 -0.5095 -0.4090
 9446SOL    HW139971   4.211   2.383  12.097 -0.2154 -2.0586 -1.7423
 9446SOL    HW239972   4.349   2.408  12.130  0.4783  1.7603 -0.7860
 9447SOL     OW39973   2.233   0.729  11.098  0.3575  0.1798 -0.0490
 9447SOL    HW139974   2.268   0.654  11.049  0.5723  0.4554 -0.3204
 9447SOL    HW239975   2.144   0.712  11.068  0.1249  2.2395 -0.5515
 9448SOL     OW39976   2.879   1.864   3.222  0.0102 -0.3910  0.2994
 9448SOL    HW139977   2.833   1.781   3.234  1.5502 -1.3736 -0.6542
 9448SOL    HW239978   2.942   1.854   3.293 -0.1663  0.5439  0.5910
 9449SOL     OW39979   0.300   4.106   3.322 -0.0835 -0.4131  0.2290
 9449SOL    HW139980   0.382   4.155   3.320 -0.8964  0.8907 -1.4724
 9449SOL    HW239981   0.335   4.040   3.381  0.1727 -2.0490 -1.7500
 9450SOL     OW39982   2.172   3.294   6.710 -0.1026  0.1094 -0.3066
 9450SOL    HW139983   2.224   3.361   6.664  0.9919 -0.6851 -0.2424
 9450SOL    HW239984   2.115   3.273   6.636  0.3921 -1.8588 -0.1418
 9451SOL     OW39985   2.832   2.556  13.543 -1.1808 -0.1305 -0.5672
 9451SOL    HW139986   2.826   2.482  13.603 -2.0261  1.3467  1.1734
 9451SOL    HW239987   2.790   2.626  13.593  2.1085  1.0298  0.5645
 9452SOL     OW39988   1.693   1.683  10.999 -0.4379  0.2946 -0.7017
 9452SOL    HW139989   1.739   1.747  11.054  0.4561 -0.5128 -0.5153
 9452SOL    HW239990   1.767   1.626  10.982  0.0693  0.5622  0.5813
 9453SOL     OW39991   4.184   3.942  13.509 -0.2940  0.3522 -0.0607
 9453SOL    HW139992   4.189   4.006  13.437  0.5431 -0.8010 -1.0294
 9453SOL    HW239993   4.273   3.906  13.499 -0.2627  0.9295 -1.8295
 9454SOL     OW39994   2.461   0.453   6.833 -0.8517  0.2766 -0.4682
 9454SOL    HW139995   2.476   0.487   6.744  0.7088 -0.8163 -0.6280
 9454SOL    HW239996   2.395   0.386   6.815 -0.5976  0.0096 -0.4028
 9455SOL     OW39997   0.495   3.781   5.126 -0.1878 -0.3460 -0.6178
 9455SOL    HW139998   0.529   3.805   5.040  1.2031  0.6047  0.1796
 9455SOL    HW239999   0.572   3.769   5.181 -0.3280 -2.0752 -0.7872
 9456SOL     OW40000   0.828   1.118   0.018  0.2895  0.0184  0.3139
 9456SOL    HW140001   0.878   1.045  17.728  0.4786  1.0628 -1.5093
 9456SOL    HW240002   0.744   1.081  17.738 -0.7600  1.3364  1.7924
 9457SOL     OW40003   0.860   1.450   5.877 -0.4053  0.5210 -0.3224
 9457SOL    HW140004   0.842   1.362   5.845 -2.2733  0.3414  1.2255
 9457SOL    HW240005   0.776   1.478   5.915  0.8924  3.8155  0.1176
 9458SOL     OW40006   3.874   4.112   2.504 -0.3164  0.2223 -0.0417
 9458SOL    HW140007   3.854   4.129   2.596  1.1347 -0.8450  0.4798
 9458SOL    HW240008   3.787   4.121   2.465  1.2035 -2.5346 -3.9706
 9459SOL     OW40009   0.702   2.128  13.004 -0.2350  0.6559 -0.3792
 9459SOL    HW140010   0.624   2.182  12.987 -2.2027 -1.6409  1.4736
 9459SOL    HW240011   0.663   2.059  13.058 -0.7781  3.2156  2.5074
 9460SOL     OW40012   2.865   3.424   7.810  0.1580 -0.1478  0.1690
 9460SOL    HW140013   2.928   3.402   7.741 -0.4794  1.2004 -0.8535
 9460SOL    HW240014   2.782   3.407   7.765 -0.4613 -0.3467  1.3953
 9461SOL     OW40015   3.807   1.543   6.422  0.0921  0.0031  0.1450
 9461SOL    HW140016   3.835   1.604   6.491  0.5861 -1.2280  1.0297
 9461SOL    HW240017   3.863   1.467   6.434 -0.2462 -0.6637 -2.6336
 9462SOL     OW40018   3.219   0.232   8.600 -0.3481 -0.2761 -0.1802
 9462SOL    HW140019   3.186   0.277   8.678 -0.2567  0.3574 -0.5074
 9462SOL    HW240020   3.216   0.303   8.536  2.7827  0.4501  0.4862
 9463SOL     OW40021   0.861   1.469  13.573 -0.1487 -0.2320  0.4294
 9463SOL    HW140022   0.926   1.519  13.622  2.0235 -1.3167 -1.3213
 9463SOL    HW240023   0.845   1.525  13.498  1.6059  0.5338  0.6302
 9464SOL     OW40024   3.403   2.004  16.846 -0.2641 -0.0912  0.8452
 9464SOL    HW140025   3.488   1.971  16.817  0.1713  1.5739  0.2237
 9464SOL    HW240026   3.351   1.925  16.830  0.5634 -0.2496 -1.0808
 9465SOL     OW40027   0.726   1.240   3.897 -0.0355 -0.0415  0.0802
 9465SOL    HW140028   0.700   1.307   3.833 -4.3266 -0.1149  1.7675
 9465SOL    HW240029   0.801   1.287   3.933 -0.4475 -1.6467  2.9852
 9466SOL     OW40030   3.092   3.634   8.426  0.8932 -0.6535  0.8612
 9466SOL    HW140031   3.132   3.628   8.513  0.6224 -3.0655  0.8253
 9466SOL    HW240032   3.125   3.553   8.386  0.9627 -0.3525  0.3110
 9467SOL     OW40033   3.736   2.238   6.262 -0.2425  0.3737  0.7393
 9467SOL    HW140034   3.747   2.207   6.352 -1.5757 -1.7957  0.1471
 9467SOL    HW240035   3.749   2.159   6.209 -0.7815  1.1610 -0.5574
 9468SOL     OW40036   0.261   1.176   1.926 -0.2635 -0.2967 -0.4665
 9468SOL    HW140037   0.293   1.262   1.897 -0.0115 -0.4484 -0.6395
 9468SOL    HW240038   0.209   1.154   1.849 -0.7751  2.1458 -0.8161
 9469SOL     OW40039   1.343   0.276   3.314  0.3153 -0.1599  0.2642
 9469SOL    HW140040   1.288   0.266   3.391 -1.7382  1.7253 -0.9632
 9469SOL    HW240041   1.416   0.217   3.333  0.3825 -0.4164 -0.7578
 9470SOL     OW40042   3.360   1.660   1.185 -0.0371 -0.1274 -0.9212
 9470SOL    HW140043   3.283   1.602   1.183 -0.0116 -0.2529  1.2278
 9470SOL    HW240044   3.316   1.742   1.163 -0.6180 -0.0756  0.4302
 9471SOL     OW40045   2.324   2.181   5.559  0.2502 -0.2408 -0.2565
 9471SOL    HW140046   2.312   2.263   5.511 -0.5336  0.2445  0.7544
 9471SOL    HW240047   2.268   2.198   5.635 -0.6765 -1.7576 -0.5996
 9472SOL     OW40048   3.031   4.457   6.932  0.6033  0.1890  0.9669
 9472SOL    HW140049   3.017   4.520   7.003  0.5320  0.8144  0.3964
 9472SOL    HW240050   3.028   4.377   6.984 -0.9381 -0.2965  0.1177
 9473SOL     OW40051   3.028   3.963   1.895  0.1849  0.4080  0.3511
 9473SOL    HW140052   3.065   3.901   1.957  1.8749 -0.2127 -1.2618
 9473SOL    HW240053   3.055   4.047   1.932  1.5639  0.2975 -0.3990
 9474SOL     OW40054   4.297   3.431   7.769  0.6769 -0.3369  0.0943
 9474SOL    HW140055   4.333   3.343   7.774 -2.3218 -1.6081 -0.2091
 9474SOL    HW240056   4.254   3.444   7.684 -1.7482  0.5207  1.4480
 9475SOL     OW40057   2.758   2.505   6.046  0.6703  0.0075 -0.0144
 9475SOL    HW140058   2.764   2.412   6.067 -0.5378 -0.0055  0.2648
 9475SOL    HW240059   2.664   2.511   6.065  0.6834  0.9526 -0.2419
 9476SOL     OW40060   3.094   2.780  16.744 -0.2299  0.0208 -0.2972
 9476SOL    HW140061   3.074   2.688  16.726  2.2439 -0.5395 -0.1919
 9476SOL    HW240062   3.183   2.795  16.712 -0.1022 -1.6938 -0.7280
 9477SOL     OW40063   4.647   1.563   7.871 -0.0234  0.6278 -0.0696
 9477SOL    HW140064   4.640   1.512   7.790  0.0263 -0.4166  0.5836
 9477SOL    HW240065   4.564   1.544   7.915 -1.6155  0.6409 -3.0980
 9478SOL     OW40066   0.604   4.685   3.929  0.0746 -0.6178  0.1823
 9478SOL    HW140067   0.519   4.641   3.938  0.1569 -0.6523  0.7714
 9478SOL    HW240068   0.602   4.721   3.840  1.1977  1.8893  1.1860
 9479SOL     OW40069   4.433   2.900   2.713 -0.3329 -0.3601  0.3781
 9479SOL    HW140070   4.379   2.853   2.776 -0.9563  0.0024  0.1124
 9479SOL    HW240071   4.360   2.950   2.677  0.5471 -1.3762 -2.8001
 9480SOL     OW40072   2.167   1.620   3.271  0.1162  0.8783  0.0110
 9480SOL    HW140073   2.235   1.581   3.325 -0.5038  0.2044  0.2957
 9480SOL    HW240074   2.119   1.669   3.338 -1.1819 -0.6964  0.2270
 9481SOL     OW40075   1.224   3.173   9.075  0.1452  0.0031 -0.1191
 9481SOL    HW140076   1.293   3.229   9.110  0.6580 -0.2233 -0.7745
 9481SOL    HW240077   1.239   3.089   9.120  1.1798 -0.0907 -0.6670
 9482SOL     OW40078   0.108   3.426  12.759 -0.5381 -0.5769 -0.6677
 9482SOL    HW140079   0.082   3.490  12.825 -0.0221 -1.0912  0.0352
 9482SOL    HW240080   0.030   3.381  12.726  0.1306 -0.6324 -2.1846
 9483SOL     OW40081   1.139   4.447  10.570  0.1134 -0.7742  0.1153
 9483SOL    HW140082   1.215   4.392  10.589 -0.2510 -1.6541 -0.9517
 9483SOL    HW240083   1.175   4.529  10.601 -0.9188 -0.5257  0.6404
 9484SOL     OW40084   0.501   0.471   6.842  0.1791  0.2202  0.3037
 9484SOL    HW140085   0.422   0.421   6.863 -0.0659  0.8264  0.8193
 9484SOL    HW240086   0.552   0.412   6.786  0.5037  1.5802 -0.8464
 9485SOL     OW40087   1.711   0.956   5.037  0.2503  0.3476 -0.3522
 9485SOL    HW140088   1.678   0.992   4.954 -0.7354 -0.2038 -0.1999
 9485SOL    HW240089   1.707   0.864   5.013  0.3065  0.1260  0.5015
 9486SOL     OW40090   1.832   2.487   6.258  0.4152 -0.0444 -0.5524
 9486SOL    HW140091   1.766   2.542   6.215  0.6752  2.7622  2.6108
 9486SOL    HW240092   1.909   2.542   6.271 -0.0597  0.7689 -1.1765
 9487SOL     OW40093   4.729   2.537   1.620  0.3601  0.4492  0.3776
 9487SOL    HW140094   4.642   2.501   1.638 -0.1594  1.6266  0.2049
 9487SOL    HW240095   4.699   2.600   1.555 -0.7485  1.3541  1.7802
 9488SOL     OW40096   2.983   3.804  17.217  0.2308 -0.4388  0.1223
 9488SOL    HW140097   3.007   3.784  17.127 -0.6734  2.8637 -0.8418
 9488SOL    HW240098   2.978   3.899  17.211 -0.1591 -0.5415 -1.2645
 9489SOL     OW40099   0.456   1.648   5.091  0.5383  0.9089 -0.2846
 9489SOL    HW140100   0.374   1.615   5.055  0.5226  0.0075  0.5814
 9489SOL    HW240101   0.447   1.623   5.183 -2.0848  0.1638 -0.7448
 9490SOL     OW40102   4.468   0.523  13.299  0.7677  0.7052  0.1096
 9490SOL    HW140103   4.388   0.500  13.347  1.8790  0.7967  2.0144
 9490SOL    HW240104   4.524   0.526  13.377  0.4013  2.2703  0.3041
 9491SOL     OW40105   2.061   3.227   8.535 -0.3256  0.0201 -0.8322
 9491SOL    HW140106   2.086   3.311   8.574  1.8628 -1.1641  0.3144
 9491SOL    HW240107   1.991   3.249   8.473 -0.9017  1.2539  0.2527
 9492SOL     OW40108   2.663   1.423   2.369  0.1857 -0.3223  0.0833
 9492SOL    HW140109   2.755   1.443   2.387  0.2177 -0.5619  0.1806
 9492SOL    HW240110   2.648   1.342   2.418  0.5603 -0.3585  0.1369
 9493SOL     OW40111   1.075   2.027   7.479  0.5005  0.3024 -0.2176
 9493SOL    HW140112   1.003   2.016   7.418 -1.6469  0.8147  2.2421
 9493SOL    HW240113   1.027   2.047   7.559  1.9573  3.1644 -0.0751
 9494SOL     OW40114   1.560   2.895   1.427  0.4906  0.4421  1.4423
 9494SOL    HW140115   1.592   2.806   1.414 -0.3256  0.2021  1.0620
 9494SOL    HW240116   1.629   2.928   1.485  1.4523  0.8700  0.0391
 9495SOL     OW40117   2.533   2.856  11.736 -0.0023 -0.2564 -0.1376
 9495SOL    HW140118   2.505   2.944  11.713 -1.9159 -1.6831 -3.3180
 9495SOL    HW240119   2.462   2.810  11.690  0.9435 -1.6506 -0.2036
 9496SOL     OW40120   0.711   2.625   3.196 -0.3337  0.4419 -0.0299
 9496SOL    HW140121   0.692   2.610   3.103  0.6984 -1.8782  0.1425
 9496SOL    HW240122   0.805   2.633   3.211 -0.2618 -1.5140  0.5782
 9497SOL     OW40123   3.889   1.111   8.338  0.3572  0.2438 -0.4787
 9497SOL    HW140124   3.928   1.045   8.281 -0.6765 -1.4257  0.7783
 9497SOL    HW240125   3.899   1.182   8.274  0.5647  1.9373  1.4490
 9498SOL     OW40126   4.111   4.623   7.544 -0.0545  0.0921  0.1393
 9498SOL    HW140127   4.155   4.587   7.468 -0.8575 -2.1427  0.7164
 9498SOL    HW240128   4.027   4.576   7.551  0.9742 -1.9522 -1.3169
 9499SOL     OW40129   3.586   1.321   8.694  0.2119  0.5794 -0.2942
 9499SOL    HW140130   3.568   1.294   8.784  0.0576 -0.1989 -0.5602
 9499SOL    HW240131   3.663   1.270   8.668  0.0055  0.9302 -1.5767
 9500SOL     OW40132   0.162   1.771   8.895 -0.1746 -0.2891  0.0775
 9500SOL    HW140133   0.173   1.846   8.952 -1.7158  0.8293 -1.1044
 9500SOL    HW240134   0.067   1.769   8.884 -0.1377 -0.5655 -0.2226
 9501SOL     OW40135   1.139   3.619   4.779 -0.6117 -0.0191  0.4718
 9501SOL    HW140136   1.142   3.570   4.861  0.3722 -2.3477 -0.9717
 9501SOL    HW240137   1.044   3.622   4.763 -0.6239 -2.3021  0.1599
 9502SOL     OW40138   3.682   1.539  14.653 -0.2585 -0.5882 -0.0464
 9502SOL    HW140139   3.698   1.576  14.740 -0.3643 -0.8751  0.0929
 9502SOL    HW240140   3.713   1.450  14.669 -3.2610 -1.3110  1.7291
 9503SOL     OW40141   4.188   4.468   3.499 -1.0862 -0.3648 -0.0150
 9503SOL    HW140142   4.120   4.452   3.433 -1.6534 -2.8129  1.1735
 9503SOL    HW240143   4.147   4.523   3.565  0.9821 -0.0308  0.9910
 9504SOL     OW40144   0.705   2.970   5.015 -0.2438 -0.1019  0.2242
 9504SOL    HW140145   0.663   3.042   5.062  1.6790  0.4105  1.1713
 9504SOL    HW240146   0.655   2.970   4.934  0.5142 -0.9773 -0.2469
 9505SOL     OW40147   1.109   3.429  13.621  0.4051 -0.2312 -0.2085
 9505SOL    HW140148   1.047   3.503  13.619  1.6405  0.8068 -0.3503
 9505SOL    HW240149   1.097   3.402  13.712  1.2898 -0.2032 -0.0784
 9506SOL     OW40150   0.094   1.425  15.511  0.2399 -0.2085 -0.2421
 9506SOL    HW140151   0.059   1.357  15.453  0.7244 -0.3385 -0.3849
 9506SOL    HW240152   0.165   1.466  15.462 -0.5913 -0.0549 -1.3088
 9507SOL     OW40153   2.554   3.935   8.023  0.0668 -0.1603 -0.1750
 9507SOL    HW140154   2.557   3.847   8.060  1.9174  0.7722  1.8771
 9507SOL    HW240155   2.612   3.972   8.090  0.2155  1.6077 -1.2602
 9508SOL     OW40156   1.667   0.120   3.928  0.0552 -0.2120  0.5209
 9508SOL    HW140157   1.717   0.046   3.893  0.2438  0.5002 -0.7299
 9508SOL    HW240158   1.712   0.195   3.889 -1.0535  0.3528  0.3295
 9509SOL     OW40159   2.552   2.661   7.939  0.0370  0.4518  0.1686
 9509SOL    HW140160   2.486   2.649   8.007 -0.8640 -0.4514 -0.8675
 9509SOL    HW240161   2.521   2.733   7.884  1.0684  0.0040 -1.0119
 9510SOL     OW40162   2.938   4.311   2.269  0.8351  0.0311  0.3186
 9510SOL    HW140163   2.994   4.258   2.326 -1.6711 -1.1144  1.7259
 9510SOL    HW240164   2.958   4.402   2.289 -1.6248  0.2209  1.8651
 9511SOL     OW40165   1.656   4.113  12.250  0.0224  0.9078 -0.7718
 9511SOL    HW140166   1.740   4.159  12.246  0.8712 -0.6901 -1.1467
 9511SOL    HW240167   1.608   4.163  12.184  0.8505  0.8208 -1.4417
 9512SOL     OW40168   1.422   3.524   8.845  0.1584 -0.3084 -0.4936
 9512SOL    HW140169   1.471   3.485   8.772 -0.3555 -1.7229 -0.0686
 9512SOL    HW240170   1.396   3.608   8.807 -1.8519 -0.9260 -0.4600
 9513SOL     OW40171   2.777   3.845  12.352  0.0371  0.3301  0.4073
 9513SOL    HW140172   2.719   3.874  12.422  2.0103 -0.0261  2.1610
 9513SOL    HW240173   2.857   3.875  12.395 -0.2177 -1.5408  2.1742
 9514SOL     OW40174   0.310   0.213   5.340  0.0500 -0.2364  0.7169
 9514SOL    HW140175   0.249   0.158   5.388  0.2660  0.1699  1.4431
 9514SOL    HW240176   0.393   0.193   5.383  0.4586  0.2851  0.1730
 9515SOL     OW40177   3.405   0.514   6.503 -0.9937 -0.2255  0.0335
 9515SOL    HW140178   3.464   0.438   6.504 -0.4954  0.1668 -0.0266
 9515SOL    HW240179   3.321   0.467   6.507 -1.7165  0.8999 -2.3576
 9516SOL     OW40180   1.000   2.669   4.627  0.6992 -0.1054 -0.5274
 9516SOL    HW140181   1.095   2.673   4.612  1.1259  0.2970  2.2196
 9516SOL    HW240182   0.991   2.761   4.652  1.7008  0.4314 -2.1806
 9517SOL     OW40183   1.706   0.897   1.066 -0.3328  0.4012 -0.2852
 9517SOL    HW140184   1.790   0.887   1.110 -0.1623 -0.2587 -0.7655
 9517SOL    HW240185   1.653   0.848   1.129 -1.2425 -0.3767 -1.6659
 9518SOL     OW40186   1.214   2.793  11.932  0.1240 -0.3008 -0.4109
 9518SOL    HW140187   1.199   2.709  11.974 -2.9446  0.5993  0.3032
 9518SOL    HW240188   1.307   2.780  11.914  0.3329 -0.0582  0.5180
 9519SOL     OW40189   1.290   3.222   3.668  0.0844 -0.2372  0.1309
 9519SOL    HW140190   1.283   3.317   3.659 -0.8924 -0.2029  1.2799
 9519SOL    HW240191   1.287   3.204   3.762  1.3448 -0.3119  0.1635
 9520SOL     OW40192   4.622   2.632   2.409 -0.1146  0.2346 -0.0486
 9520SOL    HW140193   4.675   2.621   2.488  0.9127  2.3180 -0.4397
 9520SOL    HW240194   4.669   2.575   2.348 -1.9209 -2.9223  1.5130
 9521SOL     OW40195   3.960   0.079   1.305  0.0803  0.1864 -0.3213
 9521SOL    HW140196   4.048   0.064   1.340  0.7024 -0.8388 -2.2477
 9521SOL    HW240197   3.986   0.115   1.220 -2.3905  1.3699 -0.5754
 9522SOL     OW40198   0.634   0.819   1.074 -0.4159 -0.0881  0.5768
 9522SOL    HW140199   0.594   0.901   1.100  2.2955  0.9686  1.4068
 9522SOL    HW240200   0.556   0.766   1.091 -0.5289  1.2066  4.0050
 9523SOL     OW40201   3.871   4.191   1.944 -0.0848  0.4203  0.1483
 9523SOL    HW140202   3.797   4.230   1.896  1.5514  1.3811 -1.5765
 9523SOL    HW240203   3.858   4.215   2.035  0.0001  0.7556  0.0724
 9524SOL     OW40204   0.523   2.855   4.807  0.3091  0.4279 -0.0421
 9524SOL    HW140205   0.538   2.777   4.754  1.0121 -0.6331  1.7182
 9524SOL    HW240206   0.486   2.813   4.884 -0.6612 -0.7913 -1.1621
 9525SOL     OW40207   1.552   0.351  14.115 -0.1313 -0.1306 -0.6720
 9525SOL    HW140208   1.625   0.291  14.130 -0.3833 -0.7954 -2.0784
 9525SOL    HW240209   1.606   0.429  14.126  3.2750 -2.5839 -0.1220
 9526SOL     OW40210   1.195   2.377   7.198 -0.0781 -0.3826  0.8943
 9526SOL    HW140211   1.258   2.409   7.133  0.3942 -0.6517  1.2193
 9526SOL    HW240212   1.244   2.384   7.280 -2.3612 -1.4735  2.3629
 9527SOL     OW40213   2.837   4.323   3.503  0.2222  0.1673 -0.8268
 9527SOL    HW140214   2.872   4.250   3.452  2.3765  0.3600  0.4013
 9527SOL    HW240215   2.798   4.271   3.573  0.6498  1.3013  0.2492
 9528SOL     OW40216   2.935   3.878   7.262 -0.8279  0.2425  0.3300
 9528SOL    HW140217   2.910   3.930   7.338 -0.4362  0.0513  0.5911
 9528SOL    HW240218   2.852   3.874   7.215 -0.9889 -2.7220  0.8692
 9529SOL     OW40219   3.405   1.385   1.059 -0.2604  0.0161  0.4830
 9529SOL    HW140220   3.315   1.387   1.090 -0.5434  0.2491 -0.3625
 9529SOL    HW240221   3.451   1.405   1.140 -1.5601  1.5017  0.8499
 9530SOL     OW40222   1.125   3.571   7.377  0.0324  0.5432  0.7326
 9530SOL    HW140223   1.114   3.545   7.468  0.1436 -0.5649  0.4356
 9530SOL    HW240224   1.100   3.662   7.388 -0.2011  0.8515 -2.3010
 9531SOL     OW40225   2.141   3.486  17.126  0.2463 -0.3812  0.3378
 9531SOL    HW140226   2.201   3.440  17.067  1.0447 -0.0265  0.8798
 9531SOL    HW240227   2.146   3.577  17.097 -0.6501 -0.5365 -0.2928
 9532SOL     OW40228   0.126   3.591   6.593  0.0392 -0.4252 -1.5183
 9532SOL    HW140229   0.192   3.573   6.660  0.4706  1.8528 -1.3403
 9532SOL    HW240230   0.126   3.514   6.537  1.0553 -2.4139  1.1878
 9533SOL     OW40231   0.721   2.784  11.176 -0.0643  0.6627 -0.2720
 9533SOL    HW140232   0.684   2.696  11.185 -0.3604  0.8698  0.4978
 9533SOL    HW240233   0.639   2.830  11.189 -0.2772  0.6108 -1.4071
 9534SOL     OW40234   3.485   0.060   6.939 -0.0454  0.3910 -0.5544
 9534SOL    HW140235   3.423   4.727   6.960 -0.2761  0.3660 -1.3133
 9534SOL    HW240236   3.424   0.134   6.947 -1.5236 -0.8414 -0.2990
 9535SOL     OW40237   3.139   3.685   6.837 -0.0064  0.5670  0.2860
 9535SOL    HW140238   3.067   3.659   6.895 -0.3399  0.4194 -0.1911
 9535SOL    HW240239   3.196   3.720   6.905  0.6376 -0.5359  0.2952
 9536SOL     OW40240   0.158   0.203   1.689  1.1371 -0.1329  0.4825
 9536SOL    HW140241   0.163   0.291   1.653  2.4885  0.3857  1.8792
 9536SOL    HW240242   0.223   0.157   1.636  0.8851  1.9615 -1.5971
 9537SOL     OW40243   3.092   4.727   1.755  0.4896  0.1837  0.3309
 9537SOL    HW140244   3.178   0.030   1.748 -0.1773  1.9343  1.8032
 9537SOL    HW240245   3.060   4.734   1.665 -0.3763 -1.9559  0.4858
 9538SOL     OW40246   1.648   1.358   1.034  0.3044  0.0019  0.2692
 9538SOL    HW140247   1.661   1.306   1.114 -3.2863 -0.3887  0.5713
 9538SOL    HW240248   1.597   1.425   1.079  0.5792  0.1635  0.3414
 9539SOL     OW40249   0.600   1.992  12.202 -0.0080 -0.3667  0.1611
 9539SOL    HW140250   0.553   2.067  12.239  0.8525 -0.5346  1.5528
 9539SOL    HW240251   0.554   1.992  12.117 -1.7870  2.2009  1.1166
 9540SOL     OW40252   2.034   4.331   2.477  0.2325 -0.5368 -0.2085
 9540SOL    HW140253   2.097   4.349   2.407  1.1553  1.1140  1.0460
 9540SOL    HW240254   1.976   4.265   2.439 -2.2718  1.4687  0.0581
 9541SOL     OW40255   1.028   1.554   8.127 -0.6036 -0.8712 -0.4124
 9541SOL    HW140256   1.123   1.561   8.118 -0.9727  2.0018 -1.8580
 9541SOL    HW240257   1.009   1.551   8.033  2.1433  1.1983 -1.0083
 9542SOL     OW40258   3.071   3.700   1.671  0.5905 -0.2303 -0.3717
 9542SOL    HW140259   3.166   3.712   1.666  0.6020 -0.8199 -1.4982
 9542SOL    HW240260   3.053   3.786   1.709 -0.1633 -0.4337 -0.2701
 9543SOL     OW40261   2.741   1.618   3.279 -0.6802 -0.4160 -0.5520
 9543SOL    HW140262   2.712   1.555   3.346 -0.1534  1.1439  1.1570
 9543SOL    HW240263   2.662   1.671   3.270 -1.7056 -1.3049  2.9891
 9544SOL     OW40264   3.041   3.859   3.998  0.0884 -0.4048  0.6433
 9544SOL    HW140265   3.069   3.926   3.935  2.6303 -1.2325  0.9340
 9544SOL    HW240266   3.125   3.834   4.036  1.3195  0.1925 -1.7126
 9545SOL     OW40267   3.438   0.079   7.471  0.0828  0.1715 -0.1200
 9545SOL    HW140268   3.488   0.153   7.505  1.1085 -0.9017  0.6709
 9545SOL    HW240269   3.379   0.054   7.542 -0.0809 -0.1771 -0.3769
 9546SOL     OW40270   2.920   4.591   3.136  0.1698  0.6468 -0.0306
 9546SOL    HW140271   2.929   4.684   3.154 -0.8923  0.4475  1.4966
 9546SOL    HW240272   2.935   4.556   3.224  0.3195  0.7772 -0.0047
 9547SOL     OW40273   0.263   1.839   8.618  0.3762  0.0832 -0.0622
 9547SOL    HW140274   0.194   1.777   8.595  0.4245 -1.3961  3.6911
 9547SOL    HW240275   0.246   1.852   8.711  0.3676  0.1443 -0.0717
 9548SOL     OW40276   3.254   0.746   1.823 -0.2993 -0.1492  0.1721
 9548SOL    HW140277   3.286   0.766   1.911 -0.9909  0.6376  0.2443
 9548SOL    HW240278   3.332   0.727   1.771 -0.0159 -0.7382  0.8130
 9549SOL     OW40279   2.869   3.928  10.758 -0.0099  0.1336 -0.0194
 9549SOL    HW140280   2.937   3.995  10.756 -1.7500  1.9209  1.5535
 9549SOL    HW240281   2.821   3.951  10.837  0.2245 -0.3610  0.2665
 9550SOL     OW40282   4.320   4.091   6.303 -0.2255 -0.4679 -0.2194
 9550SOL    HW140283   4.281   4.172   6.335 -2.4077 -0.9990 -1.4889
 9550SOL    HW240284   4.359   4.053   6.382 -2.0700 -2.7595 -0.4114
 9551SOL     OW40285   2.998   2.478  12.942  0.0409  0.0319  0.0598
 9551SOL    HW140286   3.056   2.402  12.935  1.0377  0.6909  1.2260
 9551SOL    HW240287   2.920   2.432  12.911  2.4012 -2.0528 -2.8295
 9552SOL     OW40288   2.560   4.702   4.362  0.1437  0.6523  0.4429
 9552SOL    HW140289   2.523   4.703   4.274  0.9828  0.9391  0.0867
 9552SOL    HW240290   2.560   4.607   4.372  0.8294  0.8501  2.3398
 9553SOL     OW40291   0.991   1.967   8.539  0.5901 -0.3228  0.9391
 9553SOL    HW140292   1.035   1.940   8.620  2.3188  1.4935  0.5802
 9553SOL    HW240293   1.062   2.017   8.499 -0.8833  1.2850  0.3238
 9554SOL     OW40294   3.610   2.533   4.767  0.4546  0.2102  0.0653
 9554SOL    HW140295   3.645   2.524   4.855  0.2006 -1.4742 -0.0023
 9554SOL    HW240296   3.516   2.518   4.781  0.8875 -0.6442  2.0938
 9555SOL     OW40297   4.498   1.868   1.415  0.2060  0.2217 -0.0199
 9555SOL    HW140298   4.590   1.891   1.431  0.7596 -1.3514 -0.8386
 9555SOL    HW240299   4.464   1.955   1.398  1.8884  1.2368  1.7834
 9556SOL     OW40300   0.962   3.564   4.166 -0.1703  0.5987  0.0532
 9556SOL    HW140301   0.967   3.629   4.235  0.0543  0.3505  0.2727
 9556SOL    HW240302   0.981   3.622   4.092  0.3481  0.8022  0.3488
 9557SOL     OW40303   1.044   1.900   9.132  0.2410 -0.0787  0.0289
 9557SOL    HW140304   0.955   1.876   9.107 -0.0695 -1.0859  2.0176
 9557SOL    HW240305   1.061   1.853   9.214  0.6452 -0.1677 -0.1024
 9558SOL     OW40306   0.185   1.285   3.642  0.1221 -0.5143 -0.2527
 9558SOL    HW140307   0.108   1.248   3.686  1.0694 -0.3017  1.5839
 9558SOL    HW240308   0.202   1.206   3.590  1.8497  0.7383 -1.6119
 9559SOL     OW40309   1.088   0.897   3.074 -0.2858  0.7031  0.4465
 9559SOL    HW140310   1.085   0.831   3.144 -1.8678  1.3699  1.0087
 9559SOL    HW240311   1.116   0.853   2.994  0.1983  1.5727  0.1453
 9560SOL     OW40312   2.837   2.859   8.085 -0.3633 -0.5316  0.2490
 9560SOL    HW140313   2.909   2.796   8.090  0.1385 -0.1141 -1.8866
 9560SOL    HW240314   2.773   2.832   8.150  1.5537 -1.8441  1.5939
 9561SOL     OW40315   4.027   3.696  10.169 -0.0240 -0.5046 -0.0068
 9561SOL    HW140316   4.114   3.682  10.207 -0.6961 -1.1087  1.3327
 9561SOL    HW240317   4.053   3.708  10.078 -1.0382  0.3655 -0.1771
 9562SOL     OW40318   2.301   1.637  10.800  0.0197  0.4041  0.5514
 9562SOL    HW140319   2.346   1.560  10.834 -0.0607  0.6894  1.2839
 9562SOL    HW240320   2.373   1.659  10.741  0.1101 -0.9123  0.1695
 9563SOL     OW40321   3.401   0.020   7.987 -0.3195 -0.3380  0.0022
 9563SOL    HW140322   3.328   0.023   8.048  1.1529  0.5109  1.6968
 9563SOL    HW240323   3.432   4.667   7.999 -0.8881 -0.3276  1.5308
 9564SOL     OW40324   0.557   0.407   8.867 -0.0033 -0.0244 -0.0319
 9564SOL    HW140325   0.538   0.437   8.779 -0.6425  0.4708  0.2783
 9564SOL    HW240326   0.651   0.425   8.866  0.4038 -2.2242 -0.4837
 9565SOL     OW40327   0.597   2.500   2.980  0.0437  0.1504  0.0008
 9565SOL    HW140328   0.566   2.427   3.033 -0.3541 -0.5901 -1.2563
 9565SOL    HW240329   0.583   2.469   2.891 -3.8139  0.9217  0.3491
 9566SOL     OW40330   1.973   0.638  16.027  0.8329  0.2065 -0.3705
 9566SOL    HW140331   1.892   0.667  16.070  0.7972  0.8383 -0.8714
 9566SOL    HW240332   1.963   0.543  16.016  2.0401 -0.0110  0.4340
 9567SOL     OW40333   3.141   3.208   2.714 -0.0215 -0.1006 -0.8724
 9567SOL    HW140334   3.208   3.169   2.769 -0.6780  0.5040  0.3704
 9567SOL    HW240335   3.199   3.248   2.649  0.1536 -1.5493 -1.5904
 9568SOL     OW40336   3.746   2.952   6.534 -0.2206 -0.0868 -0.5310
 9568SOL    HW140337   3.798   2.873   6.547  0.6224  0.3895 -0.9877
 9568SOL    HW240338   3.809   3.024   6.532  0.2681 -0.4628  1.8317
 9569SOL     OW40339   2.139   4.345   5.369  0.0969  0.0888 -0.4305
 9569SOL    HW140340   2.191   4.420   5.342 -1.5009  1.2636 -0.2823
 9569SOL    HW240341   2.139   4.294   5.288 -0.5268  0.1322 -0.4578
 9570SOL     OW40342   3.067   0.816   4.246  0.3834  0.4227 -0.1319
 9570SOL    HW140343   3.067   0.909   4.223 -1.2448  0.7553  1.1635
 9570SOL    HW240344   3.049   0.773   4.163  1.2683 -0.3302  0.0679
 9571SOL     OW40345   3.532   1.129  15.901 -0.5412  0.0171 -0.5138
 9571SOL    HW140346   3.543   1.144  15.995  1.7489 -0.9270 -0.6196
 9571SOL    HW240347   3.602   1.178  15.858  0.3125  0.7545  1.6983
   4.73705   4.73705  17.74654
