Membrane in water
40347
    1TMC1    C1    1   1.038   4.262  11.943 -0.1488 -0.0421  0.4172
    1TMC1    C2    2   0.991   4.352  11.854 -0.0043  0.6792  0.2049
    1TMC1    C3    3   0.894   4.440  11.901 -0.3284 -0.3064 -0.2918
    1TMC1    C4    4   0.985   4.247  12.065  0.2880  0.1895 -0.5659
    1TMC1    C5    5   0.888   4.331  12.108  0.2245  0.0343 -0.4023
    1TMC1    C6    6   0.847   4.432  12.033  0.2772  0.0183  0.2280
    1TMC1     C    7   1.141   4.176  11.899 -0.3494  0.5009  0.1729
    1TMC1     O    8   1.165   4.082  11.972 -1.0413  0.9607 -0.5721
    1TMC1     H    9   1.008   4.351  11.747 -1.2095  0.5472  0.0121
    1TMC1    H1   10   1.022   4.165  12.126  0.3275 -0.6774 -1.7642
    1TMC1    H2   11   0.773   4.505  12.063  0.8738  0.4893  0.5523
    1TMC1    C7   12   0.847   4.319  12.244 -0.0005  0.2919  0.7766
    1TMC1    C8   13   0.828   4.532  11.812 -0.1673  0.4188 -0.6059
    1TMC1    O1   14   0.927   4.282  12.330  0.1817 -0.5428 -0.3682
    1TMC1    O2   15   0.718   4.576  11.846  0.2565  0.4724 -0.2060
    1TMC1    O3   16   0.717   4.287  12.230  0.4280  0.1318  0.7090
    1TMC1    H3   17   0.677   4.350  12.167 -1.3755 -1.1306  0.5839
    1TMC1    O5   18   0.930   4.589  11.737 -0.0645 -0.5555  0.1768
    1TMC1    H5   19   1.016   4.544  11.754  0.6997  1.2047  1.0329
    2MPD2     C   20   1.579   4.063  11.639 -0.3364 -0.4625 -0.3531
    2MPD2    C1   21   1.513   3.999  11.746  0.3836  0.0164 -0.2095
    2MPD2    C2   22   1.390   4.047  11.785 -0.1749 -0.2705  0.0994
    2MPD2    C3   23   1.333   4.164  11.732 -0.4464 -0.4962 -0.1897
    2MPD2    C4   24   1.407   4.228  11.633  0.6017  0.5519  0.6259
    2MPD2    C5   25   1.524   4.172  11.584  0.5200 -0.1632  0.1318
    2MPD2     H   26   1.347   3.991  11.867  1.2474 -0.2944  0.8242
    2MPD2    H1   27   1.370   4.326  11.604 -1.9841 -0.0431  1.9195
    2MPD2    H2   28   1.674   4.036  11.593  0.2850 -0.4786  0.9351
    2MPD2    H3   29   1.582   4.235  11.517 -0.3407 -0.4840 -0.9173
    2MPD2     N   30   1.210   4.214  11.786  0.2328  0.5823 -0.4781
    2MPD2    H5   31   1.175   4.300  11.745  0.1416  0.9005  0.2700
    2MPD2    N1   32   1.570   3.896  11.825  0.2142  0.3146  0.1737
    2MPD2    H7   33   1.523   3.863  11.909  0.2311  4.1483  1.6912
    3TMC1    C1   34   1.437   0.300  11.292 -0.0559 -0.3802  0.5290
    3TMC1    C2   35   1.461   0.239  11.169  0.6744 -0.2359 -0.4763
    3TMC1    C3   36   1.580   0.167  11.166  0.4163 -0.1061  0.8044
    3TMC1    C4   37   1.521   0.290  11.401  0.6571 -0.3499  0.5789
    3TMC1    C5   38   1.642   0.229  11.381  0.4810  1.0402 -0.7907
    3TMC1    C6   39   1.675   0.173  11.260  0.9037  0.4897 -0.5857
    3TMC1     C   40   1.297   0.327  11.330  0.0406  0.0530  0.1886
    3TMC1     O   41   1.284   0.337  11.453 -0.6184 -0.2375  0.3646
    3TMC1     H   42   1.384   0.215  11.096  0.3225 -0.8195  0.0969
    3TMC1    H1   43   1.505   0.351  11.489  2.2475 -1.4058  1.6043
    3TMC1    H2   44   1.775   0.129  11.253 -0.0030 -2.0652  2.3009
    3TMC1    C7   45   1.743   0.249  11.484  0.7394 -0.7896 -0.0457
    3TMC1    C8   46   1.623   0.095  11.051  0.3398  0.5349 -0.1706
    3TMC1    O1   47   1.861   0.270  11.455  0.2951 -0.4425  0.8811
    3TMC1    O2   48   1.557   0.107  10.946  0.1724  0.4266 -0.2801
    3TMC1    O3   49   1.684   0.233  11.601 -0.1390  0.5253 -0.3448
    3TMC1    H3   50   1.592   0.200  11.598  0.2356 -0.6062  1.0468
    3TMC1    O5   51   1.724   0.005  11.065  0.0891 -0.4929 -0.2081
    3TMC1    H5   52   1.751   4.740  11.159 -0.0554 -1.0353 -0.2127
    4MPD2     C   53   0.840   0.544  11.251  0.0908 -0.9524 -0.1205
    4MPD2    C1   54   0.907   0.538  11.131  0.2855 -0.3859  0.5531
    4MPD2    C2   55   1.025   0.473  11.121 -0.6750  0.4577 -0.5052
    4MPD2    C3   56   1.080   0.418  11.238  0.2356  0.0405 -0.5432
    4MPD2    C4   57   1.013   0.429  11.358 -1.3147  0.4080  0.2360
    4MPD2    C5   58   0.895   0.492  11.360 -0.3775 -0.1723  0.6705
    4MPD2     H   59   1.071   0.454  11.025 -0.3462  1.9783 -0.6465
    4MPD2    H1   60   1.057   0.398  11.452  2.5197  5.1450 -0.0094
    4MPD2    H2   61   0.751   0.603  11.265  0.4390 -0.7041  1.0098
    4MPD2    H3   62   0.851   0.514  11.457 -0.0157 -0.7209  0.9563
    4MPD2     N   63   1.214   0.370  11.225 -0.1797 -0.0376  0.3619
    4MPD2    H5   64   1.255   0.387  11.134 -0.9667  2.0911  0.4084
    4MPD2    N1   65   0.860   0.614  11.019  0.6847 -0.0445 -0.3896
    4MPD2    H7   66   0.928   0.630  10.945 -0.8471 -1.4694 -2.0851
    5TCq1    O1   67   2.175   2.480  11.819 -0.0672  0.1457 -0.1118
    5TCq1    C1   68   2.077   2.498  11.917 -0.0408 -0.4669 -0.5768
    5TCq1    O2   69   2.087   2.459  12.033 -0.2286  0.2812  0.4421
    5TCq1    C2   70   1.948   2.495  11.849  0.3991 -0.6300 -0.1567
    5TCq1    C3   71   1.837   2.498  11.933  0.6427 -0.1766 -0.9006
    5TCq1    C4   72   1.717   2.503  11.870 -0.3171  0.1181  0.1368
    5TCq1    C5   73   1.708   2.524  11.739  0.4331 -0.1281 -0.0182
    5TCq1    C6   74   1.815   2.521  11.657 -0.0460  0.4820  0.2852
    5TCq1    C7   75   1.940   2.506  11.713  0.2696 -0.8810  0.1275
    5TCq1    C8   76   1.795   2.495  11.514 -0.1229 -0.1369  0.8587
    5TCq1    O4   77   1.876   2.424  11.454 -0.1783  0.3362 -0.7654
    5TCq1    C9   78   1.603   2.505  11.953 -0.0628 -0.0381 -0.2319
    5TCq1    O5   79   1.491   2.514  11.904  0.2023  0.0261 -0.1297
    5TCq1    O6   80   1.620   2.526  12.075  0.2090 -0.4061 -0.3922
    5TCq1    H1   81   2.170   2.525  11.731  1.6701  0.6599  0.0404
    5TCq1    H2   82   1.838   2.477  12.040  1.1915 -0.8394 -1.0360
    5TCq1    H3   83   1.609   2.538  11.697 -0.0740 -0.2449  1.1208
    5TCq1    H4   84   2.017   2.505  11.637  0.0988  0.5648 -0.0688
    6MPD2     C   85   1.524   2.646  11.317  0.0417  0.1368  0.4814
    6MPD2    C1   86   1.623   2.550  11.337  0.3348  0.1970  0.0945
    6MPD2    C2   87   1.655   2.458  11.240 -0.0785  0.3870 -0.2037
    6MPD2    C3   88   1.586   2.462  11.117  0.4403 -0.5605 -0.0520
    6MPD2    C4   89   1.490   2.556  11.094 -0.7942  0.4106 -0.0929
    6MPD2    C5   90   1.458   2.645  11.193 -0.1256  0.0486  0.6966
    6MPD2     H   91   1.733   2.384  11.251 -2.2428 -1.7561  0.5317
    6MPD2    H1   92   1.426   2.543  11.007  1.1447  1.3557 -1.6548
    6MPD2    H2   93   1.490   2.713  11.395 -0.5905  1.0994 -0.6277
    6MPD2    H3   94   1.378   2.714  11.170  0.9380  0.7936 -0.7494
    6MPD2     N   95   1.620   2.362  11.028  0.3202  0.1989 -0.2191
    6MPD2    H5   96   1.706   2.312  11.049  0.6710  1.5457  1.6550
    6MPD2    N1   97   1.680   2.554  11.468  0.1075  0.7426  0.2989
    6MPD2    H7   98   1.645   2.627  11.528 -0.4562  2.2405 -1.8651
    7TCq1    O1   99   3.411   1.753  12.493 -0.1282 -0.1569  0.0730
    7TCq1    C1  100   3.420   1.663  12.591  0.3220  0.1343  0.2969
    7TCq1    O2  101   3.331   1.580  12.617  0.1386  0.5119 -0.5211
    7TCq1    C2  102   3.552   1.653  12.640  0.5378 -0.2801 -0.6814
    7TCq1    C3  103   3.619   1.775  12.654 -0.3923  0.3438  0.2689
    7TCq1    C4  104   3.736   1.766  12.729  0.4058 -0.1470  0.1829
    7TCq1    C5  105   3.786   1.650  12.782  0.4853 -0.3924  0.0154
    7TCq1    C6  106   3.712   1.533  12.770  0.1259  0.6734  0.2778
    7TCq1    C7  107   3.587   1.537  12.702 -0.0718 -0.0054 -0.1520
    7TCq1    C8  108   3.754   1.412  12.832  0.3556 -0.4151  0.2212
    7TCq1    O4  109   3.724   1.302  12.782  0.2695 -0.3717  0.1859
    7TCq1    C9  110   3.828   1.885  12.739  0.5299 -0.3770  0.0384
    7TCq1    O5  111   3.797   1.982  12.666  0.0619 -0.6478  0.5319
    7TCq1    O6  112   3.927   1.879  12.819 -0.1581  0.2765 -0.1350
    7TCq1    H1  113   3.496   1.800  12.479 -0.6452  0.8701  0.3452
    7TCq1    H2  114   3.581   1.865  12.608 -2.3541 -0.9807 -0.7137
    7TCq1    H3  115   3.885   1.649  12.826  0.0833 -0.6122  0.9242
    7TCq1    H4  116   3.527   1.447  12.689  0.8702 -0.5879 -0.4357
    8MPD2     C  117   4.019   1.193  13.209  0.0410 -0.3658 -0.3882
    8MPD2    C1  118   3.929   1.135  13.121 -0.2688 -0.6903  0.1800
    8MPD2    C2  119   3.861   1.221  13.031  0.4922 -0.6889 -0.7281
    8MPD2    C3  120   3.901   1.354  13.024 -0.0466 -0.1401 -0.0613
    8MPD2    C4  121   4.005   1.406  13.103 -0.2021  0.0874 -0.3606
    8MPD2    C5  122   4.055   1.320  13.199  0.9041 -0.0292 -0.3060
    8MPD2     H  123   3.786   1.169  12.972 -0.0509 -0.1945 -0.4702
    8MPD2    H1  124   4.030   1.511  13.103  0.2610 -0.0210  2.1804
    8MPD2    H2  125   4.080   1.148  13.286  1.8930  3.0645  0.1320
    8MPD2    H3  126   4.120   1.365  13.274  0.8757 -2.3344  1.0863
    8MPD2     N  127   3.833   1.448  12.938  0.2070  0.4173 -0.1715
    8MPD2    H5  128   3.849   1.547  12.948 -1.3674  0.8329 -1.8602
    8MPD2    N1  129   3.903   0.997  13.129 -0.1624 -0.1349 -0.0615
    8MPD2    H7  130   3.948   0.956  13.210  1.3458 -0.0833 -0.8880
    9TMC1    C1  131   1.769   0.123  12.037 -0.2765 -0.4588 -0.3370
    9TMC1    C2  132   1.854   0.193  11.950 -0.0395 -0.3161 -0.5184
    9TMC1    C3  133   1.960   0.264  11.998 -0.0659  0.2240 -0.0455
    9TMC1    C4  134   1.794   0.127  12.171 -0.6215 -0.9154  0.2612
    9TMC1    C5  135   1.905   0.199  12.219  0.1441 -0.3639  0.1320
    9TMC1    C6  136   1.990   0.260  12.128 -0.1413 -0.3158 -0.1598
    9TMC1     C  137   1.690   0.016  11.971 -0.3592 -0.0841  0.3497
    9TMC1     O  138   1.731   4.722  11.863 -0.3487  0.3374  0.1749
    9TMC1     H  139   1.843   0.183  11.843  0.1346  1.7810 -0.7361
    9TMC1    H1  140   1.736   0.064  12.238  1.5459  0.1293  3.1504
    9TMC1    H2  141   2.083   0.295  12.171 -0.3669 -1.0380  0.9294
    9TMC1    C7  142   1.948   0.164  12.350  0.1618 -0.0859  0.0616
    9TMC1    C8  143   2.068   0.293  11.907  0.0224  0.2494 -0.3547
    9TMC1    O1  144   1.870   0.134  12.438 -0.0838 -0.1712  0.4308
    9TMC1    O2  145   2.149   0.383  11.910  0.3195  0.5394 -0.2155
    9TMC1    O3  146   2.081   0.142  12.357 -0.2825  0.0313  0.2865
    9TMC1    H3  147   2.135   0.160  12.277 -1.6531  3.3153  0.0585
    9TMC1    O5  148   2.102   0.162  11.894 -0.0516 -0.1626  1.1113
    9TMC1    H5  149   2.029   0.103  11.923  0.3169 -1.7744 -1.2972
   10MPD2     C  150   1.592   4.478  11.935 -0.4891  0.2864 -0.2495
   10MPD2    C1  151   1.552   4.564  12.031 -0.1521  0.5742  0.6774
   10MPD2    C2  152   1.455   4.526  12.115 -0.2967 -0.1459  0.2065
   10MPD2    C3  153   1.405   4.393  12.116 -0.0702  0.3171  0.0262
   10MPD2    C4  154   1.463   4.304  12.030 -0.4623 -0.1290 -0.4367
   10MPD2    C5  155   1.556   4.343  11.939  0.0036 -0.2519  0.5387
   10MPD2     H  156   1.408   4.604  12.174 -1.9391  0.1922 -1.5546
   10MPD2    H1  157   1.432   4.200  12.033 -0.0109 -0.1611  2.7823
   10MPD2    H2  158   1.669   4.505  11.865 -2.8876  1.3323 -2.4855
   10MPD2    H3  159   1.602   4.275  11.869 -1.0977  1.4555 -1.8387
   10MPD2     N  160   1.308   4.351  12.212 -0.3716 -0.3153 -0.2260
   10MPD2    H5  161   1.287   4.254  12.231 -1.0509 -0.0096  0.5659
   10MPD2    N1  162   1.606   4.691  12.057  0.0090 -0.6381 -0.0578
   10MPD2    H7  163   1.584   4.732  12.148  0.7084  0.7290 -0.4955
   11TCq1    O1  164   1.919   0.402  14.214  0.0434 -0.4614  0.6402
   11TCq1    C1  165   1.908   0.346  14.091 -0.7730 -0.1780 -0.0685
   11TCq1    O2  166   1.829   0.388  14.005 -0.0569  0.4806  0.3810
   11TCq1    C2  167   1.996   0.232  14.072  0.0634 -0.7599  0.5359
   11TCq1    C3  168   2.104   0.227  14.162 -0.3613 -0.2088 -0.0903
   11TCq1    C4  169   2.191   0.122  14.146  0.2188  0.5551  0.5871
   11TCq1    C5  170   2.167   0.023  14.051 -0.3400  0.2075  0.2565
   11TCq1    C6  171   2.057   0.038  13.966 -0.5560 -0.7145  0.5696
   11TCq1    C7  172   1.965   0.140  13.978 -0.1868 -0.6554 -0.7632
   11TCq1    C8  173   2.018   4.674  13.876  0.4162 -0.0085 -0.6327
   11TCq1    O4  174   1.947   4.703  13.786  0.0145 -0.5345  0.3174
   11TCq1    C9  175   2.299   0.115  14.240 -0.1140 -0.4595  0.4456
   11TCq1    O5  176   2.360   0.008  14.247  0.0297  0.3884  0.0695
   11TCq1    O6  177   2.293   0.202  14.332 -0.3781 -0.5855 -0.0874
   11TCq1    H1  178   1.935   0.325  14.274  1.6186 -1.7271 -1.4255
   11TCq1    H2  179   2.120   0.304  14.236  0.2155 -1.9843  1.6416
   11TCq1    H3  180   2.243   4.693  14.032  0.5027  0.6586  1.8725
   11TCq1    H4  181   1.868   0.126  13.933 -1.7305 -2.3014  3.0442
   12MPD2     C  182   1.879   4.427  13.801  0.7244  0.3663  0.6107
   12MPD2    C1  183   1.997   4.431  13.872 -0.1451  1.0965  0.2711
   12MPD2    C2  184   2.047   4.312  13.917  0.0275  0.0918 -0.3686
   12MPD2    C3  185   1.989   4.191  13.881 -0.0394  0.0874  0.8477
   12MPD2    C4  186   1.884   4.192  13.799 -0.2746  0.1832  0.8546
   12MPD2    C5  187   1.819   4.307  13.759 -0.3479  0.1375 -0.4802
   12MPD2     H  188   2.124   4.320  13.992 -1.8016 -1.5621  1.6579
   12MPD2    H1  189   1.844   4.097  13.765  0.9222  0.2092 -0.6532
   12MPD2    H2  190   1.840   4.520  13.761 -0.6310 -0.5346 -0.1742
   12MPD2    H3  191   1.731   4.309  13.696 -0.2804 -0.1014 -0.5810
   12MPD2     N  192   2.034   4.067  13.924 -0.3722  0.2407  0.2014
   12MPD2    H5  193   1.988   3.988  13.880 -0.9753  0.3951  0.5689
   12MPD2    N1  194   2.060   4.547  13.915 -0.4192  0.2225  0.6561
   12MPD2    H7  195   2.130   4.544  13.988 -1.6395  0.4974  1.8316
   13TCq1    O1  196   2.348   0.776  11.238 -0.0492  0.3564 -0.0670
   13TCq1    C1  197   2.318   0.870  11.146  0.2623  0.2176 -0.7748
   13TCq1    O2  198   2.396   0.943  11.086  0.1351  0.9126 -0.4374
   13TCq1    C2  199   2.181   0.909  11.160  0.3188  0.4022 -0.4905
   13TCq1    C3  200   2.144   1.027  11.103 -0.1068 -0.1452 -0.0087
   13TCq1    C4  201   2.016   1.058  11.076 -0.4492  0.2489 -0.5937
   13TCq1    C5  202   1.913   0.985  11.138 -0.5914  0.2783 -0.7155
   13TCq1    C6  203   1.955   0.876  11.216 -0.6948 -0.2294  0.3287
   13TCq1    C7  204   2.087   0.829  11.219  0.3246 -0.0909  0.7243
   13TCq1    C8  205   1.845   0.813  11.285  0.3488 -0.3055 -0.3159
   13TCq1    O4  206   1.727   0.814  11.250 -0.2731  0.0937  0.0571
   13TCq1    C9  207   1.985   1.182  11.021  0.3925 -1.0600 -0.1377
   13TCq1    O5  208   2.075   1.255  10.975  0.5254  0.1576 -0.1777
   13TCq1    O6  209   1.871   1.187  10.967 -0.2225  0.6151 -0.7226
   13TCq1    H1  210   2.275   0.719  11.271  0.2317 -0.9984 -1.7847
   13TCq1    H2  211   2.215   1.094  11.057  0.8312 -1.5214 -0.5699
   13TCq1    H3  212   1.816   1.030  11.124 -0.5901  0.6448  0.4903
   13TCq1    H4  213   2.107   0.726  11.245  0.5887 -0.5453 -1.3248
   14MPD2     C  214   1.889   0.640  11.602  0.4277  0.3237 -0.0271
   14MPD2    C1  215   1.816   0.681  11.500  0.3159 -0.3326  0.4274
   14MPD2    C2  216   1.682   0.660  11.502  0.4450 -1.2916 -0.6798
   14MPD2    C3  217   1.620   0.592  11.610  0.2331  0.3141  0.3022
   14MPD2    C4  218   1.702   0.548  11.720  0.3787  0.3359 -0.0190
   14MPD2    C5  219   1.836   0.574  11.709  0.2910  0.0068  0.0520
   14MPD2     H  220   1.626   0.705  11.420  0.8631  1.6892  0.6699
   14MPD2    H1  221   1.661   0.492  11.804  0.5971  0.4333  0.1538
   14MPD2    H2  222   1.996   0.660  11.609  0.8477 -1.7850 -0.5330
   14MPD2    H3  223   1.898   0.526  11.784  1.2712  0.7982 -0.2452
   14MPD2     N  224   1.476   0.573  11.619  0.2434 -0.3789 -0.1824
   14MPD2    H5  225   1.415   0.614  11.549 -0.5370 -0.1178  0.6397
   14MPD2    N1  226   1.889   0.753  11.400  0.1543  0.5400 -0.3892
   14MPD2    H7  227   1.989   0.753  11.413  0.1724  0.1897 -0.5421
   15TCq1    O1  228   3.083   0.141   1.933 -0.5451 -0.5166  0.2607
   15TCq1    C1  229   3.037   0.012   1.932 -0.4825 -0.4992 -0.0554
   15TCq1    O2  230   2.925   4.727   1.901 -0.0043 -0.2843 -0.1374
   15TCq1    C2  231   3.158   4.688   1.898  0.3166  0.6000 -0.3295
   15TCq1    C3  232   3.272   4.705   1.975  0.4931  0.1534 -0.2972
   15TCq1    C4  233   3.387   4.650   1.933 -0.3797  0.2093 -0.2274
   15TCq1    C5  234   3.399   4.574   1.820 -0.6893  0.3335 -0.1127
   15TCq1    C6  235   3.287   4.556   1.751  0.0355  1.0242  0.2001
   15TCq1    C7  236   3.163   4.606   1.790  0.0887  0.2373 -0.2329
   15TCq1    C8  237   3.293   4.469   1.633  0.0773  0.5248 -0.3291
   15TCq1    O4  238   3.406   4.445   1.596  0.0234 -0.0814 -0.2230
   15TCq1    C9  239   3.505   4.683   2.020  0.3455  0.1919 -0.5542
   15TCq1    O5  240   3.501   0.044   2.089  0.3637 -0.2123  0.2564
   15TCq1    O6  241   3.598   4.603   2.011  0.8466  0.5572 -0.3036
   15TCq1    H1  242   3.177   0.139   1.903 -0.4702  2.2827  0.3318
   15TCq1    H2  243   3.265   0.009   2.072  0.2520  1.5919 -1.0167
   15TCq1    H3  244   3.498   4.552   1.781 -0.0133  4.2327 -0.6417
   15TCq1    H4  245   3.069   4.590   1.738  0.7502  0.9739 -1.6760
   16MPD2     C  246   3.007   4.292   1.464 -0.4166  0.3919  0.0344
   16MPD2    C1  247   3.135   4.318   1.501  0.5511 -0.3132 -0.0332
   16MPD2    C2  248   3.236   4.239   1.456  0.2220 -0.6443 -1.5671
   16MPD2    C3  249   3.211   4.126   1.374 -0.6297  0.3593 -0.2008
   16MPD2    C4  250   3.083   4.096   1.351  0.6185 -0.1942  0.6795
   16MPD2    C5  251   2.982   4.184   1.384 -0.6452 -0.5789 -0.1196
   16MPD2     H  252   3.333   4.264   1.498 -0.4353  0.9912 -0.9823
   16MPD2    H1  253   3.053   4.010   1.292  0.1831  1.5300 -1.6055
   16MPD2    H2  254   2.917   4.333   1.510 -0.1010  2.5706 -1.3276
   16MPD2    H3  255   2.881   4.166   1.351 -1.2878  0.2018  1.4180
   16MPD2     N  256   3.326   4.051   1.324  0.7829 -0.8410 -0.3936
   16MPD2    H5  257   3.416   4.091   1.349 -0.6326  1.3453  1.2350
   16MPD2    N1  258   3.166   4.428   1.587 -0.3095  0.3368  0.5311
   16MPD2    H7  259   3.090   4.487   1.619 -1.9094 -0.0842 -2.5383
   17TMC1    C1  260   0.856   3.761  10.597 -0.0708 -0.6876 -0.1335
   17TMC1    C2  261   0.897   3.736  10.728  0.6250  0.0508 -0.3402
   17TMC1    C3  262   0.819   3.656  10.806  0.2632 -0.3038  0.3718
   17TMC1    C4  263   0.746   3.700  10.539 -0.6498  0.5122  0.4192
   17TMC1    C5  264   0.679   3.613  10.618  0.0550  0.3127  0.1044
   17TMC1    C6  265   0.715   3.590  10.747 -0.7602 -0.6877  0.2764
   17TMC1     C  266   0.949   3.830  10.505  0.1061 -0.2358 -0.7986
   17TMC1     O  267   0.944   3.786  10.388  0.1885  0.2437  0.0884
   17TMC1     H  268   0.998   3.756  10.759 -0.4006  0.7163  2.5162
   17TMC1    H1  269   0.710   3.725  10.440 -1.8326 -0.1592  0.6791
   17TMC1    H2  270   0.660   3.526  10.814 -1.8598  0.3459  0.3607
   17TMC1    C7  271   0.544   3.592  10.591  0.6328  0.1338 -0.0650
   17TMC1    C8  272   0.851   3.624  10.947 -0.0466  0.9557  0.7540
   17TMC1    O1  273   0.473   3.666  10.517 -0.5393  0.1539 -0.2805
   17TMC1    O2  274   0.788   3.544  11.011  0.4911  0.0414  0.2137
   17TMC1    O3  275   0.494   3.489  10.669 -0.0037  0.3638 -0.0937
   17TMC1    H3  276   0.567   3.425  10.682 -0.9357 -0.5914  0.4031
   17TMC1    O5  277   0.974   3.680  10.984 -0.3437 -0.5896 -0.2648
   17TMC1    H5  278   1.006   3.753  10.927 -1.4158 -0.8011 -1.1189
   18MPD2     C  279   1.198   3.948  10.365 -0.1051 -0.4495  1.2335
   18MPD2    C1  280   1.172   3.952  10.502 -0.0938 -0.0650 -0.6260
   18MPD2    C2  281   1.266   4.014  10.584  0.9255  0.2695  0.3779
   18MPD2    C3  282   1.382   4.081  10.535 -0.2557 -0.7247 -0.2370
   18MPD2    C4  283   1.394   4.092  10.402 -0.0494  0.7205 -0.0666
   18MPD2    C5  284   1.311   4.019  10.318 -0.4447  0.0096  0.4602
   18MPD2     H  285   1.249   3.986  10.687 -0.4191 -0.5557 -0.0593
   18MPD2    H1  286   1.478   4.150  10.367  1.7587 -1.9314 -0.1474
   18MPD2    H2  287   1.127   3.898  10.300 -0.8639  0.9584  0.9499
   18MPD2    H3  288   1.320   4.043  10.213 -3.9528  1.1826  0.4332
   18MPD2     N  289   1.468   4.160  10.615  0.3636  0.1541 -0.1395
   18MPD2    H5  290   1.540   4.211  10.566  0.9114  0.3663  0.8862
   18MPD2    N1  291   1.052   3.900  10.565  0.3757 -0.3583 -0.4255
   18MPD2    H7  292   1.034   3.913  10.664 -0.3834  1.4988 -0.8163
   19TMC2    C1  293   3.780   4.707  14.288 -0.8111 -0.1294  0.4497
   19TMC2    C2  294   3.744   0.087  14.329  0.0879 -0.2860  0.5699
   19TMC2    C3  295   3.619   0.101  14.370  0.2480  0.4076 -0.1455
   19TMC2    C4  296   3.703   4.591  14.307  0.7831 -0.0393 -0.7696
   19TMC2    C5  297   3.578   4.616  14.361 -0.3029  0.9594 -0.2075
   19TMC2    C6  298   3.539   4.739  14.399  0.1740 -0.0661  0.2642
   19TMC2     C  299   3.910   4.691  14.237  0.3623  0.1599  0.0287
   19TMC2     O  300   3.974   0.049  14.211  0.0765  0.5172 -0.3915
   19TMC2     H  301   3.801   0.175  14.302 -1.1400 -0.3605 -2.2356
   19TMC2    H1  302   3.729   4.490  14.278  0.1266 -1.2695  2.8893
   19TMC2    H2  303   3.443   0.014  14.446  0.6199 -0.1421  1.2119
   19TMC2    C7  304   3.486   4.507  14.340 -0.6178 -0.1834 -0.0830
   19TMC2    C8  305   3.578   0.232  14.402 -0.7419 -0.0748  0.5713
   19TMC2    O1  306   3.535   4.395  14.326  0.3382  0.1103  0.4383
   19TMC2    O2  307   3.499   0.246  14.494  0.0607 -0.0956 -0.4033
   19TMC2    O5  308   3.554   0.283  14.281 -0.4742 -0.2471  0.4747
   19TMC2    H5  309   3.608   0.239  14.211  0.5749  1.4180  0.2271
   20MPD2     C  310   4.137   4.592  14.069  0.0912 -0.6379 -0.7920
   20MPD2    C1  311   4.063   4.518  14.159  0.2115 -0.4263 -0.3345
   20MPD2    C2  312   4.107   4.387  14.181  0.4072 -0.5138 -0.9080
   20MPD2    C3  313   4.213   4.322  14.111  0.1341  0.2864  1.4961
   20MPD2    C4  314   4.276   4.402  14.017  0.0772  0.1748 -0.5445
   20MPD2    C5  315   4.239   4.534  13.999  0.3264  0.7385 -0.0041
   20MPD2     H  316   4.065   4.324  14.259  1.7178  1.0792  1.0807
   20MPD2    H1  317   4.358   4.360  13.960 -0.0102 -1.9516  0.9073
   20MPD2    H2  318   4.113   4.696  14.048  2.2605  0.0746  0.2495
   20MPD2    H3  319   4.285   4.594  13.922  3.2713  0.2011  1.2967
   20MPD2     N  320   4.251   4.191  14.140  0.4664  0.0775 -0.2165
   20MPD2    H5  321   4.338   4.167  14.095  1.5049  0.5402  1.5467
   20MPD2    N1  322   3.954   4.565  14.232  0.5812  0.3818 -0.0582
   20MPD2    H7  323   3.902   4.494  14.284 -1.4173  1.6944 -0.2630
   21TMC2    C1  324   1.075   4.452  14.562  0.7704  0.2585  0.6036
   21TMC2    C2  325   1.090   4.318  14.581  0.2082 -0.0211 -0.1510
   21TMC2    C3  326   1.012   4.261  14.678 -0.4140  0.7114  1.2393
   21TMC2    C4  327   0.966   4.517  14.613  0.2252  0.1259 -0.2819
   21TMC2    C5  328   0.881   4.448  14.701  0.1207  0.1213 -0.0181
   21TMC2    C6  329   0.905   4.321  14.743  0.6265  0.4997  0.0557
   21TMC2     C  330   1.162   4.506  14.458  0.4237  0.8657  0.0238
   21TMC2     O  331   1.210   4.434  14.375  0.1373  0.3466 -0.0348
   21TMC2     H  332   1.167   4.264  14.526  0.6969  0.7024 -0.1775
   21TMC2    H1  333   0.946   4.623  14.599 -0.9945 -0.0672 -0.0457
   21TMC2    H2  334   0.831   4.269  14.801 -2.8077  1.5993 -3.3273
   21TMC2    C7  335   0.762   4.502  14.764  0.0154  0.0822 -0.5590
   21TMC2    C8  336   1.032   4.125  14.728 -0.2612  0.2984 -0.3426
   21TMC2    O1  337   0.718   4.448  14.860 -0.4515 -0.0654 -0.2774
   21TMC2    O2  338   0.943   4.056  14.770  0.2015 -0.4185 -0.0316
   21TMC2    O5  339   1.160   4.103  14.737  0.2247  0.1434  0.1062
   21TMC2    H5  340   1.218   4.167  14.692  0.2449  0.2726  0.3144
   22MPD2     C  341   1.529   0.094  14.341  0.2350 -0.7482 -0.2261
   22MPD2    C1  342   1.493   4.718  14.280 -0.4444  0.0624  0.0130
   22MPD2    C2  343   1.372   4.660  14.315  0.3776  0.1437 -0.3510
   22MPD2    C3  344   1.286   4.719  14.408 -0.3460 -0.5779  0.5457
   22MPD2    C4  345   1.316   0.104  14.459  0.6746 -0.5792 -0.5822
   22MPD2    C5  346   1.440   0.158  14.430 -0.7432 -0.4375  0.3001
   22MPD2     H  347   1.345   4.562  14.278 -1.8937 -0.2184  2.2927
   22MPD2    H1  348   1.246   0.148  14.530 -0.8281 -0.5877 -2.0416
   22MPD2    H2  349   1.623   0.143  14.317 -0.2149  0.9184  1.3692
   22MPD2    H3  350   1.465   0.254  14.474 -0.6967  0.3492 -1.4359
   22MPD2     N  351   1.179   4.642  14.473  0.0147 -0.0325 -0.1883
   22MPD2    H5  352   1.139   4.685  14.556 -0.2214 -0.3725 -0.1241
   22MPD2    N1  353   1.579   4.646  14.197 -0.1871 -0.2374  0.3489
   22MPD2    H7  354   1.536   4.560  14.165 -0.7146  0.0215  0.3648
   23TMC2    C1  355   1.457   1.073  15.036 -0.5948 -0.5217 -0.4617
   23TMC2    C2  356   1.368   1.152  15.110 -0.7465  0.5471 -0.5718
   23TMC2    C3  357   1.234   1.127  15.098 -0.4327 -0.3747  0.4593
   23TMC2    C4  358   1.416   0.969  14.962 -0.5338 -0.1646  0.2073
   23TMC2    C5  359   1.280   0.950  14.953 -0.3907  0.3049 -0.7774
   23TMC2    C6  360   1.185   1.024  15.023 -0.1742  0.8690  0.6488
   23TMC2     C  361   1.598   1.113  15.023  0.0559 -0.8717  0.2288
   23TMC2     O  362   1.684   1.026  14.988  0.4348  0.0083 -0.0869
   23TMC2     H  363   1.398   1.231  15.178  0.0607 -0.3368  0.1102
   23TMC2    H1  364   1.483   0.918  14.893 -0.2045  0.9114 -0.2604
   23TMC2    H2  365   1.081   0.996  15.037 -0.2942  1.5510  1.0875
   23TMC2    C7  366   1.233   0.864  14.847 -0.4270 -0.2271  0.8576
   23TMC2    C8  367   1.129   1.201  15.170 -0.3061  0.2220 -1.0058
   23TMC2    O1  368   1.295   0.766  14.811  0.5824 -0.2954 -0.0168
   23TMC2    O2  369   1.022   1.233  15.114 -0.2930 -0.2950 -0.3591
   23TMC2    O5  370   1.179   1.258  15.284  0.1142 -0.4603 -0.2280
   23TMC2    H5  371   1.257   1.206  15.313  0.2787 -0.9158 -1.4969
   24MPD2     C  372   1.949   1.484  15.056 -0.1153 -0.6496  0.2341
   24MPD2    C1  373   1.961   1.351  15.091 -0.6378 -0.4947 -0.0103
   24MPD2    C2  374   1.848   1.275  15.068  0.1218  0.1288  1.0438
   24MPD2    C3  375   1.722   1.323  15.024 -0.0165 -0.7403  0.5738
   24MPD2    C4  376   1.718   1.459  14.993  0.3295  0.3526 -0.3321
   24MPD2    C5  377   1.832   1.532  15.004 -0.2413 -0.1477 -0.3444
   24MPD2     H  378   1.862   1.169  15.085 -1.7742 -0.4242 -0.7587
   24MPD2    H1  379   1.628   1.507  14.957  0.5981 -0.1844 -1.7216
   24MPD2    H2  380   2.032   1.553  15.061 -0.2257 -0.3797 -1.6132
   24MPD2    H3  381   1.822   1.635  14.973  2.0550 -0.3500 -1.7623
   24MPD2     N  382   1.609   1.249  15.017  0.6744  0.7752  0.1677
   24MPD2    H5  383   1.523   1.298  14.994  1.6675  1.7973 -1.3088
   24MPD2    N1  384   2.077   1.314  15.162 -0.0206 -0.1895  0.3929
   24MPD2    H7  385   2.077   1.220  15.200  1.3573 -0.7369 -0.9548
   25TMC2    C1  386   1.306   3.037  11.664  0.6492 -0.2428  0.0978
   25TMC2    C2  387   1.441   3.064  11.651 -0.9584 -1.0680  0.1893
   25TMC2    C3  388   1.490   3.151  11.745 -0.0151 -0.3270  0.4241
   25TMC2    C4  389   1.217   3.097  11.749  0.6932 -0.9424 -0.8036
   25TMC2    C5  390   1.279   3.189  11.827 -0.1849  0.0284 -0.2810
   25TMC2    C6  391   1.412   3.212  11.831  0.1806 -0.5505  0.3540
   25TMC2     C  392   1.261   2.945  11.567  1.0425 -0.3618 -0.4275
   25TMC2     O  393   1.344   2.870  11.518 -0.3310 -0.3027  0.3007
   25TMC2     H  394   1.504   3.011  11.581 -2.8641  0.3396 -2.5657
   25TMC2    H1  395   1.112   3.076  11.765  0.2831  0.6692 -1.2904
   25TMC2    H2  396   1.437   3.295  11.896 -1.0498  0.0344  0.0773
   25TMC2    C7  397   1.197   3.260  11.914 -0.3364  0.6296 -0.2572
   25TMC2    C8  398   1.627   3.203  11.735  0.7420  0.3471 -0.0592
   25TMC2    O1  399   1.238   3.277  12.030  0.3020  0.1846  0.7801
   25TMC2    O2  400   1.656   3.320  11.766 -0.1628  0.0405  0.5256
   25TMC2    O5  401   1.709   3.093  11.749 -0.0266 -0.1808 -0.2777
   25TMC2    H5  402   1.664   3.006  11.746 -0.4485  0.0844 -1.6767
   26MPD2     C  403   0.907   2.685  11.292  0.0588 -0.5646  0.4438
   26MPD2    C1  404   0.841   2.774  11.378  0.8022 -0.2237  0.6788
   26MPD2    C2  405   0.916   2.852  11.464 -0.0586 -0.7680 -0.3361
   26MPD2    C3  406   1.056   2.851  11.458  0.1192  0.4971  0.7100
   26MPD2    C4  407   1.115   2.767  11.365  0.0875 -0.3280  0.2769
   26MPD2    C5  408   1.046   2.691  11.277  0.3552 -1.0789 -0.2817
   26MPD2     H  409   0.862   2.917  11.531  1.0857  0.2794 -0.4196
   26MPD2    H1  410   1.222   2.755  11.352  0.1167 -0.3500  0.5293
   26MPD2    H2  411   0.850   2.622  11.225  0.4827 -0.4275 -0.0427
   26MPD2    H3  412   1.100   2.624  11.211  0.8349  0.0615 -1.0361
   26MPD2     N  413   1.119   2.940  11.549  0.5613  0.1068  0.0936
   26MPD2    H5  414   1.064   3.015  11.591  0.4505  1.0695 -1.7521
   26MPD2    N1  415   0.699   2.774  11.355 -0.2077  0.0758  0.1222
   26MPD2    H7  416   0.673   2.709  11.282  0.9825 -0.3833  0.0948
   27TMC2    C1  417   4.717   1.025  11.851  0.1666 -0.0583  0.0036
   27TMC2    C2  418   0.025   0.901  11.832  0.2220  0.3695  0.2506
   27TMC2    C3  419   0.085   0.839  11.940 -0.6046  0.2314 -0.4619
   27TMC2    C4  420   4.741   1.098  11.963 -0.5818  0.0890 -0.2290
   27TMC2    C5  421   0.069   1.040  12.065  0.5430  1.2043  0.5457
   27TMC2    C6  422   0.108   0.909  12.055  0.3496 -0.3314 -0.7046
   27TMC2     C  423   4.595   1.051  11.776 -0.2679 -0.0290  0.1794
   27TMC2     O  424   4.559   0.953  11.712 -0.1303  0.0002  0.2137
   27TMC2     H  425   0.024   0.848  11.737  1.0100  2.4873 -0.9533
   27TMC2    H1  426   4.708   1.202  11.968 -0.2340  0.1365  1.1512
   27TMC2    H2  427   0.172   0.862  12.129  0.7042  2.9503  1.0862
   27TMC2    C7  428   0.104   1.109  12.189  0.6864  0.2748 -0.1504
   27TMC2    C8  429   0.044   0.699  11.938 -0.8763  0.5422 -0.5129
   27TMC2    O1  430   0.094   1.035  12.286  0.1261 -0.8590 -0.3482
   27TMC2    O2  431   0.095   0.621  11.859  0.0341  0.0519  0.1094
   27TMC2    O5  432   4.654   0.691  11.948 -0.6142 -0.2587 -0.3556
   27TMC2    H5  433   4.616   0.763  12.002  0.8283 -0.7123  1.2878
   28MPD2     C  434   4.120   1.227  11.790 -0.1200 -0.7519 -0.4117
   28MPD2    C1  435   4.190   1.291  11.889  0.1468 -0.4729 -0.5037
   28MPD2    C2  436   4.328   1.268  11.895  0.1847  0.1829  0.5292
   28MPD2    C3  437   4.395   1.188  11.804  0.2409  0.3281  0.4144
   28MPD2    C4  438   4.324   1.134  11.705  0.7026 -0.4030  0.6295
   28MPD2    C5  439   4.189   1.149  11.694  0.0996 -0.4391 -0.9934
   28MPD2     H  440   4.387   1.320  11.970  0.3850 -0.3225  0.7240
   28MPD2    H1  441   4.381   1.074  11.635 -2.5490  0.9412 -3.1395
   28MPD2    H2  442   4.016   1.253  11.772 -0.0571 -0.5352 -0.4683
   28MPD2    H3  443   4.144   1.103  11.607 -3.4620 -0.6529  0.9766
   28MPD2     N  444   4.532   1.155  11.826 -0.2253 -0.2064 -0.2993
   28MPD2    H5  445   4.582   1.201  11.901  1.6834 -1.8992 -0.5302
   28MPD2    N1  446   4.114   1.356  11.996  0.2665 -0.7794  0.3607
   28MPD2    H7  447   4.013   1.355  11.988  0.3880 -0.5597 -1.0263
   29TMC2    C1  448   4.461   3.025  14.341 -0.2564 -0.3000  0.0248
   29TMC2    C2  449   4.354   3.101  14.388 -0.6527 -0.1509  0.2288
   29TMC2    C3  450   4.386   3.230  14.419  0.0494  0.5173 -0.5159
   29TMC2    C4  451   4.583   3.079  14.313  0.4497 -0.1618 -1.1119
   29TMC2    C5  452   4.599   3.212  14.336  0.0009 -0.4475  0.2909
   29TMC2    C6  453   4.500   3.295  14.381 -0.5075  0.2794  0.7123
   29TMC2     C  454   4.431   2.895  14.295  0.3239  0.9625  0.6733
   29TMC2     O  455   4.528   2.821  14.272  0.3449 -0.4398  0.3596
   29TMC2     H  456   4.264   3.064  14.436  1.1202 -2.6445  1.5998
   29TMC2    H1  457   4.663   3.012  14.284 -0.4188 -1.2967 -0.8550
   29TMC2    H2  458   4.505   3.403  14.384  0.7603  0.2746 -0.8865
   29TMC2    C7  459   4.700   3.285  14.258 -0.4943 -0.0401  0.3611
   29TMC2    C8  460   4.338   3.260  14.558  0.5852  0.9229  0.2339
   29TMC2    O1  461   0.002   3.213  14.167 -0.3823 -0.0443 -0.0750
   29TMC2    O2  462   4.290   3.178  14.638 -0.1673  0.1179 -0.0261
   29TMC2    O5  463   4.400   3.378  14.592  0.0620 -0.2970 -0.0422
   29TMC2    H5  464   4.399   3.457  14.534  0.8119 -0.5308 -0.3729
   30MPD2     C  465   4.101   2.505  14.223 -0.3114  0.4757  0.2594
   30MPD2    C1  466   4.236   2.509  14.205 -0.6059 -0.1548 -0.1126
   30MPD2    C2  467   4.301   2.630  14.214 -0.1325  0.4568 -0.7139
   30MPD2    C3  468   4.237   2.750  14.252  0.2747 -0.2012 -0.1695
   30MPD2    C4  469   4.100   2.741  14.262  0.2447 -0.2738 -0.3147
   30MPD2    C5  470   4.036   2.623  14.245  0.3298  0.2205  0.3534
   30MPD2     H  471   4.409   2.634  14.204 -0.0345  3.0432  1.2274
   30MPD2    H1  472   4.038   2.828  14.281  1.7907 -0.1067  4.1009
   30MPD2    H2  473   4.045   2.413  14.230  2.7668 -1.6588 -2.5669
   30MPD2    H3  474   3.928   2.627  14.254  0.3689  0.8288  0.5205
   30MPD2     N  475   4.294   2.869  14.284 -0.6315  0.2326 -0.0911
   30MPD2    H5  476   4.236   2.944  14.322 -4.2613 -1.0996 -3.0046
   30MPD2    N1  477   4.315   2.398  14.180  0.1713  0.0117 -0.3000
   30MPD2    H7  478   4.415   2.411  14.184  0.3961 -1.3482 -1.3852
   31TMC2    C1  479   1.924   2.167  15.762 -0.3002 -0.2475 -0.2556
   31TMC2    C2  480   1.804   2.147  15.820 -0.4409 -1.0223 -0.2433
   31TMC2    C3  481   1.805   2.074  15.933 -0.2078  0.0626 -0.1826
   31TMC2    C4  482   2.041   2.116  15.810  0.1631 -0.3346  0.0766
   31TMC2    C5  483   2.037   2.036  15.916 -0.3642 -0.0349  0.6124
   31TMC2    C6  484   1.919   2.010  15.981  0.1742 -0.5841  0.2903
   31TMC2     C  485   1.937   2.255  15.646 -0.0990  0.0369  0.0711
   31TMC2     O  486   1.841   2.258  15.570  0.8473 -0.6039  0.6393
   31TMC2     H  487   1.713   2.182  15.772 -0.4460 -0.6696  0.0204
   31TMC2    H1  488   2.135   2.121  15.756 -0.0176 -2.2536 -0.3882
   31TMC2    H2  489   1.915   1.941  16.064 -2.3663  0.2539  0.8641
   31TMC2    C7  490   2.160   1.987  15.973 -0.1490  0.4777 -0.4465
   31TMC2    C8  491   1.684   2.033  16.006 -0.5030 -0.4377 -0.3346
   31TMC2    O1  492   2.143   1.875  16.022  0.6168 -0.1133  0.1294
   31TMC2    O2  493   1.682   1.935  16.074 -0.3815 -0.1673 -0.1486
   31TMC2    O5  494   1.588   2.115  15.978 -0.1623  0.1281 -0.7674
   31TMC2    H5  495   1.623   2.201  15.945  2.5826 -1.1887 -1.2258
   32MPD2     C  496   2.116   2.680  15.417 -0.3049  0.9589  0.1040
   32MPD2    C1  497   2.047   2.579  15.358  0.1211  0.2698 -0.1062
   32MPD2    C2  498   2.009   2.468  15.447  0.8272 -0.1127 -0.4858
   32MPD2    C3  499   2.070   2.453  15.568 -0.5721  0.2151 -0.0516
   32MPD2    C4  500   2.155   2.549  15.615 -0.0280  0.4800  0.4375
   32MPD2    C5  501   2.165   2.671  15.549 -0.2155  0.1448  0.1401
   32MPD2     H  502   1.946   2.387  15.412  1.0308 -0.4194 -0.1411
   32MPD2    H1  503   2.214   2.537  15.705 -0.6005 -0.7587  0.6587
   32MPD2    H2  504   2.135   2.771  15.361 -2.6508  0.9575 -0.7065
   32MPD2    H3  505   2.220   2.753  15.592 -0.4228  0.7497 -0.7412
   32MPD2     N  506   2.044   2.346  15.659 -0.4403 -0.0242 -0.2607
   32MPD2    H5  507   2.103   2.336  15.740 -1.0812 -1.9211 -0.0274
   32MPD2    N1  508   2.029   2.580  15.215 -0.1893  0.1278 -0.2415
   32MPD2    H7  509   2.076   2.653  15.162  0.7586  0.2153  0.7059
   33TMC2    C1  510   1.917   0.217  10.185  0.1789 -0.0618  0.0945
   33TMC2    C2  511   1.824   0.189  10.090  0.1594 -0.8652  0.1966
   33TMC2    C3  512   1.797   0.286   9.997  0.6956  0.5531 -0.6846
   33TMC2    C4  513   1.966   0.344  10.188  0.0222 -0.5497 -0.0868
   33TMC2    C5  514   1.930   0.442  10.101  0.7235 -0.6298 -0.2128
   33TMC2    C6  515   1.845   0.412  10.001 -0.0418  0.3325  0.4941
   33TMC2     C  516   1.922   0.124  10.295 -0.7417 -0.6066  0.8217
   33TMC2     O  517   1.854   0.024  10.300  0.0563 -0.4029 -0.1335
   33TMC2     H  518   1.780   0.090  10.082  0.5555 -0.8488 -2.2264
   33TMC2    H1  519   2.039   0.372  10.263 -0.9515 -0.0897  0.6899
   33TMC2    H2  520   1.817   0.478   9.920 -1.2564 -0.2481  0.4294
   33TMC2    C7  521   2.025   0.548  10.083 -0.3842 -0.3247 -0.1032
   33TMC2    C8  522   1.695   0.269   9.907 -0.3898 -0.4094 -0.0841
   33TMC2    O1  523   2.137   0.522  10.118 -0.0841 -0.2498 -0.7097
   33TMC2    O2  524   1.676   0.341   9.803 -0.0453  0.4952  0.5939
   33TMC2    O5  525   1.592   0.215   9.979 -0.1525  0.5914 -0.0468
   33TMC2    H5  526   1.613   0.199  10.074  2.1290  0.1598 -0.6231
   34MPD2     C  527   2.002   0.045  10.794 -0.2695 -0.4138  0.6646
   34MPD2    C1  528   1.913   4.731  10.710 -0.6230 -0.2083  0.6488
   34MPD2    C2  529   1.905   0.023  10.583  0.3563 -0.3984  0.2030
   34MPD2    C3  530   1.994   0.116  10.531 -0.1870 -0.8415  0.2246
   34MPD2    C4  531   2.081   0.171  10.622  0.0052  0.0010 -0.0154
   34MPD2    C5  532   2.096   0.129  10.744 -0.0364  0.1792  0.0162
   34MPD2     H  533   1.830   4.727  10.516  0.1749 -0.3517  0.3796
   34MPD2    H1  534   2.155   0.244  10.589  0.2288  0.6812  2.0345
   34MPD2    H2  535   2.002   0.010  10.896  3.1344  0.8798  1.0966
   34MPD2    H3  536   2.158   0.189  10.810 -0.8519  0.5495  0.4414
   34MPD2     N  537   1.997   0.171  10.397 -0.2274  0.3250  0.5731
   34MPD2    H5  538   2.048   0.258  10.384 -0.8097  0.5020 -0.4682
   34MPD2    N1  539   1.838   4.624  10.763  0.8610  0.2142  0.2724
   34MPD2    H7  540   1.878   4.585  10.847  0.3336  1.0100  0.9001
   35TMC2    C1  541   2.537   1.411  11.629 -0.7938  0.4851  0.6169
   35TMC2    C2  542   2.425   1.478  11.590 -0.9607  0.4997 -0.3560
   35TMC2    C3  543   2.300   1.438  11.644  0.3265  0.3037 -0.3820
   35TMC2    C4  544   2.517   1.297  11.707  0.5974  0.3058 -0.1001
   35TMC2    C5  545   2.394   1.255  11.751  0.3082 -0.0910  0.2232
   35TMC2    C6  546   2.282   1.334  11.729  0.5892  0.3004 -0.6111
   35TMC2     C  547   2.667   1.464  11.606 -0.2538  0.2215 -0.6576
   35TMC2     O  548   2.660   1.549  11.518 -1.3958 -0.2114 -0.1399
   35TMC2     H  549   2.427   1.559  11.518  1.4730  2.4827  1.9232
   35TMC2    H1  550   2.603   1.239  11.738  0.1327  0.5836  1.6874
   35TMC2    H2  551   2.185   1.314  11.773  1.5234  2.9380  2.6428
   35TMC2    C7  552   2.384   1.121  11.815  0.5915 -0.5979  0.0341
   35TMC2    C8  553   2.186   1.515  11.585  0.1669  0.5621  0.0798
   35TMC2    O1  554   2.482   1.068  11.864 -0.6367  0.6339 -0.0934
   35TMC2    O2  555   2.193   1.572  11.478 -0.3936 -0.0881 -0.4365
   35TMC2    O5  556   2.085   1.504  11.668 -0.5312 -0.2963 -0.3460
   35TMC2    H5  557   2.106   1.464  11.755  2.0704 -1.2770 -1.4337
   36MPD2     C  558   3.159   1.603  11.676  0.0898  0.7301  0.4370
   36MPD2    C1  559   3.144   1.483  11.753  0.5239 -0.8340  0.0664
   36MPD2    C2  560   3.014   1.432  11.763 -0.1608 -0.4743 -0.3037
   36MPD2    C3  561   2.905   1.485  11.688 -0.9488 -0.1531  0.1024
   36MPD2    C4  562   2.931   1.595  11.612  0.6974 -0.4169  0.2092
   36MPD2    C5  563   3.050   1.655  11.624  0.4996 -0.4372  0.2725
   36MPD2     H  564   2.996   1.354  11.835  1.1359 -2.0311 -1.6759
   36MPD2    H1  565   2.853   1.628  11.545  0.2246 -1.0787  0.4351
   36MPD2    H2  566   3.252   1.659  11.674  0.9524 -0.6360  2.7067
   36MPD2    H3  567   3.079   1.738  11.560 -2.1778 -0.6858 -1.2659
   36MPD2     N  568   2.772   1.429  11.695  0.4941  0.2489 -0.2873
   36MPD2    H5  569   2.743   1.350  11.753 -0.6893  0.2480 -0.8845
   36MPD2    N1  570   3.263   1.435  11.819  0.1916  0.0862  0.2908
   36MPD2    H7  571   3.346   1.492  11.810 -0.6794  1.5863  1.6486
   37TMC2    C1  572   0.637   1.559  11.756 -1.1175  0.3160  0.1679
   37TMC2    C2  573   0.530   1.585  11.675  0.0208 -0.1908  0.4417
   37TMC2    C3  574   0.556   1.639  11.550  0.4183  0.2706 -0.6362
   37TMC2    C4  575   0.767   1.583  11.710  0.4457 -0.2031  0.0407
   37TMC2    C5  576   0.783   1.625  11.587 -0.0139 -0.2445 -0.1632
   37TMC2    C6  577   0.679   1.652  11.498  0.1163  0.2311 -0.1249
   37TMC2     C  578   0.628   1.552  11.898 -0.4989  0.4426 -0.5145
   37TMC2     O  579   0.519   1.573  11.944  0.7143 -0.2241  0.6895
   37TMC2     H  580   0.424   1.579  11.697 -0.1287 -0.0784 -0.2346
   37TMC2    H1  581   0.853   1.564  11.773  0.6263  1.2459  0.2364
   37TMC2    H2  582   0.700   1.694  11.400  1.1174  0.6979  0.2931
   37TMC2    C7  583   0.923   1.662  11.556  0.1559  0.2050 -0.8007
   37TMC2    C8  584   0.439   1.671  11.468  0.1447 -0.3893 -0.4650
   37TMC2    O1  585   1.001   1.690  11.647  0.2755 -0.0514 -0.6627
   37TMC2    O2  586   0.330   1.620  11.486 -0.2954  0.2653  0.3230
   37TMC2    O5  587   0.461   1.792  11.410  0.6080 -0.1459  0.9733
   37TMC2    H5  588   0.549   1.834  11.417  0.6616 -0.3330  1.4596
   38MPD2     C  589   0.883   1.500  12.350 -0.1342  0.4589 -0.4053
   38MPD2    C1  590   0.940   1.424  12.252  0.0275  0.0955  0.6753
   38MPD2    C2  591   0.891   1.432  12.121  0.0436 -0.4410 -0.5600
   38MPD2    C3  592   0.777   1.502  12.093 -0.4893  0.2892 -0.0551
   38MPD2    C4  593   0.703   1.556  12.197 -0.0890  0.0809 -0.2920
   38MPD2    C5  594   0.768   1.570  12.316  0.2423  0.0436 -0.2395
   38MPD2     H  595   0.942   1.385  12.038 -0.7152 -0.8483 -0.7937
   38MPD2    H1  596   0.616   1.617  12.176  1.4209  1.9773 -0.9810
   38MPD2    H2  597   0.913   1.496  12.454  0.7055 -1.3458 -0.7198
   38MPD2    H3  598   0.716   1.634  12.387  1.1089 -0.7156  1.0919
   38MPD2     N  599   0.747   1.501  11.958 -0.2785  0.4877 -0.5751
   38MPD2    H5  600   0.818   1.472  11.892 -0.1323 -0.4197 -0.0092
   38MPD2    N1  601   1.048   1.334  12.266 -0.0407 -0.2234  0.5272
   38MPD2    H7  602   1.092   1.299  12.181  2.2935  0.8608  1.2878
   39TMC2    C1  603   3.509   3.717   1.600 -0.1123 -0.4289 -0.2678
   39TMC2    C2  604   3.425   3.807   1.658  0.5459  0.2428 -0.0272
   39TMC2    C3  605   3.477   3.936   1.679 -0.4041  0.2595 -0.6034
   39TMC2    C4  606   3.644   3.743   1.578 -0.2736  1.0403 -0.0898
   39TMC2    C5  607   3.690   3.870   1.600  0.6141  0.5055  0.1304
   39TMC2    C6  608   3.598   3.969   1.634  0.3964 -0.7057 -0.1213
   39TMC2     C  609   3.454   3.602   1.539 -0.5783  1.0536 -0.3058
   39TMC2     O  610   3.331   3.605   1.524 -0.3419  0.1927  0.6250
   39TMC2     H  611   3.318   3.795   1.655  0.6836 -0.5760 -2.5041
   39TMC2    H1  612   3.714   3.669   1.540  0.0598  0.7154  1.1571
   39TMC2    H2  613   3.634   4.071   1.639  1.2540 -1.0180  0.0915
   39TMC2    C7  614   3.835   3.901   1.594  0.1722  0.6039  0.0618
   39TMC2    C8  615   3.378   4.035   1.713 -0.5173  0.7061  0.3952
   39TMC2    O1  616   3.902   3.807   1.553 -0.4032  0.0907  0.4861
   39TMC2    O2  617   3.260   4.015   1.689 -0.2885  0.7126 -0.2058
   39TMC2    O5  618   3.428   4.159   1.739  0.2747 -0.1059  0.1229
   39TMC2    H5  619   3.516   4.168   1.782  0.2472  0.7419  0.0009
   40MPD2     C  620   3.612   3.268   1.470 -0.6389  0.5834  0.0539
   40MPD2    C1  621   3.508   3.357   1.500 -0.5827 -0.3926  0.7664
   40MPD2    C2  622   3.380   3.313   1.488  0.5250 -0.4912  0.3264
   40MPD2    C3  623   3.350   3.183   1.437  0.4450 -0.5007  0.4354
   40MPD2    C4  624   3.451   3.097   1.415 -0.2805  0.6880 -0.4534
   40MPD2    C5  625   3.582   3.146   1.422  0.2228 -0.1974 -0.2038
   40MPD2     H  626   3.302   3.387   1.498 -0.9496 -1.5987 -3.1454
   40MPD2    H1  627   3.437   3.008   1.354 -1.9189 -0.4458  1.5825
   40MPD2    H2  628   3.712   3.303   1.447  0.8368 -3.5176  0.1940
   40MPD2    H3  629   3.655   3.078   1.380 -0.6557 -1.3245  0.1028
   40MPD2     N  630   3.218   3.155   1.398  0.2775 -0.1574 -0.7698
   40MPD2    H5  631   3.206   3.066   1.351  0.9767 -1.1705  1.0007
   40MPD2    N1  632   3.540   3.491   1.532  0.2534  0.0195 -0.0604
   40MPD2    H7  633   3.636   3.504   1.560  0.2024 -0.2016  0.2171
   41TMC2    C1  634   3.467   1.230  13.719 -0.2539 -0.1757  0.7100
   41TMC2    C2  635   3.554   1.222  13.824 -0.0405 -0.5731  0.3482
   41TMC2    C3  636   3.687   1.253  13.796 -0.2478 -0.7304  0.2474
   41TMC2    C4  637   3.495   1.275  13.593  0.5618 -0.6693  0.3767
   41TMC2    C5  638   3.629   1.309  13.572  0.2170  0.2299  0.7856
   41TMC2    C6  639   3.718   1.286  13.671  0.4958 -0.2609 -0.9615
   41TMC2     C  640   3.324   1.239  13.750 -0.2796 -0.2496 -0.4736
   41TMC2     O  641   3.252   1.242  13.652 -0.6049  0.0541  0.2990
   41TMC2     H  642   3.522   1.182  13.920 -1.1411  4.5271  2.1137
   41TMC2    H1  643   3.418   1.301  13.520  0.7865  0.6731  0.6203
   41TMC2    H2  644   3.817   1.323  13.645  1.7966 -2.7281  0.4986
   41TMC2    C7  645   3.669   1.389  13.450  0.7697  0.3738  0.3343
   41TMC2    C8  646   3.790   1.219  13.892 -0.1639  1.0348  0.6845
   41TMC2    O1  647   3.739   1.485  13.481  0.7723 -0.1358  0.2220
   41TMC2    O2  648   3.897   1.167  13.864  0.2899 -0.7913 -0.5241
   41TMC2    O5  649   3.727   1.232  14.013  0.9411  0.6978 -0.9907
   41TMC2    H5  650   3.661   1.304  14.018 -0.2563 -0.3321 -1.9932
   42MPD2     C  651   3.049   1.243  13.882  0.0518 -0.5200 -0.2193
   42MPD2    C1  652   3.171   1.221  13.945 -0.1771  0.1273  0.2137
   42MPD2    C2  653   3.167   1.191  14.080 -0.5487 -0.3082 -0.4979
   42MPD2    C3  654   3.040   1.203  14.147  0.9658  0.9115  0.5566
   42MPD2    C4  655   2.918   1.225  14.078 -0.7320 -0.7190 -0.1057
   42MPD2    C5  656   2.926   1.234  13.947  0.4091  1.3625 -0.2659
   42MPD2     H  657   3.259   1.178  14.136 -1.1162 -2.3006 -0.0250
   42MPD2    H1  658   2.821   1.236  14.125 -0.8635 -0.7982 -0.3596
   42MPD2    H2  659   3.056   1.264  13.776 -0.9857 -2.0525 -0.5986
   42MPD2    H3  660   2.833   1.265  13.900 -0.0817 -2.3362 -1.6866
   42MPD2     N  661   3.027   1.188  14.286  0.1543 -0.4793  0.0604
   42MPD2    H5  662   2.936   1.207  14.327  0.3826 -1.2217  0.9147
   42MPD2    N1  663   3.293   1.220  13.885 -0.1785  0.4015  0.3028
   42MPD2    H7  664   3.369   1.203  13.950  0.4420 -1.2754 -0.8518
   43TMC2    C1  665   3.865   4.373   0.615  0.3958  0.5929  0.3585
   43TMC2    C2  666   3.759   4.459   0.597 -0.0173  0.1109 -0.5288
   43TMC2    C3  667   3.714   4.534   0.702  0.0509 -0.0727  0.1299
   43TMC2    C4  668   3.921   4.355   0.738 -0.4375 -0.2015  0.3610
   43TMC2    C5  669   3.883   4.436   0.841 -0.4051 -0.5609 -0.3568
   43TMC2    C6  670   3.781   4.531   0.823 -0.2769 -0.1765  0.4060
   43TMC2     C  671   3.936   4.313   0.504 -0.2279  0.2281 -0.6717
   43TMC2     O  672   4.016   4.226   0.527  0.2568  0.1248  0.3562
   43TMC2     H  673   3.702   4.466   0.505 -0.1172 -2.5429 -0.6842
   43TMC2    H1  674   4.005   4.288   0.753  1.3592  1.8402 -0.4769
   43TMC2    H2  675   3.752   4.599   0.902 -0.1645  0.7296 -0.3416
   43TMC2    C7  676   3.949   4.416   0.970 -0.2012  0.0447 -0.0038
   43TMC2    C8  677   3.620   4.641   0.694 -0.6521 -0.0366 -0.0939
   43TMC2    O1  678   4.022   4.316   0.979  0.2274 -0.2911  0.1390
   43TMC2    O2  679   3.580   4.708   0.786 -0.5346 -0.4103  0.1184
   43TMC2    O5  680   3.581   4.653   0.569 -0.5108  0.1461  0.0669
   43TMC2    H5  681   3.618   4.591   0.503 -1.9586  0.9067 -1.4609
   44MPD2     C  682   4.048   4.247   0.001 -0.2388 -0.2291 -0.6754
   44MPD2    C1  683   4.117   4.196   0.109  0.6161  0.6867  0.3298
   44MPD2    C2  684   4.069   4.227   0.236 -0.5795  0.3130 -0.1777
   44MPD2    C3  685   3.962   4.321   0.254  0.2243 -0.1990  0.4883
   44MPD2    C4  686   3.900   4.370   0.143  0.3892  0.1692 -0.0688
   44MPD2    C5  687   3.943   4.334   0.018 -0.2559 -0.2836  0.0525
   44MPD2     H  688   4.115   4.182   0.324 -0.7543 -0.1516 -0.3255
   44MPD2    H1  689   3.829   4.451   0.154 -1.5273 -1.5218  0.0826
   44MPD2    H2  690   4.065   4.222  17.669 -0.6190  0.0834 -0.8130
   44MPD2    H3  691   3.890   4.378  17.706  1.1253 -0.4390 -0.9092
   44MPD2     N  692   3.912   4.369   0.381  0.2795  0.2013 -0.2972
   44MPD2    H5  693   3.842   4.443   0.378  0.7607  0.7695  2.1852
   44MPD2    N1  694   4.235   4.112   0.093 -0.3170  0.2702  0.0432
   44MPD2    H7  695   4.286   4.075   0.172 -2.6668  1.1739  1.9920
   45TMC2    C1  696   0.326   1.726   9.595  0.3752 -0.0800 -0.2408
   45TMC2    C2  697   0.280   1.818   9.501  0.3537  0.4663 -0.2108
   45TMC2    C3  698   0.359   1.923   9.472  0.8685 -0.2563  0.8922
   45TMC2    C4  699   0.448   1.732   9.653 -0.8589 -0.2917 -0.1958
   45TMC2    C5  700   0.524   1.852   9.632 -0.4176  0.0082  0.2346
   45TMC2    C6  701   0.474   1.942   9.537 -0.2833  0.1424  0.5317
   45TMC2     C  702   0.251   1.598   9.617  0.2603  0.3495  0.0962
   45TMC2     O  703   0.318   1.503   9.659 -0.6832  0.1409  0.0242
   45TMC2     H  704   0.188   1.799   9.447  1.4333 -0.7677 -1.6272
   45TMC2    H1  705   0.473   1.655   9.726 -0.1937  0.3065  0.2019
   45TMC2    H2  706   0.525   2.036   9.518 -0.8125 -0.0650 -1.8293
   45TMC2    C7  707   0.631   1.885   9.729  0.5727  0.2441  0.2431
   45TMC2    C8  708   0.312   2.021   9.369  0.4707 -0.0583  0.3056
   45TMC2    O1  709   0.655   1.817   9.826  0.0291  0.1441 -0.5999
   45TMC2    O2  710   0.216   1.992   9.297  0.6364 -0.2836 -0.0600
   45TMC2    O5  711   0.324   2.142   9.432 -0.7830 -0.0207  0.8313
   45TMC2    H5  712   0.398   2.155   9.495 -1.1385  0.4804  1.1491
   46MPD2     C  713   0.066   1.357   9.634  0.1134 -0.0302 -0.5765
   46MPD2    C1  714   0.024   1.493   9.614 -0.0866 -0.8401 -0.4435
   46MPD2    C2  715   4.631   1.518   9.611 -0.3451  0.0264 -0.3433
   46MPD2    C3  716   4.536   1.420   9.635 -0.0268  0.5150 -0.1283
   46MPD2    C4  717   4.584   1.288   9.653 -0.1880 -0.2579 -0.1512
   46MPD2    C5  718   4.712   1.267   9.658  0.3278  0.0559  0.0095
   46MPD2     H  719   4.608   1.622   9.591  2.0882  0.7283  0.5191
   46MPD2    H1  720   4.524   1.209   9.696  0.2894 -0.7009 -0.3067
   46MPD2    H2  721   0.163   1.310   9.639  0.4521  0.7825  0.4044
   46MPD2    H3  722   4.742   1.166   9.683 -2.6045 -1.2114 -1.5849
   46MPD2     N  723   4.392   1.455   9.643 -0.2566 -0.2436 -0.3528
   46MPD2    H5  724   4.364   1.552   9.631 -0.4515 -0.3712 -0.9741
   46MPD2    N1  725   0.111   1.604   9.602 -0.6707  0.0149 -0.3277
   46MPD2    H7  726   0.071   1.685   9.557  0.4254 -0.0084 -1.3490
   47TMC2    C1  727   3.057   2.688   9.344 -1.1321  0.1345 -0.3346
   47TMC2    C2  728   3.104   2.621   9.234 -0.0735  0.1870  0.1381
   47TMC2    C3  729   3.032   2.635   9.116 -0.0748  0.4602  0.6540
   47TMC2    C4  730   2.956   2.779   9.343 -0.1397 -0.0139  0.3687
   47TMC2    C5  731   2.889   2.789   9.223  0.3283 -0.0812  0.1614
   47TMC2    C6  732   2.926   2.723   9.109  0.3942  0.2691  0.6901
   47TMC2     C  733   3.137   2.666   9.461  0.4153  0.0787 -0.3956
   47TMC2     O  734   3.170   2.762   9.530  0.3870 -0.2472  0.7779
   47TMC2     H  735   3.198   2.568   9.240  0.0268  0.3771  0.2395
   47TMC2    H1  736   2.939   2.842   9.430 -1.7614  0.9687 -0.6446
   47TMC2    H2  737   2.880   2.722   9.011  0.7577  1.4920  0.5131
   47TMC2    C7  738   2.772   2.879   9.229  1.0795 -0.3962 -0.5080
   47TMC2    C8  739   3.079   2.561   9.005 -0.1461 -0.4972  0.4726
   47TMC2    O1  740   2.727   2.901   9.339  0.0843  0.5580 -0.0721
   47TMC2    O2  741   3.035   2.580   8.893 -0.1678 -0.3288  0.3541
   47TMC2    O5  742   3.099   2.436   9.052  0.2292 -0.5703  0.4111
   47TMC2    H5  743   3.077   2.419   9.146  1.8781  1.1569  1.1044
   48MPD2     C  744   3.329   2.560   9.656 -0.4988 -0.1336  0.4841
   48MPD2    C1  745   3.272   2.477   9.561 -0.6737  0.1155  0.4392
   48MPD2    C2  746   3.304   2.341   9.567 -0.5638 -0.3954  0.0428
   48MPD2    C3  747   3.381   2.279   9.659  0.3844 -0.0140  0.5731
   48MPD2    C4  748   3.428   2.366   9.754  0.1005  0.1051  0.0995
   48MPD2    C5  749   3.402   2.501   9.752 -0.4943 -0.1779 -0.5061
   48MPD2     H  750   3.247   2.278   9.501  1.0025  0.0419 -1.7313
   48MPD2    H1  751   3.493   2.341   9.837  1.3645  0.1426 -0.8741
   48MPD2    H2  752   3.304   2.664   9.676 -1.5866 -0.4346  0.7068
   48MPD2    H3  753   3.451   2.572   9.818  0.6397 -2.6867  1.3758
   48MPD2     N  754   3.394   2.142   9.663  0.4017  0.1070 -0.1010
   48MPD2    H5  755   3.343   2.096   9.588  1.1592 -0.0757 -0.5114
   48MPD2    N1  756   3.174   2.532   9.465  0.3226 -0.7063 -0.5346
   48MPD2    H7  757   3.135   2.467   9.397 -0.9661  0.6541 -1.0851
   49TMC2    C1  758   0.842   0.214  10.978  0.3366  0.8324 -0.1793
   49TMC2    C2  759   0.759   0.232  11.090  0.2206  0.3436 -0.1263
   49TMC2    C3  760   0.782   0.154  11.206  0.3861 -0.8527 -0.8145
   49TMC2    C4  761   0.941   0.121  10.975 -0.1196  0.1883 -0.2787
   49TMC2    C5  762   0.971   0.055  11.087 -0.2590  0.4208 -0.0998
   49TMC2    C6  763   0.892   0.062  11.208 -0.1492 -0.8138 -0.4107
   49TMC2     C  764   0.808   0.296  10.860 -0.5524  0.3964 -0.2982
   49TMC2     O  765   0.887   0.297  10.768  0.4766  0.1138  0.3100
   49TMC2     H  766   0.687   0.311  11.105 -3.2045 -2.7159 -0.4986
   49TMC2    H1  767   1.013   0.114  10.894  0.9294  1.1809  0.5692
   49TMC2    H2  768   0.896   4.732  11.287  1.6775  0.3061  0.5350
   49TMC2    C7  769   1.086   4.716  11.092  0.2571  0.8181 -1.4300
   49TMC2    C8  770   0.682   0.144  11.309 -0.2388  0.1183 -0.3266
   49TMC2    O1  771   1.129   4.663  10.990  0.5309 -0.0169 -0.2714
   49TMC2    O2  772   0.571   0.197  11.305 -0.1887 -0.4355 -0.3235
   49TMC2    O5  773   0.755   0.144  11.421  0.2632  0.4975  0.0374
   49TMC2    H5  774   0.844   0.101  11.424 -0.4215 -0.8733  0.8098
   50MPD2     C  775   0.668   0.457  10.639  0.6046  0.3524  0.6093
   50MPD2    C1  776   0.621   0.440  10.767 -0.1993  0.3405 -0.8552
   50MPD2    C2  777   0.506   0.521  10.798 -0.4983  0.2119  0.3558
   50MPD2    C3  778   0.453   0.609  10.705 -0.1498  0.0408  0.0501
   50MPD2    C4  779   0.511   0.627  10.585 -0.0575  0.2835  0.1877
   50MPD2    C5  780   0.617   0.543  10.551 -0.2845  0.1005 -0.1040
   50MPD2     H  781   0.471   0.518  10.900  0.1434  0.5263  0.5843
   50MPD2    H1  782   0.467   0.687  10.506  1.9284  2.6117  0.8428
   50MPD2    H2  783   0.745   0.395  10.594  0.4134 -1.8370  3.2987
   50MPD2    H3  784   0.669   0.553  10.457  0.7671  2.4749  0.7393
   50MPD2     N  785   0.347   0.697  10.743 -0.5319  0.4329  0.2551
   50MPD2    H5  786   0.339   0.779  10.684  0.0816 -0.4760 -1.0780
   50MPD2    N1  787   0.683   0.357  10.867  0.4381 -0.0663  0.2704
   50MPD2    H7  788   0.628   0.332  10.949  0.2916  1.0041  0.4899
   51TMC2    C1  789   1.915   2.979   1.689  0.1182  0.1491  0.1378
   51TMC2    C2  790   2.026   2.915   1.746 -0.0293  0.0274 -0.8398
   51TMC2    C3  791   2.087   2.975   1.858  0.4332  0.1241  0.1056
   51TMC2    C4  792   1.878   3.105   1.728 -0.1277 -0.0397  0.3741
   51TMC2    C5  793   1.945   3.163   1.837  0.1753 -0.4009 -0.1117
   51TMC2    C6  794   2.057   3.103   1.897 -0.8984 -0.7994 -0.4376
   51TMC2     C  795   1.840   2.892   1.596 -0.1775  0.3416  0.4370
   51TMC2     O  796   1.888   2.789   1.557  0.2059 -0.1818  0.1593
   51TMC2     H  797   2.042   2.811   1.720 -2.7841 -0.3941 -0.8383
   51TMC2    H1  798   1.798   3.152   1.672 -0.0526  0.0562  0.3482
   51TMC2    H2  799   2.121   3.162   1.962 -0.1042 -0.3116 -1.6611
   51TMC2    C7  800   1.895   3.286   1.897  0.1265 -0.6512 -0.6318
   51TMC2    C8  801   2.224   2.940   1.890  0.0992  0.1573  0.3375
   51TMC2    O1  802   1.961   3.342   1.985  0.4455 -0.0221  0.2499
   51TMC2    O2  803   2.312   3.016   1.926 -0.1089  0.3360 -0.4078
   51TMC2    O5  804   2.245   2.814   1.849 -0.0912 -0.1407 -0.2004
   51TMC2    H5  805   2.172   2.752   1.869  0.2906 -0.3920  0.4385
   52MPD2     C  806   1.488   2.842   1.236  0.4784  0.0622 -0.5491
   52MPD2    C1  807   1.611   2.781   1.260  0.8874  0.0778  0.2602
   52MPD2    C2  808   1.681   2.813   1.373 -0.1767 -0.3789  0.4401
   52MPD2    C3  809   1.638   2.911   1.455  0.0915  0.1714  0.3739
   52MPD2    C4  810   1.529   2.984   1.419  0.6881 -0.3687  0.2933
   52MPD2    C5  811   1.459   2.954   1.309 -0.2187  0.1922 -0.3298
   52MPD2     H  812   1.776   2.763   1.386  1.1591  1.4969 -2.1489
   52MPD2    H1  813   1.501   3.070   1.479 -1.0175 -0.3110 -0.6049
   52MPD2    H2  814   1.437   2.832   1.141 -0.0727 -0.4742 -0.1933
   52MPD2    H3  815   1.375   3.017   1.283  1.5622  2.2056 -1.2244
   52MPD2     N  816   1.715   2.953   1.566 -0.2410  0.0410  0.7481
   52MPD2    H5  817   1.671   3.022   1.625 -0.2025  1.3752 -0.7861
   52MPD2    N1  818   1.669   2.690   1.170  0.5088  0.3866  0.2489
   52MPD2    H7  819   1.753   2.638   1.195 -0.5716 -1.2709  0.4571
   53TMC2    C1  820   1.654   1.785  11.561 -0.3496  0.2779 -0.0791
   53TMC2    C2  821   1.790   1.800  11.537 -0.6964  0.7034  0.0021
   53TMC2    C3  822   1.867   1.823  11.639 -0.1183  0.4149  0.0325
   53TMC2    C4  823   1.599   1.817  11.685 -0.3705 -0.3648  0.9365
   53TMC2    C5  824   1.686   1.844  11.787 -0.6955 -0.4728 -0.4028
   53TMC2    C6  825   1.821   1.852  11.764  0.0258  0.6435  0.4288
   53TMC2     C  826   1.568   1.739  11.456  0.6402  0.2734  0.3726
   53TMC2     O  827   1.626   1.719  11.349  0.1546  0.5487  0.5230
   53TMC2     H  828   1.834   1.750  11.451  0.6277 -1.9014  2.1809
   53TMC2    H1  829   1.492   1.830  11.696 -0.2928 -0.1571  1.4061
   53TMC2    H2  830   1.889   1.893  11.838  0.8792  0.4154 -0.2293
   53TMC2    C7  831   1.627   1.834  11.915  0.1552 -0.4589  0.1291
   53TMC2    C8  832   2.014   1.822  11.630  0.2576  0.4739  0.5752
   53TMC2    O1  833   1.506   1.845  11.916 -0.0602 -0.3022  0.0322
   53TMC2    O2  834   2.075   1.820  11.737 -0.1761  0.3703  0.2648
   53TMC2    O5  835   2.044   1.900  11.523 -0.1186 -0.9156  0.1284
   53TMC2    H5  836   1.972   1.907  11.456 -0.4512 -0.7528  0.5002
   54MPD2     C  837   1.334   1.733  11.269 -0.0994  0.2944 -0.3087
   54MPD2    C1  838   1.320   1.705  11.405 -0.0199  0.7279  0.1119
   54MPD2    C2  839   1.197   1.672  11.456 -0.0172 -0.2029 -0.0418
   54MPD2    C3  840   1.090   1.662  11.372  0.0930  0.1537  0.2824
   54MPD2    C4  841   1.105   1.677  11.235 -0.6351  0.3349  0.2540
   54MPD2    C5  842   1.230   1.711  11.183  0.5803  0.0830 -0.7300
   54MPD2     H  843   1.187   1.655  11.563 -0.7781  1.3881  0.1360
   54MPD2    H1  844   1.022   1.667  11.166 -1.8456  2.1173  1.4276
   54MPD2    H2  845   1.433   1.746  11.226  0.0221  0.7113  0.0991
   54MPD2    H3  846   1.232   1.712  11.075 -1.6594  1.2937 -0.7638
   54MPD2     N  847   0.958   1.644  11.421  0.2876  0.2385  0.8632
   54MPD2    H5  848   0.884   1.622  11.355  1.7843 -0.4706 -0.5791
   54MPD2    N1  849   1.435   1.727  11.493  0.5879 -0.6994  0.1788
   54MPD2    H7  850   1.413   1.722  11.592 -0.7729  0.7571 -0.0560
   55TMC2    C1  851   2.201   4.041   0.347  0.3999  0.2787  0.3738
   55TMC2    C2  852   2.318   4.034   0.273  0.8319  0.0692  0.3305
   55TMC2    C3  853   2.413   3.944   0.303 -0.1581  0.2505 -0.0546
   55TMC2    C4  854   2.187   3.974   0.469  0.2741  0.3680  0.6525
   55TMC2    C5  855   2.295   3.889   0.508  0.1529 -0.4697  0.0645
   55TMC2    C6  856   2.405   3.867   0.423  0.0770 -0.5001 -0.5109
   55TMC2     C  857   2.104   4.139   0.335 -0.2012 -0.1156 -0.2012
   55TMC2     O  858   2.000   4.115   0.393  0.8304 -0.3105  0.6859
   55TMC2     H  859   2.316   4.096   0.184 -0.1277 -1.4988 -0.7491
   55TMC2    H1  860   2.109   4.007   0.537 -0.2386 -0.2788  0.3801
   55TMC2    H2  861   2.489   3.812   0.465  1.2420  0.6698 -1.2936
   55TMC2    C7  862   2.275   3.796   0.616 -0.2181 -0.3059  0.2576
   55TMC2    C8  863   2.528   3.949   0.221  0.1053  0.5856  0.8376
   55TMC2    O1  864   2.384   3.751   0.660  0.3792 -0.0635  0.4757
   55TMC2    O2  865   2.547   4.031   0.135  0.3902 -0.5358 -0.3222
   55TMC2    O5  866   2.602   3.834   0.239  0.6745 -0.1982  0.3953
   55TMC2    H5  867   2.570   3.778   0.313 -0.7887  1.2163  0.8349
   56MPD2     C  868   2.122   4.463   0.173  0.1596 -0.1826  0.0345
   56MPD2    C1  869   2.060   4.354   0.224  0.2664  0.1944 -0.9168
   56MPD2    C2  870   1.925   4.357   0.241 -1.2121 -0.1494  0.6854
   56MPD2    C3  871   1.852   4.471   0.211  0.3891 -0.9473  0.3595
   56MPD2    C4  872   1.915   4.586   0.164  0.5997  0.3569 -0.5243
   56MPD2    C5  873   2.050   4.574   0.143 -0.9549 -0.3525  0.5451
   56MPD2     H  874   1.869   4.270   0.273 -1.4132 -1.1176 -2.2967
   56MPD2    H1  875   1.864   4.678   0.137  1.8662  1.0751 -0.4861
   56MPD2    H2  876   2.228   4.471   0.152 -0.1629  1.3793 -0.9486
   56MPD2    H3  877   2.097   4.664   0.105 -1.6665  0.3704  1.3703
   56MPD2     N  878   1.708   4.460   0.216  0.2540  0.0379 -0.1118
   56MPD2    H5  879   1.669   4.377   0.258  1.4537 -0.3079  0.3286
   56MPD2    N1  880   2.142   4.246   0.259 -0.2106  0.0228 -0.3031
   56MPD2    H7  881   2.241   4.248   0.240 -0.1449  1.7251  0.2688
   57TMC2    C1  882   1.753   0.341  13.625 -0.0301  0.4938  0.8042
   57TMC2    C2  883   1.717   0.468  13.619  0.0132  0.2706  0.6350
   57TMC2    C3  884   1.817   0.559  13.581  0.2546 -0.0675 -0.2049
   57TMC2    C4  885   1.883   0.302  13.637 -0.3041 -0.7208  0.0396
   57TMC2    C5  886   1.978   0.399  13.627 -0.2358  0.3588  0.3013
   57TMC2    C6  887   1.944   0.529  13.605 -0.3925 -0.2016 -0.2669
   57TMC2     C  888   1.649   0.261  13.683 -0.6062 -0.9209  0.6342
   57TMC2     O  889   1.545   0.317  13.702 -0.0096  0.6823 -0.0791
   57TMC2     H  890   1.616   0.500  13.595  1.1040  3.7220  0.5447
   57TMC2    H1  891   1.904   0.199  13.662  0.8851 -0.4022  0.3374
   57TMC2    H2  892   2.015   0.607  13.629  0.2424 -1.0268  0.5411
   57TMC2    C7  893   2.111   0.373  13.686 -0.0725 -0.4173 -0.3584
   57TMC2    C8  894   1.773   0.693  13.551 -0.4123  0.2041 -0.2182
   57TMC2    O1  895   2.172   0.472  13.721  0.3339  0.0608 -0.5272
   57TMC2    O2  896   1.661   0.730  13.588 -0.2029 -0.4535  0.1167
   57TMC2    O5  897   1.824   0.738  13.437 -0.1879  0.1943  0.4240
   57TMC2    H5  898   1.900   0.679  13.417  0.2578  1.3598 -1.3816
   58MPD2     C  899   1.400   4.583  13.810 -0.8018  0.4725  0.9793
   58MPD2    C1  900   1.392   4.705  13.861 -0.1864 -0.5110  0.4259
   58MPD2    C2  901   1.481   0.054  13.814  0.5230 -0.9515 -0.6304
   58MPD2    C3  902   1.571   0.025  13.721 -0.0414  0.7522  0.2640
   58MPD2    C4  903   1.573   4.640  13.667  0.0377 -0.2891 -0.1556
   58MPD2    C5  904   1.484   4.550  13.711 -0.3082 -1.0375  0.3324
   58MPD2     H  905   1.477   0.157  13.846  0.6466 -0.9215 -0.7113
   58MPD2    H1  906   1.645   4.610  13.592  0.6735 -0.3838  0.4939
   58MPD2    H2  907   1.344   4.498  13.847  0.0651 -0.4440  0.2164
   58MPD2    H3  908   1.481   4.449  13.673  1.8788 -1.7081  1.9257
   58MPD2     N  909   1.668   0.124  13.671 -0.0794  0.5964  0.4029
   58MPD2    H5  910   1.736   0.086  13.606 -0.1834  0.2471  0.4975
   58MPD2    N1  911   1.302   0.005  13.956 -0.2729  0.1374  0.2274
   58MPD2    H7  912   1.315   0.101  13.984  0.6999  0.8768 -2.8508
   59TMC2    C1  913   4.003   0.531  12.667  0.5908 -0.2190  0.6856
   59TMC2    C2  914   4.047   0.402  12.666  0.5133 -0.1148 -0.0231
   59TMC2    C3  915   3.963   0.305  12.616  0.7331  0.0784 -0.0727
   59TMC2    C4  916   3.890   0.570  12.599 -0.1954 -0.2518 -0.0461
   59TMC2    C5  917   3.814   0.469  12.538 -0.0536 -0.5357 -0.2812
   59TMC2    C6  918   3.851   0.341  12.542 -0.0017  0.4046 -0.3318
   59TMC2     C  919   4.063   0.635  12.748 -0.3631 -0.0919 -0.0006
   59TMC2     O  920   4.022   0.752  12.740 -0.0913 -0.1279 -0.0495
   59TMC2     H  921   4.153   0.381  12.680  0.8122  0.9382 -0.6935
   59TMC2    H1  922   3.853   0.670  12.615  1.0918  0.4259 -1.2897
   59TMC2    H2  923   3.787   0.259  12.510  1.1874 -1.3716  1.8455
   59TMC2    C7  924   3.683   0.495  12.483 -0.1416 -0.0063  0.1991
   59TMC2    C8  925   3.997   0.163  12.627 -0.0467  0.0108  0.1066
   59TMC2    O1  926   3.619   0.400  12.447  0.2868 -0.1038  0.3648
   59TMC2    O2  927   3.961   0.080  12.543  0.4661  0.2566  0.3297
   59TMC2    O5  928   4.023   0.141  12.759  0.1286 -0.5352 -0.2839
   59TMC2    H5  929   4.043   0.219  12.815  2.9720 -2.0585  0.8496
   60MPD2     C  930   4.209   0.770  12.973 -0.4962  0.7269  0.2957
   60MPD2    C1  931   4.209   0.632  12.956  0.2554 -0.3893 -0.6104
   60MPD2    C2  932   4.253   0.552  13.056 -0.8603 -0.6806  1.4543
   60MPD2    C3  933   4.309   0.595  13.174  0.2168 -0.1157  0.6091
   60MPD2    C4  934   4.303   0.728  13.192  0.2706 -0.3285 -0.3363
   60MPD2    C5  935   4.252   0.813  13.096 -0.5531 -0.1275 -0.2208
   60MPD2     H  936   4.257   0.445  13.036 -0.2094 -0.3327 -0.2841
   60MPD2    H1  937   4.341   0.764  13.287 -0.4476 -1.7554  0.4936
   60MPD2    H2  938   4.175   0.848  12.906 -0.2403  1.3321  0.8762
   60MPD2    H3  939   4.245   0.918  13.123 -1.3735 -0.3002  0.2243
   60MPD2     N  940   4.372   0.524  13.279  0.1605 -0.6518  0.1369
   60MPD2    H5  941   4.394   0.576  13.363  1.8679 -0.5394 -0.3890
   60MPD2    N1  942   4.145   0.576  12.843  0.2447  0.3099  0.3095
   60MPD2    H7  943   4.145   0.475  12.838  0.3152  0.1826  3.1641
   61TMC2    C1  944   3.374   1.781  16.223 -0.3494 -0.7983 -0.5140
   61TMC2    C2  945   3.334   1.777  16.352 -0.3058 -0.1022 -0.4915
   61TMC2    C3  946   3.244   1.873  16.392 -0.2394  0.1838 -0.4901
   61TMC2    C4  947   3.354   1.890  16.142  0.9079  0.0949  0.4033
   61TMC2    C5  948   3.265   1.990  16.190  0.1926 -0.5972  0.4887
   61TMC2    C6  949   3.208   1.983  16.311 -0.2661 -0.5210  0.7026
   61TMC2     C  950   3.484   1.693  16.184 -0.3833 -0.1399 -0.0677
   61TMC2     O  951   3.514   1.600  16.258  0.8705  0.4646  0.2481
   61TMC2     H  952   3.346   1.687  16.411  0.7528 -0.1645 -0.8062
   61TMC2    H1  953   3.370   1.878  16.036  0.2948  1.5115  0.1478
   61TMC2    H2  954   3.126   2.044  16.348  0.2715  1.8439 -2.0072
   61TMC2    C7  955   3.221   2.087  16.097  0.8549  0.2319 -0.1335
   61TMC2    C8  956   3.177   1.853  16.513 -1.0831 -0.3403  0.1408
   61TMC2    O1  957   3.277   2.084  15.989  0.5115 -0.2348  0.0452
   61TMC2    O2  958   3.135   1.749  16.552  0.8926  0.8528  0.8158
   61TMC2    O5  959   3.201   1.964  16.582  0.3622 -0.2916 -0.0997
   61TMC2    H5  960   3.247   2.032  16.529 -1.4444  1.4032  0.5140
   62MPD2     C  961   3.704   1.522  16.064  0.3369 -0.0691  0.3115
   62MPD2    C1  962   3.645   1.642  16.007  0.0413  0.4687 -0.0502
   62MPD2    C2  963   3.686   1.673  15.875  0.6683 -0.2236 -0.3558
   62MPD2    C3  964   3.769   1.592  15.805 -0.9103 -0.4315 -0.2006
   62MPD2    C4  965   3.820   1.478  15.860  0.3971  0.5315  0.2955
   62MPD2    C5  966   3.793   1.448  15.990  0.1915 -0.3005  0.5215
   62MPD2     H  967   3.646   1.764  15.831 -0.0253  0.5985  1.9313
   62MPD2    H1  968   3.868   1.400  15.802  2.2162  0.9918  1.1784
   62MPD2    H2  969   3.688   1.489  16.166 -0.1031 -1.9811 -0.3650
   62MPD2    H3  970   3.824   1.351  16.027  1.0066 -0.5566 -0.8338
   62MPD2     N  971   3.801   1.609  15.668 -0.6876 -0.0826 -0.5159
   62MPD2    H5  972   3.883   1.558  15.638 -0.0364  1.2448 -1.0287
   62MPD2    N1  973   3.551   1.728  16.072 -0.6359  0.4799  0.1425
   62MPD2    H7  974   3.529   1.808  16.014 -0.5122  2.2160  2.4871
   63TMC2    C1  975   3.131   2.080  10.740 -0.2877 -0.4513  0.5132
   63TMC2    C2  976   3.235   2.057  10.825 -0.4615 -0.5716 -0.1644
   63TMC2    C3  977   3.362   2.070  10.781 -1.1760 -0.9374 -0.2008
   63TMC2    C4  978   3.153   2.103  10.608 -0.2170  0.0341 -0.0080
   63TMC2    C5  979   3.286   2.133  10.574  0.4738 -0.4580  0.4109
   63TMC2    C6  980   3.391   2.109  10.654 -0.0502  0.1122  0.2737
   63TMC2     C  981   2.997   2.041  10.776 -0.5384 -0.4229  0.6389
   63TMC2     O  982   2.975   2.036  10.896 -0.3606  0.1422 -0.0634
   63TMC2     H  983   3.209   2.022  10.924  1.9643 -0.6297  0.4461
   63TMC2    H1  984   3.077   2.149  10.547 -0.9188 -0.5137  0.4541
   63TMC2    H2  985   3.493   2.143  10.639 -0.1256  0.6021  0.8922
   63TMC2    C7  986   3.304   2.228  10.471  0.0352  0.2944 -0.4152
   63TMC2    C8  987   3.466   2.086  10.878  0.2925 -0.0580  0.1559
   63TMC2    O1  988   3.238   2.209  10.372  0.1825 -0.6105 -0.4703
   63TMC2    O2  989   3.477   2.196  10.927 -0.2406  0.1094 -0.0588
   63TMC2    O5  990   3.462   1.976  10.961  0.3728 -0.9165  0.2227
   63TMC2    H5  991   3.422   1.909  10.902  0.8287 -0.8712 -0.1435
   64MPD2     C  992   2.579   1.765  10.714 -0.0346 -0.1157 -0.2250
   64MPD2    C1  993   2.654   1.794  10.828  0.7235  0.5835  0.3628
   64MPD2    C2  994   2.759   1.886  10.815  0.8685  0.1314 -0.4878
   64MPD2    C3  995   2.801   1.929  10.697  0.9355  0.4739  0.5975
   64MPD2    C4  996   2.729   1.891  10.587  0.2685 -0.1292 -0.4094
   64MPD2    C5  997   2.609   1.822  10.593  1.1143  0.1660 -0.2184
   64MPD2     H  998   2.807   1.912  10.908 -0.6570  0.1622  0.2947
   64MPD2    H1  999   2.757   1.948  10.499 -2.0361 -2.8285 -2.8944
   64MPD2    H2 1000   2.498   1.693  10.708  1.2551 -1.7142  1.6458
   64MPD2    H3 1001   2.559   1.802  10.499 -0.9470  0.2214  0.8672
   64MPD2     N 1002   2.916   2.002  10.674 -0.1225 -0.8912 -0.2129
   64MPD2    H5 1003   2.957   1.999  10.581  3.0665 -1.0588  1.1941
   64MPD2    N1 1004   2.650   1.728  10.950  0.0162  0.5430 -0.3020
   64MPD2    H7 1005   2.716   1.760  11.020  1.0341 -1.3922 -0.3909
   65TMC2    C1 1006   4.537   1.171  15.949 -0.1019  0.0119  0.2085
   65TMC2    C2 1007   4.626   1.232  16.031 -0.7763  0.1432  0.0661
   65TMC2    C3 1008   4.656   1.363  16.006 -0.4098  0.0391 -0.5091
   65TMC2    C4 1009   4.471   1.236  15.847 -0.5336  0.0487 -0.1465
   65TMC2    C5 1010   4.491   1.376  15.847  0.1374 -0.0035  0.4073
   65TMC2    C6 1011   4.587   1.440  15.919  0.4488 -0.2638  1.0903
   65TMC2     C 1012   4.503   1.038  15.994  0.2214  0.9930  0.0055
   65TMC2     O 1013   4.577   0.978  16.071 -0.1105 -0.2210 -0.6380
   65TMC2     H 1014   4.681   1.175  16.104  0.1791 -0.3546 -1.0367
   65TMC2    H1 1015   4.411   1.185  15.773 -1.2270  0.6877 -0.0239
   65TMC2    H2 1016   4.594   1.548  15.914 -0.0365 -0.2017  1.7465
   65TMC2    C7 1017   4.368   1.444  15.809 -0.2663 -0.7768  0.0864
   65TMC2    C8 1018   4.743   1.425  16.101 -0.8622  0.8045 -0.0159
   65TMC2    O1 1019   4.309   1.411  15.709  0.1200 -0.0339  0.3414
   65TMC2    O2 1020   0.017   1.393  16.218  0.0201  0.5041 -0.3348
   65TMC2    O5 1021   0.069   1.511  16.024  0.2312 -0.0836  0.2109
   65TMC2    H5 1022   0.064   1.509  15.926 -0.8730 -0.0966  0.2750
   66MPD2     C 1023   4.422   0.755  15.964  0.0427 -0.2756 -0.0420
   66MPD2    C1 1024   4.366   0.858  15.894  0.3984  0.2371 -0.6582
   66MPD2    C2 1025   4.265   0.824  15.803 -0.0361 -0.3072  0.3398
   66MPD2    C3 1026   4.211   0.697  15.791 -0.7310 -0.0533  0.8675
   66MPD2    C4 1027   4.275   0.600  15.860 -0.6787  0.9968  0.3209
   66MPD2    C5 1028   4.377   0.625  15.948  0.1308  0.7698  0.4645
   66MPD2     H 1029   4.227   0.905  15.742  0.3049 -0.0418  0.4823
   66MPD2    H1 1030   4.242   0.498  15.845  0.8154  0.3400  1.4512
   66MPD2    H2 1031   4.513   0.760  16.022  0.4035 -1.9213 -0.4784
   66MPD2    H3 1032   4.438   0.548  15.992 -0.4009 -0.6446 -1.2886
   66MPD2     N 1033   4.109   0.662  15.701 -0.0590 -0.3168  0.5576
   66MPD2    H5 1034   4.068   0.570  15.708 -0.7772 -0.0029  0.4537
   66MPD2    N1 1035   4.399   0.991  15.924 -0.3145 -0.1363  0.0425
   66MPD2    H7 1036   4.338   1.059  15.881  0.6180  1.0779  0.6370
   67TMC2    C1 1037   4.428   0.201  14.096 -0.1080  0.3436  0.2498
   67TMC2    C2 1038   4.370   0.323  14.098  0.3817 -0.1952  1.1971
   67TMC2    C3 1039   4.398   0.402  14.209  0.0400 -0.3352  0.0906
   67TMC2    C4 1040   4.494   0.140  14.200  0.1461 -0.1327 -0.3555
   67TMC2    C5 1041   4.501   0.218  14.312  0.6109  0.2915 -0.3111
   67TMC2    C6 1042   4.466   0.351  14.316 -0.0787  0.2243 -0.2810
   67TMC2     C 1043   4.401   0.127  13.981  0.2885 -0.4293  0.4802
   67TMC2     O 1044   4.477   0.040  13.946  0.0055  0.1595  0.7325
   67TMC2     H 1045   4.318   0.365  14.012  1.1677 -1.5371  0.0686
   67TMC2    H1 1046   4.530   0.038  14.204  1.5601  0.4051  0.7030
   67TMC2    H2 1047   4.482   0.418  14.400 -0.5819  0.5522 -0.4465
   67TMC2    C7 1048   4.559   0.164  14.428  0.7827 -0.2411  0.3183
   67TMC2    C8 1049   4.368   0.539  14.196  0.3735  0.9677  0.6366
   67TMC2    O1 1050   4.650   0.081  14.423  0.1842  0.0018 -0.5796
   67TMC2    O2 1051   4.336   0.596  14.093  0.7149  0.7329 -0.4261
   67TMC2    O5 1052   4.353   0.596  14.317  0.4195 -0.4471  0.0069
   67TMC2    H5 1053   4.328   0.691  14.316 -0.2585 -0.6307 -0.1625
   68MPD2     C 1054   4.291   0.054  13.725  0.4033  0.6911 -0.3796
   68MPD2    C1 1055   4.215   0.104  13.822  0.1219  0.4043  0.0396
   68MPD2    C2 1056   4.076   0.123  13.799 -0.1136  0.3113  0.1642
   68MPD2    C3 1057   4.022   0.110  13.670 -0.2475 -0.5458  0.2479
   68MPD2    C4 1058   4.115   0.082  13.571 -0.1941 -0.7419  0.4124
   68MPD2    C5 1059   4.242   0.046  13.596 -0.3476  0.4232  0.3165
   68MPD2     H 1060   4.012   0.138  13.885 -0.7884 -0.2146 -0.2506
   68MPD2    H1 1061   4.087   0.073  13.466  0.0285 -1.4164  0.4126
   68MPD2    H2 1062   4.395   0.028  13.737  0.2380  0.0666 -0.2934
   68MPD2    H3 1063   4.301   4.741  13.520 -1.2933  0.8944 -0.7212
   68MPD2     N 1064   3.887   0.135  13.640 -0.5694 -0.2799 -0.3192
   68MPD2    H5 1065   3.870   0.159  13.543 -0.6763  1.1882  0.0652
   68MPD2    N1 1066   4.270   0.143  13.944 -0.0855 -0.4638 -0.0556
   68MPD2    H7 1067   4.210   0.192  14.008  0.2209 -0.8473  0.5244
   69TMC2    C1 1068   1.445   2.012  12.444 -0.0362 -0.0799 -0.9349
   69TMC2    C2 1069   1.317   2.063  12.429  0.0594 -0.2183  0.2816
   69TMC2    C3 1070   1.295   2.147  12.328  0.3195 -0.5769 -0.4829
   69TMC2    C4 1071   1.552   2.054  12.367  0.1067 -0.1644 -0.0407
   69TMC2    C5 1072   1.525   2.140  12.264  0.4560 -0.7137  0.4080
   69TMC2    C6 1073   1.392   2.189  12.250  0.3139  0.2072  0.0954
   69TMC2     C 1074   1.463   1.929  12.566 -0.2103 -0.0701  0.1196
   69TMC2     O 1075   1.362   1.887  12.617 -0.5247  0.3930 -0.7229
   69TMC2     H 1076   1.235   2.019  12.483  1.3374 -1.8752  0.8546
   69TMC2    H1 1077   1.653   2.016  12.375 -0.4378 -1.1767  1.8138
   69TMC2    H2 1078   1.358   2.254  12.171  0.9074  1.3552  0.7850
   69TMC2    C7 1079   1.611   2.136  12.145  0.1605 -0.2020 -0.0468
   69TMC2    C8 1080   1.162   2.179  12.287  0.0584  0.1065  0.4079
   69TMC2    O1 1081   1.727   2.103  12.160 -0.4716 -0.1257  0.6868
   69TMC2    O2 1082   1.077   2.220  12.367 -0.1829  0.3543  1.0728
   69TMC2    O5 1083   1.135   2.064  12.221 -0.2572 -0.4804  0.8160
   69TMC2    H5 1084   1.200   2.039  12.151 -0.4817  3.0833 -0.6636
   70MPD2     C 1085   1.796   1.800  12.679 -0.0074 -0.2546  0.1729
   70MPD2    C1 1086   1.652   1.806  12.674 -0.8610 -0.1023 -0.2480
   70MPD2    C2 1087   1.585   1.710  12.750 -0.3716 -0.3285  1.0412
   70MPD2    C3 1088   1.657   1.607  12.816  1.4394 -0.1168 -0.0457
   70MPD2    C4 1089   1.793   1.613  12.813 -0.2578 -0.7690  0.3695
   70MPD2    C5 1090   1.863   1.712  12.747 -0.0368  0.3541  0.0682
   70MPD2     H 1091   1.477   1.716  12.758 -0.6007 -2.0072 -0.7015
   70MPD2    H1 1092   1.849   1.533  12.859 -2.1212 -2.3861 -0.1614
   70MPD2    H2 1093   1.850   1.871  12.617 -1.1857  1.4915  1.1186
   70MPD2    H3 1094   1.971   1.714  12.756  0.0335 -1.3214 -0.3244
   70MPD2     N 1095   1.594   1.512  12.898  0.3513 -0.2604 -0.3173
   70MPD2    H5 1096   1.664   1.462  12.951 -0.7437 -0.9707  0.4695
   70MPD2    N1 1097   1.592   1.909  12.591  0.1204 -0.4512  0.4352
   70MPD2    H7 1098   1.660   1.964  12.540  1.8493 -2.0990  0.9472
   71TMC2    C1 1099   2.580   2.969   1.490  0.1852  0.4738  0.0411
   71TMC2    C2 1100   2.625   3.026   1.611  0.4607  0.3286 -0.0648
   71TMC2    C3 1101   2.544   3.084   1.699  0.1072  0.2416 -0.5616
   71TMC2    C4 1102   2.451   2.988   1.455  0.5136  0.5530  0.1466
   71TMC2    C5 1103   2.374   3.057   1.539 -0.0393  0.2135  0.3472
   71TMC2    C6 1104   2.413   3.103   1.662  0.3827  0.2098  0.7233
   71TMC2     C 1105   2.672   2.912   1.400  0.7953 -0.2169  0.2653
   71TMC2     O 1106   2.788   2.930   1.431 -0.2376  0.1270  0.4899
   71TMC2     H 1107   2.726   3.021   1.650  0.4277 -1.9496 -0.2505
   71TMC2    H1 1108   2.418   2.973   1.352 -0.6497 -1.2343  0.7872
   71TMC2    H2 1109   2.364   3.186   1.711 -2.4359  0.2741 -2.1678
   71TMC2    C7 1110   2.239   3.081   1.502  0.1153 -0.3561 -0.4722
   71TMC2    C8 1111   2.610   3.149   1.813 -0.0250 -0.5111 -0.0995
   71TMC2    O1 1112   2.170   3.161   1.562  0.8269 -0.5232 -0.0373
   71TMC2    O2 1113   2.722   3.203   1.807 -0.1878 -0.0134  0.0583
   71TMC2    O5 1114   2.523   3.177   1.911  0.2236 -0.0379  0.6333
   71TMC2    H5 1115   2.439   3.127   1.900  0.1379 -0.2046  2.0402
   72MPD2     C 1116   2.798   2.674   0.955 -0.2603 -0.1763  0.0350
   72MPD2    C1 1117   2.878   2.758   1.041 -0.3701 -0.0161  0.3840
   72MPD2    C2 1118   2.817   2.814   1.155  0.1603 -0.0485 -0.1391
   72MPD2    C3 1119   2.682   2.781   1.182  0.1542 -0.6161  0.1418
   72MPD2    C4 1120   2.607   2.701   1.101  0.7498  0.1386 -0.5514
   72MPD2    C5 1121   2.667   2.656   0.991 -0.5415  0.0759 -0.1033
   72MPD2     H 1122   2.885   2.873   1.216 -1.4052  0.2925  1.2953
   72MPD2    H1 1123   2.501   2.685   1.122  0.1562  2.8414 -1.4223
   72MPD2    H2 1124   2.832   2.626   0.864 -1.4297  0.3107 -0.6490
   72MPD2    H3 1125   2.605   2.607   0.917  0.0026 -0.0373 -0.4817
   72MPD2     N 1126   2.613   2.850   1.289 -0.0928 -0.1304  0.4750
   72MPD2    H5 1127   2.512   2.840   1.286 -0.1355  0.3359  0.4760
   72MPD2    N1 1128   3.018   2.778   1.019 -0.1348 -1.0319 -0.3596
   72MPD2    H7 1129   3.060   2.846   1.081  0.5473 -0.7783 -1.0911
   73TMC2    C1 1130   3.810   3.333  14.056  0.3352 -0.5631  0.8319
   73TMC2    C2 1131   3.810   3.283  14.186 -0.7841 -0.3007  0.3359
   73TMC2    C3 1132   3.931   3.275  14.255 -0.6952 -0.4218 -0.2418
   73TMC2    C4 1133   3.928   3.351  13.987  0.2105  0.3338  0.3276
   73TMC2    C5 1134   4.047   3.354  14.062 -0.1648  0.1371  1.1575
   73TMC2    C6 1135   4.047   3.310  14.191  0.3144  0.3244 -0.0704
   73TMC2     C 1136   3.738   3.461  14.037  0.0627  0.1217 -0.2673
   73TMC2     O 1137   3.812   3.545  13.989  0.1380  0.1221  0.5018
   73TMC2     H 1138   3.720   3.258  14.241 -0.2464 -1.3322  0.7613
   73TMC2    H1 1139   3.932   3.393  13.887  1.0305 -0.4450  0.0326
   73TMC2    H2 1140   4.139   3.310  14.249 -0.6048 -0.4282  1.3908
   73TMC2    C7 1141   4.143   3.461  14.038  0.1919  0.5526  0.5144
   73TMC2    C8 1142   3.938   3.181  14.358  0.2353 -0.2465 -0.3078
   73TMC2    O1 1143   4.262   3.435  14.063  0.1635  0.1143 -0.1289
   73TMC2    O2 1144   4.040   3.172  14.426 -0.0768  0.8378  0.3015
   73TMC2    O5 1145   3.857   3.077  14.317  0.4583  0.0543 -0.7434
   73TMC2    H5 1146   3.843   3.068  14.220 -1.4455  1.0715 -0.5808
   74MPD2     C 1147   3.360   3.794  14.007 -0.2505 -0.2110  0.0769
   74MPD2    C1 1148   3.496   3.811  13.989 -0.6040  0.9158 -0.1347
   74MPD2    C2 1149   3.580   3.708  14.004 -0.0623  0.8801 -0.3723
   74MPD2    C3 1150   3.525   3.578  14.032 -0.1589  0.6895  0.0112
   74MPD2    C4 1151   3.388   3.568  14.061  0.3766 -0.1907  0.3142
   74MPD2    C5 1152   3.301   3.674  14.050  0.4322  0.1419  0.3311
   74MPD2     H 1153   3.686   3.723  13.993  0.1391 -0.8329 -0.7260
   74MPD2    H1 1154   3.357   3.471  14.097 -1.4083  0.4165  0.4343
   74MPD2    H2 1155   3.296   3.881  13.996 -2.4436 -1.4341  3.0742
   74MPD2    H3 1156   3.195   3.655  14.064  0.4300  1.2033  1.7721
   74MPD2     N 1157   3.605   3.466  14.066 -0.4074 -0.0944 -0.2037
   74MPD2    H5 1158   3.560   3.381  14.100  1.1799 -0.4731  0.9550
   74MPD2    N1 1159   3.534   3.941  13.951  0.4415  0.2594  0.5130
   74MPD2    H7 1160   3.453   3.997  13.928  0.6173 -0.0291 -0.8052
   75TMC2    C1 1161   3.654   0.154  13.667  0.0839 -0.6961 -0.1454
   75TMC2    C2 1162   3.545   0.098  13.720 -0.8510  0.1280 -0.0913
   75TMC2    C3 1163   3.419   0.144  13.689  0.4175 -0.0877 -0.0904
   75TMC2    C4 1164   3.640   0.252  13.568  0.3148 -0.7980 -0.0343
   75TMC2    C5 1165   3.511   0.288  13.531 -0.2727  0.1439  0.4638
   75TMC2    C6 1166   3.395   0.234  13.586  0.3119  0.6755  0.0932
   75TMC2     C 1167   3.782   0.127  13.729 -0.4219 -0.4659  0.1550
   75TMC2     O 1168   3.780   0.089  13.843  0.2453  0.1548  0.3501
   75TMC2     H 1169   3.561   0.021  13.794  1.1563 -0.7684 -1.4822
   75TMC2    H1 1170   3.725   0.299  13.520 -0.7129  2.1143  1.0026
   75TMC2    H2 1171   3.297   0.261  13.547  0.2693  0.3647 -0.0091
   75TMC2    C7 1172   3.487   0.413  13.459 -0.1059  0.0166 -0.7200
   75TMC2    C8 1173   3.316   0.062  13.740  0.0546  0.3614  0.4207
   75TMC2    O1 1174   3.404   0.419  13.368 -0.1940  0.0079 -0.4224
   75TMC2    O2 1175   3.339   4.692  13.776 -0.4970  0.2333  0.1683
   75TMC2    O5 1176   3.199   0.115  13.695  0.5922  0.2203  0.5120
   75TMC2    H5 1177   3.210   0.212  13.689  2.8487 -0.0211  0.7400
   76TMC2    C1 1178   2.106   1.323  12.138  1.1925  0.1670  0.2621
   76TMC2    C2 1179   1.968   1.295  12.126  0.1501  0.2297  0.1180
   76TMC2    C3 1180   1.914   1.205  12.209 -0.4468  0.3971 -0.2320
   76TMC2    C4 1181   2.175   1.258  12.251 -0.2980  0.3889 -0.0161
   76TMC2    C5 1182   2.111   1.176  12.338  0.6986  0.7799 -0.1832
   76TMC2    C6 1183   1.981   1.153  12.314  0.1313  0.3361 -0.0965
   76TMC2     C 1184   2.164   1.418  12.049  0.0427  0.0914 -0.2043
   76TMC2     O 1185   2.097   1.459  11.956  0.3303 -0.4250 -0.7841
   76TMC2     H 1186   1.908   1.359  12.062 -0.6366  0.5273  1.1600
   76TMC2    H1 1187   2.282   1.269  12.262 -0.0793 -2.4427  0.6568
   76TMC2    H2 1188   1.926   1.103  12.393 -1.6453 -0.4736 -1.8562
   76TMC2    C7 1189   2.176   1.122  12.457 -0.7329 -0.0479 -0.9085
   76TMC2    C8 1190   1.775   1.187  12.216 -0.1613 -0.5495  0.3876
   76TMC2    O1 1191   2.104   1.045  12.516 -0.5232 -0.4006 -0.5762
   76TMC2    O2 1192   1.717   1.156  12.111 -0.4676  0.5404 -0.1125
   76TMC2    O5 1193   1.722   1.281  12.300 -0.8837  0.6323 -0.4117
   76TMC2    H5 1194   1.777   1.279  12.381 -1.1757  0.4963 -0.2184
   77MPD2     C 1195   2.546   1.689  11.852 -0.1647  0.1984  0.2393
   77MPD2    C1 1196   2.414   1.717  11.858  1.0235  0.4760  0.0230
   77MPD2    C2 1197   2.334   1.636  11.933 -0.1477  0.4559 -0.1875
   77MPD2    C3 1198   2.387   1.531  12.016 -0.7334  0.0528  0.0161
   77MPD2    C4 1199   2.524   1.514  12.018 -0.3772  0.1565  0.7881
   77MPD2    C5 1200   2.593   1.595  11.932  0.3587  0.2316  0.2256
   77MPD2     H 1201   2.227   1.648  11.922 -0.1379  1.5990  1.0145
   77MPD2    H1 1202   2.575   1.438  12.076 -1.6421 -1.1381  0.1979
   77MPD2    H2 1203   2.625   1.748  11.807  0.2027 -0.5379 -0.0871
   77MPD2    H3 1204   2.700   1.590  11.948  0.4786 -0.1847 -0.6714
   77MPD2     N 1205   2.304   1.436  12.076  0.6190  0.2792  0.0189
   77MPD2    H5 1206   2.343   1.375  12.147 -0.6661  2.1594  2.3393
   77MPD2    N1 1207   2.357   1.837  11.798  0.5552 -0.5615  1.0024
   77MPD2    H7 1208   2.260   1.851  11.824 -0.1155 -2.6117 -0.3304
   78TMC2    C1 1209   3.273   0.988   1.552 -0.0032  0.0980 -0.4718
   78TMC2    C2 1210   3.177   1.024   1.644 -0.2899 -0.0166  0.0951
   78TMC2    C3 1211   3.211   1.093   1.755 -0.6192  0.7614 -0.4527
   78TMC2    C4 1212   3.404   1.028   1.570  0.2745 -0.2676  0.4443
   78TMC2    C5 1213   3.433   1.102   1.683  0.0890 -0.0182 -0.0825
   78TMC2    C6 1214   3.342   1.120   1.782  0.9696 -0.6174  0.8267
   78TMC2     C 1215   3.222   0.928   1.429 -0.6498  1.1015 -0.0616
   78TMC2     O 1216   3.108   0.961   1.395 -0.1173 -0.2592 -0.1927
   78TMC2     H 1217   3.077   0.983   1.638  0.1282 -0.8364 -1.1764
   78TMC2    H1 1218   3.483   1.008   1.499 -1.3486 -0.0741 -1.4050
   78TMC2    H2 1219   3.370   1.166   1.876  0.7220 -0.3703  0.7819
   78TMC2    C7 1220   3.547   1.200   1.663 -0.0401  0.2548  0.2958
   78TMC2    C8 1221   3.107   1.092   1.853 -0.1892 -0.5202  0.6410
   78TMC2    O1 1222   3.594   1.197   1.552  0.1934  0.3322  0.1516
   78TMC2    O2 1223   3.011   1.014   1.858  0.5022  0.5017 -0.4616
   78TMC2    O5 1224   3.127   1.198   1.939  0.4146  0.2107  0.4012
   78TMC2    H5 1225   3.196   1.263   1.912 -0.3016  0.5795 -0.5409
   79MPD1     C 1226   3.296   0.738   0.960 -0.0642  0.2266 -0.3011
   79MPD1    C1 1227   3.188   0.805   1.009 -0.1882  0.3259 -0.1092
   79MPD1    C2 1228   3.188   0.842   1.138 -0.3127 -0.4474 -0.2451
   79MPD1    C3 1229   3.289   0.800   1.229 -0.5009 -0.8910  0.3050
   79MPD1    C4 1230   3.382   0.717   1.173 -0.4796 -0.1912 -0.5385
   79MPD1    C5 1231   3.389   0.682   1.042  0.0275 -0.6203 -0.2797
   79MPD1     H 1232   3.110   0.911   1.166 -0.7245 -0.6342 -0.9441
   79MPD1    H1 1233   3.463   0.679   1.234  0.8313  0.8999 -1.6185
   79MPD1    H2 1234   3.292   0.718   0.853 -0.8325  1.0485 -0.4249
   79MPD1    H3 1235   3.457   0.608   1.003  0.9888  0.1181  0.0073
   79MPD1     N 1236   3.310   0.851   1.367  0.2277 -0.1219  0.6417
   79MPD1    H5 1237   3.396   0.826   1.413  0.8512  1.1735  0.1707
   79MPD1    N1 1238   3.112   0.866   0.908 -0.5131  0.6272 -0.1340
   79MPD1    H6 1239   3.094   0.808   0.826  1.3116  0.6870 -0.5786
   79MPD1    H7 1240   3.025   0.903   0.944 -1.7550  0.4594 -2.9642
   80TMC2    C1 1241   1.300   0.262  12.117  0.9195 -0.2200 -0.2088
   80TMC2    C2 1242   1.310   0.158  12.032  0.2358 -0.2432  0.4596
   80TMC2    C3 1243   1.217   0.067  12.035 -0.3806  0.2264  0.1960
   80TMC2    C4 1244   1.208   0.268  12.215  0.1249 -0.7897 -0.4519
   80TMC2    C5 1245   1.109   0.175  12.212  0.0510  0.7365  0.7939
   80TMC2    C6 1246   1.103   0.077  12.121  0.1053  0.3867 -0.5788
   80TMC2     C 1247   1.421   0.339  12.123  0.0294  0.8230  0.1506
   80TMC2     O 1248   1.519   0.273  12.092  0.3509 -0.2903  0.0468
   80TMC2     H 1249   1.385   0.150  11.955  0.0424  0.9693  0.1518
   80TMC2    H1 1250   1.208   0.350  12.286  0.7981 -1.5302  0.4066
   80TMC2    H2 1251   1.015   0.014  12.115 -0.0435  0.5334  0.0493
   80TMC2    C7 1252   1.047   0.138  12.334 -0.0658 -0.4941  0.2431
   80TMC2    C8 1253   1.218   4.713  11.933  0.0713  0.0353 -0.0130
   80TMC2    O1 1254   0.945   0.072  12.320  0.0327  0.2622  0.3318
   80TMC2    O2 1255   1.266   4.722  11.821  0.2849 -0.1126 -0.6058
   80TMC2    O5 1256   1.161   4.601  11.984 -0.0397 -0.1973 -0.5788
   80TMC2    H5 1257   1.157   4.614  12.081 -2.0974  0.8367 -0.8159
   81MPD2     C 1258   1.626   0.555  12.102 -0.1919  0.5214  0.2639
   81MPD2    C1 1259   1.488   0.578  12.117 -0.0745 -0.7846  0.6615
   81MPD2    C2 1260   1.447   0.707  12.139  0.0444  0.0746 -0.5034
   81MPD2    C3 1261   1.536   0.812  12.134  1.0900 -0.4350 -0.1044
   81MPD2    C4 1262   1.668   0.793  12.108  0.0466  0.5441 -0.2990
   81MPD2    C5 1263   1.712   0.659  12.095 -0.0378  0.2497 -0.1496
   81MPD2     H 1264   1.341   0.725  12.159  0.0501 -1.9012  1.2485
   81MPD2    H1 1265   1.731   0.881  12.107  1.0349 -0.1597 -0.8551
   81MPD2    H2 1266   1.666   0.455  12.090 -0.9151  0.1615  0.9134
   81MPD2    H3 1267   1.811   0.630  12.063  0.7028  1.1865  1.3076
   81MPD2     N 1268   1.504   0.951  12.159 -0.0406 -0.3571 -0.7350
   81MPD2    H5 1269   1.577   1.021  12.156 -0.6318  0.1090 -3.8958
   81MPD2    N1 1270   1.397   0.475  12.134 -0.7854  0.1955  0.2197
   81MPD2    H7 1271   1.300   0.505  12.143 -0.6484 -0.0214  2.5254
   82TMC2    C1 1272   0.101   0.039  11.166  0.1055 -0.7964 -1.3015
   82TMC2    C2 1273   0.222   4.713  11.147 -0.0558 -0.1969  0.2684
   82TMC2    C3 1274   0.282   4.678  11.262  0.4149  0.3667  0.4666
   82TMC2    C4 1275   0.030   0.035  11.280 -0.5448 -0.1450  0.2659
   82TMC2    C5 1276   0.085   4.719  11.385  0.1015 -0.4393  0.3066
   82TMC2    C6 1277   0.214   4.672  11.382  0.0949  0.1045 -0.2602
   82TMC2     C 1278   0.040   0.094  11.048 -0.6131  0.7601 -0.5904
   82TMC2     O 1279   4.665   0.120  11.061 -0.0186 -0.0611 -0.0756
   82TMC2     H 1280   0.282   4.713  11.057  0.6294 -1.4781  0.7173
   82TMC2    H1 1281   4.677   0.083  11.293 -0.9015 -0.4616 -1.2419
   82TMC2    H2 1282   0.265   4.639  11.472  1.6127  0.7403 -0.8843
   82TMC2    C7 1283   0.001   4.718  11.504  0.2171  0.2885  0.2510
   82TMC2    C8 1284   0.409   4.624  11.258 -0.7789 -0.1884  0.9133
   82TMC2    O1 1285   4.628   4.740  11.499  0.1093 -0.1393 -0.0845
   82TMC2    O2 1286   0.479   4.614  11.358 -0.3410 -0.1210 -0.1008
   82TMC2    O5 1287   0.384   4.520  11.171 -0.1748  0.0521 -0.2754
   82TMC2    H5 1288   0.300   4.523  11.120 -0.7242 -1.6459  0.5332
   83MPD2     C 1289   0.066   0.384  10.642 -0.4408 -0.0675 -0.1423
   83MPD2    C1 1290   4.702   0.322  10.696 -0.5296 -0.6037 -0.1843
   83MPD2    C2 1291   4.719   0.237  10.804 -0.1632  0.3921 -0.7054
   83MPD2    C3 1292   0.106   0.202  10.841  0.2517 -0.1923 -0.1960
   83MPD2    C4 1293   0.208   0.261  10.772  0.0447  0.6087  0.2550
   83MPD2    C5 1294   0.190   0.345  10.674 -0.4846  0.2477 -0.0116
   83MPD2     H 1295   4.628   0.199  10.849  1.1635 -1.6124  0.3059
   83MPD2    H1 1296   0.305   0.235  10.812 -0.1607  0.1153  0.4470
   83MPD2    H2 1297   0.061   0.456  10.562  1.2370  2.1931  1.7556
   83MPD2    H3 1298   0.280   0.394  10.639  0.1404  0.3574  1.7503
   83MPD2     N 1299   0.136   0.128  10.960  0.1402  0.7255 -0.4553
   83MPD2    H5 1300   0.229   0.119  10.999 -1.3326 -1.2975  2.6069
   83MPD2    N1 1301   4.581   0.381  10.670  0.3505  0.2559 -0.9238
   83MPD2    H7 1302   4.587   0.476  10.634  2.0226  0.4604 -0.0615
   84TMC2    C1 1303   0.232   0.960  11.076 -0.0763  0.3157 -0.8724
   84TMC2    C2 1304   0.212   1.063  10.992  0.0021 -0.0716  0.0500
   84TMC2    C3 1305   0.187   1.033  10.862  0.5390  0.0541  0.6212
   84TMC2    C4 1306   0.223   0.823  11.034 -0.0317  0.6591 -0.7604
   84TMC2    C5 1307   0.204   0.803  10.899 -0.5167 -0.6237 -0.1043
   84TMC2    C6 1308   0.188   0.910  10.807 -0.4597  0.5468 -0.3924
   84TMC2     C 1309   0.296   0.981  11.201  0.2713  0.5132 -0.3711
   84TMC2     O 1310   0.298   0.883  11.277  0.3317 -0.1439 -0.6686
   84TMC2     H 1311   0.211   1.165  11.029 -0.1942 -0.4369  1.0532
   84TMC2    H1 1312   0.258   0.743  11.099  0.6725  0.5565 -1.2708
   84TMC2    H2 1313   0.159   0.886  10.706 -1.9077  0.7509 -0.0169
   84TMC2    C7 1314   0.266   0.680  10.856 -0.3662 -0.1059 -0.2695
   84TMC2    C8 1315   0.139   1.142  10.763 -0.4017  1.3035  0.1613
   84TMC2    O1 1316   0.253   0.578  10.924 -0.0963  0.0338 -0.0576
   84TMC2    O2 1317   0.095   1.112  10.654  0.1275 -0.0520  0.6444
   84TMC2    O5 1318   0.169   1.268  10.803 -0.4875  0.1766 -0.3622
   84TMC2    H5 1319   0.205   1.274  10.894  1.0811  0.6163 -1.0073
   85TMC2    C1 1320   1.682   2.836  16.256  0.5993 -0.5745 -0.1072
   85TMC2    C2 1321   1.573   2.850  16.182 -0.5489  0.2696 -0.0294
   85TMC2    C3 1322   1.545   2.966  16.109 -0.0776  0.2061  0.0248
   85TMC2    C4 1323   1.770   2.936  16.256  0.7805 -0.8214 -0.5360
   85TMC2    C5 1324   1.756   3.052  16.177  0.7173  0.1939 -0.2152
   85TMC2    C6 1325   1.639   3.068  16.108 -0.5976 -0.9643  0.2331
   85TMC2     C 1326   1.723   2.714  16.331  0.3514 -0.1956  0.1902
   85TMC2     O 1327   1.822   2.727  16.401 -0.1876  0.3664 -0.1749
   85TMC2     H 1328   1.500   2.770  16.176 -1.7180  1.3510 -0.1831
   85TMC2    H1 1329   1.867   2.920  16.301  1.7186  1.4242 -1.7917
   85TMC2    H2 1330   1.628   3.160  16.052  0.0826 -0.2992  1.1856
   85TMC2    C7 1331   1.823   3.181  16.228  0.3137  0.8707 -0.1912
   85TMC2    C8 1332   1.406   2.988  16.095 -0.0769 -0.1668  0.4953
   85TMC2    O1 1333   1.747   3.278  16.246 -0.3116  0.0786 -0.1634
   85TMC2    O2 1334   1.313   2.906  16.116  0.0917  0.3557 -0.3043
   85TMC2    O5 1335   1.385   3.107  16.032  0.4080  0.6064 -0.8031
   85TMC2    H5 1336   1.466   3.147  15.994  0.5748  1.5785  0.5937
   86MPD2     C 1337   1.647   2.221  16.452  0.7415  0.0910 -0.3872
   86MPD2    C1 1338   1.555   2.246  16.355  0.1520 -0.2482  0.2321
   86MPD2    C2 1339   1.561   2.376  16.308  0.4797  0.3609  0.2211
   86MPD2    C3 1340   1.653   2.472  16.353  0.2334  0.1683 -0.5471
   86MPD2    C4 1341   1.750   2.432  16.444 -0.6456 -0.4238 -0.0502
   86MPD2    C5 1342   1.747   2.301  16.484  0.0593  0.1674  0.3926
   86MPD2     H 1343   1.496   2.406  16.227  0.5684 -0.8354 -0.2896
   86MPD2    H1 1344   1.830   2.496  16.479 -0.9630 -0.6844  1.1457
   86MPD2    H2 1345   1.657   2.124  16.499  0.2677 -0.8821 -2.3168
   86MPD2    H3 1346   1.832   2.268  16.542 -0.7683 -0.3671  1.2995
   86MPD2     N 1347   1.655   2.603  16.293  0.3101  0.6971 -0.2017
   86MPD2    H5 1348   1.589   2.618  16.218 -1.8989  1.7882  1.9610
   86MPD2    N1 1349   1.471   2.140  16.300  0.6525  0.1461  0.1134
   86MPD2    H7 1350   1.415   2.172  16.221 -1.0498 -0.1538  1.1881
   87TMC2    C1 1351   4.039   1.000   1.119  0.7315  0.9143 -0.1148
   87TMC2    C2 1352   4.148   1.059   1.168 -0.1752 -0.3735 -0.1939
   87TMC2    C3 1353   4.140   1.193   1.190 -0.0742  0.7032  0.2142
   87TMC2    C4 1354   3.920   1.067   1.115 -0.5723 -0.3062  0.2607
   87TMC2    C5 1355   3.918   1.197   1.167 -0.5125  0.5480 -0.1126
   87TMC2    C6 1356   4.028   1.268   1.203 -0.3345  0.3796 -0.1410
   87TMC2     C 1357   4.061   0.877   1.042  0.0764 -0.4296 -0.1232
   87TMC2     O 1358   4.146   0.803   1.082 -0.2295  0.1367 -0.2314
   87TMC2     H 1359   4.247   1.019   1.152  0.3730  1.3767 -1.1925
   87TMC2    H1 1360   3.832   1.014   1.080 -0.1246  0.0097 -1.3433
   87TMC2    H2 1361   4.028   1.375   1.222 -1.1525  0.2650  0.4436
   87TMC2    C7 1362   3.802   1.273   1.129 -0.5326  0.3425 -0.0786
   87TMC2    C8 1363   4.270   1.256   1.175 -0.5562  0.5018  0.1487
   87TMC2    O1 1364   3.826   1.392   1.093 -0.0708 -0.2243  0.0325
   87TMC2    O2 1365   4.372   1.205   1.212  0.5307  0.2786  0.2341
   87TMC2    O5 1366   4.243   1.380   1.123  0.2948  0.3657 -0.1449
   87TMC2    H5 1367   4.173   1.368   1.056 -0.3376  0.8468  0.4305
   88MPD2     C 1368   3.448   1.202   1.201 -0.4336 -0.1704  0.0320
   88MPD2    C1 1369   3.551   1.266   1.129  1.1046 -0.1303 -0.5516
   88MPD2    C2 1370   3.520   1.370   1.045 -0.7119  0.0200 -0.6189
   88MPD2    C3 1371   3.388   1.415   1.041 -0.8711 -0.3667 -0.4268
   88MPD2    C4 1372   3.289   1.360   1.119 -0.2238 -0.3031  0.3967
   88MPD2    C5 1373   3.319   1.244   1.195 -0.7044 -0.0728 -0.2609
   88MPD2     H 1374   3.598   1.420   0.990 -0.3602 -1.0180 -1.0513
   88MPD2    H1 1375   3.185   1.389   1.107 -0.7278 -2.2364  0.0166
   88MPD2    H2 1376   3.464   1.113   1.261  3.0379 -0.1214 -0.7662
   88MPD2    H3 1377   3.242   1.208   1.262 -1.4193 -2.5013 -2.4173
   88MPD2     N 1378   3.344   1.514   0.953  0.3764  0.0204 -0.3455
   88MPD2    H5 1379   3.245   1.532   0.941  0.0756 -1.5573 -0.2560
   88MPD2    N1 1380   3.681   1.212   1.151  0.1301 -0.4708 -0.3227
   88MPD2    H7 1381   3.688   1.130   1.210  0.2641  1.1518  1.9357
   89TMC2    C1 1382   4.270   4.576   1.835 -0.4346 -0.0183  0.4413
   89TMC2    C2 1383   4.311   4.642   1.951  0.2550  0.3201 -0.0058
   89TMC2    C3 1384   4.271   0.029   1.968 -0.6374  0.1919  0.0541
   89TMC2    C4 1385   4.201   4.640   1.729 -0.0266 -0.6323  1.3908
   89TMC2    C5 1386   4.166   0.021   1.754 -0.1443 -0.2168  0.5407
   89TMC2    C6 1387   4.199   0.092   1.867  0.0103  0.1655 -0.0423
   89TMC2     C 1388   4.292   4.437   1.819  0.4036 -0.2542 -0.2282
   89TMC2     O 1389   4.397   4.379   1.848 -0.3628  0.3525  0.4641
   89TMC2     H 1390   4.372   4.589   2.023 -0.6100 -0.0886  0.4246
   89TMC2    H1 1391   4.150   4.577   1.656 -1.6526  0.8490  1.2506
   89TMC2    H2 1392   4.177   0.198   1.867 -0.9367 -0.0406 -2.8484
   89TMC2    C7 1393   4.098   0.093   1.643  0.4573  0.4169 -0.2014
   89TMC2    C8 1394   4.287   0.110   2.094 -0.0963 -0.2896  0.5143
   89TMC2    O1 1395   4.058   0.205   1.657  0.2589 -0.1328 -0.3559
   89TMC2    O2 1396   4.286   0.231   2.091 -0.9624  0.8095 -0.2378
   89TMC2    O5 1397   4.339   0.034   2.187 -0.1545 -0.3137 -0.0366
   89TMC2    H5 1398   4.317   4.685   2.167 -2.1143  0.2167 -0.3527
   90MPD2     C 1399   4.113   3.971   1.671  0.0231 -0.1986 -0.1606
   90MPD2    C1 1400   4.009   4.061   1.677 -0.5150  0.1109  0.5230
   90MPD2    C2 1401   4.031   4.186   1.727  0.1668 -0.3787  0.3535
   90MPD2    C3 1402   4.160   4.232   1.749 -0.0498  0.0209 -0.0603
   90MPD2    C4 1403   4.271   4.151   1.733  0.2824 -0.8218  0.9673
   90MPD2    C5 1404   4.236   4.020   1.704  0.7103  0.5659  0.0489
   90MPD2     H 1405   3.948   4.253   1.749 -0.2495 -1.1721  1.1742
   90MPD2    H1 1406   4.376   4.170   1.753  0.0615  1.5454 -0.1564
   90MPD2    H2 1407   4.106   3.868   1.637  0.4441  0.0781 -1.0754
   90MPD2    H3 1408   4.320   3.957   1.675  1.4037  1.1250  0.8468
   90MPD2     N 1409   4.179   4.371   1.772  0.3396 -0.4939 -0.7575
   90MPD2    H5 1410   4.098   4.431   1.759  1.1375  0.5711 -0.7899
   90MPD2    N1 1411   3.874   4.022   1.657 -0.6186  0.3483  0.4108
   90MPD2    H7 1412   3.795   4.080   1.683  0.0480  0.9520  1.1078
   91TMC2    C1 1413   1.414   3.265  16.361  0.8165 -0.5130  0.3535
   91TMC2    C2 1414   1.517   3.234  16.445  0.2755 -0.8415  0.2114
   91TMC2    C3 1415   1.501   3.120  16.519  0.2223 -0.4990  0.1231
   91TMC2    C4 1416   1.299   3.187  16.356 -0.8994  0.5181  0.4013
   91TMC2    C5 1417   1.294   3.072  16.427  0.0135  0.4402  0.0056
   91TMC2    C6 1418   1.400   3.033  16.510 -0.3108  0.4842 -0.4408
   91TMC2     C 1419   1.405   3.393  16.292 -0.3659 -0.3805  0.7408
   91TMC2     O 1420   1.298   3.429  16.249  0.6786  0.0611  0.1571
   91TMC2     H 1421   1.598   3.305  16.462  1.5371 -2.6032  1.5767
   91TMC2    H1 1422   1.214   3.227  16.302 -0.7256  0.1182 -0.1761
   91TMC2    H2 1423   1.405   2.933  16.551 -1.0909  0.5630 -0.1628
   91TMC2    C7 1424   1.166   3.005  16.433  0.3120  0.1789 -0.1508
   91TMC2    C8 1425   1.623   3.069  16.570  0.1230  0.0938 -0.1306
   91TMC2    O1 1426   1.167   2.932  16.532  0.1499  0.3518  0.1942
   91TMC2    O2 1427   1.737   3.104  16.531  0.2102 -0.4135 -0.1140
   91TMC2    O5 1428   1.592   3.018  16.693 -0.0060  0.2594  0.0006
   91TMC2    H5 1429   1.497   3.033  16.713 -0.5675 -1.9940 -0.8794
   92MPD2     C 1430   1.445   3.685  16.245  0.4562  0.4382  0.3839
   92MPD2    C1 1431   1.543   3.592  16.260 -0.3410 -0.4239  0.0537
   92MPD2    C2 1432   1.676   3.634  16.249 -0.1588  0.4304  0.6685
   92MPD2    C3 1433   1.710   3.758  16.206  0.0964  0.2083 -0.2586
   92MPD2    C4 1434   1.605   3.844  16.175  0.5164  0.1003  0.3511
   92MPD2    C5 1435   1.474   3.815  16.205 -0.0344 -0.3540 -0.7439
   92MPD2     H 1436   1.757   3.563  16.264 -1.0219 -0.9986 -1.4156
   92MPD2    H1 1437   1.623   3.940  16.128 -0.0508  0.1750  0.2903
   92MPD2    H2 1438   1.340   3.666  16.261  0.5662 -0.3304  0.1947
   92MPD2    H3 1439   1.395   3.887  16.186  0.0453  0.5659  2.4191
   92MPD2     N 1440   1.847   3.802  16.207 -0.1670 -0.4966  0.4463
   92MPD2    H5 1441   1.857   3.903  16.205 -1.3182 -0.3572  1.9264
   92MPD2    N1 1442   1.526   3.457  16.288 -0.8382  0.0934 -0.7253
   92MPD2    H7 1443   1.612   3.409  16.309  0.3824  1.9539 -1.4233
   93TMC2    C1 1444   3.458   3.105  13.934  0.0451 -0.0684 -0.2602
   93TMC2    C2 1445   3.468   2.975  13.903 -0.4270  0.2331  0.1472
   93TMC2    C3 1446   3.567   2.942  13.813 -0.7703  0.1491 -0.6902
   93TMC2    C4 1447   3.518   3.204  13.857  0.0499 -0.1226 -0.9903
   93TMC2    C5 1448   3.600   3.161  13.750 -0.5424  0.3991  0.4623
   93TMC2    C6 1449   3.630   3.029  13.734  0.2809  0.3311 -0.1119
   93TMC2     C 1450   3.390   3.149  14.054  0.1969  0.2895 -0.3987
   93TMC2     O 1451   3.454   3.237  14.113 -0.2534  0.2139  0.0838
   93TMC2     H 1452   3.436   2.899  13.973  2.2760 -0.9317  0.1087
   93TMC2    H1 1453   3.494   3.307  13.879  1.2785 -0.5681  2.3943
   93TMC2    H2 1454   3.695   2.990  13.656  1.4160 -0.1361  1.0594
   93TMC2    C7 1455   3.667   3.263  13.668  0.1606 -0.7613 -0.1666
   93TMC2    C8 1456   3.555   2.805  13.768  0.2513 -0.0329 -0.0453
   93TMC2    O1 1457   3.741   3.229  13.578 -0.7279  0.0488  0.1674
   93TMC2    O2 1458   3.547   2.780  13.647  0.0690  0.7724  0.3029
   93TMC2    O5 1459   3.632   2.735  13.854 -0.4022 -0.0321  0.1293
   93TMC2    H5 1460   3.640   2.776  13.943 -2.2714 -2.2858  1.3302
   94MPD2     C 1461   3.246   3.201  14.309 -0.2898  0.5234 -0.1005
   94MPD2    C1 1462   3.202   3.115  14.206  0.7391 -0.1578 -0.0638
   94MPD2    C2 1463   3.079   3.064  14.224 -0.6012 -0.2064  0.1024
   94MPD2    C3 1464   3.003   3.097  14.333 -0.5788 -0.5051  0.7579
   94MPD2    C4 1465   3.050   3.180  14.431  0.5794  0.5426 -0.0734
   94MPD2    C5 1466   3.172   3.227  14.422 -0.4096  0.4300  0.0614
   94MPD2     H 1467   3.037   3.002  14.146  1.5116  1.0416 -2.0060
   94MPD2    H1 1468   2.993   3.213  14.518 -0.2245 -1.0149 -0.0202
   94MPD2    H2 1469   3.350   3.232  14.315 -0.3563  0.8309 -0.5316
   94MPD2    H3 1470   3.207   3.294  14.499  1.0213  0.3682 -0.5330
   94MPD2     N 1471   2.864   3.068  14.335 -0.1116  0.4895  1.0331
   94MPD2    H5 1472   2.809   3.122  14.401  0.4551  0.9298  1.1536
   94MPD2    N1 1473   3.271   3.089  14.087 -0.1095 -0.1099 -0.1721
   94MPD2    H7 1474   3.231   3.026  14.019  0.1852  0.3288 -0.7511
   95TMC2    C1 1475   3.181   0.410  16.110 -0.4318 -0.8167 -0.3217
   95TMC2    C2 1476   3.144   0.280  16.120  0.8328  0.2385  0.0994
   95TMC2    C3 1477   3.121   0.232  16.250 -0.5614  0.3964  0.0882
   95TMC2    C4 1478   3.194   0.494  16.218 -0.3751 -0.1873 -0.6697
   95TMC2    C5 1479   3.154   0.445  16.340  0.0119  0.0362 -0.4611
   95TMC2    C6 1480   3.117   0.317  16.356 -0.0348  0.3303 -0.4223
   95TMC2     C 1481   3.244   0.447  15.986 -0.5238  0.4237  0.3498
   95TMC2     O 1482   3.339   0.527  15.984 -0.0645 -0.0514 -0.2298
   95TMC2     H 1483   3.109   0.218  16.038 -0.0138  0.5635  0.2216
   95TMC2    H1 1484   3.240   0.588  16.191  0.1710 -0.3748 -0.3969
   95TMC2    H2 1485   3.079   0.281  16.451 -0.7569  1.0873 -0.4301
   95TMC2    C7 1486   3.181   0.524  16.459  0.2965  0.2751  0.0756
   95TMC2    C8 1487   3.003   0.141  16.260 -0.2908 -0.4046 -0.1069
   95TMC2    O1 1488   3.152   0.469  16.563 -0.4460 -0.1388 -0.0454
   95TMC2    O2 1489   2.902   0.169  16.319  0.3959 -0.1357  0.8034
   95TMC2    O5 1490   3.014   0.046  16.168  0.7658  0.3029 -0.0874
   95TMC2    H5 1491   3.104   0.026  16.136  0.5279 -0.7311 -0.0977
   96MPD2     C 1492   3.342   0.354  15.493 -0.7320  0.8497  0.4451
   96MPD2    C1 1493   3.422   0.412  15.589 -0.8575 -0.0372 -0.5126
   96MPD2    C2 1494   3.369   0.435  15.715 -0.0276  0.0753 -0.2428
   96MPD2    C3 1495   3.236   0.397  15.743  0.1241 -0.2061 -0.1831
   96MPD2    C4 1496   3.160   0.348  15.644 -0.0474  0.4969  0.4819
   96MPD2    C5 1497   3.213   0.318  15.524  0.3146 -0.0352  0.1376
   96MPD2     H 1498   3.434   0.484  15.787  1.4004 -1.8859 -0.1950
   96MPD2    H1 1499   3.059   0.315  15.662 -0.6847  1.9150 -0.5158
   96MPD2    H2 1500   3.383   0.348  15.392  0.5074 -1.7243  1.1009
   96MPD2    H3 1501   3.142   0.274  15.454 -0.2734  0.3826  0.4672
   96MPD2     N 1502   3.183   0.393  15.874 -0.0393  0.3229  0.4554
   96MPD2    H5 1503   3.089   0.358  15.887 -0.3339  0.7909 -0.3863
   96MPD2    N1 1504   3.541   0.474  15.541  0.1100  0.1919  0.2121
   96MPD2    H7 1505   3.576   0.446  15.450 -2.6254  1.8365 -1.3474
   97TMC2    C1 1506   1.047   2.559   0.950 -0.1826 -0.1972 -0.2896
   97TMC2    C2 1507   1.139   2.466   0.957 -0.2358 -0.1815 -0.1771
   97TMC2    C3 1508   1.258   2.492   0.898 -0.7172 -0.7931  0.2225
   97TMC2    C4 1509   1.065   2.664   0.865 -0.2174  0.3717 -0.6025
   97TMC2    C5 1510   1.179   2.685   0.797 -0.0477 -0.3632 -0.4589
   97TMC2    C6 1511   1.281   2.592   0.810 -0.1287 -0.2443 -0.4750
   97TMC2     C 1512   0.904   2.525   0.960 -0.3562 -0.0564  0.0269
   97TMC2     O 1513   0.818   2.616   0.942  0.1599  0.4542  1.3434
   97TMC2     H 1514   1.128   2.392   1.036 -0.7622 -1.2401 -1.2388
   97TMC2    H1 1515   0.983   2.730   0.837 -0.5506  0.4152  0.4613
   97TMC2    H2 1516   1.371   2.594   0.750 -0.1269 -0.6120 -0.4844
   97TMC2    C7 1517   1.196   2.793   0.692 -0.3482  0.3159  0.1631
   97TMC2    C8 1518   1.375   2.407   0.934  0.2912  0.4898  0.0687
   97TMC2    O1 1519   1.303   2.810   0.643  1.0378 -0.4998 -0.1214
   97TMC2    O2 1520   1.455   2.358   0.858 -0.6795  0.2780  0.5199
   97TMC2    O5 1521   1.381   2.373   1.067  0.5369 -0.2419 -0.0515
   97TMC2    H5 1522   1.323   2.429   1.124 -0.0717  0.5646 -1.4670
   98MPD2     C 1523   0.548   2.183   0.829  0.3719 -0.0099  0.1730
   98MPD2    C1 1524   0.532   2.301   0.893 -0.3095 -0.2274  0.1740
   98MPD2    C2 1525   0.652   2.375   0.920  0.1105  0.6410 -0.1552
   98MPD2    C3 1526   0.776   2.331   0.874 -0.3007 -0.5219 -0.0622
   98MPD2    C4 1527   0.789   2.207   0.815 -0.5175 -0.4907 -0.3171
   98MPD2    C5 1528   0.674   2.138   0.793 -0.5133  0.9102  0.5256
   98MPD2     H 1529   0.643   2.473   0.964  1.1439  0.6319  0.0782
   98MPD2    H1 1530   0.889   2.171   0.795 -0.4640 -0.5666  0.0770
   98MPD2    H2 1531   0.460   2.121   0.817  0.5045  0.2882 -2.5140
   98MPD2    H3 1532   0.680   2.045   0.738 -2.2640  0.7519  0.6077
   98MPD2     N 1533   0.900   2.397   0.904  0.0284 -0.2113 -0.2843
   98MPD2    H5 1534   0.991   2.355   0.887  0.5341  0.5347  0.5582
   98MPD2    N1 1535   0.403   2.349   0.930 -0.3008 -0.0109 -0.8299
   98MPD2    H7 1536   0.331   2.287   0.894  2.5660 -4.8280  1.7788
   99TMC2    C1 1537   3.736   0.008   1.700 -0.9779 -0.4904 -0.7183
   99TMC2    C2 1538   3.789   0.065   1.813 -0.0380  0.3077  0.4843
   99TMC2    C3 1539   3.715   0.162   1.872 -0.7167 -0.5003 -0.3342
   99TMC2    C4 1540   3.617   0.052   1.648 -0.3580  0.4228  0.4116
   99TMC2    C5 1541   3.550   0.151   1.716 -0.4183  0.5392 -0.4035
   99TMC2    C6 1542   3.591   0.207   1.832 -0.6405 -0.1245 -0.6728
   99TMC2     C 1543   3.814   4.636   1.656 -0.1359  0.8153  0.5337
   99TMC2     O 1544   3.883   4.572   1.734  0.2029 -0.2142  0.0759
   99TMC2     H 1545   3.877   0.025   1.863 -1.0130 -0.3445  1.6689
   99TMC2    H1 1546   3.582   4.743   1.561  1.7056  1.2208 -0.9005
   99TMC2    H2 1547   3.545   0.291   1.883  1.1557  0.5971 -0.2733
   99TMC2    C7 1548   3.403   0.168   1.691  0.4144  0.2830 -0.1199
   99TMC2    C8 1549   3.782   0.234   1.983  0.9587 -0.1342  0.5450
   99TMC2    O1 1550   3.334   0.212   1.780  0.1428  0.1209  0.1163
   99TMC2    O2 1551   3.901   0.264   1.984 -0.0104  0.7735  0.0851
   99TMC2    O5 1552   3.722   0.187   2.093 -0.0175  0.1619 -0.2069
   99TMC2    H5 1553   3.634   0.147   2.076  0.8719 -1.9726  0.2703
  100MPD2     C 1554   3.950   4.442   1.487 -0.6758  0.2040  0.7690
  100MPD2    C1 1555   3.877   4.544   1.433  0.3119  0.3978  0.3357
  100MPD2    C2 1556   3.858   4.554   1.295 -0.3781 -0.3105 -0.2951
  100MPD2    C3 1557   3.918   4.474   1.205  0.3037 -0.2792 -0.0424
  100MPD2    C4 1558   3.989   4.370   1.263 -0.5843  0.6354  0.1722
  100MPD2    C5 1559   4.003   4.358   1.397 -0.6879 -0.0260  0.3346
  100MPD2     H 1560   3.795   4.636   1.261  0.5371  0.4405 -0.1838
  100MPD2    H1 1561   4.036   4.293   1.202 -1.2409 -0.9894  1.7194
  100MPD2    H2 1562   3.968   4.420   1.592  1.7120 -1.8566 -0.0585
  100MPD2    H3 1563   4.048   4.266   1.432  0.0725  0.3092  0.2343
  100MPD2     N 1564   3.890   4.490   1.067  0.4116  0.3824 -0.5272
  100MPD2    H5 1565   3.818   4.559   1.048  0.6679  0.1517 -2.3258
  100MPD2    N1 1566   3.805   4.629   1.520  0.1185 -0.2029 -0.1622
  100MPD2    H7 1567   3.742   4.691   1.470 -2.4741 -0.9040  2.2240
  101TMC2    C1 1568   0.435   0.885  12.964  0.3179  0.2270 -0.6384
  101TMC2    C2 1569   0.337   0.963  12.912 -0.2099 -0.3648  0.2145
  101TMC2    C3 1570   0.386   1.049  12.820  0.7276 -0.6756 -0.0732
  101TMC2    C4 1571   0.567   0.878  12.929 -0.0994 -0.1829  0.1723
  101TMC2    C5 1572   0.601   0.964  12.832 -0.1423 -0.2179 -0.2266
  101TMC2    C6 1573   0.513   1.053  12.773 -1.3458  0.3589  0.0179
  101TMC2     C 1574   0.379   0.781  13.052  0.0392 -0.0111 -0.0284
  101TMC2     O 1575   0.276   0.809  13.109  0.2258  0.2552 -0.0422
  101TMC2     H 1576   0.236   0.968  12.953  0.1444 -2.6796  1.3806
  101TMC2    H1 1577   0.653   0.818  12.958 -0.0533 -1.2341 -2.1725
  101TMC2    H2 1578   0.549   1.134  12.711  1.1492 -0.1099  0.8746
  101TMC2    C7 1579   0.736   1.001  12.812 -0.2335 -0.4210 -0.0610
  101TMC2    C8 1580   0.289   1.130  12.755 -0.5726  0.7047  0.1727
  101TMC2    O1 1581   0.761   1.024  12.695 -0.7464  0.0087  0.2069
  101TMC2    O2 1582   0.217   1.213  12.813 -0.4517  0.2011 -0.7558
  101TMC2    O5 1583   0.310   1.117  12.624 -0.7896 -0.4491  0.4154
  101TMC2    H5 1584   0.374   1.050  12.592  0.0232 -1.1832  3.6131
  102MPD2     C 1585   0.511   0.436  13.087 -0.0219 -0.0999  0.3916
  102MPD2    C1 1586   0.418   0.536  13.099 -0.2947 -0.6749 -0.1783
  102MPD2    C2 1587   0.306   0.510  13.168  0.3919 -0.8447  0.2218
  102MPD2    C3 1588   0.267   0.381  13.205  1.0283 -0.8713  0.4475
  102MPD2    C4 1589   0.362   0.287  13.184  0.4257 -0.6087  0.4174
  102MPD2    C5 1590   0.482   0.309  13.130  0.7973  0.7441  0.6687
  102MPD2     H 1591   0.235   0.591  13.182  0.7578 -0.6232  0.7555
  102MPD2    H1 1592   0.346   0.184  13.215 -1.8234 -0.4297 -0.1145
  102MPD2    H2 1593   0.607   0.461  13.042 -0.4903 -0.3450 -0.7431
  102MPD2    H3 1594   0.555   0.231  13.110 -0.4425  0.1133 -1.4535
  102MPD2     N 1595   0.141   0.354  13.261 -0.4066 -0.3179  0.3905
  102MPD2    H5 1596   0.074   0.429  13.278  0.1148  0.4328 -0.9209
  102MPD2    N1 1597   0.453   0.663  13.040  0.2267 -0.9139 -0.7997
  102MPD2    H7 1598   0.543   0.656  12.994  0.7557 -0.8849  0.2394
  103TMC2    C1 1599   2.950   1.272  12.749  0.0772 -0.3922 -0.5486
  103TMC2    C2 1600   2.940   1.371  12.658 -0.0814  0.6654  0.7159
  103TMC2    C3 1601   3.021   1.480  12.672 -0.4613 -0.3014  0.1530
  103TMC2    C4 1602   3.042   1.273  12.851 -0.4184 -0.1584 -0.0539
  103TMC2    C5 1603   3.119   1.385  12.867  0.3787 -0.3975 -0.7343
  103TMC2    C6 1604   3.112   1.493  12.777 -0.3842 -0.4309  0.2400
  103TMC2     C 1605   2.850   1.164  12.755 -0.3676 -0.5899 -0.1616
  103TMC2     O 1606   2.889   1.055  12.783  0.1757 -0.4195  0.0304
  103TMC2     H 1607   2.863   1.379  12.581  3.0611  0.2783 -2.4854
  103TMC2    H1 1608   3.029   1.195  12.926  0.8497  1.2147  1.5779
  103TMC2    H2 1609   3.151   1.586  12.816  0.0693 -0.2962 -0.5410
  103TMC2    C7 1610   3.234   1.370  12.956  0.0696  0.2606  0.0311
  103TMC2    C8 1611   2.982   1.600  12.596  0.0625 -0.8851 -0.2978
  103TMC2    O1 1612   3.223   1.281  13.038  0.0187  0.6923  0.8081
  103TMC2    O2 1613   2.878   1.610  12.535 -0.0104 -0.0672 -0.1210
  103TMC2    O5 1614   3.098   1.675  12.600 -0.1261  0.1324 -0.1211
  103TMC2    H5 1615   3.176   1.622  12.624  0.6033  1.6602  0.8782
  104MPD2     C 1616   2.571   1.038  12.775 -0.1040 -0.5205 -0.2401
  104MPD2    C1 1617   2.606   1.140  12.692 -0.0323  0.0803  0.9810
  104MPD2    C2 1618   2.512   1.188  12.606  0.0490  0.4547 -0.3800
  104MPD2    C3 1619   2.389   1.123  12.592  0.7417 -0.6195 -0.0496
  104MPD2    C4 1620   2.350   1.017  12.674 -0.0512  0.4661  0.6538
  104MPD2    C5 1621   2.446   0.978  12.764  0.5534 -0.0073  0.0171
  104MPD2     H 1622   2.533   1.270  12.537  1.2241  1.4117  1.1079
  104MPD2    H1 1623   2.256   0.966  12.656  0.3449  0.7022 -2.1917
  104MPD2    H2 1624   2.646   1.007  12.847 -0.9944  0.9871  1.3510
  104MPD2    H3 1625   2.429   0.897  12.835 -0.5423  1.0811  1.0106
  104MPD2     N 1626   2.307   1.163  12.482  0.0530  0.1426  1.0698
  104MPD2    H5 1627   2.348   1.238  12.428 -0.2703  0.2660  0.9933
  104MPD2    N1 1628   2.729   1.212  12.700 -0.0648 -0.4419 -0.5675
  104MPD2    H7 1629   2.734   1.302  12.654 -0.1844  1.1992  2.5990
  105TMC2    C1 1630   4.638   0.357   0.473 -0.1630  0.3171 -0.3929
  105TMC2    C2 1631   4.714   0.370   0.586 -0.1958 -0.1493 -0.2290
  105TMC2    C3 1632   4.669   0.449   0.691 -0.0920  0.4386 -0.0558
  105TMC2    C4 1633   4.513   0.406   0.460 -0.2536  0.3263 -0.0387
  105TMC2    C5 1634   4.475   0.484   0.565 -0.7915  0.1886 -0.6712
  105TMC2    C6 1635   4.549   0.510   0.675  0.3738 -0.6173  0.4922
  105TMC2     C 1636   4.712   0.313   0.357 -0.5340  0.6099  0.4238
  105TMC2     O 1637   0.084   0.275   0.377  0.1905  0.1844 -0.5657
  105TMC2     H 1638   0.065   0.322   0.602  0.4250  1.5480  1.2310
  105TMC2    H1 1639   4.447   0.381   0.378  0.0331 -0.9665  0.1241
  105TMC2    H2 1640   4.511   0.566   0.760 -0.6557 -2.1205  1.0260
  105TMC2    C7 1641   4.331   0.495   0.576  0.2097 -0.1591 -0.9679
  105TMC2    C8 1642   4.700   0.415   0.830 -0.2562  0.0945  0.7011
  105TMC2    O1 1643   4.272   0.430   0.491 -0.8418  0.3167  0.0944
  105TMC2    O2 1644   4.613   0.412   0.917  0.4374  0.3243  0.2726
  105TMC2    O5 1645   0.086   0.370   0.833 -0.4851  0.0744 -0.0299
  105TMC2    H5 1646   0.137   0.418   0.764 -0.0307  0.5720  0.6454
  106MPD2     C 1647   0.047   0.213  17.633 -0.8387  0.3973 -0.1331
  106MPD2    C1 1648   4.693   0.315  17.638 -0.4364  0.6192  0.3448
  106MPD2    C2 1649   4.649   0.362  17.758  0.6620  0.1826 -0.4876
  106MPD2    C3 1650   4.698   0.304   0.102  1.0209 -0.2159 -0.0145
  106MPD2    C4 1651   0.050   0.211   0.093  0.0021  0.2436  0.0963
  106MPD2    C5 1652   0.108   0.170  17.748 -0.5305  0.4012  0.6060
  106MPD2     H 1653   4.573   0.439  17.760  1.7870  1.3380 -2.4321
  106MPD2    H1 1654   0.088   0.171   0.186  0.2388 -1.4633 -0.7459
  106MPD2    H2 1655   0.097   0.184  17.541 -1.1512  0.6344 -0.3756
  106MPD2    H3 1656   0.187   0.096  17.745  0.3886  1.4004  0.0078
  106MPD2     N 1657   4.653   0.343   0.236 -0.0195  0.1886 -0.7109
  106MPD2    H5 1658   4.581   0.414   0.238  0.3083  0.4797  0.9966
  106MPD2    N1 1659   4.639   0.383  17.523  0.7802  0.8884 -0.6058
  106MPD2    H7 1660   4.580   0.464  17.542 -1.8962 -0.7698 -1.8565
  107TMC2    C1 1661   0.567   0.716  11.915  0.3546  0.1904  0.3449
  107TMC2    C2 1662   0.684   0.688  11.981 -0.0338 -0.3493 -0.1681
  107TMC2    C3 1663   0.779   0.784  11.982 -0.2292  0.5652  0.2433
  107TMC2    C4 1664   0.543   0.837  11.862  0.2652 -1.1933 -0.0532
  107TMC2    C5 1665   0.641   0.933  11.863 -0.3594  0.2482 -0.2507
  107TMC2    C6 1666   0.762   0.909  11.926 -0.1773  0.3628  0.1073
  107TMC2     C 1667   0.453   0.673  11.988  0.9391  0.5418  0.1415
  107TMC2     O 1668   0.378   0.758  12.040  0.2412 -0.3134  0.6685
  107TMC2     H 1669   0.700   0.586  12.013 -0.3032 -0.1163  0.6976
  107TMC2    H1 1670   0.442   0.859  11.828  0.5474  1.5109  0.8716
  107TMC2    H2 1671   0.840   0.983  11.937 -0.5293  0.6198  0.8795
  107TMC2    C7 1672   0.641   1.037  11.765  0.2150  0.1536  0.4900
  107TMC2    C8 1673   0.909   0.749  12.033  0.3471  0.8182 -1.2265
  107TMC2    O1 1674   0.713   1.130  11.781 -0.6456 -0.1636 -0.4639
  107TMC2    O2 1675   0.950   0.635  12.020  0.1455  0.7181  0.4344
  107TMC2    O5 1676   0.906   0.810  12.151  0.6415 -0.0310  0.6743
  107TMC2    H5 1677   0.879   0.904  12.154  1.0291  0.0580  1.2163
  108MPD2     C 1678   0.367   0.319  12.022  0.4894  0.2336  1.2190
  108MPD2    C1 1679   0.371   0.450  12.057  0.8354  0.5852 -0.9817
  108MPD2    C2 1680   0.267   0.488  12.148  0.3161  0.5535  0.5322
  108MPD2    C3 1681   0.180   0.398  12.206  0.7382 -0.5623  0.1315
  108MPD2    C4 1682   0.184   0.265  12.169 -0.1924  1.0008 -0.0598
  108MPD2    C5 1683   0.279   0.233  12.078 -0.7345 -0.5010  0.1709
  108MPD2     H 1684   0.264   0.589  12.188 -1.5874  1.1363 -1.0764
  108MPD2    H1 1685   0.119   0.185  12.202 -0.3930  0.7627 -1.0373
  108MPD2    H2 1686   0.455   0.283  11.969 -0.8444 -0.0011 -0.8204
  108MPD2    H3 1687   0.279   0.135  12.032  1.3818 -1.5176  2.3632
  108MPD2     N 1688   0.089   0.445  12.304 -0.5092 -0.4589 -0.3869
  108MPD2    H5 1689   0.016   0.385  12.341 -0.6538 -1.2024 -1.8669
  108MPD2    N1 1690   0.455   0.534  11.992 -0.2981 -0.4172  0.2800
  108MPD2    H7 1691   0.522   0.487  11.932 -3.2549 -3.2599 -0.7758
  109TMC2    C1 1692   3.957   2.140   0.525  0.2690 -0.0919  0.0708
  109TMC2    C2 1693   3.948   2.071   0.408  0.1630  0.2005 -0.2655
  109TMC2    C3 1694   4.031   2.104   0.304  0.2532 -0.0083  0.1263
  109TMC2    C4 1695   4.048   2.242   0.540 -0.1224 -0.4381  0.2805
  109TMC2    C5 1696   4.142   2.257   0.441 -0.2100  0.2801  0.8646
  109TMC2    C6 1697   4.131   2.195   0.319 -0.0529 -0.5059 -0.1046
  109TMC2     C 1698   3.926   2.064   0.646 -0.0770 -0.2103  0.0282
  109TMC2     O 1699   3.994   2.089   0.745 -0.2509  0.3833  0.1258
  109TMC2     H 1700   3.879   1.989   0.396  0.0032  0.5268 -1.6268
  109TMC2    H1 1701   4.053   2.292   0.636 -0.0091 -2.2089  1.1859
  109TMC2    H2 1702   4.193   2.213   0.232  0.5271 -1.9021  0.0378
  109TMC2    C7 1703   4.270   2.295   0.493  0.1431 -0.1123  0.4128
  109TMC2    C8 1704   4.022   2.023   0.177  0.2671 -0.2638 -0.0823
  109TMC2    O1 1705   4.277   2.349   0.601 -0.0269 -0.7807  0.1191
  109TMC2    O2 1706   3.915   1.999   0.127 -0.4620 -0.3005 -0.3937
  109TMC2    O5 1707   4.137   2.001   0.107  0.1657 -0.4265  0.3505
  109TMC2    H5 1708   4.213   2.012   0.168 -0.0139  0.4835  0.4158
  110MPD2     C 1709   3.786   1.590   0.822  0.1816 -0.0273  0.0831
  110MPD2    C1 1710   3.861   1.688   0.885  0.2908 -0.0464 -0.2259
  110MPD2    C2 1711   3.888   1.807   0.814 -0.1204 -0.0096 -0.2410
  110MPD2    C3 1712   3.825   1.835   0.698  0.1045  0.1768  0.2037
  110MPD2    C4 1713   3.746   1.733   0.645  0.0926 -0.1246  0.2320
  110MPD2    C5 1714   3.724   1.617   0.704 -0.8228  0.1649  0.0957
  110MPD2     H 1715   3.979   1.861   0.836  0.4445 -1.0794  0.0277
  110MPD2    H1 1716   3.696   1.750   0.550  0.3384 -1.9456 -0.2230
  110MPD2    H2 1717   3.759   1.494   0.864  0.1296 -0.6969 -1.4789
  110MPD2    H3 1718   3.652   1.547   0.663  0.8843 -1.6141  0.0739
  110MPD2     N 1719   3.840   1.958   0.623  0.2129 -0.0313 -0.2612
  110MPD2    H5 1720   3.784   1.955   0.539 -2.0431 -1.8005  1.2942
  110MPD2    N1 1721   3.921   1.653   1.006 -0.0425  0.4320 -0.2301
  110MPD2    H7 1722   3.920   1.555   1.031  0.4606  0.9897  2.0213
  111TMC2    C1 1723   0.121   2.121  12.080 -0.0769 -0.0359 -0.8546
  111TMC2    C2 1724   0.034   2.056  12.162  0.3392 -0.4888  0.1876
  111TMC2    C3 1725   0.088   1.998  12.272 -1.2006 -0.5622 -0.5606
  111TMC2    C4 1726   0.251   2.117  12.101 -0.0482  0.3600  0.3179
  111TMC2    C5 1727   0.305   2.061  12.213  0.1863  0.1333  0.0534
  111TMC2    C6 1728   0.224   1.997  12.300  0.5576  0.2526  0.1614
  111TMC2     C 1729   0.071   2.190  11.967  0.4934 -0.2551  0.9632
  111TMC2     O 1730   0.160   2.213  11.885 -0.3179  0.1132  0.1944
  111TMC2     H 1731   4.683   2.027  12.117  0.1468  1.2029 -0.5304
  111TMC2    H1 1732   0.324   2.174  12.045 -1.5113 -0.9315 -2.8602
  111TMC2    H2 1733   0.263   1.945  12.386  1.1839  4.3090  2.3668
  111TMC2    C7 1734   0.443   2.023  12.225 -0.1583 -0.5656  0.2723
  111TMC2    C8 1735   0.012   1.893  12.316 -0.0006 -0.3421  0.3717
  111TMC2    O1 1736   0.481   2.001  12.336  0.1595  0.2290 -0.2030
  111TMC2    O2 1737   4.689   1.822  12.241  0.7009 -0.8726  0.2616
  111TMC2    O5 1738   0.037   1.867  12.450  0.7460 -0.0951  0.3779
  111TMC2    H5 1739   0.087   1.935  12.499  0.9860  1.2924 -1.8246
  112MPD2     C 1740   4.459   2.432  11.705 -0.1820  0.6155 -0.1790
  112MPD2    C1 1741   4.590   2.392  11.666  0.2730 -0.8626 -0.3094
  112MPD2    C2 1742   4.670   2.344  11.766 -0.3981 -0.2160 -0.2847
  112MPD2    C3 1743   4.623   2.324  11.895 -0.4565 -0.4620 -0.4140
  112MPD2    C4 1744   4.499   2.369  11.926 -0.3650 -0.0865  0.2026
  112MPD2    C5 1745   4.413   2.420  11.833  0.7304  0.0855 -0.4701
  112MPD2     H 1746   0.026   2.318  11.734 -0.1099 -0.0767  0.5021
  112MPD2    H1 1747   4.462   2.355  12.027  0.5621 -0.3051  0.5111
  112MPD2    H2 1748   4.385   2.473  11.637  0.1332 -0.5889 -1.2463
  112MPD2    H3 1749   4.309   2.440  11.856 -0.1326 -1.9630 -2.6119
  112MPD2     N 1750   4.685   2.234  11.981  0.0736  0.2702  0.2446
  112MPD2    H5 1751   4.643   2.226  12.073 -0.2603  0.6462  0.1260
  112MPD2    N1 1752   4.635   2.384  11.531  0.0637  0.3684 -0.4499
  112MPD2    H7 1753   4.728   2.348  11.515 -0.6263 -0.6920 -2.1432
  113TMC2    C1 1754   2.787   4.597   0.414  0.1192  0.7475  0.3149
  113TMC2    C2 1755   2.722   4.693   0.356  0.2689  0.0483 -0.6204
  113TMC2    C3 1756   2.594   4.674   0.313 -0.0288  0.4400 -0.8695
  113TMC2    C4 1757   2.744   4.469   0.410 -0.2765  0.1039 -0.0307
  113TMC2    C5 1758   2.615   4.450   0.355  0.2194  0.6328  0.0101
  113TMC2    C6 1759   2.545   4.550   0.301 -0.1697 -0.3899 -0.0776
  113TMC2     C 1760   2.898   4.643   0.498  0.2501  0.1857  0.1001
  113TMC2     O 1761   2.922   0.017   0.489  0.5504  0.2906 -0.1306
  113TMC2     H 1762   2.750   0.054   0.351  0.9671 -0.1222 -0.3087
  113TMC2    H1 1763   2.796   4.381   0.446 -3.5615 -1.3820  1.1217
  113TMC2    H2 1764   2.452   4.520   0.255  0.4032  1.5571 -2.5082
  113TMC2    C7 1765   2.567   4.321   0.326  0.4077  0.0474 -0.1434
  113TMC2    C8 1766   2.527   0.041   0.262  0.4250 -0.1015  0.5864
  113TMC2    O1 1767   2.441   4.311   0.327 -0.3148  0.1870 -0.4838
  113TMC2    O2 1768   2.582   0.129   0.194  0.3453 -0.0715 -0.4223
  113TMC2    O5 1769   2.398   0.036   0.301 -0.1643 -0.4715 -0.3491
  113TMC2    H5 1770   2.381   4.702   0.359  4.0028 -1.4457 -0.4523
  114MPD2     C 1771   3.300   4.599   0.828 -0.8677  0.5132 -0.1720
  114MPD2    C1 1772   3.208   4.700   0.809 -0.6729  0.0597 -0.9007
  114MPD2    C2 1773   3.092   4.678   0.729  0.2552  0.4991  0.4397
  114MPD2    C3 1774   3.084   4.568   0.651  0.3170 -0.7793 -0.4865
  114MPD2    C4 1775   3.181   4.470   0.661 -0.2220 -0.3469  0.4193
  114MPD2    C5 1776   3.288   4.489   0.751  0.0433 -0.0432  0.2180
  114MPD2     H 1777   3.019   0.014   0.722  0.4458  0.4518 -2.1619
  114MPD2    H1 1778   3.184   4.383   0.596 -0.6792  1.2272 -1.6944
  114MPD2    H2 1779   3.387   4.616   0.890 -0.0202 -0.2193 -1.1663
  114MPD2    H3 1780   3.364   4.412   0.742 -0.0854 -0.3061  1.3427
  114MPD2     N 1781   2.968   4.545   0.562 -0.4292 -0.0938  0.4120
  114MPD2    H5 1782   2.939   4.453   0.531 -0.6383  0.4152 -0.8666
  114MPD2    N1 1783   3.208   0.066   0.892 -0.5134 -0.0928  0.0319
  114MPD2    H7 1784   3.137   0.137   0.875  1.1782  1.7983  0.9097
  115TMC2    C1 1785   4.327   2.837  17.652 -0.6032  0.1573  0.1327
  115TMC2    C2 1786   4.459   2.789  17.654 -0.0929 -0.7159  0.5368
  115TMC2    C3 1787   4.561   2.880  17.660  0.6207  0.3139 -0.1131
  115TMC2    C4 1788   4.302   2.973  17.646 -0.1643  0.0050 -0.1893
  115TMC2    C5 1789   4.409   3.059  17.646 -0.1822 -0.4330 -0.5861
  115TMC2    C6 1790   4.544   3.022  17.658  0.8404 -1.1961 -0.6227
  115TMC2     C 1791   4.220   2.749  17.615  0.0522  0.1976  0.0493
  115TMC2     O 1792   4.255   2.662  17.537  0.1597 -0.3058 -0.3866
  115TMC2     H 1793   4.480   2.682  17.653 -2.7085 -1.2203 -1.4741
  115TMC2    H1 1794   4.199   3.006  17.653 -0.8812 -1.9915 -1.1080
  115TMC2    H2 1795   4.622   3.096  17.673 -0.9712  0.6773 -0.5761
  115TMC2    C7 1796   4.380   3.205  17.629 -0.6026 -0.3009 -0.4508
  115TMC2    C8 1797   4.701   2.844  17.697 -0.6044 -0.2695 -0.3395
  115TMC2    O1 1798   4.270   3.250  17.658 -0.2560 -0.0298 -0.0051
  115TMC2    O2 1799   0.013   2.901   0.021  0.0309 -0.2763 -0.6394
  115TMC2    O5 1800   4.699   2.708  17.672  0.2735  0.2062  0.4400
  115TMC2    H5 1801   4.635   2.688  17.600  0.3173 -0.6343  0.6408
  116MPD2     C 1802   3.735   2.587  17.605  0.1930 -0.4287 -0.3365
  116MPD2    C1 1803   3.841   2.548  17.532  0.2370  0.2809  0.1647
  116MPD2    C2 1804   3.958   2.608  17.561  0.1398 -0.7888  0.0147
  116MPD2    C3 1805   3.976   2.709  17.656 -0.7336 -0.0942  0.3853
  116MPD2    C4 1806   3.866   2.749  17.721  0.2210  0.2106 -0.3564
  116MPD2    C5 1807   3.750   2.690  17.699 -0.1946 -0.5367  0.4035
  116MPD2     H 1808   4.041   2.572  17.499 -0.2413 -0.5783 -0.6162
  116MPD2    H1 1809   3.863   2.825   0.027 -0.0733 -0.0883 -0.0784
  116MPD2    H2 1810   3.636   2.544  17.605 -0.6786  1.5417  1.1871
  116MPD2    H3 1811   3.665   2.734  17.750  0.8468  0.8018  0.9877
  116MPD2     N 1812   4.100   2.777  17.674  0.3398  0.7435 -0.1720
  116MPD2    H5 1813   4.108   2.854  17.741 -1.9932  0.9895 -0.1914
  116MPD2    N1 1814   3.822   2.440  17.437  0.0612 -0.2951 -0.2678
  116MPD2    H7 1815   3.727   2.413  17.414  0.3203 -1.5816  0.2193
  117TMC2    C1 1816   3.118   3.715  14.477  0.3056  0.1553 -0.2712
  117TMC2    C2 1817   3.234   3.644  14.476  0.6818 -0.2925  0.0001
  117TMC2    C3 1818   3.341   3.688  14.410 -0.0340 -0.3432 -0.3864
  117TMC2    C4 1819   3.118   3.848  14.435  0.8386  0.6474 -0.1779
  117TMC2    C5 1820   3.219   3.889  14.364  0.0558  0.4866 -0.2096
  117TMC2    C6 1821   3.338   3.815  14.349 -0.1156 -0.3873 -0.2890
  117TMC2     C 1822   3.002   3.648  14.531  0.6731  0.0636  0.6466
  117TMC2     O 1823   3.015   3.554  14.607 -0.1115 -0.3757 -0.0972
  117TMC2     H 1824   3.232   3.541  14.510 -2.9055 -0.5621 -1.0404
  117TMC2    H1 1825   3.033   3.913  14.449  0.4405  0.1100 -0.1068
  117TMC2    H2 1826   3.422   3.855  14.293 -1.2527  2.2561 -0.1127
  117TMC2    C7 1827   3.226   4.028  14.321  0.0293  0.4860 -0.4354
  117TMC2    C8 1828   3.448   3.593  14.391  0.7372  0.2866 -1.1681
  117TMC2    O1 1829   3.325   4.056  14.260 -0.2473  0.4047  0.0824
  117TMC2    O2 1830   3.421   3.479  14.412  0.2247  0.0021 -0.1446
  117TMC2    O5 1831   3.568   3.645  14.414  0.2614  0.6984 -0.0528
  117TMC2    H5 1832   3.599   3.736  14.397  0.8304  0.7626  1.3809
  118MPD2     C 1833   3.013   4.328  14.383 -0.2228  0.1628 -0.5168
  118MPD2    C1 1834   3.134   4.257  14.366  0.6288  0.2394  0.3932
  118MPD2    C2 1835   3.251   4.331  14.348  0.4576  0.0770 -0.2896
  118MPD2    C3 1836   3.241   4.468  14.347  0.2351 -0.5795  0.1310
  118MPD2    C4 1837   3.119   4.532  14.355  0.2528 -0.2400 -0.0411
  118MPD2    C5 1838   2.999   4.464  14.383 -0.7649  0.6020 -0.3213
  118MPD2     H 1839   3.348   4.281  14.355  0.2726 -0.1537  0.6059
  118MPD2    H1 1840   3.117   4.639  14.337  0.6199 -0.3581 -0.8163
  118MPD2    H2 1841   2.920   4.272  14.386 -0.4269  0.4983 -0.4987
  118MPD2    H3 1842   2.909   4.521  14.403 -2.0469 -1.3029 -0.6928
  118MPD2     N 1843   3.353   4.551  14.349  0.9913 -0.5381  0.3476
  118MPD2    H5 1844   3.330   4.650  14.344 -0.2085 -1.0028 -3.4820
  118MPD2    N1 1845   3.129   4.116  14.364  0.3461 -0.1676  0.2516
  118MPD2    H7 1846   3.041   4.077  14.396  0.5324 -0.4533  0.4062
  119TMC2    C1 1847   1.212   0.320  13.657  0.0856  0.3177 -0.0695
  119TMC2    C2 1848   1.302   0.379  13.576 -0.5258  0.3584  0.0560
  119TMC2    C3 1849   1.271   0.362  13.448 -0.2633 -0.1902 -0.3089
  119TMC2    C4 1850   1.107   0.244  13.601 -0.4451  0.1287  0.5935
  119TMC2    C5 1851   1.078   0.240  13.469  0.5555 -0.1282 -0.1135
  119TMC2    C6 1852   1.157   0.312  13.389  0.3371 -0.4500 -0.4036
  119TMC2     C 1853   1.210   0.333  13.798  0.2827 -0.8152  0.6016
  119TMC2     O 1854   1.118   0.287  13.864 -0.1067  0.0639 -0.4130
  119TMC2     H 1855   1.381   0.450  13.602  0.8185 -0.8630 -0.7153
  119TMC2    H1 1856   1.042   0.206  13.678  1.2848  0.1718  2.0875
  119TMC2    H2 1857   1.139   0.322  13.282 -0.8380 -0.9050 -0.2493
  119TMC2    C7 1858   0.939   0.226  13.438  0.2645 -0.1486  0.5088
  119TMC2    C8 1859   1.347   0.439  13.353 -0.1318  0.3960 -0.6230
  119TMC2    O1 1860   0.905   0.291  13.343  0.6035  0.3612  0.2700
  119TMC2    O2 1861   1.464   0.478  13.372 -0.4856 -0.6339 -0.1730
  119TMC2    O5 1862   1.255   0.519  13.288  0.0249  0.2505  0.0941
  119TMC2    H5 1863   1.161   0.490  13.279 -0.0996  0.1383  1.6485
  120MPD2     C 1864   1.410   0.453  14.247 -0.0703  0.1117 -0.5374
  120MPD2    C1 1865   1.286   0.405  14.213 -0.6474  0.0467 -0.7366
  120MPD2    C2 1866   1.258   0.401  14.079 -0.1285 -0.1226  0.0527
  120MPD2    C3 1867   1.360   0.404  13.983  0.8902 -0.3418 -0.6094
  120MPD2    C4 1868   1.491   0.430  14.020  0.0155  0.1604 -0.2807
  120MPD2    C5 1869   1.511   0.465  14.148 -0.2783  0.3460 -0.4466
  120MPD2     H 1870   1.151   0.397  14.058 -0.3200  0.4124  0.9134
  120MPD2    H1 1871   1.572   0.447  13.951 -0.6125  2.5138 -0.4362
  120MPD2    H2 1872   1.433   0.474  14.350 -0.4798 -2.3442  0.0565
  120MPD2    H3 1873   1.608   0.497  14.183 -0.7318  0.7720  0.4330
  120MPD2     N 1874   1.328   0.390  13.845  0.4180 -0.2510 -0.1972
  120MPD2    H5 1875   1.404   0.396  13.778  0.4379  0.8875 -0.0798
  120MPD2    N1 1876   1.187   0.375  14.311 -0.5686 -0.0693  0.0729
  120MPD2    H7 1877   1.208   0.410  14.404  0.7047 -1.3965  0.2946
  121TMC2    C1 1878   2.554   1.974  14.784 -0.7743  0.1411  0.6962
  121TMC2    C2 1879   2.514   2.080  14.848 -0.1113 -0.3853  0.6879
  121TMC2    C3 1880   2.380   2.099  14.881 -0.6282  0.0007  0.3909
  121TMC2    C4 1881   2.470   1.871  14.743 -0.3973 -0.5846 -0.0130
  121TMC2    C5 1882   2.343   1.887  14.786 -0.3386 -0.1389 -0.4933
  121TMC2    C6 1883   2.301   1.991  14.864 -0.2875  0.0901  0.1188
  121TMC2     C 1884   2.675   1.986  14.705 -0.1275  0.8256  0.3082
  121TMC2     O 1885   2.781   1.965  14.767 -0.6521 -0.2294  0.0795
  121TMC2     H 1886   2.571   2.168  14.876 -0.5504  1.0820 -2.9572
  121TMC2    H1 1887   2.525   1.785  14.707  0.6024  0.1407 -0.2579
  121TMC2    H2 1888   2.201   1.996  14.905  0.3000  3.6464  1.1292
  121TMC2    C7 1889   2.261   1.770  14.757 -0.1556 -0.3819 -0.2782
  121TMC2    C8 1890   2.337   2.204  14.963 -0.0699 -0.3187 -0.2180
  121TMC2    O1 1891   2.324   1.667  14.726 -0.6037 -0.5093  0.4391
  121TMC2    O2 1892   2.400   2.285  15.030 -0.0179 -0.5710  0.5139
  121TMC2    O5 1893   2.199   2.223  14.935  0.6267 -0.5361 -0.1513
  121TMC2    H5 1894   2.189   2.165  14.857 -0.9311 -0.7482  0.2118
  122MPD2     C 1895   2.885   2.058  14.506  0.4426  0.0247 -0.5432
  122MPD2    C1 1896   2.749   2.080  14.487  0.5975  0.2910  0.6627
  122MPD2    C2 1897   2.706   2.133  14.371  0.1173 -0.5039 -0.3524
  122MPD2    C3 1898   2.793   2.183  14.272 -1.1551  0.2863  0.0963
  122MPD2    C4 1899   2.924   2.178  14.304  0.0917  0.0553  0.5021
  122MPD2    C5 1900   2.972   2.108  14.408  0.2467  0.6225  0.2605
  122MPD2     H 1901   2.600   2.142  14.347 -0.4623 -0.6764  2.2106
  122MPD2    H1 1902   3.006   2.196  14.235 -2.3244 -1.5195 -2.7996
  122MPD2    H2 1903   2.929   2.015  14.595  0.3579 -1.3227 -1.1468
  122MPD2    H3 1904   3.076   2.092  14.434  0.5588  2.7113  0.2723
  122MPD2     N 1905   2.747   2.237  14.151 -0.4500  0.3852 -0.5024
  122MPD2    H5 1906   2.812   2.277  14.084  0.1239  1.4736  0.6861
  122MPD2    N1 1907   2.652   2.033  14.575  0.2343  0.2411 -0.1760
  122MPD2    H7 1908   2.554   2.052  14.554 -0.3417 -0.9378  1.5450
  123TMC2    C1 1909   0.988   0.071  10.066 -0.6944  0.3116  0.1314
  123TMC2    C2 1910   1.079   0.168  10.105  0.1132 -0.3262 -0.0672
  123TMC2    C3 1911   1.109   0.259  10.006 -0.9126 -0.5812  0.9864
  123TMC2    C4 1912   0.942   0.057   9.935  0.3127 -0.2059  0.1138
  123TMC2    C5 1913   0.972   0.163   9.842 -1.0305 -0.0536 -0.7740
  123TMC2    C6 1914   1.048   0.269   9.884  0.0315 -0.5551 -0.4688
  123TMC2     C 1915   0.920   0.005  10.175  0.4622  0.4481 -0.5489
  123TMC2     O 1916   0.980   4.723  10.279 -0.2818  0.4170  0.3127
  123TMC2     H 1917   1.109   0.176  10.209  1.9066  1.1051 -0.7085
  123TMC2    H1 1918   0.878   4.716   9.913 -0.1458  0.0064  0.6096
  123TMC2    H2 1919   1.085   0.340   9.811  0.6014  0.0143  0.3664
  123TMC2    C7 1920   0.878   0.181   9.733  0.1841  0.7274 -0.7079
  123TMC2    C8 1921   1.218   0.353  10.028 -0.1414  0.0857  0.6858
  123TMC2    O1 1922   0.803   0.086   9.711  0.0449 -0.3034  0.6510
  123TMC2    O2 1923   1.235   0.468   9.999 -0.6005 -0.1102 -0.1923
  123TMC2    O5 1924   1.309   0.276  10.081 -0.2369 -0.0746  0.5141
  123TMC2    H5 1925   1.298   0.182  10.105 -0.6179  0.3254  1.8787
  124MPD2     C 1926   0.520   4.465  10.343 -0.2542  0.1260 -0.4866
  124MPD2    C1 1927   0.486   4.503  10.216  0.5232  0.0389 -0.2351
  124MPD2    C2 1928   0.575   4.588  10.152  0.3216 -0.1315  0.0027
  124MPD2    C3 1929   0.699   4.627  10.210  0.1512 -0.4592 -0.3455
  124MPD2    C4 1930   0.730   4.576  10.332  0.0725 -0.6555 -0.6210
  124MPD2    C5 1931   0.640   4.500  10.399 -0.6647 -0.5028 -0.6449
  124MPD2     H 1932   0.548   4.627  10.055  1.7816  3.4431  1.0121
  124MPD2    H1 1933   0.823   4.606  10.379  0.7013 -1.4227 -1.3730
  124MPD2    H2 1934   0.461   4.391  10.396 -1.8056  1.0836 -0.8568
  124MPD2    H3 1935   0.665   4.456  10.495 -0.8787  0.5730 -0.1012
  124MPD2     N 1936   0.790   4.717  10.140 -0.0607 -0.9170 -1.0843
  124MPD2    H5 1937   0.754   0.026  10.060 -0.5645  1.1366  0.4844
  124MPD2    N1 1938   0.360   4.465  10.162  0.1330  0.1826 -0.2351
  124MPD2    H7 1939   0.311   4.404  10.226 -2.5256  1.7775 -0.7538
  125TMC2    C1 1940   2.120   3.094   9.613  0.0920 -0.2490 -0.2934
  125TMC2    C2 1941   1.998   3.151   9.632  0.9570  0.2810 -0.2825
  125TMC2    C3 1942   1.951   3.215   9.522  0.3697  0.9163 -0.5420
  125TMC2    C4 1943   2.202   3.114   9.511 -0.1713 -0.2477  0.2843
  125TMC2    C5 1944   2.158   3.198   9.414 -0.2490  0.2724 -1.2787
  125TMC2    C6 1945   2.029   3.250   9.414  0.2103  0.6521 -0.2078
  125TMC2     C 1946   2.156   2.983   9.699  0.2703 -0.6371 -0.0058
  125TMC2     O 1947   2.243   2.909   9.671 -0.0378 -0.2949  0.3501
  125TMC2     H 1948   1.925   3.136   9.711  0.0239  0.2773 -1.1457
  125TMC2    H1 1949   2.299   3.064   9.513  0.4849  1.0169  0.1846
  125TMC2    H2 1950   2.005   3.328   9.342  0.6974  1.8056  0.8607
  125TMC2    C7 1951   2.229   3.199   9.289 -0.1508 -0.0728  0.4603
  125TMC2    C8 1952   1.834   3.295   9.536 -0.2104  0.1950 -0.7739
  125TMC2    O1 1953   2.187   3.280   9.211  0.0026  0.4053  0.1027
  125TMC2    O2 1954   1.807   3.357   9.642  0.1139 -0.0029  0.2587
  125TMC2    O5 1955   1.767   3.300   9.427  0.0495 -0.2084  0.0891
  125TMC2    H5 1956   1.782   3.234   9.356  5.2489  0.6118  0.4444
  126MPD1     C 1957   2.080   2.734  10.144  0.3317 -0.6097  0.2382
  126MPD1    C1 1958   2.008   2.852  10.151 -0.1251 -0.0939  0.1199
  126MPD1    C2 1959   2.010   2.933  10.035  0.0281 -0.0996  0.1360
  126MPD1    C3 1960   2.083   2.900   9.920  0.2862  0.0386  0.4697
  126MPD1    C4 1961   2.154   2.777   9.923  0.2221 -1.2342 -0.3091
  126MPD1    C5 1962   2.157   2.702  10.035  0.8326  0.0177  0.1699
  126MPD1     H 1963   1.958   3.026  10.054  0.7064 -0.0208  1.5742
  126MPD1    H1 1964   2.200   2.741   9.831  1.8314 -0.8523  0.3354
  126MPD1    H2 1965   2.077   2.654  10.217 -0.5516 -0.0596  0.8069
  126MPD1    H3 1966   2.209   2.608  10.029 -2.5263 -2.0922  3.8590
  126MPD1     N 1967   2.077   2.991   9.812 -0.3848 -0.1228 -0.3732
  126MPD1    H5 1968   2.023   3.077   9.817 -1.8704 -0.9266 -2.5069
  126MPD1    N1 1969   1.913   2.877  10.253  0.2649  0.1276  0.1204
  126MPD1    H6 1970   1.893   2.974  10.275 -1.4139 -0.1765 -0.0541
  126MPD1    H7 1971   1.927   2.818  10.335  0.9623 -1.8521 -1.4079
  127TMC2    C1 1972   2.813   1.066   9.912  0.0821 -0.2099  0.2283
  127TMC2    C2 1973   2.853   1.005  10.025 -0.2342  0.7991 -0.9395
  127TMC2    C3 1974   2.763   0.950  10.111 -0.6056  0.1098  1.3220
  127TMC2    C4 1975   2.680   1.061   9.878 -0.1167 -0.6351 -0.3819
  127TMC2    C5 1976   2.588   1.000   9.956 -0.0148 -0.1520 -0.1819
  127TMC2    C6 1977   2.629   0.946  10.074  0.3372  0.3447  0.2562
  127TMC2     C 1978   2.897   1.166   9.847  0.1543 -0.1752 -0.3038
  127TMC2     O 1979   2.988   1.209   9.917 -0.6165  0.0115  0.0024
  127TMC2     H 1980   2.957   0.994  10.054  0.0428  0.6315 -1.9825
  127TMC2    H1 1981   2.645   1.123   9.797  1.1620  1.6052  0.7586
  127TMC2    H2 1982   2.560   0.895  10.140  1.5145 -2.4392 -0.6758
  127TMC2    C7 1983   2.448   1.013   9.924 -0.6051 -0.8517 -0.4668
  127TMC2    C8 1984   2.795   0.884  10.232 -0.1104 -0.0544 -0.4858
  127TMC2    O1 1985   2.419   1.106   9.847 -0.2527 -0.4456 -0.6018
  127TMC2    O2 1986   2.739   0.782  10.266  0.0664  0.4356 -0.2396
  127TMC2    O5 1987   2.890   0.956  10.289 -0.0198  0.2699 -0.3990
  127TMC2    H5 1988   2.911   1.044  10.252 -0.0748  0.0004 -1.0599
  128MPD2     C 1989   2.863   1.319   9.512 -0.0958  0.2699  0.0872
  128MPD2    C1 1990   2.910   1.306   9.640  0.1922  0.4008 -0.7618
  128MPD2    C2 1991   3.026   1.377   9.671  0.0058 -0.7927  0.8986
  128MPD2    C3 1992   3.074   1.478   9.600  0.1934  0.3697  0.6406
  128MPD2    C4 1993   3.015   1.505   9.479 -0.1349  0.0861  0.0940
  128MPD2    C5 1994   2.919   1.420   9.433  0.2859 -0.8872 -1.0299
  128MPD2     H 1995   3.071   1.360   9.768 -1.1148 -0.4226  1.4775
  128MPD2    H1 1996   3.059   1.578   9.413  3.0124 -2.2196 -0.3647
  128MPD2    H2 1997   2.782   1.256   9.476 -0.2491  0.8840 -0.6383
  128MPD2    H3 1998   2.881   1.435   9.332  1.5140 -2.0875 -1.6602
  128MPD2     N 1999   3.183   1.562   9.658  0.1388  0.0563 -0.4746
  128MPD2    H5 2000   3.216   1.542   9.752  1.1225  0.4880 -0.7275
  128MPD2    N1 2001   2.850   1.209   9.718 -0.0518 -0.2591 -0.0770
  128MPD2    H7 2002   2.777   1.147   9.684  1.0840 -0.9350 -1.2827
  129TMC2    C1 2003   1.034   1.912   1.116 -0.4814 -0.5250  0.3231
  129TMC2    C2 2004   1.039   2.051   1.128  0.6484  0.3804  0.7565
  129TMC2    C3 2005   0.949   2.104   1.213 -0.2270  0.1109 -0.4610
  129TMC2    C4 2006   0.942   1.832   1.187  0.0040 -0.0865  0.3466
  129TMC2    C5 2007   0.860   1.895   1.277  0.4491  0.7010 -0.2211
  129TMC2    C6 2008   0.860   2.033   1.290  0.2531 -0.2876 -0.2642
  129TMC2     C 2009   1.165   1.851   1.096 -0.0530  0.2828 -0.2232
  129TMC2     O 2010   1.177   1.729   1.103  0.1198  0.0002 -0.6561
  129TMC2     H 2011   1.117   2.118   1.093 -0.9890  1.6636 -0.4568
  129TMC2    H1 2012   0.936   1.723   1.192  2.7556 -0.0496  4.6189
  129TMC2    H2 2013   0.805   2.079   1.371  0.0428 -2.2773  0.7276
  129TMC2    C7 2014   0.750   1.818   1.338  0.4681 -0.8576  0.1333
  129TMC2    C8 2015   0.996   2.238   1.258 -0.5117 -0.4906  0.0646
  129TMC2    O1 2016   0.694   1.735   1.261  0.3029 -0.0357 -0.0070
  129TMC2    O2 2017   1.110   2.269   1.271 -0.1333  0.3384 -0.2354
  129TMC2    O5 2018   0.910   2.317   1.199  0.1197  0.8122 -0.1519
  129TMC2    H5 2019   0.835   2.261   1.170  1.6647 -0.6669 -1.3107
  130MPD2     C 2020   1.475   1.830   1.078  0.3421 -0.2785 -0.0710
  130MPD2    C1 2021   1.398   1.940   1.041 -0.0917 -0.3886 -0.1334
  130MPD2    C2 2022   1.455   2.055   0.989 -0.7373 -0.0286  0.0768
  130MPD2    C3 2023   1.590   2.057   0.983  0.0510 -0.2356 -0.4937
  130MPD2    C4 2024   1.665   1.953   1.035 -0.1389 -0.3103 -0.0583
  130MPD2    C5 2025   1.613   1.832   1.068 -0.4324 -0.2077 -0.2055
  130MPD2     H 2026   1.401   2.141   0.951  0.5551  0.4817 -0.6171
  130MPD2    H1 2027   1.773   1.961   1.025  0.1296 -3.5232  0.1464
  130MPD2    H2 2028   1.429   1.741   1.120  0.1037 -0.4431 -0.6783
  130MPD2    H3 2029   1.676   1.751   1.102 -0.4575 -0.5877 -1.0729
  130MPD2     N 2030   1.643   2.182   0.941  0.4993  0.0398  0.2124
  130MPD2    H5 2031   1.571   2.252   0.928  1.6736  1.3984  0.9947
  130MPD2    N1 2032   1.259   1.939   1.055 -0.1252 -0.4205 -0.0156
  130MPD2    H7 2033   1.224   2.032   1.032 -0.7295 -0.4514  0.7898
  131TMC2    C1 2034   0.579   0.633   9.854  0.3787 -0.6568 -0.1706
  131TMC2    C2 2035   0.706   0.609   9.897 -0.2717 -0.6524 -0.1662
  131TMC2    C3 2036   0.794   0.714   9.924 -0.0435  0.2439  0.6960
  131TMC2    C4 2037   0.531   0.761   9.846 -0.0697  0.5390  0.2438
  131TMC2    C5 2038   0.618   0.872   9.873  0.5890  1.3718 -0.7049
  131TMC2    C6 2039   0.754   0.847   9.899 -0.0266 -0.2704 -0.1968
  131TMC2     C 2040   0.494   0.519   9.821 -0.2980  0.3217 -0.1540
  131TMC2     O 2041   0.539   0.415   9.868 -0.3077 -0.1325 -0.5974
  131TMC2     H 2042   0.745   0.508   9.903  0.5420 -0.1153  3.2789
  131TMC2    H1 2043   0.429   0.787   9.823 -0.4300 -0.3409  0.8373
  131TMC2    H2 2044   0.811   0.929   9.943  0.4669 -0.3448 -0.6937
  131TMC2    C7 2045   0.549   0.999   9.888 -0.5176  0.2782  0.0300
  131TMC2    C8 2046   0.896   0.670  10.018  0.5191  0.0396  0.1115
  131TMC2    O1 2047   0.430   0.991   9.882  0.3167  0.6223  0.5967
  131TMC2    O2 2048   0.881   0.561  10.069 -0.4332 -0.4563 -0.3680
  131TMC2    O5 2049   0.986   0.763  10.051  0.0066 -0.6813  0.3298
  131TMC2    H5 2050   0.980   0.846   9.999  1.0153 -0.0631  1.2004
  132MPD2     C 2051   0.127   0.541   9.720 -0.0112 -0.4554 -0.0592
  132MPD2    C1 2052   0.249   0.480   9.768 -0.0405  0.0090  0.6841
  132MPD2    C2 2053   0.238   0.361   9.836  0.2626  0.1205 -0.4429
  132MPD2    C3 2054   0.114   0.294   9.855 -0.0804 -0.1813  0.5231
  132MPD2    C4 2055   0.003   0.349   9.795 -0.6454  0.2795  0.4357
  132MPD2    C5 2056   0.014   0.470   9.740 -0.1163 -0.2524 -0.7142
  132MPD2     H 2057   0.330   0.316   9.872  1.6100  0.5381 -3.4322
  132MPD2    H1 2058   4.650   0.304   9.809  1.0950 -3.6614 -0.2285
  132MPD2    H2 2059   0.123   0.637   9.670  0.2299 -1.3587 -1.7983
  132MPD2    H3 2060   4.664   0.512   9.703 -0.3104 -0.3308 -0.3040
  132MPD2     N 2061   0.110   0.170   9.929 -0.2492 -0.2434  0.2135
  132MPD2    H5 2062   0.200   0.134   9.959 -0.4956  0.6569  2.0888
  132MPD2    N1 2063   0.367   0.558   9.769 -0.2845  0.6170  0.4645
  132MPD2    H7 2064   0.362   0.644   9.714 -0.9963  0.4682  0.3033
  133TMC2    C1 2065   4.335   2.411   9.485 -0.8188  0.0094 -0.8687
  133TMC2    C2 2066   4.267   2.529   9.465 -0.2033 -0.4401  0.1099
  133TMC2    C3 2067   4.340   2.642   9.447  0.6522 -0.5562 -0.2736
  133TMC2    C4 2068   4.464   2.405   9.493 -0.0931  0.0606 -0.2752
  133TMC2    C5 2069   4.535   2.520   9.497 -0.0780 -0.0501 -0.3411
  133TMC2    C6 2070   4.476   2.647   9.471 -0.4313 -0.3493 -0.5816
  133TMC2     C 2071   4.264   2.293   9.506 -0.3945 -0.0435  0.0739
  133TMC2     O 2072   4.315   2.190   9.465  0.3189 -0.0559  0.2931
  133TMC2     H 2073   4.159   2.529   9.468 -0.2078  0.3977 -0.2697
  133TMC2    H1 2074   4.526   2.317   9.501 -1.2387 -0.5849  1.4695
  133TMC2    H2 2075   4.529   2.741   9.459  0.6763 -0.9754 -0.6393
  133TMC2    C7 2076   4.681   2.513   9.523  0.6302 -0.3963 -0.2067
  133TMC2    C8 2077   4.276   2.776   9.426 -0.3402 -0.1279  0.7182
  133TMC2    O1 2078   4.724   2.399   9.515  0.2321  0.2339 -0.0544
  133TMC2    O2 2079   4.203   2.806   9.329  0.8932  0.3476 -0.2724
  133TMC2    O5 2080   4.283   2.838   9.541  0.0671  0.4044 -0.0191
  133TMC2    H5 2081   4.324   2.793   9.618  1.3137  2.1848  0.3576
  134MPD2     C 2082   3.935   2.270   9.661  0.1076 -0.5861  0.5514
  134MPD2    C1 2083   4.044   2.216   9.593  0.2843 -0.5077  0.1113
  134MPD2    C2 2084   4.057   2.076   9.586  0.1815 -0.4097 -0.0657
  134MPD2    C3 2085   3.962   2.000   9.643 -0.5214 -0.1144 -0.1300
  134MPD2    C4 2086   3.846   2.047   9.696  0.3681  0.6837 -0.4062
  134MPD2    C5 2087   3.831   2.185   9.702  0.8930 -0.4328 -0.1955
  134MPD2     H 2088   4.147   2.033   9.543  1.1272  1.0959  0.4301
  134MPD2    H1 2089   3.766   1.980   9.724 -1.5041  2.3793 -1.7429
  134MPD2    H2 2090   3.927   2.376   9.683 -2.4738 -1.0289  1.7805
  134MPD2    H3 2091   3.740   2.223   9.747  0.8975  0.1217 -0.6412
  134MPD2     N 2092   3.980   1.868   9.677 -0.3094 -0.4257  0.4656
  134MPD2    H5 2093   3.929   1.837   9.759 -1.2337 -0.2054 -0.0199
  134MPD2    N1 2094   4.144   2.311   9.568 -0.5469 -0.5438 -0.2992
  134MPD2    H7 2095   4.126   2.402   9.609  0.2484 -0.5981  0.1730
  135TMC2    C1 2096   2.320   3.126  10.116 -0.2721  0.6299 -0.0776
  135TMC2    C2 2097   2.415   3.034  10.084  0.6104 -0.9389 -0.5072
  135TMC2    C3 2098   2.432   2.925  10.168 -0.4139  0.4236 -0.3631
  135TMC2    C4 2099   2.237   3.117  10.225 -0.2748 -0.6904  0.2704
  135TMC2    C5 2100   2.264   3.017  10.313  0.5548  0.1646 -0.5502
  135TMC2    C6 2101   2.364   2.927  10.286  0.3180 -0.0436  0.9164
  135TMC2     C 2102   2.278   3.230  10.016 -0.5915 -0.5245  0.1140
  135TMC2     O 2103   2.202   3.314  10.051 -0.4519  0.5777 -0.5359
  135TMC2     H 2104   2.478   3.045   9.996  1.6015 -0.2140  0.2950
  135TMC2    H1 2105   2.163   3.194  10.243  3.6276  2.6291  2.2341
  135TMC2    H2 2106   2.393   2.850  10.358  0.5720 -0.2458  0.5999
  135TMC2    C7 2107   2.178   2.997  10.425  0.1206 -0.0718  0.2127
  135TMC2    C8 2108   2.562   2.865  10.174  0.2619 -0.5096  0.0756
  135TMC2    O1 2109   2.102   3.085  10.465 -0.0969  0.1673  0.3850
  135TMC2    O2 2110   2.616   2.821  10.273 -0.4796  0.2035 -0.0694
  135TMC2    O5 2111   2.608   2.845  10.043  0.3008 -0.0663 -0.2645
  135TMC2    H5 2112   2.559   2.857   9.959 -0.9543  3.4531  0.9683
  136MPD2     C 2113   2.220   3.418   9.791 -0.2063  0.2515 -0.6949
  136MPD2    C1 2114   2.325   3.330   9.794 -0.4184  0.3863  0.5275
  136MPD2    C2 2115   2.407   3.322   9.683  0.4225 -0.1379 -0.1177
  136MPD2    C3 2116   2.391   3.404   9.570 -0.3867 -0.9276  0.7355
  136MPD2    C4 2117   2.282   3.491   9.573 -0.1837  0.0839 -0.8764
  136MPD2    C5 2118   2.208   3.504   9.689 -0.4689 -0.5854 -0.1642
  136MPD2     H 2119   2.475   3.238   9.674 -0.2657 -0.7097  0.0635
  136MPD2    H1 2120   2.270   3.569   9.498 -2.2973 -0.7842 -1.4353
  136MPD2    H2 2121   2.145   3.429   9.868  2.1094  1.5147  1.3942
  136MPD2    H3 2122   2.119   3.565   9.687 -0.2384 -0.2486 -0.1426
  136MPD2     N 2123   2.487   3.397   9.462  0.2446 -0.4203 -0.0707
  136MPD2    H5 2124   2.464   3.444   9.375  0.7084 -1.0845 -0.5541
  136MPD2    N1 2125   2.352   3.235   9.902  0.2125  0.4617 -0.1549
  136MPD2    H7 2126   2.430   3.172   9.886  1.0303  1.5503 -0.4046
  137TMC2    C1 2127   1.726   1.801   9.015 -0.6286  0.1114  0.0869
  137TMC2    C2 2128   1.777   1.867   8.911  0.5795 -0.1516  0.2928
  137TMC2    C3 2129   1.701   1.897   8.800  0.6414  0.8014  0.0062
  137TMC2    C4 2130   1.588   1.779   9.019  0.2973 -1.0243 -0.5835
  137TMC2    C5 2131   1.511   1.803   8.908  0.5747  1.0033  0.3844
  137TMC2    C6 2132   1.569   1.865   8.800  0.2699 -0.0939  0.0404
  137TMC2     C 2133   1.801   1.800   9.139 -0.7667  0.2389  0.3929
  137TMC2     O 2134   1.918   1.839   9.128 -0.6657 -0.6123 -0.0300
  137TMC2     H 2135   1.885   1.869   8.901  0.4875  1.5098 -0.4888
  137TMC2    H1 2136   1.548   1.702   9.083  0.9466 -0.4348  0.5271
  137TMC2    H2 2137   1.505   1.885   8.715 -0.4477 -1.9941  0.1294
  137TMC2    C7 2138   1.368   1.784   8.911  0.1793  0.0553 -0.1902
  137TMC2    C8 2139   1.752   1.946   8.672  0.2436 -0.0426 -0.7066
  137TMC2    O1 2140   1.309   1.777   8.805  0.0934 -0.2872 -0.2049
  137TMC2    O2 2141   1.683   1.967   8.574  0.7197 -0.3337 -0.5605
  137TMC2    O5 2142   1.841   2.040   8.715 -0.9585 -0.4216 -0.2927
  137TMC2    H5 2143   1.879   2.031   8.805  1.2090  0.5794 -1.1144
  138MPD2     C 2144   1.684   1.731   9.476 -0.0183 -0.0115  0.8422
  138MPD2    C1 2145   1.774   1.769   9.382  0.1054  0.1568  0.2912
  138MPD2    C2 2146   1.906   1.774   9.423 -0.5274 -0.2330 -0.7275
  138MPD2    C3 2147   1.937   1.750   9.555 -0.3340  0.0295  0.4205
  138MPD2    C4 2148   1.842   1.709   9.643 -0.5730 -0.0084 -0.7496
  138MPD2    C5 2149   1.714   1.710   9.607  0.0018 -0.1998  0.4771
  138MPD2     H 2150   1.982   1.803   9.351 -1.6260  5.2837  0.3324
  138MPD2    H1 2151   1.856   1.683   9.748  2.4187 -1.1059 -1.4239
  138MPD2    H2 2152   1.578   1.734   9.451 -0.2061 -1.1529  1.5131
  138MPD2    H3 2153   1.640   1.677   9.679  0.8789  2.5181  2.6512
  138MPD2     N 2154   2.076   1.754   9.591 -0.2821  0.2299 -0.3217
  138MPD2    H5 2155   2.134   1.786   9.514 -0.5311  0.1111 -0.5581
  138MPD2    N1 2156   1.730   1.773   9.251 -0.0038  0.1934 -0.1075
  138MPD2    H7 2157   1.629   1.782   9.246 -0.0060 -0.4302 -1.3357
  139TMC2    C1 2158   2.930   0.065  14.046 -0.0583 -0.4251  0.2909
  139TMC2    C2 2159   3.053   0.059  14.103  0.1767  0.5286 -0.3862
  139TMC2    C3 2160   3.127   0.177  14.096 -0.2375  0.5016 -0.1684
  139TMC2    C4 2161   2.872   0.174  13.993  0.0175  0.3421 -0.0744
  139TMC2    C5 2162   2.947   0.287  13.995  0.0836  0.6617  0.5388
  139TMC2    C6 2163   3.076   0.296  14.049 -0.5506 -0.8136 -0.9381
  139TMC2     C 2164   2.853   4.694  14.062 -0.1388 -0.2970 -0.3506
  139TMC2     O 2165   2.729   4.707  14.048 -0.1148  0.4157 -0.2521
  139TMC2     H 2166   3.108   4.713  14.130  0.3243  0.7547  0.0673
  139TMC2    H1 2167   2.771   0.167  13.954 -0.7523  2.2854  1.5610
  139TMC2    H2 2168   3.137   0.385  14.055 -0.4445 -1.0332  1.2901
  139TMC2    C7 2169   2.889   0.406  13.928 -0.2531  0.0312  0.5575
  139TMC2    C8 2170   3.263   0.170  14.148 -0.2256  0.2490  0.1921
  139TMC2    O1 2171   2.785   0.383  13.867  0.3082 -0.0966  0.3861
  139TMC2    O2 2172   3.281   0.086  14.235 -0.4512 -0.2802  0.6427
  139TMC2    O5 2173   3.332   0.176  14.029 -0.0407 -0.3296 -0.0867
  139TMC2    H5 2174   3.306   0.244  13.963 -0.1250  1.0286  1.3417
  140MPD2     C 2175   2.737   4.425  14.106  0.6678  0.4417 -0.4886
  140MPD2    C1 2176   2.859   4.449  14.049 -0.1516 -0.4540 -0.1442
  140MPD2    C2 2177   2.939   4.344  14.010 -0.2765 -0.2836 -0.2503
  140MPD2    C3 2178   2.893   4.213  14.021  0.0200 -0.5956  0.2316
  140MPD2    C4 2179   2.771   4.194  14.094  0.6816  0.4969 -0.4358
  140MPD2    C5 2180   2.696   4.300  14.141  0.1093  0.1096 -0.0387
  140MPD2     H 2181   3.026   4.370  13.952  0.1140 -0.9929  0.0209
  140MPD2    H1 2182   2.729   4.095  14.109 -1.4293  1.4965  0.2306
  140MPD2    H2 2183   2.687   4.506  14.158  1.7644  0.0220  1.2255
  140MPD2    H3 2184   2.601   4.284  14.191 -0.6952 -1.5144 -2.1033
  140MPD2     N 2185   2.967   4.110  13.954  0.2524  0.1534  0.3123
  140MPD2    H5 2186   3.053   4.135  13.907  0.4894  0.5190  0.9527
  140MPD2    N1 2187   2.915   4.574  14.031  0.4810 -0.5232 -0.0611
  140MPD2    H7 2188   3.010   4.575  13.996  0.8573 -0.3738  0.9517
  141TMC2    C1 2189   3.099   1.144  14.509 -0.5148  0.0842 -0.2339
  141TMC2    C2 2190   2.983   1.199  14.556 -0.1277  0.4526 -0.5811
  141TMC2    C3 2191   2.971   1.202  14.695  0.0959 -0.8139  1.0549
  141TMC2    C4 2192   3.199   1.092  14.587 -0.4835  0.0494  0.1076
  141TMC2    C5 2193   3.183   1.095  14.722  0.0817 -0.2684  0.4470
  141TMC2    C6 2194   3.071   1.165  14.781 -0.2912 -0.1002  0.5626
  141TMC2     C 2195   3.126   1.136  14.370  0.3712 -0.1674 -0.3457
  141TMC2     O 2196   3.224   1.073  14.347 -0.7310 -0.5214  0.2118
  141TMC2     H 2197   2.911   1.241  14.487  1.1099  1.1250 -1.4546
  141TMC2    H1 2198   3.283   1.040  14.542 -1.3903 -1.8053  0.5491
  141TMC2    H2 2199   3.063   1.172  14.889 -3.2623 -0.2229  0.3578
  141TMC2    C7 2200   3.297   1.050  14.802 -0.1738  0.2248 -0.1794
  141TMC2    C8 2201   2.866   1.279  14.763 -0.2588 -0.2124 -0.8175
  141TMC2    O1 2202   3.348   0.945  14.772  0.5644 -0.1152  0.1303
  141TMC2    O2 2203   2.827   1.257  14.879 -0.5303  0.0028  0.9986
  141TMC2    O5 2204   2.851   1.390  14.689 -0.1919  0.0536 -0.2921
  141TMC2    H5 2205   2.919   1.399  14.618 -0.4784 -0.5753 -0.6499
  142TMC2    C1 2206   0.051   0.002   9.577  0.1493  0.5534 -0.7615
  142TMC2    C2 2207   4.712   0.086   9.507 -0.1238 -1.1312 -0.5542
  142TMC2    C3 2208   0.016   0.195   9.434 -0.7642 -0.1738 -0.2976
  142TMC2    C4 2209   0.188   0.030   9.590 -0.3547  0.0216 -0.0073
  142TMC2    C5 2210   0.227   0.138   9.517 -0.3109  0.1541  0.3688
  142TMC2    C6 2211   0.149   0.224   9.444 -0.0869  0.2588 -0.1904
  142TMC2     C 2212   0.013   4.613   9.606  0.7661 -0.8453 -0.9245
  142TMC2     O 2213   4.639   4.598   9.631 -0.3377  0.1248  0.6921
  142TMC2     H 2214   4.607   0.059   9.514 -0.2969  0.4048  2.9022
  142TMC2    H1 2215   0.260   4.710   9.641  0.1544  0.3449 -0.3176
  142TMC2    H2 2216   0.177   0.309   9.383  0.8293 -0.1066 -0.2774
  142TMC2    C7 2217   0.372   0.180   9.533 -0.5236  0.7364 -0.2313
  142TMC2    C8 2218   4.672   0.266   9.340 -0.0852  0.6116  0.5785
  142TMC2    O1 2219   0.454   0.089   9.564 -0.5547 -0.0968 -0.2879
  142TMC2    O2 2220   4.689   0.384   9.302  0.0488 -0.5196 -0.3109
  142TMC2    O5 2221   4.595   0.177   9.291 -0.1372  0.5451 -0.1977
  142TMC2    H5 2222   4.610   0.085   9.321 -2.6321  0.3442  0.4077
  143MPD2     C 2223   0.107   4.160   9.825 -0.1824  1.2131 -0.2700
  143MPD2    C1 2224   0.004   4.250   9.853  0.0280 -0.4290 -0.6290
  143MPD2    C2 2225   0.006   4.372   9.789 -0.3423  0.9256 -0.6198
  143MPD2    C3 2226   0.105   4.399   9.691 -0.0391 -0.6160 -0.1255
  143MPD2    C4 2227   0.205   4.306   9.670 -0.1923  0.0731  0.2179
  143MPD2    C5 2228   0.195   4.182   9.723 -0.1331  0.4655  0.0496
  143MPD2     H 2229   4.670   4.439   9.818  0.8115  0.9643  2.4055
  143MPD2    H1 2230   0.285   4.322   9.599  0.2486 -0.4490  0.6026
  143MPD2    H2 2231   0.111   4.065   9.877  0.7200  0.4017 -1.8247
  143MPD2    H3 2232   0.275   4.111   9.706 -0.3587  0.5764 -1.4530
  143MPD2     N 2233   0.119   4.527   9.630 -0.0941 -0.1606  0.3240
  143MPD2    H5 2234   0.206   4.541   9.580 -0.3982  1.4433  0.2586
  143MPD2    N1 2235   4.653   4.217   9.948  0.6867  0.3873 -0.1414
  143MPD2    H7 2236   4.674   4.130   9.997 -2.5507 -0.5504 -0.4445
  144TMC2    C1 2237   3.521   3.448   0.577  0.6080 -0.7941  0.2290
  144TMC2    C2 2238   3.584   3.328   0.601 -0.7773  0.3667 -0.0078
  144TMC2    C3 2239   3.681   3.324   0.696  0.0544  0.5211  0.3396
  144TMC2    C4 2240   3.542   3.561   0.649  0.0757 -0.7875 -0.2239
  144TMC2    C5 2241   3.634   3.543   0.751  0.2434  0.1581 -0.5536
  144TMC2    C6 2242   3.707   3.430   0.779 -0.2366 -0.0163  0.2945
  144TMC2     C 2243   3.416   3.444   0.475  0.0833 -0.0594  0.0769
  144TMC2     O 2244   3.427   3.367   0.383  0.0557  0.0149  0.4220
  144TMC2     H 2245   3.576   3.247   0.530 -0.2027  1.5911 -1.4486
  144TMC2    H1 2246   3.500   3.660   0.634  2.3932  0.3906  1.0264
  144TMC2    H2 2247   3.784   3.433   0.855  0.5779 -0.6916 -0.5142
  144TMC2    C7 2248   3.671   3.661   0.829 -0.0178 -0.7752  0.3084
  144TMC2    C8 2249   3.765   3.205   0.713 -0.2540 -0.2570 -0.2248
  144TMC2    O1 2250   3.774   3.674   0.888 -0.5541 -0.3451  0.1736
  144TMC2    O2 2251   3.738   3.089   0.684  0.1950 -0.3666 -0.0398
  144TMC2    O5 2252   3.895   3.251   0.727 -0.4170  0.0571  0.0594
  144TMC2    H5 2253   3.892   3.347   0.706  0.0560  0.1415  0.4019
  145MPD2     C 2254   3.017   3.669   0.251  0.4230 -0.5819  0.3909
  145MPD2    C1 2255   3.088   3.558   0.212 -0.4013  0.2324 -0.0711
  145MPD2    C2 2256   3.196   3.511   0.286 -0.8038  0.6145  0.1878
  145MPD2    C3 2257   3.218   3.577   0.407  0.9026 -0.0344 -0.0837
  145MPD2    C4 2258   3.137   3.685   0.444 -0.2542 -0.0433 -0.4037
  145MPD2    C5 2259   3.045   3.735   0.364 -0.7588  0.5953  0.7810
  145MPD2     H 2260   3.249   3.421   0.257 -0.6258 -0.6912  4.5618
  145MPD2    H1 2261   3.168   3.745   0.529 -1.3307 -0.7487  0.4910
  145MPD2    H2 2262   2.937   3.712   0.191 -0.7999 -2.9388  0.2888
  145MPD2    H3 2263   3.003   3.832   0.387  0.8400  0.6942  3.3098
  145MPD2     N 2264   3.316   3.544   0.502 -0.3886 -0.0034 -0.1838
  145MPD2    H5 2265   3.332   3.601   0.584  0.4492  1.7322 -1.5393
  145MPD2    N1 2266   3.054   3.492   0.088  0.1642  0.4401  0.2996
  145MPD2    H7 2267   3.108   3.411   0.057 -0.0124 -0.4383  2.2872
  146TMC2    C1 2268   0.001   2.293  12.948  0.5937 -0.1839 -0.4516
  146TMC2    C2 2269   4.692   2.385  12.858  0.0432  0.0894  0.0514
  146TMC2    C3 2270   4.686   2.343  12.726  0.5022  0.4949  0.3270
  146TMC2    C4 2271   0.059   2.177  12.906 -0.7981  0.5739 -0.1583
  146TMC2    C5 2272   0.048   2.139  12.775  0.6783 -0.3345 -0.0269
  146TMC2    C6 2273   4.735   2.225  12.686  0.0976  0.2864  0.9071
  146TMC2     C 2274   0.006   2.327  13.088 -0.1542 -0.2709 -0.5064
  146TMC2     O 2275   4.710   2.435  13.120 -0.5533  0.1603 -0.0629
  146TMC2     H 2276   4.645   2.475  12.896 -1.1639  0.1162 -1.5322
  146TMC2    H1 2277   0.107   2.105  12.970  0.4211 -1.1115 -2.9713
  146TMC2    H2 2278   4.719   2.199  12.582  0.7571  0.5365  0.7442
  146TMC2    C7 2279   0.130   2.029  12.724 -0.0063  0.1174 -0.5663
  146TMC2    C8 2280   4.641   2.433  12.623  0.3079 -0.0295 -0.3499
  146TMC2    O1 2281   0.164   2.039  12.604  0.5770  0.1809 -0.6651
  146TMC2    O2 2282   4.712   2.460  12.523 -0.3441  0.3709 -0.3978
  146TMC2    O5 2283   4.549   2.511  12.684  0.0392  0.3411 -0.3218
  146TMC2    H5 2284   4.485   2.455  12.732 -0.0228 -0.1105 -0.9344
  147MPD2     C 2285   0.315   1.547  12.775  0.1619 -0.8205 -0.2447
  147MPD2    C1 2286   0.228   1.569  12.875  0.0755  0.1664 -0.0907
  147MPD2    C2 2287   0.162   1.692  12.876 -0.0271  0.3612 -0.0989
  147MPD2    C3 2288   0.182   1.792  12.785  0.8593 -0.0441  0.0090
  147MPD2    C4 2289   0.279   1.765  12.685 -0.1036  0.4037 -0.3590
  147MPD2    C5 2290   0.342   1.642  12.675  0.0583 -0.0587  0.2435
  147MPD2     H 2291   0.092   1.702  12.959 -1.4516 -0.0513 -1.2473
  147MPD2    H1 2292   0.300   1.830  12.601 -0.5049 -0.3652 -1.0436
  147MPD2    H2 2293   0.386   1.465  12.777 -1.4181 -2.1571  0.3995
  147MPD2    H3 2294   0.411   1.617  12.596  0.8741  2.7680  0.0423
  147MPD2     N 2295   0.116   1.917  12.796 -0.0689 -0.0749 -0.1119
  147MPD2    H5 2296   0.049   1.917  12.872  0.4762 -2.2443  0.3717
  147MPD2    N1 2297   0.218   1.458  12.957 -0.1012 -0.0054  0.1656
  147MPD2    H7 2298   0.272   1.375  12.933 -0.7412 -0.4454  0.2354
  148TMC2    C1 2299   0.173   1.508  10.400  0.0128 -0.1591  0.5568
  148TMC2    C2 2300   0.247   1.609  10.341 -0.0535  0.1856 -0.4409
  148TMC2    C3 2301   0.380   1.592  10.323 -0.1096  0.5894 -0.1118
  148TMC2    C4 2302   0.217   1.383  10.431  0.5753 -0.2659  0.1514
  148TMC2    C5 2303   0.355   1.370  10.404 -0.0010 -0.2742 -0.4089
  148TMC2    C6 2304   0.434   1.467  10.351 -0.5908  0.7438  0.1011
  148TMC2     C 2305   0.030   1.533  10.379  0.0159  0.0606 -0.7605
  148TMC2     O 2306   4.734   1.650  10.368 -0.0891 -0.0049 -0.5451
  148TMC2     H 2307   0.208   1.707  10.316 -1.9409 -0.2832  0.6514
  148TMC2    H1 2308   0.154   1.306  10.474  0.3384 -0.1825 -0.0464
  148TMC2    H2 2309   0.541   1.462  10.336 -0.8827  0.2823 -1.9255
  148TMC2    C7 2310   0.398   1.228  10.401  0.7999 -0.0485 -0.0234
  148TMC2    C8 2311   0.467   1.709  10.331 -1.1674 -0.7201  0.2293
  148TMC2    O1 2312   0.313   1.151  10.436  0.2065 -0.3328  0.1604
  148TMC2    O2 2313   0.591   1.685  10.328  0.2460 -0.3385 -0.2216
  148TMC2    O5 2314   0.413   1.800  10.417  0.3080  0.6130  0.4353
  148TMC2    H5 2315   0.318   1.806  10.442  0.2360 -2.5358  0.9033
  149MPD2     C 2316   4.469   1.518  10.331 -0.5216  0.1140 -0.0244
  149MPD2    C1 2317   4.555   1.411  10.334 -0.1836  0.3470 -0.5613
  149MPD2    C2 2318   4.504   1.280  10.330 -0.2730 -0.7205  0.3394
  149MPD2    C3 2319   4.368   1.267  10.306 -0.2036  0.4482 -0.2186
  149MPD2    C4 2320   4.284   1.375  10.301  0.2474 -0.2829  0.2933
  149MPD2    C5 2321   4.335   1.501  10.325  0.4231 -0.1329  0.8684
  149MPD2     H 2322   4.575   1.198  10.328  1.0111  0.3703  1.7578
  149MPD2    H1 2323   4.176   1.369  10.297  0.1260 -0.1966  3.1727
  149MPD2    H2 2324   4.501   1.621  10.346 -0.7876 -0.0147  1.3885
  149MPD2    H3 2325   4.262   1.580  10.336 -0.2879 -0.8885  1.6092
  149MPD2     N 2326   4.297   1.145  10.286  0.0763  0.4469 -0.3175
  149MPD2    H5 2327   4.196   1.151  10.280  0.0217 -0.5576 -0.3803
  149MPD2    N1 2328   4.695   1.419  10.369  0.1842 -0.7419  0.4559
  149MPD2    H7 2329   0.002   1.332  10.382  1.4683  0.2032  1.8796
  150TMC2    C1 2330   1.851   0.308  12.752 -0.2546  0.2665 -0.4056
  150TMC2    C2 2331   1.777   0.407  12.707  1.0980  0.0472 -0.0208
  150TMC2    C3 2332   1.829   0.493  12.620 -0.2482  0.0704 -0.5960
  150TMC2    C4 2333   1.983   0.297  12.724  0.0192  0.2618 -0.4042
  150TMC2    C5 2334   2.028   0.383  12.627 -0.7727  0.5938 -0.8346
  150TMC2    C6 2335   1.952   0.483  12.576 -0.2004 -0.3181 -0.5895
  150TMC2     C 2336   1.800   0.237  12.861  0.3007  0.1922 -0.2991
  150TMC2     O 2337   1.868   0.216  12.960  0.3914 -0.5937 -0.1284
  150TMC2     H 2338   1.674   0.414  12.739  1.4593  1.3652  0.8477
  150TMC2    H1 2339   2.043   0.225  12.778  1.1873  0.5348 -1.3318
  150TMC2    H2 2340   1.987   0.542  12.492 -0.0294 -0.9366 -0.9493
  150TMC2    C7 2341   2.171   0.396  12.590 -0.0453  0.4805  0.0261
  150TMC2    C8 2342   1.743   0.592  12.563  0.3694  0.2644  0.7236
  150TMC2    O1 2343   2.209   0.485  12.516  0.2066  0.0994 -0.2651
  150TMC2    O2 2344   1.624   0.572  12.561  0.5420 -0.0446 -0.1164
  150TMC2    O5 2345   1.814   0.698  12.514  0.1742 -0.5056 -0.1017
  150TMC2    H5 2346   1.909   0.697  12.538  0.1689  0.5160 -0.0553
  151MPD2     C 2347   1.501   4.589  13.003  0.1737  0.3893  0.2542
  151MPD2    C1 2348   1.451   4.642  12.884 -0.1194  0.8811  0.6396
  151MPD2    C2 2349   1.529   4.739  12.818  0.2334  0.0892  0.2359
  151MPD2    C3 2350   1.629   0.056  12.887 -0.3821 -0.2257  0.0075
  151MPD2    C4 2351   1.673   0.005  13.003 -0.0740  0.2735 -0.4189
  151MPD2    C5 2352   1.617   4.641  13.055 -0.2516 -0.2939  0.9153
  151MPD2     H 2353   1.499   0.038  12.723  0.1764 -0.2198  0.1171
  151MPD2    H1 2354   1.764   0.036  13.054  2.5584 -4.0100 -2.5058
  151MPD2    H2 2355   1.436   4.517  13.051  0.9530  0.2620  1.0991
  151MPD2    H3 2356   1.656   4.606  13.150 -2.9214 -0.8412  1.8159
  151MPD2     N 2357   1.683   0.174  12.828 -0.5251 -0.0541  0.2479
  151MPD2    H5 2358   1.651   0.200  12.735  2.6410 -1.6078 -1.2467
  151MPD2    N1 2359   1.340   4.580  12.821 -0.8640  0.0646  0.2361
  151MPD2    H7 2360   1.285   4.515  12.876  1.7376 -1.0335  1.5252
  152TMC2    C1 2361   2.397   0.196  13.326  0.0944 -0.5035 -0.2258
  152TMC2    C2 2362   2.483   0.097  13.369  0.1858  0.0223 -0.0967
  152TMC2    C3 2363   2.612   0.096  13.319 -0.0329  0.2070 -0.2608
  152TMC2    C4 2364   2.429   0.282  13.230  0.0586 -0.1121 -0.7619
  152TMC2    C5 2365   2.551   0.270  13.178  0.7433  0.0424  0.3281
  152TMC2    C6 2366   2.644   0.181  13.221  0.0516 -0.7601  1.1953
  152TMC2     C 2367   2.257   0.203  13.352 -0.4329 -0.1631  0.0465
  152TMC2     O 2368   2.203   0.312  13.353  0.3015  0.4000 -0.0051
  152TMC2     H 2369   2.459   0.046  13.462 -2.2519  1.3053 -0.0262
  152TMC2    H1 2370   2.360   0.361  13.203 -0.0619 -0.1020 -0.4249
  152TMC2    H2 2371   2.749   0.185  13.192  0.2543 -3.1265  1.5940
  152TMC2    C7 2372   2.563   0.348  13.058 -0.2033 -0.3110  0.1289
  152TMC2    C8 2373   2.716   0.016  13.378 -0.2624  0.5437 -0.4138
  152TMC2    O1 2374   2.465   0.356  12.982  1.0117 -0.0352  0.2895
  152TMC2    O2 2375   2.837   0.036  13.355  0.4243  0.4861 -0.4037
  152TMC2    O5 2376   2.655   4.632  13.396  0.2912 -0.5510  0.1499
  152TMC2    H5 2377   2.563   4.624  13.364  0.3561  1.5769 -0.5708
  153MPD2     C 2378   2.020   4.678  13.435  0.3757  0.8841 -0.3576
  153MPD2    C1 2379   2.063   0.061  13.389  0.2866  0.0351  0.2447
  153MPD2    C2 2380   1.968   0.139  13.332 -0.2559 -0.3409 -0.1889
  153MPD2    C3 2381   1.833   0.101  13.321 -0.0334  0.1826  0.3035
  153MPD2    C4 2382   1.794   4.727  13.384  0.0825  0.1536  0.1806
  153MPD2    C5 2383   1.891   4.654  13.444 -0.4575 -0.0367 -0.4663
  153MPD2     H 2384   1.989   0.240  13.299 -0.7316  0.3470  1.6014
  153MPD2    H1 2385   1.693   4.687  13.380  1.4193 -3.3467  2.0355
  153MPD2    H2 2386   2.087   4.602  13.473  2.7764  3.0526 -0.2250
  153MPD2    H3 2387   1.862   4.557  13.482  0.6265 -0.6005 -1.0912
  153MPD2     N 2388   1.751   0.197  13.267 -0.3271  0.3212 -0.2864
  153MPD2    H5 2389   1.801   0.257  13.201  1.0300 -0.9103 -0.3733
  153MPD2    N1 2390   2.203   0.082  13.385 -0.4542  0.1517  0.0246
  153MPD2    H7 2391   2.268   0.009  13.413 -1.1915 -0.2424  0.7270
  154TMC2    C1 2392   3.539   1.757   0.011  0.0711 -0.0404 -0.2127
  154TMC2    C2 2393   3.599   1.818   0.114 -0.5991  0.3583  0.1812
  154TMC2    C3 2394   3.536   1.927   0.159  0.3504  0.1477  0.3848
  154TMC2    C4 2395   3.442   1.814  17.698  0.8946  0.0971  0.3237
  154TMC2    C5 2396   3.382   1.930  17.744 -0.3375 -0.0680  0.3891
  154TMC2    C6 2397   3.439   1.988   0.084 -0.4022  0.3658 -0.0459
  154TMC2     C 2398   3.533   1.607   0.004 -0.7953  0.3155  0.5834
  154TMC2     O 2399   3.418   1.572  17.760 -0.0658 -0.1197  0.2963
  154TMC2     H 2400   3.664   1.763   0.182  0.6892  2.3831  0.5889
  154TMC2    H1 2401   3.413   1.781  17.599  1.2489  0.6534  0.0337
  154TMC2    H2 2402   3.393   2.079   0.121  0.5361  0.3372  1.1970
  154TMC2    C7 2403   3.271   1.999  17.681 -0.1417  0.0468  0.1431
  154TMC2    C8 2404   3.601   2.004   0.270  0.0028  0.5332  0.1624
  154TMC2    O1 2405   3.269   2.119  17.702  0.1005 -0.4039  0.3816
  154TMC2    O2 2406   3.596   2.125   0.272  0.6794 -0.0074  0.4011
  154TMC2    O5 2407   3.624   1.922   0.383 -0.4820 -0.0073  0.1288
  154TMC2    H5 2408   3.581   1.838   0.359  3.0098 -2.2955  1.9749
  155MPD2     C 2409   3.766   1.340   0.102 -0.4884  0.2454  0.1254
  155MPD2    C1 2410   3.647   1.401   0.080 -0.5041 -1.0594 -0.1193
  155MPD2    C2 2411   3.537   1.317   0.085 -0.5750 -0.2467 -0.5019
  155MPD2    C3 2412   3.547   1.188   0.131  0.6369 -0.1865 -0.5179
  155MPD2    C4 2413   3.668   1.131   0.157  0.9030  0.1578 -0.2942
  155MPD2    C5 2414   3.778   1.216   0.149  0.1610 -0.3455 -0.9819
  155MPD2     H 2415   3.442   1.359   0.052 -0.2275  0.6151 -0.4073
  155MPD2    H1 2416   3.674   1.024   0.175  1.5495  0.4236  1.1130
  155MPD2    H2 2417   3.857   1.398   0.089  0.4378 -1.1600  0.4011
  155MPD2    H3 2418   3.878   1.176   0.164 -0.0134  0.6634  2.8489
  155MPD2     N 2419   3.429   1.115   0.131  0.3116 -0.2108  0.4881
  155MPD2    H5 2420   3.341   1.157   0.104  0.3498 -0.0171  0.6534
  155MPD2    N1 2421   3.640   1.541   0.043  0.3448  0.0517  0.1176
  155MPD2    H7 2422   3.728   1.591   0.047  1.6650 -2.2716  0.2098
  156TMC2    C1 2423   2.597   2.792  11.597  0.6942  0.0764 -0.3043
  156TMC2    C2 2424   2.712   2.794  11.521 -0.7294  0.1134 -0.0714
  156TMC2    C3 2425   2.701   2.874  11.402  0.0203  0.2691  0.0413
  156TMC2    C4 2426   2.473   2.839  11.559 -0.7362  0.3063  0.4490
  156TMC2    C5 2427   2.472   2.909  11.444 -0.3640 -0.2655 -0.1275
  156TMC2    C6 2428   2.586   2.944  11.372  0.0117  0.4975 -0.2036
  156TMC2     C 2429   2.598   2.739  11.730 -0.1483  0.7234 -0.4427
  156TMC2     O 2430   2.491   2.725  11.796 -0.1799  0.0100 -0.5522
  156TMC2     H 2431   2.810   2.762  11.557 -0.5630 -0.5789 -1.1494
  156TMC2    H1 2432   2.388   2.811  11.619  0.3853 -2.8180  0.5791
  156TMC2    H2 2433   2.577   2.994  11.277 -1.7733  0.5462 -0.0116
  156TMC2    C7 2434   2.350   2.961  11.406  0.0718 -0.5920 -0.1139
  156TMC2    C8 2435   2.813   2.891  11.309 -0.3031  0.1787  0.1582
  156TMC2    O1 2436   2.347   3.062  11.336  0.3991  0.6527  0.3786
  156TMC2    O2 2437   2.834   3.002  11.259  0.6732  0.2248  0.1583
  156TMC2    O5 2438   2.914   2.819  11.358  0.1238 -0.1329  0.1245
  156TMC2    H5 2439   2.875   2.729  11.355 -0.1929  0.0874 -2.6364
  157MPD2     C 2440   2.883   2.588  11.921 -0.4489 -0.3907 -0.8292
  157MPD2    C1 2441   2.767   2.659  11.900 -0.1360  0.1190  0.2221
  157MPD2    C2 2442   2.686   2.685  12.008  0.2909  0.0786  0.3188
  157MPD2    C3 2443   2.708   2.627  12.132 -0.6369  0.0053  0.2347
  157MPD2    C4 2444   2.821   2.550  12.145  0.3602 -0.1725  0.8462
  157MPD2    C5 2445   2.916   2.537  12.045 -0.9318 -1.1556 -0.1837
  157MPD2     H 2446   2.598   2.748  11.997  0.9421  1.2301  1.6986
  157MPD2    H1 2447   2.845   2.508  12.242 -0.6217  1.8797  1.9863
  157MPD2    H2 2448   2.959   2.579  11.843  1.3624 -0.1139  0.8987
  157MPD2    H3 2449   3.005   2.478  12.062 -0.2921 -0.0653  0.2537
  157MPD2     N 2450   2.619   2.651  12.233 -1.0384  0.0429  0.6281
  157MPD2    H5 2451   2.543   2.713  12.208 -1.1912 -0.2891  0.2677
  157MPD2    N1 2452   2.730   2.700  11.771 -0.2114  0.8417  0.3570
  157MPD2    H7 2453   2.802   2.679  11.702 -2.7205  0.7155 -2.1928
  158TMC2    C1 2454   3.292   1.622  13.468  0.4246  0.0284  0.3043
  158TMC2    C2 2455   3.349   1.726  13.401  0.5959 -0.3525  0.2807
  158TMC2    C3 2456   3.308   1.773  13.279  0.3714  0.1918 -0.3932
  158TMC2    C4 2457   3.196   1.547  13.398  0.2710 -0.3519 -0.0136
  158TMC2    C5 2458   3.155   1.594  13.277  0.2150 -0.2401 -0.5170
  158TMC2    C6 2459   3.204   1.709  13.221  0.2241  0.4710 -0.7481
  158TMC2     C 2460   3.317   1.590  13.611  0.2947 -0.3768  0.0881
  158TMC2     O 2461   3.423   1.622  13.660  0.1599  0.2030 -0.7638
  158TMC2     H 2462   3.428   1.776  13.456  1.1839 -1.9015  0.8561
  158TMC2    H1 2463   3.153   1.456  13.438 -2.8075  1.0691 -0.0937
  158TMC2    H2 2464   3.160   1.748  13.129  0.7276  1.2602 -0.6588
  158TMC2    C7 2465   3.033   1.541  13.214 -0.4915 -0.2151 -1.3078
  158TMC2    C8 2466   3.344   1.896  13.214  0.7951  0.6987 -0.4187
  158TMC2    O1 2467   3.015   1.577  13.099 -0.0360  0.2684  0.1584
  158TMC2    O2 2468   3.316   1.919  13.096 -0.1615  0.0055 -0.1305
  158TMC2    O5 2469   3.346   1.992  13.306  0.1583 -0.0065  0.1531
  158TMC2    H5 2470   3.344   1.959  13.399  2.9263 -0.8778 -0.1085
  159MPD2     C 2471   3.143   1.611  14.099 -0.6877  0.1660  0.0564
  159MPD2    C1 2472   3.031   1.594  14.015  0.3777 -0.2029 -0.5290
  159MPD2    C2 2473   3.050   1.566  13.878  0.6258 -0.3456 -0.6889
  159MPD2    C3 2474   3.183   1.570  13.825  0.5351 -0.1875 -1.3419
  159MPD2    C4 2475   3.289   1.588  13.914 -0.4455  0.2549 -0.1516
  159MPD2    C5 2476   3.272   1.602  14.048  0.0871 -0.1405 -0.0196
  159MPD2     H 2477   2.957   1.564  13.822 -0.1198 -0.5973  0.5776
  159MPD2    H1 2478   3.393   1.584  13.884 -0.7852  0.2542 -1.3509
  159MPD2    H2 2479   3.132   1.619  14.206  0.0912  1.6913  0.0193
  159MPD2    H3 2480   3.353   1.598  14.119  0.6325 -1.6928 -0.7290
  159MPD2     N 2481   3.197   1.569  13.680  0.5173  0.0796 -0.7544
  159MPD2    H5 2482   3.116   1.556  13.620  1.8409 -1.1048 -2.2939
  159MPD2    N1 2483   2.903   1.602  14.082 -0.3428  0.2409  0.3515
  159MPD2    H7 2484   2.906   1.631  14.179 -1.3237 -0.5057  0.6061
  160TMC2    C1 2485   1.625   4.356   1.647 -0.0384  0.5979 -0.6788
  160TMC2    C2 2486   1.582   4.293   1.758 -0.1854  0.5349  0.0848
  160TMC2    C3 2487   1.560   4.160   1.764 -0.0215  0.1378 -0.5730
  160TMC2    C4 2488   1.654   4.283   1.534  0.9891  0.2065 -0.5892
  160TMC2    C5 2489   1.648   4.141   1.544 -0.2794  0.1056  0.4517
  160TMC2    C6 2490   1.601   4.077   1.659 -0.1206  0.0665  0.0979
  160TMC2     C 2491   1.656   4.498   1.647  1.0175  0.1751 -0.5995
  160TMC2     O 2492   1.680   4.549   1.754 -0.2182 -0.1218 -0.2270
  160TMC2     H 2493   1.553   4.349   1.846 -1.1661 -0.4692  0.3950
  160TMC2    H1 2494   1.701   4.339   1.454  2.4840 -1.6306 -1.0050
  160TMC2    H2 2495   1.594   3.970   1.670  1.6891  0.0864  1.2721
  160TMC2    C7 2496   1.711   4.057   1.440 -0.6131  0.3486 -0.0218
  160TMC2    C8 2497   1.541   4.099   1.891  0.3834 -0.5687  0.3032
  160TMC2    O1 2498   1.716   3.937   1.460 -0.4484 -0.0431 -0.3026
  160TMC2    O2 2499   1.592   4.144   1.992 -0.9971  0.6965  0.6839
  160TMC2    O5 2500   1.430   4.017   1.887  0.0937 -0.5534 -0.5996
  160TMC2    H5 2501   1.397   4.015   1.795 -0.3249  2.4625 -0.5108
  161MPD2     C 2502   1.800   0.003   1.570 -0.6746  0.7406  0.4422
  161MPD2    C1 2503   1.722   4.671   1.488 -0.5276  0.1654 -0.4530
  161MPD2    C2 2504   1.707   4.714   1.360  0.1577 -0.6763 -0.3362
  161MPD2    C3 2505   1.765   0.087   1.310  0.3111  0.6467  0.2998
  161MPD2    C4 2506   1.836   0.169   1.393  0.1810 -0.4803  0.5526
  161MPD2    C5 2507   1.864   0.114   1.515  0.3572 -0.3850 -0.2939
  161MPD2     H 2508   1.646   4.654   1.294 -1.3655  2.0569 -1.4010
  161MPD2    H1 2509   1.888   0.257   1.356  1.1308 -1.0627  0.5215
  161MPD2    H2 2510   1.829   4.713   1.669  0.1043 -2.7847 -0.9727
  161MPD2    H3 2511   1.915   0.182   1.583  0.4139 -0.2457 -0.4752
  161MPD2     N 2512   1.752   0.121   1.172 -0.5509 -0.3500  0.6362
  161MPD2    H5 2513   1.784   0.213   1.141  0.1023 -0.4482  1.0251
  161MPD2    N1 2514   1.653   4.553   1.529  0.2826 -0.2245  0.7273
  161MPD2    H7 2515   1.621   4.493   1.454 -0.8411  1.7424 -0.3679
  162TMC2    C1 2516   4.653   1.741   0.454  0.5258 -0.3226 -0.0303
  162TMC2    C2 2517   4.697   1.800   0.338  0.1758 -0.3099  0.1776
  162TMC2    C3 2518   0.092   1.788   0.305  0.5931  0.2465 -0.0494
  162TMC2    C4 2519   4.732   1.672   0.540 -0.5662 -0.6655  0.4945
  162TMC2    C5 2520   0.119   1.663   0.508 -0.0144  0.2725 -0.2988
  162TMC2    C6 2521   0.175   1.722   0.393 -0.4870  0.3923 -0.9444
  162TMC2     C 2522   4.512   1.726   0.446 -0.3679  0.3979  0.1611
  162TMC2     O 2523   4.458   1.835   0.442  0.4800 -0.0093  0.4484
  162TMC2     H 2524   4.629   1.859   0.278 -0.3198  1.2341  2.2497
  162TMC2    H1 2525   4.686   1.612   0.618 -0.6664 -0.3549  0.6737
  162TMC2    H2 2526   0.282   1.738   0.393 -0.8828  2.9669  1.6999
  162TMC2    C7 2527   0.216   1.600   0.594  0.5617 -0.6723 -0.2991
  162TMC2    C8 2528   0.122   1.793   0.167  0.4352 -0.3001  0.4640
  162TMC2    O1 2529   0.331   1.585   0.555 -0.0396  0.3083 -0.0208
  162TMC2    O2 2530   0.046   1.849   0.085  0.4395  0.1184  0.8124
  162TMC2    O5 2531   0.241   1.727   0.141 -0.0726 -0.4738  0.5380
  162TMC2    H5 2532   0.279   1.673   0.214 -1.1451 -1.2209  0.5576
  163MPD2     C 2533   4.631   1.217   0.460  0.3711  1.3262 -0.8844
  163MPD2    C1 2534   4.700   1.307   0.391 -0.4657 -0.6093  0.0250
  163MPD2    C2 2535   4.638   1.436   0.390 -0.0577 -0.1389  0.5185
  163MPD2    C3 2536   4.515   1.467   0.452 -0.3454 -0.2290 -0.0781
  163MPD2    C4 2537   4.446   1.368   0.515  0.3670  0.6516 -0.3607
  163MPD2    C5 2538   4.508   1.246   0.517 -0.4955  0.2932 -0.8933
  163MPD2     H 2539   4.687   1.509   0.326  1.0962 -1.8947 -0.6045
  163MPD2    H1 2540   4.354   1.376   0.572  2.1659  2.2924  2.3173
  163MPD2    H2 2541   4.670   1.116   0.468 -2.2892  0.3468 -0.2838
  163MPD2    H3 2542   4.455   1.165   0.567 -1.0121 -0.9271 -3.4045
  163MPD2     N 2543   4.454   1.598   0.463  0.1546  0.0676  0.1002
  163MPD2    H5 2544   4.356   1.602   0.490  0.4981  0.1889  1.3198
  163MPD2    N1 2545   0.081   1.268   0.326 -0.0421 -0.7251 -0.0751
  163MPD2    H7 2546   0.132   1.181   0.338  0.9117  0.2770  3.2041
  164TMC2    C1 2547   0.728   0.774  10.879 -0.0471  0.2480 -0.3142
  164TMC2    C2 2548   0.812   0.761  10.771  0.0863 -0.1095  0.1600
  164TMC2    C3 2549   0.804   0.852  10.669  0.8672 -0.2331 -1.2244
  164TMC2    C4 2550   0.655   0.889  10.887  0.2507 -0.3898  0.9532
  164TMC2    C5 2551   0.653   0.983  10.780 -0.6196 -0.2017 -0.4728
  164TMC2    C6 2552   0.723   0.958  10.665 -0.0009  0.1217 -0.1818
  164TMC2     C 2553   0.739   0.690  11.008 -0.3287  0.3262 -0.1545
  164TMC2     O 2554   0.647   0.702  11.086 -0.6911  0.0725  0.3054
  164TMC2     H 2555   0.871   0.671  10.775  1.8835  1.1450  1.4944
  164TMC2    H1 2556   0.613   0.909  10.984  1.5627  2.2337  0.9988
  164TMC2    H2 2557   0.723   1.025  10.579  2.3636 -1.8058 -1.6653
  164TMC2    C7 2558   0.592   1.103  10.808  0.1907 -0.0621 -0.5195
  164TMC2    C8 2559   0.916   0.831  10.567  1.1696 -0.4249  0.2004
  164TMC2    O1 2560   0.516   1.103  10.898  0.1464  0.5323 -0.1144
  164TMC2    O2 2561   0.953   0.721  10.525  0.1841 -0.4199 -0.0946
  164TMC2    O5 2562   0.957   0.953  10.523 -0.2956 -0.7590 -0.6085
  164TMC2    H5 2563   0.932   1.032  10.575 -0.8382 -1.2953 -0.0500
  165TMC2    C1 2564   1.948   3.918   2.077  0.2716 -0.7841 -0.9141
  165TMC2    C2 2565   2.074   3.940   2.123  0.1489  0.1227 -0.0570
  165TMC2    C3 2566   2.138   4.057   2.087  0.2067 -0.0944  0.4044
  165TMC2    C4 2567   1.887   4.005   1.990 -0.7906 -0.6196 -0.3154
  165TMC2    C5 2568   1.955   4.114   1.948  0.0248 -0.4313  0.1750
  165TMC2    C6 2569   2.081   4.147   1.993  0.1785 -0.5532 -0.2305
  165TMC2     C 2570   1.904   3.786   2.079  0.6301 -0.0356 -0.1770
  165TMC2     O 2571   1.986   3.698   2.098  0.3427  0.1998  0.5564
  165TMC2     H 2572   2.122   3.867   2.187  0.3903 -0.8698 -1.3668
  165TMC2    H1 2573   1.791   3.991   1.942 -1.0557 -2.2057  0.6861
  165TMC2    H2 2574   2.140   4.231   1.957  2.0631 -2.1966 -0.9852
  165TMC2    C7 2575   1.943   4.144   1.807 -0.6910  0.7850 -0.0052
  165TMC2    C8 2576   2.269   4.081   2.128 -0.0571  0.1431  0.2533
  165TMC2    O1 2577   1.930   4.049   1.729 -0.7192  0.0250 -0.1521
  165TMC2    O2 2578   2.317   4.192   2.131 -0.0959  0.0065  0.0576
  165TMC2    O5 2579   2.339   3.982   2.087 -0.4254 -0.0005  0.1650
  165TMC2    H5 2580   2.291   3.898   2.070 -0.5121 -0.1943  1.3805
  166MPD2     C 2581   1.575   3.455   1.898  0.4144  0.2748 -0.0938
  166MPD2    C1 2582   1.706   3.442   1.915  0.0083  0.6072  0.3739
  166MPD2    C2 2583   1.769   3.546   1.980  0.0842  0.3363 -0.0737
  166MPD2    C3 2584   1.701   3.661   2.011 -0.0361  0.1282 -0.4836
  166MPD2    C4 2585   1.562   3.669   2.004 -0.3043 -0.3276 -0.2484
  166MPD2    C5 2586   1.501   3.560   1.946 -0.2345 -0.2025  0.1654
  166MPD2     H 2587   1.877   3.541   1.986 -0.0099 -0.9437  0.5181
  166MPD2    H1 2588   1.504   3.757   2.027 -1.0559 -0.6683 -0.8305
  166MPD2    H2 2589   1.518   3.368   1.868  1.1284  0.7344 -2.7528
  166MPD2    H3 2590   1.394   3.545   1.952 -0.2233 -0.3470 -0.0318
  166MPD2     N 2591   1.771   3.779   2.053 -0.0726 -0.0951 -0.0558
  166MPD2    H5 2592   1.715   3.860   2.075  2.0660  1.8124 -1.6645
  166MPD2    N1 2593   1.769   3.322   1.872  0.5090 -0.0151 -0.0856
  166MPD2    H7 2594   1.708   3.258   1.822  0.9388 -2.5049  2.6244
  167TMC2    C1 2595   4.592   1.394  12.813  0.0006  0.4751  0.4044
  167TMC2    C2 2596   4.496   1.474  12.862 -0.0023  0.1760 -0.2819
  167TMC2    C3 2597   4.420   1.422  12.961 -0.5113 -0.2709 -0.8373
  167TMC2    C4 2598   4.614   1.266  12.855 -0.7096 -0.7245 -0.5347
  167TMC2    C5 2599   4.530   1.216  12.948 -0.1356 -0.4072  0.4521
  167TMC2    C6 2600   4.433   1.293  13.004  0.5681  0.7697  0.8231
  167TMC2     C 2601   4.669   1.458  12.705  0.2247  0.2105 -0.2688
  167TMC2     O 2602   4.635   1.572  12.678  0.5900 -0.2747 -0.4012
  167TMC2     H 2603   4.493   1.581  12.845 -0.9534  0.1418 -0.3193
  167TMC2    H1 2604   4.688   1.206  12.803 -1.4370 -2.4725  0.4539
  167TMC2    H2 2605   4.350   1.251  13.060  2.4483 -0.0491  2.9963
  167TMC2    C7 2606   4.542   1.076  12.993 -0.2197  0.4784  0.0466
  167TMC2    C8 2607   4.375   1.518  13.052 -0.5733  0.1318  0.2182
  167TMC2    O1 2608   4.481   1.048  13.097  0.4002 -0.0951 -0.5093
  167TMC2    O2 2609   4.443   1.538  13.151  0.2939 -0.0900 -0.1103
  167TMC2    O5 2610   4.290   1.599  12.983  0.1249 -0.1335 -0.2283
  167TMC2    H5 2611   4.236   1.547  12.920  0.1233  0.5371 -0.7769
  168MPD2     C 2612   0.090   1.526  12.478 -0.2610 -0.0091 -0.1789
  168MPD2    C1 2613   0.039   1.395  12.493  0.0774  0.2246  0.2438
  168MPD2    C2 2614   0.070   1.296  12.401 -0.4740  1.1068  0.0557
  168MPD2    C3 2615   0.121   1.338  12.277 -0.1641  0.4507  0.0779
  168MPD2    C4 2616   0.169   1.467  12.254  0.7620 -0.0987 -0.6570
  168MPD2    C5 2617   0.158   1.565  12.359 -0.5057 -0.0552  0.7162
  168MPD2     H 2618   0.024   1.198  12.406  3.2923 -0.6623 -0.3867
  168MPD2    H1 2619   0.204   1.488  12.154  0.4782  0.2616 -0.6839
  168MPD2    H2 2620   0.087   1.600  12.557 -0.4338  1.0251 -1.1497
  168MPD2    H3 2621   0.193   1.664  12.334  0.0159 -0.2545  0.6394
  168MPD2     N 2622   0.125   1.243  12.176 -0.2453 -0.3685 -0.0951
  168MPD2    H5 2623   0.157   1.284  12.089 -0.1207  2.9352  1.5233
  168MPD2    N1 2624   4.720   1.361  12.613  0.0709  0.7692  0.4828
  168MPD2    H7 2625   4.686   1.267  12.627  0.1323  0.7980  0.8169
  169MPD1     C 2626   1.723   1.069   9.302 -0.1746 -0.1173  0.1072
  169MPD1    C1 2627   1.696   0.935   9.327 -0.0527 -0.6259  0.1941
  169MPD1    C2 2628   1.792   0.872   9.394  0.3023  0.2860  0.6122
  169MPD1    C3 2629   1.903   0.936   9.453 -0.1593  0.3472 -0.6559
  169MPD1    C4 2630   1.919   1.068   9.437 -0.9434  0.3513  0.0567
  169MPD1    C5 2631   1.832   1.132   9.350 -0.0127  0.1936  0.3235
  169MPD1     H 2632   1.791   0.764   9.391  0.5772  0.2700  1.1566
  169MPD1    H1 2633   1.989   1.131   9.492 -0.9149  0.0213  0.3947
  169MPD1    H2 2634   1.670   1.138   9.237 -0.3006 -2.9179 -2.7108
  169MPD1    H3 2635   1.843   1.238   9.329 -1.5658 -0.3456 -3.2653
  169MPD1     N 2636   1.988   0.851   9.536  0.6782  0.2352 -0.0680
  169MPD1    H5 2637   1.943   0.771   9.579  0.2707 -0.1692 -1.2490
  169MPD1    N1 2638   1.593   0.865   9.258  0.2421  0.1235 -0.3097
  169MPD1    H6 2639   1.509   0.922   9.260  0.8330  1.0180 -1.0201
  169MPD1    H7 2640   1.584   0.781   9.315 -2.8100  0.3831 -0.4234
  170MPD1     C 2641   1.604   2.816  13.640 -0.4645  0.3650 -0.2768
  170MPD1    C1 2642   1.526   2.770  13.745  0.1766 -0.3721  0.0203
  170MPD1    C2 2643   1.395   2.818  13.753  0.3044  0.1003 -0.6240
  170MPD1    C3 2644   1.338   2.894  13.652  0.8146 -0.2546 -0.1997
  170MPD1    C4 2645   1.418   2.937  13.549  0.4034 -0.3003  0.0003
  170MPD1    C5 2646   1.548   2.904  13.550  0.4884  0.1952  1.0525
  170MPD1     H 2647   1.327   2.802  13.835  0.7057  0.1695 -0.2812
  170MPD1    H1 2648   1.375   3.003  13.475  0.1695 -2.5627 -1.8814
  170MPD1    H2 2649   1.711   2.795  13.637 -1.1291 -3.0222  0.2523
  170MPD1    H3 2650   1.612   2.929  13.466 -0.6944  0.5472  0.2525
  170MPD1     N 2651   1.198   2.931  13.661 -0.1347 -0.4639  0.6702
  170MPD1    H5 2652   1.157   2.929  13.754  0.8208  1.0087  1.1255
  170MPD1    N1 2653   1.573   2.708  13.861  0.4113  0.5890  0.4554
  170MPD1    H6 2654   1.503   2.650  13.907  1.6632 -1.5933 -0.3815
  170MPD1    H7 2655   1.648   2.645  13.832 -1.2196 -0.4404 -1.5302
  171MPD1     C 2656   4.078   3.889  14.910  0.0304 -0.4211  0.4826
  171MPD1    C1 2657   4.216   3.909  14.898 -0.0789  0.1287  0.1327
  171MPD1    C2 2658   4.287   3.911  15.018  0.1658  0.5685 -0.4763
  171MPD1    C3 2659   4.223   3.913  15.143 -0.9140  0.5493 -0.0247
  171MPD1    C4 2660   4.087   3.908  15.144 -0.1461 -0.2272 -0.7731
  171MPD1    C5 2661   4.018   3.886  15.030 -0.4462  0.7547  0.3923
  171MPD1     H 2662   4.395   3.920  15.020  0.0013  2.4401 -0.0324
  171MPD1    H1 2663   4.031   3.915  15.237  0.5902  0.1350 -0.3561
  171MPD1    H2 2664   4.029   3.866  14.816 -1.5602 -1.3185  1.5424
  171MPD1    H3 2665   3.912   3.865  15.027 -0.4159  1.1263 -3.2933
  171MPD1     N 2666   4.294   3.927  15.265  0.0835 -0.0639  0.2479
  171MPD1    H5 2667   4.235   3.933  15.347 -2.0393 -0.1785 -1.2664
  171MPD1    N1 2668   4.280   3.903  14.773 -0.4139  0.1518  0.0729
  171MPD1    H6 2669   4.224   3.944  14.699 -0.5255 -0.9249 -0.4281
  171MPD1    H7 2670   4.367   3.955  14.779 -1.0435  0.9057  2.9143
  172MPD1     C 2671   3.617   3.437  17.315 -0.4976  0.0341  0.2020
  172MPD1    C1 2672   3.502   3.511  17.348 -0.1121 -1.7237 -0.2405
  172MPD1    C2 2673   3.491   3.558  17.474  0.1527 -0.0356 -0.2430
  172MPD1    C3 2674   3.571   3.504  17.575  0.1775  0.1035  0.0799
  172MPD1    C4 2675   3.675   3.426  17.541  0.0395  0.2141 -0.0692
  172MPD1    C5 2676   3.698   3.395  17.415  0.4594 -0.8530 -0.4481
  172MPD1     H 2677   3.417   3.634  17.496 -1.6955 -1.5862 -1.2465
  172MPD1    H1 2678   3.744   3.390  17.616 -0.0226 -0.3067 -0.2620
  172MPD1    H2 2679   3.642   3.405  17.215  1.8514 -0.8541  1.0580
  172MPD1    H3 2680   3.786   3.332  17.403  1.2344  0.3552 -1.0558
  172MPD1     N 2681   3.558   3.534  17.712 -0.1771 -0.4473 -0.3382
  172MPD1    H5 2682   3.623   3.489   0.005 -0.5605 -0.8659 -0.2452
  172MPD1    N1 2683   3.413   3.560  17.242  0.6048 -0.0418 -0.5138
  172MPD1    H6 2684   3.405   3.501  17.160  1.1020 -0.4095 -0.2963
  172MPD1    H7 2685   3.323   3.569  17.289  0.0113 -0.2872 -1.5970
  173MPD1     C 2686   0.343   3.254  13.769 -0.5975 -0.2614  0.0024
  173MPD1    C1 2687   0.418   3.261  13.883 -0.2590 -0.6060 -0.1870
  173MPD1    C2 2688   0.382   3.189  14.002  0.4894  0.7413  0.3053
  173MPD1    C3 2689   0.283   3.095  13.990  0.4474 -0.2761  0.8600
  173MPD1    C4 2690   0.217   3.080  13.868  0.6306  0.6303 -0.1332
  173MPD1    C5 2691   0.249   3.154  13.761 -0.0564  0.0457  0.4681
  173MPD1     H 2692   0.424   3.213  14.099  0.4474 -0.1474  0.5398
  173MPD1    H1 2693   0.150   2.996  13.859  2.7987 -1.0968 -0.1379
  173MPD1    H2 2694   0.355   3.321  13.685 -0.3782  1.0225  1.0580
  173MPD1    H3 2695   0.189   3.154  13.670 -1.8899  1.2048  1.6637
  173MPD1     N 2696   0.266   3.015  14.110  0.2973 -0.0255 -0.2162
  173MPD1    H5 2697   0.322   3.031  14.194  1.4429 -1.1999 -0.7598
  173MPD1    N1 2698   0.515   3.362  13.897 -0.3723 -0.1230 -0.2599
  173MPD1    H6 2699   0.559   3.385  13.808 -0.6242  0.5236 -0.2143
  173MPD1    H7 2700   0.585   3.327  13.963 -0.2545 -0.9834 -0.8282
  174MPD1     C 2701   0.142   2.167  14.782 -0.2725 -0.3748  0.0675
  174MPD1    C1 2702   0.123   2.167  14.643  0.2198  0.0079 -0.6881
  174MPD1    C2 2703   0.125   2.297  14.589 -0.0834 -0.1328  0.3719
  174MPD1    C3 2704   0.176   2.408  14.653  0.1093 -0.2714  0.6420
  174MPD1    C4 2705   0.213   2.398  14.787 -0.6458 -0.3242 -0.4247
  174MPD1    C5 2706   0.188   2.279  14.848 -0.0438 -0.6408  0.2427
  174MPD1     H 2707   0.091   2.305  14.487  0.7758 -0.4424  0.0616
  174MPD1    H1 2708   0.251   2.482  14.845 -1.6465 -0.1527 -0.0244
  174MPD1    H2 2709   0.118   2.079  14.841 -3.2019  1.0307  0.9530
  174MPD1    H3 2710   0.214   2.267  14.953 -1.3314  0.8973  0.7303
  174MPD1     N 2711   0.186   2.534  14.588 -0.5874 -0.0950  0.3056
  174MPD1    H5 2712   0.209   2.618  14.640 -0.4306  0.0917 -0.0677
  174MPD1    N1 2713   0.059   2.063  14.581 -0.2287 -0.5028  0.0383
  174MPD1    H6 2714   0.085   2.043  14.484  3.1118  2.2208  0.4067
  174MPD1    H7 2715   0.071   1.974  14.630 -0.6631 -0.1803  0.7226
  175MPD1     C 2716   3.073   4.558  15.424 -0.2067 -0.2971 -0.2390
  175MPD1    C1 2717   3.118   4.444  15.486  1.1090 -0.1875 -0.0815
  175MPD1    C2 2718   3.096   4.429  15.621  0.3324  0.1659  0.4527
  175MPD1    C3 2719   3.027   4.520  15.697  0.6003 -0.0076  0.9013
  175MPD1    C4 2720   2.980   4.633  15.632 -0.2183  0.1772 -0.3107
  175MPD1    C5 2721   3.012   4.652  15.500 -0.6335 -0.5525 -0.0050
  175MPD1     H 2722   3.141   4.344  15.671 -1.7095 -1.5363 -0.5898
  175MPD1    H1 2723   2.923   4.714  15.677 -0.1152  0.9101 -1.5029
  175MPD1    H2 2724   3.087   4.581  15.319 -2.2446 -1.1715 -0.7004
  175MPD1    H3 2725   2.984   4.742  15.446  0.9994  0.4754  0.8966
  175MPD1     N 2726   3.001   4.513  15.839  0.0712  0.0761  0.1807
  175MPD1    H5 2727   2.951   4.589  15.884  0.7585  0.3945  0.4053
  175MPD1    N1 2728   3.173   4.334  15.412 -0.5502  0.5307  0.1440
  175MPD1    H6 2729   3.234   4.358  15.334 -2.1142  0.3951 -1.1160
  175MPD1    H7 2730   3.236   4.274  15.464 -0.3444  0.7544  0.1517
  176MPD1     C 2731   0.215   2.048  17.624 -0.0967  0.0093  0.6560
  176MPD1    C1 2732   0.275   2.102  17.523  0.0396  0.1574  0.0269
  176MPD1    C2 2733   0.335   2.228  17.532 -0.6510  0.4328 -0.0293
  176MPD1    C3 2734   0.352   2.275  17.666 -0.8246  0.2826 -0.0991
  176MPD1    C4 2735   0.303   2.201  17.768  0.1193  0.3305  0.2799
  176MPD1    C5 2736   0.229   2.094  17.751  0.2856 -0.7590  0.0649
  176MPD1     H 2737   0.365   2.278  17.441 -0.0391  1.6252  0.8217
  176MPD1    H1 2738   0.315   2.233   0.099 -0.6139  2.2035 -0.2274
  176MPD1    H2 2739   0.159   1.955  17.615  1.3499 -0.4521 -3.7501
  176MPD1    H3 2740   0.174   2.050   0.061  0.3745  0.1386  0.6052
  176MPD1     N 2741   0.440   2.382  17.682 -0.5668 -0.3015  0.1665
  176MPD1    H5 2742   0.485   2.408  17.596  0.8907  0.7669  1.2612
  176MPD1    N1 2743   0.247   2.050  17.400 -0.8157  0.1257 -0.6333
  176MPD1    H6 2744   0.318   2.063  17.328 -0.7641  1.9618 -0.2512
  176MPD1    H7 2745   0.237   1.950  17.415  0.1914 -0.2518 -2.4610
  177MPD1     C 2746   3.510   1.368  10.398 -0.5212 -0.1523 -0.1962
  177MPD1    C1 2747   3.382   1.417  10.377  0.0920 -0.4049  0.1228
  177MPD1    C2 2748   3.370   1.505  10.268 -0.0477  0.1171 -0.2529
  177MPD1    C3 2749   3.480   1.550  10.199  0.4043 -0.1874  0.8163
  177MPD1    C4 2750   3.611   1.522  10.235  0.0588  0.0790 -0.6900
  177MPD1    C5 2751   3.620   1.432  10.340 -0.7368 -0.6144 -0.5470
  177MPD1     H 2752   3.280   1.540  10.220 -0.7426  0.1567  1.0845
  177MPD1    H1 2753   3.697   1.550  10.175  0.8556 -0.9645 -0.0377
  177MPD1    H2 2754   3.527   1.286  10.467  3.8502  1.3036  0.4875
  177MPD1    H3 2755   3.714   1.378  10.345 -1.7700 -2.3566  0.2624
  177MPD1     N 2756   3.457   1.606  10.068  0.4487 -0.3060  0.4030
  177MPD1    H5 2757   3.366   1.593  10.025  0.5242  3.4681 -0.8812
  177MPD1    N1 2758   3.275   1.349  10.439 -0.0964 -0.1031 -0.1635
  177MPD1    H6 2759   3.192   1.406  10.428 -0.4836 -0.6367 -0.0118
  177MPD1    H7 2760   3.297   1.319  10.534  0.1865 -1.4121 -0.6417
  178MPD1     C 2761   0.758   2.196   0.429  0.2005 -0.4240 -0.1591
  178MPD1    C1 2762   0.706   2.299   0.345 -0.9413 -0.1645  0.3202
  178MPD1    C2 2763   0.796   2.350   0.257  0.6041  0.4295  0.5522
  178MPD1    C3 2764   0.920   2.294   0.235  0.2662 -0.2558 -0.3527
  178MPD1    C4 2765   0.967   2.190   0.319 -0.3842  0.0959  0.1070
  178MPD1    C5 2766   0.886   2.149   0.420 -0.3953 -0.5073  0.2509
  178MPD1     H 2767   0.764   2.434   0.196 -1.3726 -0.4912  0.3486
  178MPD1    H1 2768   1.066   2.146   0.306 -0.8654 -1.1467  0.6450
  178MPD1    H2 2769   0.699   2.159   0.512  1.2160 -1.4191  0.1146
  178MPD1    H3 2770   0.924   2.068   0.482  0.4470 -1.9960 -2.1952
  178MPD1     N 2771   0.996   2.341   0.128 -0.2797  0.0728  0.4022
  178MPD1    H5 2772   1.091   2.307   0.130 -0.5855 -0.8809 -0.8218
  178MPD1    N1 2773   0.578   2.356   0.369 -0.1814 -0.0951 -0.5113
  178MPD1    H6 2774   0.529   2.381   0.284 -0.4140 -0.8368 -0.5927
  178MPD1    H7 2775   0.516   2.287   0.411 -4.6240  1.8756 -3.9268
  179MPD1     C 2776   0.029   0.579  15.216 -0.3539  0.5335  0.3722
  179MPD1    C1 2777   0.094   0.635  15.325 -0.5944  0.2006 -0.0817
  179MPD1    C2 2778   0.125   0.556  15.437  0.2191  0.3259  0.1601
  179MPD1    C3 2779   0.070   0.427  15.451 -0.3575  0.0851  0.1004
  179MPD1    C4 2780   4.739   0.376  15.341 -0.3868 -0.1490  0.8575
  179MPD1    C5 2781   4.720   0.452  15.225  0.1250  0.0979 -0.2284
  179MPD1     H 2782   0.190   0.598  15.513 -0.2975 -1.3739  1.5461
  179MPD1    H1 2783   4.710   0.271  15.341 -0.2719 -0.1808  0.8539
  179MPD1    H2 2784   0.010   0.643  15.130 -1.6411 -3.2138 -2.1209
  179MPD1    H3 2785   4.683   0.400  15.137  0.3630 -0.8397  0.2328
  179MPD1     N 2786   0.090   0.347  15.565  0.0160 -0.4146 -0.0615
  179MPD1    H5 2787   0.037   0.261  15.573 -1.0073  0.2034 -0.2430
  179MPD1    N1 2788   0.154   0.763  15.306 -0.3860 -0.1515  0.8877
  179MPD1    H6 2789   0.166   0.816  15.392  0.9458 -0.3900  0.8510
  179MPD1    H7 2790   0.102   0.815  15.235  1.4207 -0.0406 -0.3761
  180MPD1     C 2791   1.010   1.407  15.672  0.9353  0.5523  0.9011
  180MPD1    C1 2792   0.923   1.503  15.728 -0.0761  0.2467  0.0279
  180MPD1    C2 2793   0.829   1.567  15.646  0.4672  0.1835 -0.0378
  180MPD1    C3 2794   0.791   1.512  15.523 -0.2098  0.0862 -0.1822
  180MPD1    C4 2795   0.873   1.408  15.474 -0.6557 -0.4835  0.1777
  180MPD1    C5 2796   0.976   1.362  15.547 -0.7248 -0.0288 -0.5866
  180MPD1     H 2797   0.769   1.647  15.687  1.0191  1.9134 -2.6354
  180MPD1    H1 2798   0.834   1.347  15.393 -0.3870  0.6780 -0.8279
  180MPD1    H2 2799   1.098   1.362  15.717  1.7985  0.1148 -1.2549
  180MPD1    H3 2800   1.040   1.281  15.512  0.3882  0.8634 -0.6325
  180MPD1     N 2801   0.686   1.570  15.452 -0.3335  0.3379  0.4355
  180MPD1    H5 2802   0.642   1.649  15.498 -1.4828 -0.0029 -0.0788
  180MPD1    N1 2803   0.961   1.552  15.858 -0.3635 -1.1046  0.0077
  180MPD1    H6 2804   0.991   1.475  15.917  0.7057 -0.8432 -0.1935
  180MPD1    H7 2805   0.886   1.597  15.910 -0.0385  0.0007 -0.4609
  181MPD1     C 2806   1.947   3.417  10.692 -0.8338 -0.0220 -0.1717
  181MPD1    C1 2807   1.960   3.532  10.771  0.8077  0.5688 -0.0563
  181MPD1    C2 2808   2.059   3.632  10.725  0.4107 -0.4533 -0.2791
  181MPD1    C3 2809   2.126   3.620  10.610 -0.5310 -0.6017 -0.8155
  181MPD1    C4 2810   2.116   3.504  10.536 -0.0072  0.4878  0.1725
  181MPD1    C5 2811   2.032   3.409  10.589  0.8265  0.4726 -0.1274
  181MPD1     H 2812   2.081   3.716  10.790 -1.1026 -0.3385  0.0885
  181MPD1    H1 2813   2.185   3.476  10.458 -0.1547  1.2938 -0.2467
  181MPD1    H2 2814   1.889   3.331  10.722  4.0959 -2.6428  1.7950
  181MPD1    H3 2815   2.036   3.321  10.526 -0.5404  0.4793 -0.2209
  181MPD1     N 2816   2.217   3.717  10.574  0.0955 -0.1926 -0.3216
  181MPD1    H5 2817   2.262   3.698  10.485  1.1179 -0.4475  0.2505
  181MPD1    N1 2818   1.916   3.532  10.908  1.2063  0.1426 -0.0309
  181MPD1    H6 2819   1.828   3.488  10.933  1.0096  0.9736  0.7554
  181MPD1    H7 2820   1.921   3.628  10.942  1.5094 -0.3686  1.3691
  182MPD1     C 2821   2.305   3.003   0.985  0.0846 -0.6571  0.5620
  182MPD1    C1 2822   2.277   3.138   0.996  0.3593 -0.2546  0.5716
  182MPD1    C2 2823   2.371   3.227   0.930  0.5049 -0.4770 -0.0094
  182MPD1    C3 2824   2.495   3.179   0.879 -0.5814  0.1696 -0.2155
  182MPD1    C4 2825   2.519   3.048   0.882 -0.2802 -0.2082 -1.2667
  182MPD1    C5 2826   2.426   2.958   0.929 -0.1291  0.1896  0.3565
  182MPD1     H 2827   2.351   3.334   0.931  2.8841 -0.0097 -2.4166
  182MPD1    H1 2828   2.612   3.017   0.836 -0.1432 -0.3043 -0.9278
  182MPD1    H2 2829   2.233   2.929   1.017 -2.1852  1.7580  0.9964
  182MPD1    H3 2830   2.436   2.851   0.913  2.5215  0.1587  2.2884
  182MPD1     N 2831   2.593   3.259   0.823 -0.3726 -0.2367  0.2330
  182MPD1    H5 2832   2.680   3.212   0.800  0.1685  0.7691  0.2422
  182MPD1    N1 2833   2.159   3.183   1.044  0.0607  0.0133 -0.3536
  182MPD1    H6 2834   2.108   3.119   1.105  0.2504  3.4426  3.4365
  182MPD1    H7 2835   2.158   3.274   1.090 -3.0735  0.7378 -1.8267
  183MPD1     C 2836   3.280   3.408   8.855 -0.0657  0.2555  0.1982
  183MPD1    C1 2837   3.315   3.364   8.985 -0.9140 -0.4866  0.1847
  183MPD1    C2 2838   3.263   3.422   9.095 -0.3996 -0.1064 -0.0658
  183MPD1    C3 2839   3.163   3.519   9.083  0.4350  0.1931  0.7463
  183MPD1    C4 2840   3.133   3.565   8.959 -0.1922  0.5193  0.1508
  183MPD1    C5 2841   3.182   3.510   8.844  0.0767 -0.1350 -0.5497
  183MPD1     H 2842   3.300   3.400   9.195 -0.0463  0.5687 -0.0506
  183MPD1    H1 2843   3.058   3.642   8.957  1.6872  2.3304 -0.4484
  183MPD1    H2 2844   3.323   3.351   8.774 -1.9065  0.7599 -1.1346
  183MPD1    H3 2845   3.141   3.542   8.748 -1.5626 -0.3457  0.0798
  183MPD1     N 2846   3.124   3.590   9.203 -0.5202  0.3956 -0.4282
  183MPD1    H5 2847   3.181   3.564   9.283 -2.7506 -2.7655  0.1864
  183MPD1    N1 2848   3.420   3.269   8.991 -0.5985 -0.3889  0.5073
  183MPD1    H6 2849   3.402   3.203   8.916  1.6761 -2.0023  1.3965
  183MPD1    H7 2850   3.406   3.216   9.077 -0.6910  0.8538  1.2623
  184MPD1     C 2851   2.508   1.096  10.416  0.0091  0.9802  0.0989
  184MPD1    C1 2852   2.632   1.158  10.406  0.1432 -0.3467  0.2310
  184MPD1    C2 2853   2.644   1.234  10.292  0.9578  0.4408  0.0806
  184MPD1    C3 2854   2.550   1.255  10.196  0.3825  0.1046 -0.4389
  184MPD1    C4 2855   2.423   1.213  10.224 -0.3359 -0.0096 -0.0011
  184MPD1    C5 2856   2.404   1.132  10.333 -0.2781 -0.2655 -0.7142
  184MPD1     H 2857   2.742   1.276  10.270  0.7500  0.6960 -0.3568
  184MPD1    H1 2858   2.336   1.237  10.163 -1.1365 -1.9611  0.3471
  184MPD1    H2 2859   2.485   1.022  10.492 -2.8142 -1.2969 -2.9709
  184MPD1    H3 2860   2.306   1.087  10.336 -0.8458  0.9490 -1.0802
  184MPD1     N 2861   2.564   1.339  10.079 -0.5658 -0.3029 -0.5995
  184MPD1    H5 2862   2.484   1.342  10.016 -1.2840 -0.1854  0.3264
  184MPD1    N1 2863   2.736   1.144  10.494  0.3778 -0.2176  0.1434
  184MPD1    H6 2864   2.822   1.174  10.449  0.3691 -0.5996 -0.1239
  184MPD1    H7 2865   2.751   1.046  10.517 -1.6220 -0.5986 -0.1432
  185MPD1     C 2866   1.964   1.402   9.521  0.0055 -0.6912 -0.0296
  185MPD1    C1 2867   2.066   1.448   9.438  0.2945 -0.0315 -0.6966
  185MPD1    C2 2868   2.194   1.429   9.476 -0.2052  0.8669  0.3134
  185MPD1    C3 2869   2.222   1.407   9.613 -0.2981  0.0813 -0.0740
  185MPD1    C4 2870   2.116   1.362   9.697 -0.3015  0.0363  0.8193
  185MPD1    C5 2871   1.990   1.354   9.651 -0.1823  0.0642  0.5590
  185MPD1     H 2872   2.269   1.470   9.410  0.3621  0.8193  0.9268
  185MPD1    H1 2873   2.131   1.342   9.803  1.3119 -0.8836  0.4058
  185MPD1    H2 2874   1.861   1.399   9.487  0.3808  0.3031 -1.2560
  185MPD1    H3 2875   1.908   1.341   9.721 -1.0069  0.9508 -0.2456
  185MPD1     N 2876   2.338   1.431   9.683 -0.0029  0.2415 -0.3358
  185MPD1    H5 2877   2.343   1.404   9.780  1.6505  0.4401 -0.3694
  185MPD1    N1 2878   2.032   1.488   9.307  0.1906  0.0769  0.0223
  185MPD1    H6 2879   2.092   1.559   9.265  0.5652 -0.7972 -0.9046
  185MPD1    H7 2880   1.934   1.518   9.302  0.4590  0.3477 -3.3104
  186MPD1     C 2881   0.820   0.318  15.851  0.0502 -0.0484  0.5022
  186MPD1    C1 2882   0.937   0.393  15.860  0.3643 -0.4043  0.7076
  186MPD1    C2 2883   0.943   0.514  15.925 -0.1921 -0.7384  0.3139
  186MPD1    C3 2884   0.826   0.562  15.979  0.2318 -0.0764 -0.0438
  186MPD1    C4 2885   0.711   0.489  15.977 -0.2318 -0.1020  0.5203
  186MPD1    C5 2886   0.708   0.370  15.909 -0.0316  0.1886 -0.1260
  186MPD1     H 2887   1.038   0.563  15.941 -0.9253  0.6006  0.5302
  186MPD1    H1 2888   0.625   0.521  16.035 -1.7781 -1.1769 -1.1850
  186MPD1    H2 2889   0.825   0.222  15.801 -0.2229  0.3369 -0.2520
  186MPD1    H3 2890   0.620   0.309  15.894 -0.1651  0.6509 -1.2703
  186MPD1     N 2891   0.816   0.690  16.044 -0.0391  0.7633 -1.1048
  186MPD1    H5 2892   0.734   0.696  16.104 -0.0161  0.9557 -1.0926
  186MPD1    N1 2893   1.059   0.337  15.815 -0.7337  0.1758  0.1119
  186MPD1    H6 2894   1.126   0.412  15.799  0.0023  0.0344  2.4973
  186MPD1    H7 2895   1.063   0.274  15.735 -1.2416 -0.0416  0.2578
  187MPD1     C 2896   0.588   3.193   0.140 -0.3792  0.5746 -0.3719
  187MPD1    C1 2897   0.462   3.168   0.094 -0.5810  0.3601  0.0174
  187MPD1    C2 2898   0.440   3.163  17.729  0.0035  0.0056 -0.4913
  187MPD1    C3 2899   0.544   3.170  17.640  0.2952  0.2678 -0.8326
  187MPD1    C4 2900   0.673   3.200  17.685  0.0721  0.3409  0.5350
  187MPD1    C5 2901   0.690   3.215   0.051 -0.6672 -0.0048  0.2601
  187MPD1     H 2902   0.337   3.149  17.698 -0.8279  0.0078  2.2876
  187MPD1    H1 2903   0.750   3.209  17.610 -1.8138  0.8252 -1.3553
  187MPD1    H2 2904   0.609   3.201   0.246  1.1114 -0.8000 -0.5657
  187MPD1    H3 2905   0.785   3.246   0.093 -0.3453  0.5889 -0.9176
  187MPD1     N 2906   0.527   3.161  17.498 -0.7012 -0.1380  0.5874
  187MPD1    H5 2907   0.604   3.187  17.437  0.6053 -0.9616  1.8782
  187MPD1    N1 2908   0.355   3.184   0.186  0.1481 -0.3342 -0.4072
  187MPD1    H6 2909   0.260   3.159   0.159 -0.1694 -0.2776  0.6526
  187MPD1    H7 2910   0.382   3.145   0.276 -1.2776 -3.0839 -1.1812
  188MPD1     C 2911   0.165   3.220  10.056  0.4959  0.1740  0.0887
  188MPD1    C1 2912   0.267   3.134  10.070  1.4458 -0.4037  0.1365
  188MPD1    C2 2913   0.252   3.010  10.016  0.1949 -0.3666 -0.2432
  188MPD1    C3 2914   0.130   2.971   9.950 -0.3312 -0.3162 -0.0599
  188MPD1    C4 2915   0.036   3.071   9.938  0.0097  0.1884 -0.7032
  188MPD1    C5 2916   0.045   3.193   9.995  0.1889 -0.6417  0.4585
  188MPD1     H 2917   0.324   2.935  10.046 -0.1363  1.6270  5.5954
  188MPD1    H1 2918   4.690   3.063   9.879 -0.1786  0.0944 -0.4021
  188MPD1    H2 2919   0.168   3.317  10.105 -1.1912 -0.1651  0.8544
  188MPD1    H3 2920   4.711   3.268   9.989  1.0158  0.3184  1.7202
  188MPD1     N 2921   0.099   2.835   9.918 -0.6709  0.1273 -0.1910
  188MPD1    H5 2922   0.000   2.814   9.912 -0.5617 -0.9265  1.8294
  188MPD1    N1 2923   0.369   3.155  10.162 -0.0351 -0.1782 -0.3491
  188MPD1    H6 2924   0.396   3.251  10.180 -2.7203  0.2326  1.4433
  188MPD1    H7 2925   0.457   3.115  10.131 -1.1930 -2.1166 -1.1626
  189MPD1     C 2926   2.272   3.361   0.494  0.3277 -1.0379 -0.2709
  189MPD1    C1 2927   2.186   3.258   0.524  0.0632 -0.2906  0.0516
  189MPD1    C2 2928   2.048   3.286   0.508  0.0676  0.7843 -0.2164
  189MPD1    C3 2929   2.001   3.410   0.464  0.7121 -0.5129  0.1282
  189MPD1    C4 2930   2.089   3.510   0.438 -0.5897  0.0253  0.1874
  189MPD1    C5 2931   2.219   3.478   0.444  0.7584  0.7150 -0.1954
  189MPD1     H 2932   1.962   3.223   0.531 -0.1082  1.5632  1.2830
  189MPD1    H1 2933   2.071   3.605   0.389  0.7180  0.6960  1.0053
  189MPD1    H2 2934   2.379   3.355   0.509  0.1591 -4.1088 -0.1897
  189MPD1    H3 2935   2.292   3.551   0.411  1.8051  0.0743  0.6805
  189MPD1     N 2936   1.862   3.423   0.447 -0.6330 -0.1943  0.3018
  189MPD1    H5 2937   1.807   3.343   0.477  1.0615 -1.4499  0.1264
  189MPD1    N1 2938   2.239   3.144   0.593 -0.2160  0.5678 -0.1006
  189MPD1    H6 2939   2.337   3.128   0.568  0.6204  1.2312  2.8160
  189MPD1    H7 2940   2.184   3.060   0.574  0.7378 -0.1724  0.3806
  190MPD1     C 2941   0.574   2.536  15.437  0.3591 -0.4146 -1.2839
  190MPD1    C1 2942   0.547   2.469  15.553  0.0094 -0.0353  0.1502
  190MPD1    C2 2943   0.652   2.424  15.629 -0.0778  0.1031 -0.2235
  190MPD1    C3 2944   0.785   2.446  15.593 -0.4954  0.2701  0.3165
  190MPD1    C4 2945   0.809   2.543  15.497 -0.1565  0.4937 -0.1970
  190MPD1    C5 2946   0.705   2.577  15.415 -0.0374 -0.1847  0.5367
  190MPD1     H 2947   0.633   2.357  15.712  2.7574  0.7924  0.9664
  190MPD1    H1 2948   0.908   2.576  15.470  0.3705 -0.3625  0.7088
  190MPD1    H2 2949   0.495   2.564  15.368 -0.8494 -0.2617  0.1577
  190MPD1    H3 2950   0.726   2.642  15.331 -1.2100  1.7838  1.7711
  190MPD1     N 2951   0.880   2.364  15.661  0.0091 -0.1391  0.1758
  190MPD1    H5 2952   0.846   2.294  15.725 -1.1424  1.1252  0.9490
  190MPD1    N1 2953   0.416   2.422  15.586 -0.1331  0.1468 -0.4868
  190MPD1    H6 2954   0.405   2.396  15.684  0.5645 -0.3385 -0.5407
  190MPD1    H7 2955   0.348   2.494  15.559  0.4504  0.1590 -1.9047
  191MPD1     C 2956   0.054   4.274  12.118  0.5824 -0.7397 -0.4577
  191MPD1    C1 2957   0.099   4.286  11.987 -0.0943  0.5829  0.4295
  191MPD1    C2 2958   0.218   4.229  11.953 -0.7138 -0.8748 -0.8739
  191MPD1    C3 2959   0.306   4.179  12.047 -0.4408 -0.5493  0.3192
  191MPD1    C4 2960   0.272   4.176  12.180 -0.6467  0.3744  0.1175
  191MPD1    C5 2961   0.144   4.224  12.209  0.0522 -0.5185  0.2401
  191MPD1     H 2962   0.256   4.245  11.853 -1.3681  0.0659 -0.9754
  191MPD1    H1 2963   0.342   4.157  12.261  0.0116 -0.3473 -0.6138
  191MPD1    H2 2964   4.702   4.311  12.152 -0.1512 -1.2703 -1.9270
  191MPD1    H3 2965   0.106   4.218  12.311 -3.3184 -2.2275 -1.1442
  191MPD1     N 2966   0.431   4.132  11.994  0.3663  0.1700  0.5751
  191MPD1    H5 2967   0.431   4.134  11.893 -0.8181 -2.0214  0.5163
  191MPD1    N1 2968   0.017   4.332  11.876 -0.1474  0.1352 -0.2239
  191MPD1    H6 2969   4.693   4.404  11.903  1.0466  0.7783  1.0514
  191MPD1    H7 2970   0.068   4.375  11.800 -1.5150  2.1851  0.0066
  192MPD1     C 2971   1.153   4.306  11.358  0.7009  0.5743 -0.0735
  192MPD1    C1 2972   1.029   4.356  11.403 -0.2406 -0.9920  0.2852
  192MPD1    C2 2973   0.955   4.273  11.480  0.0492 -0.9971  0.0878
  192MPD1    C3 2974   0.992   4.149  11.535 -0.4087  0.2895 -0.2752
  192MPD1    C4 2975   1.116   4.111  11.484  0.2803 -0.5998 -0.1323
  192MPD1    C5 2976   1.185   4.182  11.392  0.1338  0.5736  0.6467
  192MPD1     H 2977   0.860   4.319  11.505 -0.5112 -1.9219 -0.3283
  192MPD1    H1 2978   1.153   4.013  11.514  0.2350 -1.4588 -2.8772
  192MPD1    H2 2979   1.214   4.361  11.287 -0.0251  1.5218  0.0379
  192MPD1    H3 2980   1.279   4.141  11.356 -1.3525 -1.4392 -0.9907
  192MPD1     N 2981   0.920   4.066  11.617  0.0774  0.1687  0.3441
  192MPD1    H5 2982   0.964   3.978  11.643  0.5130  0.0350 -0.8508
  192MPD1    N1 2983   0.980   4.474  11.343 -0.6327 -0.5210 -0.2964
  192MPD1    H6 2984   1.057   4.538  11.327 -1.0849  0.3581  1.0317
  192MPD1    H7 2985   0.906   4.511  11.402  0.3132  1.1529 -0.1802
  193MPD1     C 2986   3.793   4.007  17.097  0.3688 -0.5283  0.0159
  193MPD1    C1 2987   3.905   3.946  17.142  0.2714 -0.3627 -0.1066
  193MPD1    C2 2988   4.017   4.024  17.157 -1.5039  0.0800  0.2476
  193MPD1    C3 2989   4.012   4.163  17.142 -0.1207  0.7707  0.2450
  193MPD1    C4 2990   3.894   4.216  17.102  0.4687 -0.4940 -0.9060
  193MPD1    C5 2991   3.786   4.138  17.080  0.2117 -0.0471 -0.3683
  193MPD1     H 2992   4.115   3.984  17.179 -1.4946  0.3783  0.7356
  193MPD1    H1 2993   3.889   4.324  17.090  0.8077 -0.3290  0.4598
  193MPD1    H2 2994   3.705   3.950  17.071 -0.9012  1.0010  0.8814
  193MPD1    H3 2995   3.696   4.187  17.046  1.5523  1.4525 -1.7440
  193MPD1     N 2996   4.129   4.243  17.150 -0.6319 -0.6111 -0.3526
  193MPD1    H5 2997   4.113   4.341  17.131 -1.5501 -0.6404  0.2775
  193MPD1    N1 2998   3.908   3.808  17.157 -0.1943 -0.1553  0.7616
  193MPD1    H6 2999   3.817   3.762  17.161 -1.5611  2.6143  1.1314
  193MPD1    H7 3000   3.954   3.783  17.244  0.3538 -1.4393  0.1057
  194MPD1     C 3001   1.673   1.877  17.455 -0.7277  0.0103  0.6647
  194MPD1    C1 3002   1.715   1.845  17.331 -0.4663  0.2392 -0.6910
  194MPD1    C2 3003   1.786   1.731  17.311 -0.0949 -0.3231  0.2800
  194MPD1    C3 3004   1.820   1.645  17.414  0.1369  0.1760 -0.3200
  194MPD1    C4 3005   1.766   1.671  17.536  0.0433 -0.2386 -0.3430
  194MPD1    C5 3006   1.706   1.795  17.560 -0.0203  0.1085 -0.6682
  194MPD1     H 3007   1.814   1.706  17.209  1.1355  1.1217  0.2599
  194MPD1    H1 3008   1.789   1.602  17.616 -0.9242 -1.5732 -1.2176
  194MPD1    H2 3009   1.625   1.973  17.466 -0.6421  0.0866  0.3603
  194MPD1    H3 3010   1.673   1.825  17.659  0.6116  1.6078 -0.9136
  194MPD1     N 3011   1.898   1.532  17.393  0.5711  0.0327  0.4209
  194MPD1    H5 3012   1.919   1.469  17.470 -3.0473  0.1438  1.4842
  194MPD1    N1 3013   1.700   1.938  17.225  0.2164  0.1985  0.0984
  194MPD1    H6 3014   1.613   1.989  17.233  0.1289  0.1230 -0.3309
  194MPD1    H7 3015   1.692   1.884  17.139 -1.3609  1.2997 -0.4399
  195MPD1     C 3016   4.187   3.452   1.047  0.2868  0.2831 -0.6887
  195MPD1    C1 3017   4.148   3.450   0.917  0.1562 -0.2922  0.1760
  195MPD1    C2 3018   4.233   3.396   0.825  0.3508  0.7828 -0.8221
  195MPD1    C3 3019   4.338   3.313   0.860 -0.9373  0.1216 -0.8932
  195MPD1    C4 3020   4.369   3.309   0.992  0.3903  0.0097 -0.0361
  195MPD1    C5 3021   4.300   3.383   1.081 -0.3092 -0.1476  0.1766
  195MPD1     H 3022   4.202   3.401   0.721 -1.3853 -1.8563 -0.4293
  195MPD1    H1 3023   4.447   3.245   1.032  0.7552  1.4964  1.6310
  195MPD1    H2 3024   4.133   3.504   1.126 -0.6886 -0.9868 -0.5154
  195MPD1    H3 3025   4.325   3.366   1.185 -0.1943 -2.0099 -0.1389
  195MPD1     N 3026   4.421   3.257   0.763 -0.2617 -0.1962  0.3208
  195MPD1    H5 3027   4.482   3.183   0.795  0.0899  0.6735  1.6424
  195MPD1    N1 3028   4.048   3.536   0.872  0.3359  0.6419 -0.4217
  195MPD1    H6 3029   3.971   3.540   0.939  0.5413 -1.3825 -0.0840
  195MPD1    H7 3030   4.011   3.517   0.779 -0.1493  0.1937 -0.1359
  196MPD1     C 3031   3.413   2.546   0.162 -0.2628  0.2451  0.3135
  196MPD1    C1 3032   3.435   2.677   0.204  0.6003  0.6442 -0.4891
  196MPD1    C2 3033   3.433   2.703   0.339 -0.0174 -0.0401  0.9477
  196MPD1    C3 3034   3.410   2.601   0.427 -0.1381  0.7483  0.0964
  196MPD1    C4 3035   3.395   2.474   0.383  0.1674 -0.1914  0.2310
  196MPD1    C5 3036   3.402   2.443   0.251 -0.4558  0.5316 -0.0421
  196MPD1     H 3037   3.448   2.807   0.365 -1.6157  0.3571  0.2726
  196MPD1    H1 3038   3.393   2.394   0.457 -1.7758 -0.3233  0.0367
  196MPD1    H2 3039   3.400   2.518   0.058  3.6590 -1.7894  0.3467
  196MPD1    H3 3040   3.401   2.337   0.225 -1.2201  0.8287 -1.1787
  196MPD1     N 3041   3.401   2.626   0.565 -0.9338  0.1828  0.5831
  196MPD1    H5 3042   3.359   2.554   0.622 -1.4555 -0.5842 -0.7633
  196MPD1    N1 3043   3.451   2.777   0.106 -0.0698  0.3793 -0.0434
  196MPD1    H6 3044   3.501   2.856   0.145  0.4110  0.2515 -0.4038
  196MPD1    H7 3045   3.497   2.742   0.022 -0.5631  1.7289 -0.8835
  197MPD1     C 3046   2.872   0.078  17.741 -0.4103 -0.0849  0.6037
  197MPD1    C1 3047   2.837   0.211  17.707  0.0526  0.0009  0.2134
  197MPD1    C2 3048   2.903   0.266  17.600  0.1437  0.6333 -0.1257
  197MPD1    C3 3049   2.973   0.189  17.506 -0.0726  0.1316 -0.6255
  197MPD1    C4 3050   2.988   0.055  17.538  0.3894 -0.1826 -0.1510
  197MPD1    C5 3051   2.947   0.004  17.655  0.1296 -0.3790 -0.2898
  197MPD1     H 3052   2.879   0.369  17.573  2.3613  1.2676  0.3422
  197MPD1    H1 3053   3.029   4.728  17.467  0.2509 -0.1643 -0.2500
  197MPD1    H2 3054   2.831   0.029   0.057  2.1776 -1.9945  0.7383
  197MPD1    H3 3055   2.979   4.645  17.674 -1.7984 -0.7415  0.9749
  197MPD1     N 3056   3.031   0.234  17.389 -0.5505 -0.2261 -0.1359
  197MPD1    H5 3057   3.072   0.166  17.326 -0.0931 -0.3900  0.3345
  197MPD1    N1 3058   2.752   0.283   0.022 -0.1781 -0.1552 -0.1449
  197MPD1    H6 3059   2.699   0.218   0.079 -1.5642  1.3379  0.2612
  197MPD1    H7 3060   2.692   0.346  17.740  0.3570  0.8277  0.4097
  198MPD1     C 3061   0.234   2.612  15.262 -0.5535  0.2736  0.1816
  198MPD1    C1 3062   0.175   2.554  15.375 -0.3330 -0.1345  0.1014
  198MPD1    C2 3063   0.189   2.619  15.496  0.1325  0.1249 -0.1972
  198MPD1    C3 3064   0.254   2.741  15.509  0.0582  0.1409  0.0378
  198MPD1    C4 3065   0.309   2.800  15.398  0.1066 -0.2216 -0.8887
  198MPD1    C5 3066   0.296   2.731  15.274 -0.2355  0.4535 -0.2115
  198MPD1     H 3067   0.162   2.567  15.587 -2.1256  1.4633 -0.1059
  198MPD1    H1 3068   0.363   2.893  15.398 -0.4642  0.1057 -2.3121
  198MPD1    H2 3069   0.225   2.553  15.172 -1.1718 -1.7581  1.5777
  198MPD1    H3 3070   0.329   2.768  15.178 -0.5199  2.1150  0.3334
  198MPD1     N 3071   0.251   2.797  15.641 -0.6432  0.0223  0.0353
  198MPD1    H5 3072   0.236   2.737  15.722 -2.0384 -0.2030 -0.3977
  198MPD1    N1 3073   0.121   2.423  15.362  0.1018  0.4057  0.7865
  198MPD1    H6 3074   0.067   2.392  15.443  0.0635 -2.0845 -0.1983
  198MPD1    H7 3075   0.057   2.409  15.284  0.8616 -1.7687  0.5705
  199MPD1     C 3076   2.324   0.137  11.127 -0.3120  0.0459 -0.3406
  199MPD1    C1 3077   2.248   0.020  11.105 -0.5128 -0.4006  0.5536
  199MPD1    C2 3078   2.256   4.698  10.983 -0.3798  0.0587  0.2244
  199MPD1    C3 3079   2.355   4.737  10.889  0.3243 -0.2086 -0.4385
  199MPD1    C4 3080   2.430   0.110  10.910  0.4053 -0.8430  0.1527
  199MPD1    C5 3081   2.417   0.168  11.031  0.1238  0.0514  0.0812
  199MPD1     H 3082   2.192   4.613  10.967 -0.0150 -0.5455  2.0411
  199MPD1    H1 3083   2.481   0.157  10.827 -0.7911  0.3190  0.0747
  199MPD1    H2 3084   2.314   0.189  11.222  0.1263 -1.0697  0.3195
  199MPD1    H3 3085   2.479   0.257  11.041 -2.7738  2.2425 -1.3619
  199MPD1     N 3086   2.362   4.688  10.755  0.5844 -0.4831 -0.0377
  199MPD1    H5 3087   2.426   4.736  10.694  1.1492 -0.6026  0.4589
  199MPD1    N1 3088   2.140   4.740  11.204  0.2649 -0.4307 -0.1200
  199MPD1    H6 3089   2.161   0.036  11.295 -2.2385 -3.1603  1.6503
  199MPD1    H7 3090   2.104   4.645  11.213 -0.4580 -0.0588  0.8516
  200MPD1     C 3091   0.788   3.922  15.280  0.2533  0.1100  1.1655
  200MPD1    C1 3092   0.751   3.969  15.162 -0.3336  0.7363  0.0995
  200MPD1    C2 3093   0.850   3.971  15.064  0.2132  0.2200  0.3262
  200MPD1    C3 3094   0.972   3.910  15.079  0.5675  0.1738 -0.6740
  200MPD1    C4 3095   0.997   3.855  15.197  0.2351  0.4602 -0.3719
  200MPD1    C5 3096   0.910   3.869  15.298 -0.0756 -0.1123  0.4542
  200MPD1     H 3097   0.829   4.026  14.973  0.2546 -0.0727  0.1405
  200MPD1    H1 3098   1.088   3.801  15.219 -0.3795 -0.3049  0.3115
  200MPD1    H2 3099   0.722   3.932  15.366  1.6291 -0.3980  2.2747
  200MPD1    H3 3100   0.938   3.826  15.393  0.5575  2.1057  1.2665
  200MPD1     N 3101   1.055   3.897  14.973 -0.0014  0.1795  0.2256
  200MPD1    H5 3102   1.013   3.923  14.884  0.6039 -0.8161 -0.3556
  200MPD1    N1 3103   0.625   4.027  15.144 -0.5169  0.1261 -0.3867
  200MPD1    H6 3104   0.565   3.954  15.183  1.4437 -0.4248  1.5716
  200MPD1    H7 3105   0.610   4.042  15.045 -0.5579  0.0442 -0.3933
  201MPD1     C 3106   3.515   3.650  13.154  0.9836  0.2632 -0.4474
  201MPD1    C1 3107   3.486   3.547  13.068  0.2012 -0.7540 -0.3265
  201MPD1    C2 3108   3.510   3.414  13.100 -0.9106 -0.5958  0.8604
  201MPD1    C3 3109   3.554   3.382  13.226 -0.2201  1.1066 -0.2166
  201MPD1    C4 3110   3.567   3.485  13.314  0.8152 -0.1233  0.5363
  201MPD1    C5 3111   3.538   3.614  13.284 -0.0695  0.5171 -0.4953
  201MPD1     H 3112   3.483   3.344  13.021  2.5720 -1.5088  0.4618
  201MPD1    H1 3113   3.588   3.462  13.418  1.2559 -1.8884  0.0579
  201MPD1    H2 3114   3.502   3.751  13.117 -1.9698  0.3706  0.8890
  201MPD1    H3 3115   3.543   3.695  13.357  0.9308 -0.2552  0.3022
  201MPD1     N 3116   3.593   3.251  13.265  1.1073  0.2361 -0.3909
  201MPD1    H5 3117   3.633   3.238  13.357  1.1950 -1.6399 -0.6788
  201MPD1    N1 3118   3.459   3.572  12.931 -0.2621  1.1499  0.2582
  201MPD1    H6 3119   3.403   3.499  12.887  3.2286 -1.4484  0.0973
  201MPD1    H7 3120   3.406   3.657  12.916  0.0621  1.5024  1.1130
  202MPD1     C 3121   3.812   2.746   9.013  0.6991 -0.1634 -0.0264
  202MPD1    C1 3122   3.743   2.867   9.030  0.0426  1.0940 -0.1686
  202MPD1    C2 3123   3.772   2.926   9.148 -0.0571 -0.1373 -0.4641
  202MPD1    C3 3124   3.829   2.857   9.250  0.6298 -0.1002 -0.3838
  202MPD1    C4 3125   3.887   2.734   9.237 -0.0197  0.2292  0.8613
  202MPD1    C5 3126   3.882   2.684   9.115 -0.1382 -0.0910 -0.1135
  202MPD1     H 3127   3.737   3.026   9.170 -1.8670 -1.5100  3.0203
  202MPD1    H1 3128   3.919   2.672   9.321 -0.0037  1.3597  1.6897
  202MPD1    H2 3129   3.807   2.697   8.917  0.2745  0.1046 -0.1435
  202MPD1    H3 3130   3.913   2.582   9.098 -2.2194 -1.0047  1.5075
  202MPD1     N 3131   3.840   2.915   9.382  0.0852 -0.5537  0.8553
  202MPD1    H5 3132   3.893   2.859   9.447  0.0762 -0.0611  1.2897
  202MPD1    N1 3133   3.704   2.943   8.919  0.4157 -1.0156  0.7323
  202MPD1    H6 3134   3.669   2.889   8.840 -1.3840 -0.4067  1.1255
  202MPD1    H7 3135   3.636   3.016   8.934  1.4405 -0.5564  3.1354
  203MPD1     C 3136   2.636   3.861  12.890 -0.0055  0.7270  0.8571
  203MPD1    C1 3137   2.727   3.789  12.807  0.1948  0.2512  0.7541
  203MPD1    C2 3138   2.762   3.664  12.850 -0.1780 -0.2799  0.6974
  203MPD1    C3 3139   2.726   3.615  12.974 -0.5988  0.7576  0.0625
  203MPD1    C4 3140   2.658   3.690  13.063  0.1727 -0.0473  0.5071
  203MPD1    C5 3141   2.611   3.814  13.018  0.1453 -0.0212 -0.2458
  203MPD1     H 3142   2.827   3.611  12.782 -1.5785  0.9690 -1.6059
  203MPD1    H1 3143   2.623   3.653  13.159  1.1682  1.6032  1.4988
  203MPD1    H2 3144   2.590   3.950  12.848 -0.1514  0.0027 -0.5454
  203MPD1    H3 3145   2.542   3.874  13.077  0.7363  1.7335 -1.3258
  203MPD1     N 3146   2.776   3.482  13.003  0.0364 -0.0149  0.6534
  203MPD1    H5 3147   2.820   3.432  12.926  2.5618  1.6353  1.0279
  203MPD1    N1 3148   2.746   3.827  12.677  0.3804 -0.1662  0.6222
  203MPD1    H6 3149   2.837   3.804  12.638  0.6612  1.9666  0.0046
  203MPD1    H7 3150   2.733   3.928  12.670  1.6619 -0.1903 -2.1389
  204MPD1     C 3151   2.085   0.712  17.695  0.0192  0.7327 -0.4309
  204MPD1    C1 3152   2.089   0.586  17.749 -0.6847  0.4059 -0.3249
  204MPD1    C2 3153   2.107   0.472  17.669  0.4582 -0.1466  0.5734
  204MPD1    C3 3154   2.135   0.479  17.538 -0.4749 -0.6386 -0.2818
  204MPD1    C4 3155   2.116   0.607  17.479 -0.1342  0.0299 -0.4384
  204MPD1    C5 3156   2.100   0.717  17.556 -0.1815  0.4293 -0.8341
  204MPD1     H 3157   2.112   0.377  17.721  0.4150 -0.7766 -0.5632
  204MPD1    H1 3158   2.137   0.614  17.373  2.6294  2.0037  0.2453
  204MPD1    H2 3159   2.074   0.802  17.755  0.1204 -0.3489  1.2224
  204MPD1    H3 3160   2.103   0.811  17.503 -3.3746  0.5083 -0.8693
  204MPD1     N 3161   2.153   0.362  17.464 -0.3849 -0.0080  0.2800
  204MPD1    H5 3162   2.148   0.274  17.514  1.7638  0.0868  0.6704
  204MPD1    N1 3163   2.063   0.567   0.110  0.8110  0.0327 -0.2602
  204MPD1    H6 3164   2.041   0.470   0.134 -1.6492  0.9362  1.1798
  204MPD1    H7 3165   1.982   0.622   0.138  0.4733  0.1792 -1.5182
  205MPD1     C 3166   2.777   3.430  16.616 -0.4631 -0.0539 -0.1609
  205MPD1    C1 3167   2.721   3.551  16.600  0.0659 -0.6332 -0.4723
  205MPD1    C2 3168   2.645   3.605  16.699  0.1923  0.3228  0.0980
  205MPD1    C3 3169   2.615   3.526  16.815  0.0548  0.1628 -0.4532
  205MPD1    C4 3170   2.678   3.408  16.828  0.4694 -0.5205  1.1924
  205MPD1    C5 3171   2.763   3.359  16.730  0.2280  0.1748 -0.4645
  205MPD1     H 3172   2.609   3.707  16.690 -1.6544 -0.2660  0.7034
  205MPD1    H1 3173   2.660   3.353  16.920  2.4065 -2.4197  0.4261
  205MPD1    H2 3174   2.843   3.389  16.541 -0.8663  0.1230 -0.6133
  205MPD1    H3 3175   2.807   3.262  16.742  0.6157  0.1761 -1.8708
  205MPD1     N 3176   2.512   3.568  16.910 -0.6536  0.3315 -0.2385
  205MPD1    H5 3177   2.493   3.500  16.983 -0.1801  0.0755 -0.3578
  205MPD1    N1 3178   2.776   3.629  16.495 -0.3879  0.0242 -0.1022
  205MPD1    H6 3179   2.789   3.580  16.407 -0.3654 -1.3960  0.6887
  205MPD1    H7 3180   2.727   3.717  16.476 -1.5333 -0.8291 -1.1385
  206MPD1     C 3181   2.866   1.190  17.064  0.6316  0.6344 -0.0458
  206MPD1    C1 3182   2.959   1.222  16.968 -0.0798 -0.2428  0.3958
  206MPD1    C2 3183   2.911   1.311  16.861 -0.9250  0.1984  0.1475
  206MPD1    C3 3184   2.775   1.325  16.836 -1.0937 -0.1404  0.5581
  206MPD1    C4 3185   2.686   1.272  16.928  0.3667 -0.3707 -0.0295
  206MPD1    C5 3186   2.734   1.213  17.044 -0.1925  0.1846  0.4549
  206MPD1     H 3187   2.982   1.348  16.788  1.0581  0.0802  2.0007
  206MPD1    H1 3188   2.581   1.298  16.919  0.5232  0.6965  1.1642
  206MPD1    H2 3189   2.898   1.145  17.158  0.4225 -2.7268 -1.6057
  206MPD1    H3 3190   2.664   1.189  17.122  3.0983 -3.1087  2.3989
  206MPD1     N 3191   2.722   1.375  16.721 -0.1449 -0.1200  0.4474
  206MPD1    H5 3192   2.622   1.386  16.713 -0.2617 -1.1703  0.4980
  206MPD1    N1 3193   3.094   1.199  16.990  0.1154 -0.0711  0.2867
  206MPD1    H6 3194   3.118   1.108  17.028 -2.0859 -1.5366 -1.7486
  206MPD1    H7 3195   3.157   1.213  16.911  2.0111  1.7837  2.1624
  207MPD1     C 3196   3.675   3.898  10.312 -0.3940  0.3362 -0.1119
  207MPD1    C1 3197   3.704   3.969  10.200 -0.0457 -0.7542  0.5532
  207MPD1    C2 3198   3.829   4.026  10.191  0.5197 -0.2349 -0.4878
  207MPD1    C3 3199   3.913   4.029  10.303 -0.7280  0.5874 -0.1762
  207MPD1    C4 3200   3.872   3.988  10.429  0.0127 -0.1238 -0.2517
  207MPD1    C5 3201   3.750   3.918  10.431  0.2255 -0.0540 -0.1291
  207MPD1     H 3202   3.863   4.056  10.093 -1.0441 -0.9336 -1.2486
  207MPD1    H1 3203   3.923   3.984  10.525 -2.6063  1.9978  1.2532
  207MPD1    H2 3204   3.587   3.838  10.333  1.2829 -1.5173  1.7197
  207MPD1    H3 3205   3.717   3.871  10.523 -0.0916  1.5518  0.5843
  207MPD1     N 3206   4.050   4.065  10.297 -0.1010 -0.1726 -0.4323
  207MPD1    H5 3207   4.100   4.064  10.385 -0.9498  0.0243  0.0514
  207MPD1    N1 3208   3.635   3.941  10.082  0.2009  0.0409 -0.3691
  207MPD1    H6 3209   3.647   4.022  10.022 -2.3263 -0.3722 -1.4334
  207MPD1    H7 3210   3.537   3.935  10.111  0.1542 -1.6548 -0.8637
  208MPD1     C 3211   3.341   3.164  17.312  0.4266  0.4861  0.4929
  208MPD1    C1 3212   3.351   3.144  17.446 -0.5454  0.1955 -0.2495
  208MPD1    C2 3213   3.260   3.062  17.505 -0.1108 -0.1699 -0.0109
  208MPD1    C3 3214   3.141   3.020  17.438 -0.4834  0.3494  0.8234
  208MPD1    C4 3215   3.128   3.047  17.302  0.5222  0.3763  0.6679
  208MPD1    C5 3216   3.240   3.110  17.243  0.2390  1.3407 -0.2148
  208MPD1     H 3217   3.274   3.040  17.610 -1.8342  0.9181  0.4425
  208MPD1    H1 3218   3.063   2.991  17.236  0.3519  2.9479 -1.3454
  208MPD1    H2 3219   3.412   3.209  17.244 -0.0972  0.2934 -0.1840
  208MPD1    H3 3220   3.255   3.111  17.135  0.1438  0.0393 -0.2471
  208MPD1     N 3221   3.051   2.945  17.513  0.2014 -0.5313 -0.0448
  208MPD1    H5 3222   3.076   2.934  17.611 -0.1571  0.5091  0.1647
  208MPD1    N1 3223   3.467   3.185  17.508 -0.1533  0.1475 -0.6474
  208MPD1    H6 3224   3.449   3.203  17.606  0.5609 -0.1386 -0.4627
  208MPD1    H7 3225   3.517   3.265  17.468  1.1450 -0.5934 -0.5164
  209MPD1     C 3226   0.321   2.987  11.094 -0.7930 -0.4262  0.4618
  209MPD1    C1 3227   0.252   3.033  10.980 -0.1050  0.6041  1.6564
  209MPD1    C2 3228   0.281   3.161  10.931  0.3840  0.5656 -0.2298
  209MPD1    C3 3229   0.354   3.258  10.999 -0.4661  0.0253  0.1064
  209MPD1    C4 3230   0.427   3.204  11.108 -0.5893  0.0957 -0.3353
  209MPD1    C5 3231   0.416   3.075  11.144  0.3687  0.8717  0.4624
  209MPD1     H 3232   0.240   3.188  10.834 -0.4944  1.0749  0.2780
  209MPD1    H1 3233   0.485   3.268  11.172 -2.3141  2.5491 -1.1960
  209MPD1    H2 3234   0.290   2.892  11.134 -0.5800 -0.5888  0.2462
  209MPD1    H3 3235   0.455   3.051  11.242  3.3587  0.4878 -0.8258
  209MPD1     N 3236   0.363   3.391  10.947  1.1885 -0.1243 -0.0134
  209MPD1    H5 3237   0.311   3.424  10.867  2.3292  0.6378 -0.4422
  209MPD1    N1 3238   0.179   2.937  10.907 -0.1089  0.8520 -0.0027
  209MPD1    H6 3239   0.114   2.887  10.967  0.2791  1.3470  0.8218
  209MPD1    H7 3240   0.124   2.984  10.834  0.7462 -0.3014 -1.3837
  210MPD1     C 3241   0.870   4.152  10.582 -0.1616 -0.4204 -0.1344
  210MPD1    C1 3242   0.876   4.146  10.718  0.1648  0.3348  0.1389
  210MPD1    C2 3243   0.776   4.081  10.779 -0.3751  0.5098 -0.1316
  210MPD1    C3 3244   0.663   4.045  10.716 -0.3338 -0.1793  0.7559
  210MPD1    C4 3245   0.654   4.067  10.578  0.7208 -0.5577 -0.0213
  210MPD1    C5 3246   0.756   4.113  10.511 -0.1326  0.0810  0.0180
  210MPD1     H 3247   0.767   4.079  10.887 -0.5994 -1.2408 -0.1815
  210MPD1    H1 3248   0.565   4.041  10.523  1.0470  0.0818 -0.8463
  210MPD1    H2 3249   0.956   4.179  10.521 -1.3836  1.5099 -0.9793
  210MPD1    H3 3250   0.753   4.120  10.403 -0.4225 -0.5539 -0.0223
  210MPD1     N 3251   0.550   3.981  10.770 -0.3613  0.3336  0.3668
  210MPD1    H5 3252   0.465   3.986  10.714 -0.6831  0.5130  0.8729
  210MPD1    N1 3253   1.003   4.172  10.784  0.0439 -0.6545  0.6155
  210MPD1    H6 3254   0.994   4.193  10.883  1.1707  0.9038  0.3905
  210MPD1    H7 3255   1.054   4.244  10.733 -0.3161 -0.8461 -0.0248
  211MPD1     C 3256   2.903   3.544  16.134  0.1332  0.2310  0.8863
  211MPD1    C1 3257   2.907   3.680  16.124 -0.0363  0.0069 -0.9700
  211MPD1    C2 3258   2.790   3.753  16.112  0.5640 -0.3952  0.2063
  211MPD1    C3 3259   2.666   3.686  16.129 -0.6027 -0.0784  0.1948
  211MPD1    C4 3260   2.669   3.548  16.157 -0.7747 -0.2874 -0.3570
  211MPD1    C5 3261   2.787   3.477  16.140 -0.2352 -0.3128  0.2364
  211MPD1     H 3262   2.794   3.859  16.089  1.1145 -0.8592 -1.8298
  211MPD1    H1 3263   2.579   3.490  16.174  0.1598 -1.5020  0.4125
  211MPD1    H2 3264   2.993   3.487  16.154  0.3847  0.8711  1.5609
  211MPD1    H3 3265   2.781   3.370  16.125  0.0439 -0.3525  0.4064
  211MPD1     N 3266   2.542   3.756  16.122 -0.1280  0.8960  0.4237
  211MPD1    H5 3267   2.553   3.856  16.110  2.0516  0.8210  1.6953
  211MPD1    N1 3268   3.029   3.738  16.099  0.1098 -0.5155 -0.1325
  211MPD1    H6 3269   3.035   3.840  16.102  1.5492 -0.6303  1.1102
  211MPD1    H7 3270   3.096   3.700  16.166 -0.0931  0.1226  0.4292
  212MPD1     C 3271   1.986   1.475  16.266 -0.5887 -0.0374 -0.4429
  212MPD1    C1 3272   1.923   1.587  16.319 -0.2420 -0.5505  0.1236
  212MPD1    C2 3273   1.817   1.568  16.409  0.0648 -0.5770  0.0903
  212MPD1    C3 3274   1.792   1.440  16.455 -0.2613  0.4664 -0.7842
  212MPD1    C4 3275   1.873   1.337  16.419  0.0969  0.2251  0.5130
  212MPD1    C5 3276   1.974   1.350  16.320  0.2872 -0.0003  0.2530
  212MPD1     H 3277   1.755   1.648  16.449 -0.7701 -0.0668 -2.2383
  212MPD1    H1 3278   1.850   1.236  16.451 -1.2707 -0.2925 -2.1236
  212MPD1    H2 3279   2.048   1.483  16.178 -0.5616 -0.0517 -0.4254
  212MPD1    H3 3280   2.019   1.257  16.288 -0.2815 -0.1825 -0.0093
  212MPD1     N 3281   1.698   1.401  16.546 -0.4111 -0.3481  0.2207
  212MPD1    H5 3282   1.682   1.301  16.555  0.6540 -0.6090 -0.8524
  212MPD1    N1 3283   1.938   1.705  16.247  0.2304  0.0262  0.0732
  212MPD1    H6 3284   1.915   1.788  16.301  2.1161 -1.4398  3.0969
  212MPD1    H7 3285   2.034   1.721  16.215 -0.2952 -0.1013 -1.5706
  213MPD1     C 3286   0.365   2.006  15.922  0.3394  0.0984  0.1380
  213MPD1    C1 3287   0.257   1.919  15.947  0.9302  0.4336 -1.0960
  213MPD1    C2 3288   0.147   1.937  15.863 -0.2352 -0.2843  0.0146
  213MPD1    C3 3289   0.141   2.045  15.773  0.0644 -0.2351 -0.2702
  213MPD1    C4 3290   0.239   2.136  15.776 -0.4513 -0.0799 -0.2844
  213MPD1    C5 3291   0.359   2.114  15.845 -0.7367  0.1223 -0.3284
  213MPD1     H 3292   0.056   1.879  15.859 -1.0925  1.0615 -0.1334
  213MPD1    H1 3293   0.241   2.221  15.709 -0.9722 -0.7093 -1.1039
  213MPD1    H2 3294   0.463   1.988  15.965  0.3283 -2.3869 -0.8633
  213MPD1    H3 3295   0.446   2.178  15.836 -0.4060 -0.1343  1.0436
  213MPD1     N 3296   0.031   2.044  15.680 -0.1657 -0.6112 -0.3157
  213MPD1    H5 3297   4.704   1.972  15.690 -0.3009 -0.4142  0.1569
  213MPD1    N1 3298   0.285   1.787  15.993 -0.1534 -0.4031 -0.5285
  213MPD1    H6 3299   0.199   1.739  16.020 -1.2622  1.4716 -0.7318
  213MPD1    H7 3300   0.348   1.782  16.072  1.9861  0.4034 -2.1766
  214MPD1     C 3301   4.131   1.444  15.248  0.2885  0.3152  0.0895
  214MPD1    C1 3302   4.215   1.448  15.360 -0.0939 -0.0686  0.4260
  214MPD1    C2 3303   4.278   1.574  15.389  0.3522  0.1573  0.4660
  214MPD1    C3 3304   4.258   1.681  15.310 -1.2343  0.0787  0.2560
  214MPD1    C4 3305   4.181   1.667  15.193  0.3546  0.6991  0.1647
  214MPD1    C5 3306   4.121   1.548  15.161 -0.2971 -0.4331 -0.5680
  214MPD1     H 3307   4.345   1.574  15.475 -0.9947 -0.1485  1.5111
  214MPD1    H1 3308   4.168   1.748  15.122 -0.9646  0.2931 -0.0446
  214MPD1    H2 3309   4.081   1.355  15.214  0.2245  1.1136 -1.9382
  214MPD1    H3 3310   4.053   1.528  15.079 -1.5406  1.4311  0.0173
  214MPD1     N 3311   4.329   1.803  15.321 -0.6183  0.2320 -0.3378
  214MPD1    H5 3312   4.309   1.882  15.261  1.4571  0.8130 -0.2637
  214MPD1    N1 3313   4.225   1.343  15.453  0.6882  0.1879  0.3890
  214MPD1    H6 3314   4.228   1.257  15.398 -0.9551  0.9171 -0.8330
  214MPD1    H7 3315   4.304   1.342  15.518  0.5202 -3.3653  0.5328
  215MPD1     C 3316   4.595   2.930  11.359  0.1492  0.3489 -0.5870
  215MPD1    C1 3317   4.553   3.060  11.358  1.2463 -0.2957  0.0384
  215MPD1    C2 3318   4.658   3.146  11.353 -0.2805  0.5266  0.2114
  215MPD1    C3 3319   0.049   3.112  11.362  0.3601  0.6023  0.1417
  215MPD1    C4 3320   0.075   2.979  11.359  0.4083 -0.5700  0.0898
  215MPD1    C5 3321   4.724   2.888  11.360 -0.3056 -0.1660 -0.5700
  215MPD1     H 3322   4.635   3.250  11.372 -0.6720  0.4283  0.2719
  215MPD1    H1 3323   0.177   2.943  11.364  1.4052  2.1333 -0.7837
  215MPD1    H2 3324   4.521   2.851  11.371 -0.6349  0.8641 -2.1116
  215MPD1    H3 3325   4.741   2.781  11.360 -2.4922 -0.5276 -0.8102
  215MPD1     N 3326   0.148   3.215  11.364  0.0629 -0.0880  0.4719
  215MPD1    H5 3327   0.116   3.310  11.352  1.9686  0.4238 -0.6649
  215MPD1    N1 3328   4.412   3.088  11.357  0.2135 -0.3237 -0.1342
  215MPD1    H6 3329   4.356   3.013  11.397 -2.1426  1.7270  0.3743
  215MPD1    H7 3330   4.396   3.180  11.398 -1.5224 -0.6876 -0.0264
  216MPD1     C 3331   1.423   2.069  17.649 -0.0534  0.1250  0.4227
  216MPD1    C1 3332   1.456   1.998  17.766  0.1370 -0.4209  0.0353
  216MPD1    C2 3333   1.426   1.862  17.762 -0.1863 -0.3922 -0.1855
  216MPD1    C3 3334   1.367   1.796  17.654  0.0104 -0.2869  0.3292
  216MPD1    C4 3335   1.357   1.864  17.537  1.2366 -0.1560 -0.2788
  216MPD1    C5 3336   1.385   2.000  17.536 -0.7270  0.1452 -0.4591
  216MPD1     H 3337   1.449   1.800   0.076  0.3637 -0.3818 -0.3287
  216MPD1    H1 3338   1.316   1.820  17.447  0.3448 -0.8479  0.4707
  216MPD1    H2 3339   1.433   2.176  17.638  0.0284 -0.2073 -2.9614
  216MPD1    H3 3340   1.372   2.047  17.439 -0.2462 -0.0269 -0.6063
  216MPD1     N 3341   1.338   1.661  17.683 -0.0989  0.0379 -0.0802
  216MPD1    H5 3342   1.362   1.621   0.002 -0.0085  1.2925  0.4466
  216MPD1    N1 3343   1.478   2.059   0.115 -0.0094  0.0633 -0.2467
  216MPD1    H6 3344   1.518   1.996   0.184 -1.0634 -0.7626 -0.3867
  216MPD1    H7 3345   1.538   2.141   0.116 -0.4467  0.3654  0.8606
  217MPD1     C 3346   2.722   3.843   8.621 -0.4093 -0.3964 -0.2478
  217MPD1    C1 3347   2.615   3.756   8.648  0.0030 -0.2822  0.6213
  217MPD1    C2 3348   2.628   3.675   8.759 -0.5682 -0.3389  0.0292
  217MPD1    C3 3349   2.728   3.699   8.858 -0.6258 -0.3865 -0.1308
  217MPD1    C4 3350   2.830   3.784   8.828 -0.8418 -0.8381 -0.3251
  217MPD1    C5 3351   2.832   3.846   8.708  0.0089  0.4513 -0.0797
  217MPD1     H 3352   2.552   3.603   8.786 -0.7074  1.5718  4.8310
  217MPD1    H1 3353   2.911   3.803   8.897 -1.7288  0.8367  0.2541
  217MPD1    H2 3354   2.742   3.900   8.531  1.1541 -2.3609 -1.1542
  217MPD1    H3 3355   2.920   3.907   8.692  1.0116 -0.9011  0.2878
  217MPD1     N 3356   2.734   3.629   8.977  0.4484  0.3360 -0.3218
  217MPD1    H5 3357   2.818   3.646   9.031 -0.1425 -0.1322  0.7416
  217MPD1    N1 3358   2.527   3.740   8.541 -0.4753 -0.4219  0.7212
  217MPD1    H6 3359   2.505   3.829   8.497 -0.7565 -1.0405 -0.4059
  217MPD1    H7 3360   2.439   3.697   8.568 -0.2226 -0.2229  1.8451
  218MPD1     C 3361   3.920   3.857  13.208 -0.1063  0.2620 -0.2808
  218MPD1    C1 3362   4.004   3.922  13.122 -0.8884  0.9835 -0.0546
  218MPD1    C2 3363   4.084   3.841  13.038  0.4514 -0.0886  0.3068
  218MPD1    C3 3364   4.093   3.704  13.046  0.2094 -0.0162  0.7095
  218MPD1    C4 3365   4.005   3.646  13.133  0.3095  0.4109 -0.3531
  218MPD1    C5 3366   3.923   3.720  13.213 -0.4213 -0.5403 -0.3989
  218MPD1     H 3367   4.159   3.899  12.985  0.6944  0.1374  0.9031
  218MPD1    H1 3368   4.005   3.540  13.154 -1.6911  0.3676 -0.5278
  218MPD1    H2 3369   3.865   3.912  13.284 -2.3581 -2.3166 -0.0708
  218MPD1    H3 3370   3.863   3.674  13.290  0.4127 -1.2231 -0.1542
  218MPD1     N 3371   4.188   3.630  12.973 -0.0835  0.3280 -0.4697
  218MPD1    H5 3372   4.252   3.686  12.918  0.4796  1.9539  1.8319
  218MPD1    N1 3373   4.011   4.062  13.126 -0.2375 -0.3426 -0.2194
  218MPD1    H6 3374   4.029   4.095  13.031 -1.4175 -1.5691 -0.8633
  218MPD1    H7 3375   3.928   4.110  13.161 -1.4452 -0.4719 -2.8899
  219MPD1     C 3376   4.696   3.934  12.382  0.2255  0.3227 -0.3278
  219MPD1    C1 3377   0.030   3.910  12.502  0.3486  0.5938  0.4064
  219MPD1    C2 3378   4.744   3.800  12.585  0.2913  0.1126 -0.0992
  219MPD1    C3 3379   4.628   3.732  12.571  0.1992  0.1580  0.4258
  219MPD1    C4 3380   4.550   3.742  12.456  0.5656  0.4434  0.2025
  219MPD1    C5 3381   4.583   3.849  12.371 -0.3390  0.0927  0.8919
  219MPD1     H 3382   0.060   3.785  12.673  0.2998  1.2512  0.0930
  219MPD1    H1 3383   4.453   3.696  12.448 -0.0939  2.0519 -1.0168
  219MPD1    H2 3384   4.710   4.015  12.311 -0.0315  0.4029 -0.2868
  219MPD1    H3 3385   4.522   3.851  12.282  0.2550 -2.9207  0.4327
  219MPD1     N 3386   4.580   3.640  12.667 -0.0853  0.8855  0.0459
  219MPD1    H5 3387   4.498   3.584  12.647  0.8109 -1.5538  3.1098
  219MPD1    N1 3388   0.143   3.986  12.523 -0.2799 -0.5340 -0.1957
  219MPD1    H6 3389   0.129   4.087  12.514  0.7982 -0.3076  0.6081
  219MPD1    H7 3390   0.172   3.972  12.619  0.3917  0.8783 -0.1853
  220MPD1     C 3391   4.199   3.117  10.398  0.6754 -0.1317 -0.3847
  220MPD1    C1 3392   4.111   3.214  10.372 -0.7941  1.0152  0.2317
  220MPD1    C2 3393   4.102   3.315  10.462 -0.3082 -0.6480 -0.4789
  220MPD1    C3 3394   4.185   3.326  10.574 -0.3167 -0.1293  0.5852
  220MPD1    C4 3395   4.290   3.242  10.582  1.2222 -0.1261 -0.2107
  220MPD1    C5 3396   4.289   3.127  10.506  0.0223 -0.3360  0.5527
  220MPD1     H 3397   4.039   3.400  10.437  0.8362  0.4070  0.2061
  220MPD1    H1 3398   4.372   3.251  10.653  1.0486 -1.0830  0.1149
  220MPD1    H2 3399   4.204   3.030  10.335  0.5997 -0.7649  0.4753
  220MPD1    H3 3400   4.369   3.054  10.514  2.9819  2.7225 -1.1985
  220MPD1     N 3401   4.172   3.443  10.648 -0.4188  0.4479  0.5328
  220MPD1    H5 3402   4.093   3.503  10.627 -0.1149  1.0968  1.2488
  220MPD1    N1 3403   4.046   3.210  10.254  0.1705  0.1781 -0.0224
  220MPD1    H6 3404   4.049   3.115  10.218 -2.3717 -0.2769  0.9396
  220MPD1    H7 3405   3.948   3.240  10.259  0.5019  1.2267  0.1629
  221MPD1     C 3406   3.340   2.271  17.165 -0.2785  0.2199 -0.0942
  221MPD1    C1 3407   3.219   2.240  17.226  0.3617  0.4250 -0.1108
  221MPD1    C2 3408   3.099   2.274  17.170 -0.2773 -0.8096 -0.2666
  221MPD1    C3 3409   3.107   2.357  17.065  0.4189 -0.0636  0.3715
  221MPD1    C4 3410   3.219   2.409  17.011  0.0764 -0.5537 -0.7842
  221MPD1    C5 3411   3.340   2.367  17.063 -0.4151 -0.6392  0.7422
  221MPD1     H 3412   3.006   2.233  17.207  0.8212 -1.5141  1.7208
  221MPD1    H1 3413   3.217   2.480  16.929  1.1301  0.2266 -0.1424
  221MPD1    H2 3414   3.435   2.234  17.204 -1.8269 -3.2569  0.3910
  221MPD1    H3 3415   3.431   2.403  17.016 -1.4110  1.8081  0.6666
  221MPD1     N 3416   2.987   2.400  17.002 -0.7546 -0.2651 -0.5270
  221MPD1    H5 3417   2.998   2.469  16.929 -2.2549 -0.9664 -1.4094
  221MPD1    N1 3418   3.213   2.144  17.327 -0.4104  0.1481 -0.2903
  221MPD1    H6 3419   3.292   2.154  17.390 -0.1474  0.1565 -0.6193
  221MPD1    H7 3420   3.128   2.146  17.382  0.6593  5.3581  1.1430
  222MPD1     C 3421   1.603   2.065   0.606 -0.7929 -1.1027  0.1374
  222MPD1    C1 3422   1.468   2.036   0.623 -0.1475 -0.4822  0.8969
  222MPD1    C2 3423   1.378   2.139   0.587 -0.2479 -0.1607 -0.8240
  222MPD1    C3 3424   1.416   2.263   0.540  0.0602 -0.4459  0.1778
  222MPD1    C4 3425   1.548   2.284   0.526 -0.1357  0.1090  0.2761
  222MPD1    C5 3426   1.637   2.183   0.557 -0.0214  0.2265 -0.3474
  222MPD1     H 3427   1.271   2.121   0.599  0.2008 -2.8046 -0.8714
  222MPD1    H1 3428   1.578   2.386   0.501  2.8693 -0.3176  2.1473
  222MPD1    H2 3429   1.675   1.986   0.626  1.7015  1.4537  1.1123
  222MPD1    H3 3430   1.742   2.205   0.540 -0.0681  2.7801  2.7109
  222MPD1     N 3431   1.317   2.368   0.512  0.2210  0.5987  0.4911
  222MPD1    H5 3432   1.351   2.454   0.471  1.2065 -0.6372 -1.2611
  222MPD1    N1 3433   1.426   1.906   0.623  0.3697  0.2451 -0.1159
  222MPD1    H6 3434   1.491   1.838   0.662 -1.3082 -1.1004  0.3782
  222MPD1    H7 3435   1.330   1.892   0.655  0.5104  0.7577  0.5199
  223MPD1     C 3436   0.308   2.728   0.700  0.1097  0.3477 -0.3364
  223MPD1    C1 3437   0.307   2.613   0.621  0.2872 -0.4862  0.0336
  223MPD1    C2 3438   0.427   2.550   0.598 -0.3500  0.3443  0.4548
  223MPD1    C3 3439   0.551   2.611   0.633 -0.7987  0.3879 -0.2537
  223MPD1    C4 3440   0.539   2.718   0.717 -0.4081 -0.0733 -0.8801
  223MPD1    C5 3441   0.424   2.776   0.751 -0.0115  0.1910 -0.0390
  223MPD1     H 3442   0.423   2.463   0.533 -0.6589  1.2924 -0.8083
  223MPD1    H1 3443   0.628   2.774   0.741 -0.0825 -0.7149 -0.5921
  223MPD1    H2 3444   0.222   2.789   0.725  0.3755 -0.1313  1.7513
  223MPD1    H3 3445   0.417   2.865   0.814 -4.8411 -0.4934  0.3253
  223MPD1     N 3446   0.677   2.554   0.585 -0.0897  0.4041  0.1539
  223MPD1    H5 3447   0.660   2.478   0.519  0.0025 -0.1436  0.7679
  223MPD1    N1 3448   0.186   2.558   0.579 -0.9166 -0.1609  0.2022
  223MPD1    H6 3449   0.109   2.624   0.570 -0.5323  0.4909  1.8058
  223MPD1    H7 3450   0.194   2.516   0.486 -1.0525  0.9285 -0.2996
  224MPD1     C 3451   2.516   3.893   9.385 -0.4836 -0.0584 -0.3744
  224MPD1    C1 3452   2.615   3.818   9.324  0.6988 -0.3416 -0.3677
  224MPD1    C2 3453   2.692   3.730   9.402 -0.3624 -0.5599  0.0938
  224MPD1    C3 3454   2.656   3.718   9.539  0.7725  0.1480  0.5916
  224MPD1    C4 3455   2.554   3.791   9.593  0.4724 -0.1520 -0.2105
  224MPD1    C5 3456   2.492   3.884   9.521 -0.5168  0.0261  0.0143
  224MPD1     H 3457   2.775   3.674   9.361  0.4423 -0.8348  2.1040
  224MPD1    H1 3458   2.538   3.788   9.701  0.4292  2.3824 -0.1449
  224MPD1    H2 3459   2.459   3.968   9.332 -0.6937 -0.6598 -0.9985
  224MPD1    H3 3460   2.416   3.951   9.560  0.0792 -0.4466  1.9657
  224MPD1     N 3461   2.730   3.635   9.629 -0.1459  0.0521  0.1393
  224MPD1    H5 3462   2.700   3.641   9.726  0.3853 -1.4172  0.3838
  224MPD1    N1 3463   2.656   3.857   9.197  0.2517 -0.2237  0.2904
  224MPD1    H6 3464   2.707   3.786   9.144  0.4188 -1.1785  1.7123
  224MPD1    H7 3465   2.578   3.886   9.139 -0.5609 -1.3767  0.8166
  225MPD1     C 3466   4.480   4.653  12.415 -0.3445 -0.0040 -0.5000
  225MPD1    C1 3467   4.433   4.546  12.346  0.0060 -0.2811 -0.3947
  225MPD1    C2 3468   4.295   4.520  12.352  0.1264  0.0684 -0.4222
  225MPD1    C3 3469   4.219   4.600  12.441  0.6005  0.3591  0.3311
  225MPD1    C4 3470   4.276   4.702  12.511 -0.3761 -0.4918 -0.2453
  225MPD1    C5 3471   4.403   4.730  12.500  0.3542 -0.6763  0.4413
  225MPD1     H 3472   4.255   4.434  12.300 -0.9104  0.1533  0.2430
  225MPD1    H1 3473   4.215   0.017  12.578 -0.3118 -0.8075  0.0906
  225MPD1    H2 3474   4.582   4.688  12.402 -0.5436 -0.1423 -2.5392
  225MPD1    H3 3475   4.460   0.063  12.551 -0.6838  1.9469 -2.4064
  225MPD1     N 3476   4.076   4.586  12.451 -0.3685 -0.0213  0.0624
  225MPD1    H5 3477   4.031   4.644  12.522 -1.2757 -0.6591  0.0082
  225MPD1    N1 3478   4.516   4.492  12.251 -0.0840 -0.4203 -0.1465
  225MPD1    H6 3479   4.610   4.517  12.281 -0.0630 -1.7888  0.9743
  225MPD1    H7 3480   4.497   4.392  12.241  2.2205 -0.6302 -2.3596
  226MPD1     C 3481   2.844   4.737  10.395 -0.2041  0.1848 -0.2730
  226MPD1    C1 3482   2.875   0.098  10.308 -0.5322 -0.0473  0.6278
  226MPD1    C2 3483   2.809   0.114  10.189  0.2327 -0.7920  0.2007
  226MPD1    C3 3484   2.712   0.027  10.149 -0.0971  0.1646 -0.8535
  226MPD1    C4 3485   2.686   4.664  10.237 -0.2124  0.0071  0.0221
  226MPD1    C5 3486   2.753   4.649  10.360  0.2318  1.1508  0.0469
  226MPD1     H 3487   2.856   0.191  10.129 -0.1376 -0.5577  0.2170
  226MPD1    H1 3488   2.610   4.589  10.222  0.5152 -1.2414  2.5559
  226MPD1    H2 3489   2.894   4.729  10.491  1.7916  5.2592 -0.8752
  226MPD1    H3 3490   2.741   4.566  10.428  0.8593  1.0774  0.0691
  226MPD1     N 3491   2.652   0.040  10.029 -0.4902  0.4755  0.0648
  226MPD1    H5 3492   2.673   0.123   9.974  0.2504 -1.2604 -2.3197
  226MPD1    N1 3493   2.971   0.190  10.343  0.0576 -0.2323  0.3820
  226MPD1    H6 3494   2.993   0.181  10.442  1.6679  1.2966  0.1503
  226MPD1    H7 3495   3.054   0.189  10.285 -0.3812  1.5120 -0.2690
  227MPD1     C 3496   2.313   0.668   9.327 -0.3623 -0.0723 -0.0217
  227MPD1    C1 3497   2.202   0.588   9.355  0.3638 -0.1445  0.2002
  227MPD1    C2 3498   2.226   0.469   9.429  0.1005 -0.4953  0.1752
  227MPD1    C3 3499   2.355   0.433   9.462 -0.2675  0.0505  0.5783
  227MPD1    C4 3500   2.463   0.517   9.434 -0.1515  0.2761 -0.4057
  227MPD1    C5 3501   2.440   0.632   9.366 -0.3307 -0.4761  0.1151
  227MPD1     H 3502   2.149   0.395   9.447  0.6263 -1.1876 -0.3938
  227MPD1    H1 3503   2.562   0.475   9.438 -0.2150  0.2692  1.3159
  227MPD1    H2 3504   2.303   0.765   9.280  1.0125 -0.2812 -0.7283
  227MPD1    H3 3505   2.521   0.704   9.358  0.7866 -1.8914 -1.2913
  227MPD1     N 3506   2.371   0.309   9.532  0.1375 -0.0166 -0.2628
  227MPD1    H5 3507   2.288   0.251   9.530  1.3204 -1.6657 -0.8494
  227MPD1    N1 3508   2.081   0.610   9.288 -0.4757 -0.6268 -0.0848
  227MPD1    H6 3509   2.058   0.703   9.256 -0.0020  0.0977  1.6866
  227MPD1    H7 3510   2.001   0.575   9.341  0.9117 -2.0582  1.0946
  228MPD1     C 3511   0.807   0.978  13.542  0.5409 -0.5876  1.0593
  228MPD1    C1 3512   0.688   0.962  13.614  0.3995 -0.2091  0.5141
  228MPD1    C2 3513   0.567   0.974  13.541  0.0951  0.6474  0.0907
  228MPD1    C3 3514   0.568   1.015  13.411  0.3808  0.1964 -0.2344
  228MPD1    C4 3515   0.680   1.015  13.339 -0.7951  0.6232 -0.3346
  228MPD1    C5 3516   0.796   0.993  13.409 -0.3047 -0.4951 -0.2658
  228MPD1     H 3517   0.475   0.968  13.598  0.9131 -2.5197  1.1103
  228MPD1    H1 3518   0.682   1.025  13.231 -0.3182 -0.0916 -0.3924
  228MPD1    H2 3519   0.906   0.966  13.585  0.6259 -0.8509  0.7897
  228MPD1    H3 3520   0.889   0.998  13.353  0.9069 -0.3068  1.7594
  228MPD1     N 3521   0.448   1.049  13.354 -0.5761  0.5180  0.3013
  228MPD1    H5 3522   0.364   1.039  13.410 -0.0975  0.7661  1.0618
  228MPD1    N1 3523   0.690   0.909  13.745  0.0590 -0.0477  0.3718
  228MPD1    H6 3524   0.769   0.954  13.791 -1.9785  1.3816  2.4357
  228MPD1    H7 3525   0.606   0.941  13.793 -0.1617 -1.8207  1.1411
  229MPD1     C 3526   0.396   0.530  14.316  0.1346 -0.2395  0.5041
  229MPD1    C1 3527   0.396   0.606  14.433  0.9209 -0.0918 -0.7729
  229MPD1    C2 3528   0.470   0.560  14.539  0.1438 -0.1738 -0.1771
  229MPD1    C3 3529   0.541   0.443  14.533 -0.1685  0.5176 -0.2359
  229MPD1    C4 3530   0.536   0.369  14.411 -0.4963  0.4466  0.1745
  229MPD1    C5 3531   0.455   0.409  14.313 -0.4779  0.0645 -0.2831
  229MPD1     H 3532   0.477   0.614  14.633 -1.8105 -2.1839  1.1200
  229MPD1    H1 3533   0.601   0.283  14.407 -1.6678 -0.3956 -0.9756
  229MPD1    H2 3534   0.338   0.564  14.231 -1.2218  1.7905  2.2116
  229MPD1    H3 3535   0.438   0.339  14.231  2.1920 -0.4683 -0.3797
  229MPD1     N 3536   0.627   0.391  14.633  0.2957  0.6580 -0.3394
  229MPD1    H5 3537   0.680   0.308  14.605  2.6091  1.6061  1.1944
  229MPD1    N1 3538   0.342   0.736  14.436  0.7246  0.5449 -0.3761
  229MPD1    H6 3539   0.320   0.779  14.525 -0.8130  1.4740 -1.1882
  229MPD1    H7 3540   0.251   0.743  14.389 -0.1754 -1.3308  1.0865
  230MPD1     C 3541   0.539   0.574  15.596 -0.1872 -0.3848  0.5759
  230MPD1    C1 3542   0.503   0.650  15.481 -0.5421 -0.5581  1.1534
  230MPD1    C2 3543   0.568   0.609  15.358 -0.4510  0.6479 -0.1863
  230MPD1    C3 3544   0.660   0.508  15.346 -0.3090  0.2106 -0.0561
  230MPD1    C4 3545   0.703   0.452  15.467  0.2278 -0.2372 -0.1420
  230MPD1    C5 3546   0.642   0.488  15.587  0.6091  0.2456  0.0959
  230MPD1     H 3547   0.539   0.663  15.268 -1.2332  1.9887  0.8832
  230MPD1    H1 3548   0.787   0.385  15.476 -0.0225 -0.5749 -0.3031
  230MPD1    H2 3549   0.504   0.601  15.694 -2.0196  0.0789 -0.1970
  230MPD1    H3 3550   0.686   0.459  15.682 -0.5860 -0.5012  0.4289
  230MPD1     N 3551   0.703   0.462  15.220  0.0133  0.5333  0.2062
  230MPD1    H5 3552   0.688   0.520  15.139  1.5590 -1.6373 -1.6248
  230MPD1    N1 3553   0.423   0.763  15.490 -0.2834  0.5620  0.1985
  230MPD1    H6 3554   0.381   0.765  15.582  2.2004 -0.3605  1.3531
  230MPD1    H7 3555   0.355   0.775  15.415  2.2947 -0.6213 -2.3549
  231MPD1     C 3556   3.820   2.330  15.770  0.2627  0.2727 -0.5080
  231MPD1    C1 3557   3.756   2.323  15.647  0.8643 -0.3838 -0.2509
  231MPD1    C2 3558   3.824   2.358  15.535  1.1309  0.6336 -0.2780
  231MPD1    C3 3559   3.952   2.409  15.544  0.6119 -0.3084  0.6076
  231MPD1    C4 3560   4.002   2.442  15.664 -0.0994  0.0719 -0.2884
  231MPD1    C5 3561   3.943   2.394  15.779 -1.1696  0.4386  0.7596
  231MPD1     H 3562   3.789   2.344  15.434  1.7932 -0.1654 -0.3986
  231MPD1    H1 3563   4.097   2.489  15.683 -0.9929  1.4699  0.7496
  231MPD1    H2 3564   3.774   2.302  15.865  1.5851  1.1394  0.3812
  231MPD1    H3 3565   3.994   2.413  15.873  2.0694  2.4269 -1.4128
  231MPD1     N 3566   4.015   2.438  15.424 -0.1261  0.0545  0.2789
  231MPD1    H5 3567   3.970   2.413  15.336  3.4027 -0.4773 -1.3380
  231MPD1    N1 3568   3.646   2.240  15.646  0.2710  0.4955 -0.0471
  231MPD1    H6 3569   3.594   2.234  15.733  0.5146 -0.8527  0.0185
  231MPD1    H7 3570   3.576   2.264  15.576  0.6457 -1.9302 -1.2719
  232MPD1     C 3571   0.433   3.535   0.029 -0.3849 -0.0190 -0.5801
  232MPD1    C1 3572   0.359   3.556   0.151 -0.5588 -0.7270  1.2945
  232MPD1    C2 3573   0.295   3.675   0.165 -0.0780  0.3877 -0.3040
  232MPD1    C3 3574   0.279   3.764   0.065 -0.0444 -0.7367  0.4651
  232MPD1    C4 3575   0.335   3.737  17.713 -0.6546 -0.3639 -0.1839
  232MPD1    C5 3576   0.413   3.628  17.701  0.3683  0.5946 -0.8351
  232MPD1     H 3577   0.256   3.706   0.262 -0.1815  0.0994 -0.2523
  232MPD1    H1 3578   0.323   3.788  17.618  0.4321  0.0618 -0.0914
  232MPD1    H2 3579   0.495   3.449   0.006 -2.0372 -1.1284 -0.8257
  232MPD1    H3 3580   0.468   3.614  17.608  2.3917  0.1367  0.4327
  232MPD1     N 3581   0.208   3.882   0.091  0.7741  0.3980 -1.0772
  232MPD1    H5 3582   0.173   3.887   0.187  2.8792  0.0924 -0.2898
  232MPD1    N1 3583   0.380   3.468   0.255  0.2577 -0.5266 -0.0394
  232MPD1    H6 3584   0.387   3.374   0.218  0.1619  0.2067 -1.9235
  232MPD1    H7 3585   0.311   3.469   0.330  1.2370  1.6748  0.8270
  233MPD1     C 3586   1.887   4.302  17.695  0.3448  0.2501  0.3536
  233MPD1    C1 3587   1.777   4.226  17.704  0.1790  0.3218  0.2787
  233MPD1    C2 3588   1.793   4.088  17.726  0.1804 -0.2369  0.3870
  233MPD1    C3 3589   1.919   4.035  17.742  0.6625 -0.1993  0.5745
  233MPD1    C4 3590   2.029   4.117  17.714  0.0309 -0.0869 -0.2957
  233MPD1    C5 3591   2.014   4.253  17.702  0.1273  0.1068 -0.3535
  233MPD1     H 3592   1.703   4.030  17.741 -0.1287  0.1169 -0.1063
  233MPD1    H1 3593   2.128   4.074  17.718  0.0483 -0.0630 -0.4887
  233MPD1    H2 3594   1.878   4.410  17.689 -1.1061  0.0377 -1.1404
  233MPD1    H3 3595   2.101   4.317  17.706  0.6820 -0.5540 -2.1055
  233MPD1     N 3596   1.945   3.900   0.000 -0.2018  0.1495 -0.2756
  233MPD1    H5 3597   2.040   3.877  17.742  0.4270 -0.6713  2.3169
  233MPD1    N1 3598   1.648   4.275  17.696  0.4452  0.2011 -0.5512
  233MPD1    H6 3599   1.630   4.333  17.614  2.5333  1.2928 -0.2530
  233MPD1    H7 3600   1.592   4.191  17.698 -1.3848  1.4395  0.0850
  234MPD1     C 3601   3.527   1.944   9.330 -0.0365  0.1671  0.0296
  234MPD1    C1 3602   3.632   2.004   9.401 -0.2665  0.1818 -0.0795
  234MPD1    C2 3603   3.641   2.147   9.400  0.4431  0.6589  0.0980
  234MPD1    C3 3604   3.539   2.222   9.335 -0.2640  0.4126  0.0711
  234MPD1    C4 3605   3.425   2.157   9.290  0.3594 -0.2242  0.3059
  234MPD1    C5 3606   3.424   2.022   9.290  0.3953 -0.1941 -0.1567
  234MPD1     H 3607   3.728   2.199   9.437  0.9001  0.1024 -0.1828
  234MPD1    H1 3608   3.338   2.205   9.247  0.1158  0.2350  1.3000
  234MPD1    H2 3609   3.515   1.838   9.313 -1.5850  0.3682 -0.1438
  234MPD1    H3 3610   3.342   1.967   9.245  0.2477  1.1254 -1.5084
  234MPD1     N 3611   3.563   2.366   9.327  0.4361  0.7979 -0.1235
  234MPD1    H5 3612   3.648   2.397   9.372 -0.2488  1.9977  0.3285
  234MPD1    N1 3613   3.740   1.918   9.425  0.1179  0.5861  0.4945
  234MPD1    H6 3614   3.797   1.954   9.501 -0.6181  1.2368  0.7485
  234MPD1    H7 3615   3.693   1.833   9.453  1.4837 -0.1997  0.3860
  235MPD1     C 3616   4.153   4.357  10.428  0.5757 -0.7026 -0.1526
  235MPD1    C1 3617   4.138   4.450  10.332 -0.0028  0.5765 -0.1416
  235MPD1    C2 3618   4.252   4.499  10.266  0.3275  0.3081 -0.2484
  235MPD1    C3 3619   4.371   4.465  10.308  0.5674 -0.7953 -0.0818
  235MPD1    C4 3620   4.389   4.391  10.420 -0.4923 -0.2436 -0.5735
  235MPD1    C5 3621   4.275   4.340  10.475 -0.3879 -0.4607  0.0229
  235MPD1     H 3622   4.245   4.565  10.180  1.8277  0.7587 -0.0216
  235MPD1    H1 3623   4.484   4.364  10.465 -1.2867  0.2724  1.4165
  235MPD1    H2 3624   4.070   4.306  10.476  0.4219  0.4806  0.8730
  235MPD1    H3 3625   4.286   4.268  10.555 -1.3951 -0.8491 -0.1935
  235MPD1     N 3626   4.478   4.515  10.233 -0.1073  0.0638  0.0128
  235MPD1    H5 3627   4.457   4.584  10.161 -2.4255  0.6348  1.2452
  235MPD1    N1 3628   4.010   4.468  10.280  0.3998  0.2848 -0.2453
  235MPD1    H6 3629   3.940   4.437  10.346  0.0170 -2.0897 -1.7654
  235MPD1    H7 3630   3.989   4.559  10.240  1.2856  0.1897 -0.9479
  236MPD1     C 3631   3.515   1.101  10.220 -0.1718  0.0515  0.7807
  236MPD1    C1 3632   3.547   0.984  10.280 -0.2008 -0.2440  0.0861
  236MPD1    C2 3633   3.670   0.925  10.246  0.1525  0.4115  0.0596
  236MPD1    C3 3634   3.753   0.981  10.160 -0.4772 -0.0861  0.1454
  236MPD1    C4 3635   3.726   1.105  10.106 -0.1584 -0.7080 -0.5288
  236MPD1    C5 3636   3.598   1.162  10.126  0.1156 -0.9455 -1.2067
  236MPD1     H 3637   3.690   0.832  10.298  0.6287 -0.1128 -1.0495
  236MPD1    H1 3638   3.794   1.162  10.044 -1.2807 -0.0851 -1.1763
  236MPD1    H2 3639   3.425   1.152  10.253  0.1116  0.3810  1.0358
  236MPD1    H3 3640   3.584   1.261  10.085 -2.2180 -0.6366  0.3541
  236MPD1     N 3641   3.887   0.939  10.146  0.4766  0.3498  0.5118
  236MPD1    H5 3642   3.952   1.004  10.103  2.1338 -1.5086  0.1545
  236MPD1    N1 3643   3.448   0.940  10.371 -0.5152 -0.4450 -0.3864
  236MPD1    H6 3644   3.488   0.913  10.461  0.3057 -2.6190 -1.4173
  236MPD1    H7 3645   3.385   1.019  10.383  0.9842  0.7257 -0.2698
  237MPD1     C 3646   0.166   3.438  14.842  0.4094 -0.3963 -1.2285
  237MPD1    C1 3647   0.163   3.456  14.972 -0.4662 -0.2339 -0.1162
  237MPD1    C2 3648   0.035   3.486  15.029 -0.3671  0.2134 -0.2575
  237MPD1    C3 3649   4.657   3.473  14.958  0.0602 -0.0342  0.0130
  237MPD1    C4 3650   4.668   3.429  14.829  1.0752 -0.1471 -0.6277
  237MPD1    C5 3651   0.049   3.414  14.774 -0.0918  0.3409  0.5883
  237MPD1     H 3652   0.031   3.516  15.133  1.0480  2.2736 -0.7837
  237MPD1    H1 3653   4.586   3.411  14.759 -0.2124  0.2804  0.7795
  237MPD1    H2 3654   0.264   3.426  14.797  1.0380  4.2828 -1.1993
  237MPD1    H3 3655   0.050   3.392  14.668 -2.6374 -0.5253  0.7309
  237MPD1     N 3656   4.528   3.503  15.012 -0.0573 -0.4304 -0.4773
  237MPD1    H5 3657   4.464   3.498  14.933 -1.1809 -0.3164  0.4313
  237MPD1    N1 3658   0.283   3.477  15.040 -0.0971  0.0151  0.0247
  237MPD1    H6 3659   0.359   3.425  14.997  1.5163  1.1655  1.4864
  237MPD1    H7 3660   0.276   3.463  15.140  1.3645 -2.6760 -0.2531
  238MPD1     C 3661   1.210   1.889  15.480  0.1602 -0.3468 -0.1639
  238MPD1    C1 3662   1.110   1.808  15.528 -0.4106  0.0111 -0.4571
  238MPD1    C2 3663   0.977   1.853  15.507  0.0487  0.5312  0.0104
  238MPD1    C3 3664   0.952   1.973  15.443 -0.2482 -0.0365 -0.0724
  238MPD1    C4 3665   1.053   2.054  15.388 -0.4423 -0.7055  0.0992
  238MPD1    C5 3666   1.182   2.007  15.416 -0.0158  0.4681 -0.1764
  238MPD1     H 3667   0.901   1.822  15.577  1.1980 -0.0864  0.9727
  238MPD1    H1 3668   1.036   2.147  15.336 -0.7571 -0.7298  0.1572
  238MPD1    H2 3669   1.315   1.872  15.502  0.1848  1.1377  0.8698
  238MPD1    H3 3670   1.260   2.076  15.386 -1.0066  0.0288 -3.7191
  238MPD1     N 3671   0.820   2.027  15.434 -0.0228  0.3564 -0.1919
  238MPD1    H5 3672   0.821   2.121  15.397  1.3606  0.7167  0.7971
  238MPD1    N1 3673   1.135   1.699  15.610 -1.0476  0.2851  0.7293
  238MPD1    H6 3674   1.056   1.635  15.618  1.1321 -2.3523  1.3186
  238MPD1    H7 3675   1.219   1.652  15.575 -0.5356  2.1936 -0.5945
  239MPD1     C 3676   1.189   3.029  15.220  0.1471 -0.0183  0.2372
  239MPD1    C1 3677   1.301   3.061  15.142 -0.4552 -0.0459  0.7579
  239MPD1    C2 3678   1.290   3.134  15.027  1.0269 -0.5552  0.1714
  239MPD1    C3 3679   1.166   3.187  14.994 -0.2822 -0.4359 -0.1230
  239MPD1    C4 3680   1.059   3.163  15.076 -0.1802  0.0741  0.1271
  239MPD1    C5 3681   1.072   3.096  15.194  0.1927 -0.0689  0.5720
  239MPD1     H 3682   1.373   3.144  14.959  0.0081  0.1802 -0.9646
  239MPD1    H1 3683   0.961   3.206  15.061 -0.4644 -0.1481  1.3571
  239MPD1    H2 3684   1.211   2.964  15.304 -0.5295 -0.5695 -0.0171
  239MPD1    H3 3685   0.980   3.076  15.248  0.6440  0.7224  1.6170
  239MPD1     N 3686   1.140   3.260  14.872  0.5977 -0.4943 -0.5632
  239MPD1    H5 3687   1.043   3.265  14.844  0.3490  2.1293  0.7249
  239MPD1    N1 3688   1.427   3.000  15.160 -0.2299  0.3765 -0.6678
  239MPD1    H6 3689   1.428   2.950  15.249 -2.1809 -1.2538 -1.5714
  239MPD1    H7 3690   1.503   3.067  15.150  1.4968 -1.4624  0.1696
  240MPD1     C 3691   3.849   2.687  12.875 -0.3273 -0.9182  0.2435
  240MPD1    C1 3692   3.888   2.602  12.974  1.2024 -0.7996  0.5251
  240MPD1    C2 3693   3.974   2.653  13.073 -0.2403 -0.8653 -0.1096
  240MPD1    C3 3694   4.007   2.788  13.081  0.5059  0.0280  0.6625
  240MPD1    C4 3695   3.948   2.875  12.989  0.7894  1.3696  0.4350
  240MPD1    C5 3696   3.864   2.821  12.898 -0.3469 -0.1425 -0.1496
  240MPD1     H 3697   4.005   2.576  13.142  1.4130  0.4448  0.5980
  240MPD1    H1 3698   3.967   2.981  12.982 -0.1410  1.5866  1.1452
  240MPD1    H2 3699   3.780   2.660  12.796 -1.2161  3.2535 -0.4199
  240MPD1    H3 3700   3.826   2.891  12.824 -1.1200 -1.7356 -1.2818
  240MPD1     N 3701   4.113   2.824  13.168 -0.2876  0.1963 -0.3752
  240MPD1    H5 3702   4.178   2.752  13.201 -0.5394 -0.0757 -0.4679
  240MPD1    N1 3703   3.876   2.466  12.950 -0.0372  0.0240 -0.7023
  240MPD1    H6 3704   3.810   2.449  12.874 -2.1935  1.1465  0.9374
  240MPD1    H7 3705   3.861   2.415  13.037  1.3491  2.2555  0.8292
  241MPD1     C 3706   0.186   3.538  13.368 -0.0598 -0.0768 -0.3745
  241MPD1    C1 3707   0.094   3.536  13.261  0.2818  0.0507  0.5204
  241MPD1    C2 3708   4.735   3.438  13.263 -0.4796 -0.0965 -0.7088
  241MPD1    C3 3709   4.728   3.344  13.366  0.1404 -0.5216 -0.0027
  241MPD1    C4 3710   0.073   3.346  13.468 -0.3256  0.7276  0.2249
  241MPD1    C5 3711   0.162   3.450  13.474 -0.6085 -0.1233  0.1236
  241MPD1     H 3712   4.660   3.448  13.186 -0.5990 -1.0449 -0.7192
  241MPD1    H1 3713   0.056   3.285  13.556  0.5435  1.2787  0.7708
  241MPD1    H2 3714   0.275   3.600  13.372  0.0651 -0.3082  0.3766
  241MPD1    H3 3715   0.233   3.448  13.556  1.3260  0.4667 -1.5499
  241MPD1     N 3716   4.625   3.243  13.370 -0.2286 -0.1128 -0.0480
  241MPD1    H5 3717   4.636   3.179  13.448 -2.0174  1.0005  1.0918
  241MPD1    N1 3718   0.101   3.630  13.155  0.0929  0.8332 -0.3276
  241MPD1    H6 3719   0.008   3.653  13.120  0.0046  1.4254  0.2793
  241MPD1    H7 3720   0.140   3.722  13.176  2.4003 -0.3525  0.5404
  242MPD1     C 3721   0.490   1.444  15.871 -0.2938  0.0911 -0.1781
  242MPD1    C1 3722   0.422   1.495  15.762 -0.5659  0.0494 -0.0496
  242MPD1    C2 3723   0.423   1.426  15.637  0.0916  0.1149  0.0016
  242MPD1    C3 3724   0.502   1.309  15.630  0.0619 -0.3621 -0.3310
  242MPD1    C4 3725   0.565   1.263  15.746 -0.3749  0.0220  0.8330
  242MPD1    C5 3726   0.562   1.325  15.870 -0.4497 -0.0325  0.4476
  242MPD1     H 3727   0.363   1.461  15.554  1.4605  2.9117  0.1967
  242MPD1    H1 3728   0.623   1.172  15.750  0.0763  0.3070  0.8000
  242MPD1    H2 3729   0.492   1.495  15.967 -0.1306  1.0281 -0.6797
  242MPD1    H3 3730   0.621   1.287  15.952 -0.0553  1.5761  0.9083
  242MPD1     N 3731   0.518   1.222  15.514  0.8265  0.4302  0.1275
  242MPD1    H5 3732   0.569   1.135  15.528  1.7923  1.3832  2.5576
  242MPD1    N1 3733   0.385   1.634  15.755  0.4834  0.1691  0.2260
  242MPD1    H6 3734   0.313   1.655  15.686  0.1648  0.5045  0.6549
  242MPD1    H7 3735   0.363   1.681  15.843 -2.9455 -0.5119 -0.2431
  243MPD1     C 3736   1.631   1.335  17.464 -1.1418 -0.2167 -0.2836
  243MPD1    C1 3737   1.584   1.319  17.342  0.2335  0.0217  0.2394
  243MPD1    C2 3738   1.626   1.206  17.266  0.4986 -0.4836 -0.6301
  243MPD1    C3 3739   1.712   1.110  17.317 -0.5344 -0.4979 -0.4217
  243MPD1    C4 3740   1.749   1.120  17.445 -0.4949 -0.3558  0.6867
  243MPD1    C5 3741   1.712   1.236  17.514 -0.7602 -0.5037 -0.0212
  243MPD1     H 3742   1.592   1.196  17.164  1.1435 -2.4441 -0.6611
  243MPD1    H1 3743   1.797   1.042  17.503 -0.9470  0.3804  2.0370
  243MPD1    H2 3744   1.613   1.422  17.526  0.3787 -0.5237  0.5890
  243MPD1    H3 3745   1.733   1.245  17.620  0.5273  0.5562 -0.3604
  243MPD1     N 3746   1.741   0.994  17.244  0.1143  0.5014  0.1721
  243MPD1    H5 3747   1.712   0.987  17.147 -2.2096  3.2831  0.6539
  243MPD1    N1 3748   1.499   1.423  17.288 -0.1625 -0.2526  0.7878
  243MPD1    H6 3749   1.453   1.482  17.356 -0.2362 -1.2498  1.6044
  243MPD1    H7 3750   1.435   1.379  17.223 -0.0262  1.7166 -0.6779
  244MPD1     C 3751   1.802   0.003  17.505  0.0492 -0.9208 -0.6449
  244MPD1    C1 3752   1.816   0.127  17.570  0.1035 -0.6499  0.4018
  244MPD1    C2 3753   1.839   0.246  17.498  0.4538 -0.3931  0.0977
  244MPD1    C3 3754   1.824   0.250  17.363  0.0406  0.6664 -0.7618
  244MPD1    C4 3755   1.803   0.134  17.299  0.7052  0.0140  0.2733
  244MPD1    C5 3756   1.788   0.018  17.366  0.0326 -0.5198 -0.0242
  244MPD1     H 3757   1.838   0.339  17.553 -0.3691 -0.6099  0.4547
  244MPD1    H1 3758   1.782   0.133  17.192 -1.2710  1.1200  0.6437
  244MPD1    H2 3759   1.776   4.656  17.558  2.0550 -1.3465 -0.4112
  244MPD1    H3 3760   1.772   4.674  17.304 -1.1588 -0.9487  0.8770
  244MPD1     N 3761   1.823   0.378  17.300 -0.0289 -0.5734 -0.1443
  244MPD1    H5 3762   1.835   0.452  17.369  2.3939  1.3637 -2.6687
  244MPD1    N1 3763   1.823   0.125  17.709  0.1809  0.5230 -0.4683
  244MPD1    H6 3764   1.779   0.208  17.748 -1.5175 -1.1987  1.2636
  244MPD1    H7 3765   1.774   0.043  17.745  1.4760 -0.1054 -0.1161
  245MPD1     C 3766   3.289   0.334  12.665  0.2888  0.1769  0.1557
  245MPD1    C1 3767   3.282   0.470  12.696 -0.4947  1.0608 -0.1967
  245MPD1    C2 3768   3.387   0.524  12.762  0.1557 -0.5714 -0.1646
  245MPD1    C3 3769   3.502   0.452  12.799 -0.2799 -0.1553  0.5158
  245MPD1    C4 3770   3.509   0.322  12.767 -0.7082  0.3650 -0.1425
  245MPD1    C5 3771   3.399   0.269  12.700 -0.3307 -0.2867  0.0357
  245MPD1     H 3772   3.382   0.630  12.786  1.5673 -0.5150 -0.1390
  245MPD1    H1 3773   3.590   0.258  12.802  2.0004  2.8935 -1.7449
  245MPD1    H2 3774   3.209   0.281  12.613  0.4440 -0.0905  0.1903
  245MPD1    H3 3775   3.398   0.164  12.673 -0.1863  0.6411 -3.6202
  245MPD1     N 3776   3.609   0.520  12.868  0.3218  0.3800  1.0716
  245MPD1    H5 3777   3.603   0.622  12.869  0.6815  0.4123 -0.1022
  245MPD1    N1 3778   3.167   0.535  12.666 -0.0230  0.1522  0.2783
  245MPD1    H6 3779   3.117   0.499  12.585  2.2025  0.6390 -1.3010
  245MPD1    H7 3780   3.167   0.637  12.665  0.9458  0.1537 -0.2424
  246MPD1     C 3781   0.409   2.722   9.506 -0.1531 -0.8026 -0.4283
  246MPD1    C1 3782   0.318   2.825   9.526 -0.0042 -0.3242 -0.1033
  246MPD1    C2 3783   0.181   2.800   9.540  0.2940  0.4100 -0.6558
  246MPD1    C3 3784   0.136   2.669   9.521 -0.1824  0.3569 -0.1206
  246MPD1    C4 3785   0.226   2.569   9.492 -0.3134 -0.3030 -0.2920
  246MPD1    C5 3786   0.362   2.592   9.500 -0.6222 -0.4113 -0.3798
  246MPD1     H 3787   0.108   2.880   9.548 -1.5577 -1.1994 -1.3464
  246MPD1    H1 3788   0.186   2.468   9.488  2.4362 -1.4669  1.6650
  246MPD1    H2 3789   0.517   2.731   9.500 -0.4299  1.7261 -2.0431
  246MPD1    H3 3790   0.435   2.512   9.489 -0.3192 -0.0399 -1.0921
  246MPD1     N 3791   4.740   2.639   9.533  0.4967 -0.0590  0.4185
  246MPD1    H5 3792   4.671   2.713   9.540 -1.1227 -1.4421 -0.8704
  246MPD1    N1 3793   0.360   2.961   9.526  0.4106 -0.1493  0.5153
  246MPD1    H6 3794   0.276   3.019   9.519  0.2664 -0.2947  1.0177
  246MPD1    H7 3795   0.428   2.976   9.452 -0.1385 -1.8981 -0.3618
  247MPD1     C 3796   3.404   0.891  16.718 -0.5048  0.0472 -0.4198
  247MPD1    C1 3797   3.294   0.816  16.759  0.2691  0.2715  0.3687
  247MPD1    C2 3798   3.253   0.729  16.665  0.6791  0.3288 -0.9796
  247MPD1    C3 3799   3.301   0.728  16.533  0.7641  0.2202  0.8255
  247MPD1    C4 3800   3.396   0.820  16.497  0.2500  0.1804 -0.4637
  247MPD1    C5 3801   3.449   0.899  16.591 -0.0986  0.5085  0.1755
  247MPD1     H 3802   3.187   0.651  16.700  1.4557  0.5645  0.9918
  247MPD1    H1 3803   3.439   0.817  16.397 -0.8457 -1.8951 -0.8615
  247MPD1    H2 3804   3.452   0.953  16.792  0.1753  0.3152 -1.0838
  247MPD1    H3 3805   3.523   0.974  16.565  1.0239  0.0605  1.9901
  247MPD1     N 3806   3.250   0.641  16.433 -0.0421 -0.1804  0.0147
  247MPD1    H5 3807   3.263   0.669  16.336 -0.8112 -1.6221 -0.4961
  247MPD1    N1 3808   3.275   0.791  16.896 -0.0225  0.4120  0.8496
  247MPD1    H6 3809   3.181   0.752  16.901 -0.9164  2.5725  0.7765
  247MPD1    H7 3810   3.285   0.863  16.967  0.7596  1.2035 -0.0458
  248MPD1     C 3811   2.813   2.025  17.453  0.0062  0.4780 -0.6118
  248MPD1    C1 3812   2.856   1.896  17.434 -0.2375  0.6116  0.2581
  248MPD1    C2 3813   2.978   1.859  17.499  0.4011  0.0849  1.0944
  248MPD1    C3 3814   3.056   1.953  17.567  0.6511  0.0225  0.1661
  248MPD1    C4 3815   3.006   2.082  17.575  0.2868 -0.1357  0.2870
  248MPD1    C5 3816   2.889   2.119  17.516  0.2552 -0.4615  0.0933
  248MPD1     H 3817   3.017   1.758  17.492  1.6394  0.5756  0.8330
  248MPD1    H1 3818   3.060   2.154  17.635  1.3990  1.3392 -2.4703
  248MPD1    H2 3819   2.726   2.059  17.398 -1.6416 -0.8912  1.1325
  248MPD1    H3 3820   2.855   2.219  17.539 -1.1393 -1.1934  1.2341
  248MPD1     N 3821   3.186   1.911  17.612  0.0444 -0.1483  0.3856
  248MPD1    H5 3822   3.195   1.811  17.621  0.3643 -0.1438  0.1105
  248MPD1    N1 3823   2.772   1.799  17.374 -0.5022  0.2290 -0.0799
  248MPD1    H6 3824   2.708   1.841  17.307  0.4673 -0.9009 -1.6969
  248MPD1    H7 3825   2.804   1.709  17.338 -0.9348 -0.3912  1.0775
  249MPD1     C 3826   1.482   4.529  11.369 -0.1132 -0.1664  0.7202
  249MPD1    C1 3827   1.417   4.618  11.449 -0.5423  0.4494  0.1597
  249MPD1    C2 3828   1.299   4.675  11.394  0.2272  0.5206 -0.7487
  249MPD1    C3 3829   1.256   4.658  11.269  0.0890  0.0065  0.1768
  249MPD1    C4 3830   1.336   4.575  11.189 -0.5696 -0.4782 -0.2743
  249MPD1    C5 3831   1.430   4.500  11.248 -0.3437  0.3897  0.0679
  249MPD1     H 3832   1.243   0.001  11.455 -1.0735 -0.9689 -0.2138
  249MPD1    H1 3833   1.312   4.563  11.083 -0.2536  1.0999 -0.5258
  249MPD1    H2 3834   1.560   4.466  11.410 -0.0691  0.3387  1.4229
  249MPD1    H3 3835   1.476   4.417  11.196  1.4357  2.0665 -1.0347
  249MPD1     N 3836   1.140   4.729  11.221  0.3531  0.3435  0.3225
  249MPD1    H5 3837   1.093   0.045  11.288 -0.6481 -1.2030  1.0071
  249MPD1    N1 3838   1.441   4.622  11.584  0.0652 -0.1657  0.7109
  249MPD1    H6 3839   1.542   4.611  11.593  0.8507  5.5338 -1.1553
  249MPD1    H7 3840   1.415   4.714  11.618 -2.6928 -0.6270 -0.2238
  250MPD2     C 3841   2.384   3.679  13.755  0.0618  0.7085  0.5349
  250MPD2    C1 3842   2.354   3.794  13.680 -0.4419 -0.2733  0.0994
  250MPD2    C2 3843   2.305   3.774  13.555  0.0564 -0.6842 -0.0621
  250MPD2    C3 3844   2.290   3.646  13.507  0.0250 -0.4898  0.1023
  250MPD2    C4 3845   2.308   3.537  13.589  0.0028  0.0757 -0.5309
  250MPD2    C5 3846   2.353   3.557  13.714 -0.1479 -0.3033  0.3702
  250MPD2     H 3847   2.291   3.863  13.496  5.4025 -0.0181 -0.2545
  250MPD2    H1 3848   2.303   3.437  13.546  1.6896 -0.8255  1.3818
  250MPD2    H2 3849   2.433   3.688  13.851 -1.9427  0.1925  1.6038
  250MPD2    H3 3850   2.380   3.476  13.781  1.7105 -0.1503 -0.2141
  250MPD2     N 3851   2.277   3.626  13.360 -0.1302 -0.4633 -0.0137
  250MPD2    H5 3852   2.275   3.530  13.329 -0.7767 -0.3229 -0.3958
  250MPD2    N1 3853   2.389   3.922  13.737  0.2721  0.0409 -0.3877
  250MPD2    H7 3854   2.440   3.922  13.825 -0.6106  0.8441  0.1256
  251TMC3    C1 3855   2.417   4.151  13.724 -0.4976 -0.1715  0.1952
  251TMC3    C2 3856   2.367   4.272  13.689 -0.6412  0.0385 -0.1495
  251TMC3    C3 3857   2.445   4.377  13.648  0.1759  0.0211  0.3258
  251TMC3    C4 3858   2.550   4.137  13.706  0.5805  0.5522  0.0975
  251TMC3    C5 3859   2.628   4.245  13.677 -0.4818 -0.5593  0.0439
  251TMC3    C6 3860   2.581   4.364  13.636 -0.1950 -0.9395 -0.4414
  251TMC3     C 3861   2.339   4.039  13.683 -0.3209 -0.2837  0.3219
  251TMC3     O 3862   2.254   4.064  13.599  0.2037  0.2626  0.0014
  251TMC3     H 3863   2.266   4.298  13.720 -1.2692  0.1473 -2.2868
  251TMC3    H1 3864   2.601   4.046  13.738 -2.4941 -0.7162  1.3666
  251TMC3    H2 3865   2.639   4.440  13.586 -0.3619 -0.5104  0.0133
  251TMC3    C7 3866   2.766   4.223  13.660  0.0970 -0.2256 -0.8798
  251TMC3    C8 3867   2.378   4.506  13.648  0.3468 -0.3816 -0.1645
  251TMC3    O1 3868   2.790   4.101  13.647 -0.0543  0.2388 -0.1624
  251TMC3    O2 3869   2.257   4.499  13.623 -0.2935 -0.2652  0.4443
  252TMC3    C1 3870   2.180   0.768   9.651 -0.1513  0.2707 -0.1195
  252TMC3    C2 3871   2.317   0.782   9.671 -0.1938 -0.9519 -0.0359
  252TMC3    C3 3872   2.386   0.687   9.738  0.1397 -0.0389  0.2758
  252TMC3    C4 3873   2.113   0.654   9.691 -0.6006 -0.2301  0.2609
  252TMC3    C5 3874   2.193   0.557   9.749  0.5826 -1.0202 -0.7534
  252TMC3    C6 3875   2.322   0.576   9.787 -0.4331  0.4564  0.2584
  252TMC3     C 3876   2.118   0.876   9.561 -0.5951  0.9770  0.2789
  252TMC3     O 3877   2.186   0.968   9.513  0.4251  0.1096 -0.5280
  252TMC3     H 3878   2.370   0.864   9.625  1.0319 -1.9081 -0.3184
  252TMC3    H1 3879   2.011   0.635   9.662  0.4287 -1.1632 -2.7504
  252TMC3    H2 3880   2.374   0.484   9.812 -1.1462 -0.2195 -0.7751
  252TMC3    C7 3881   2.126   0.433   9.774 -0.6085 -0.1843  0.2778
  252TMC3    C8 3882   2.530   0.703   9.741 -0.1047  0.3070  0.9703
  252TMC3    O1 3883   2.020   0.421   9.717 -0.2747  0.6502 -0.1558
  252TMC3    O2 3884   2.578   0.800   9.683  0.2052  0.3088 -0.2778
  253MPD2     C 3885   3.472   3.703  15.271 -0.0172  0.9459  0.2153
  253MPD2    C1 3886   3.336   3.710  15.277  0.3515 -0.2611  0.7675
  253MPD2    C2 3887   3.274   3.761  15.388  1.2953 -0.0592  0.3359
  253MPD2    C3 3888   3.346   3.818  15.492  0.3100  0.2978  0.8095
  253MPD2    C4 3889   3.483   3.824  15.482 -0.4866 -0.5546  0.8134
  253MPD2    C5 3890   3.543   3.760  15.371 -0.5012 -1.1960 -1.3532
  253MPD2     H 3891   3.167   3.749  15.398  1.5913 -2.2221  0.9423
  253MPD2    H1 3892   3.550   3.881  15.545 -0.0826 -2.1432  1.8486
  253MPD2    H2 3893   3.525   3.644  15.198  0.7653  2.4878 -0.4688
  253MPD2    H3 3894   3.647   3.783  15.355 -0.6504  0.8242  0.4791
  253MPD2     N 3895   3.287   3.895  15.599  0.0031 -0.1735  0.7917
  253MPD2    H5 3896   3.346   3.945  15.665  0.2374  1.8415 -0.9230
  253MPD2    N1 3897   3.251   3.656  15.177 -0.2666 -0.7254 -0.2386
  253MPD2    H7 3898   3.154   3.682  15.191 -0.6839 -1.9289 -0.8712
  254TMC3    C1 3899   3.132   4.016  15.714 -0.4909 -0.4688  0.2871
  254TMC3    C2 3900   3.006   4.064  15.718  0.3022 -0.0665 -0.1278
  254TMC3    C3 3901   2.945   4.076  15.840 -0.7134 -0.0226 -0.1398
  254TMC3    C4 3902   3.208   4.026  15.831  0.2419  0.1860 -0.1732
  254TMC3    C5 3903   3.142   4.037  15.949 -0.3266 -1.0079 -0.2662
  254TMC3    C6 3904   3.008   4.043  15.957  0.4239  0.7603 -0.5004
  254TMC3     C 3905   3.156   3.919  15.611 -0.5168 -0.3833 -0.1933
  254TMC3     O 3906   3.064   3.906  15.526  0.0731  0.0162  0.2115
  254TMC3     H 3907   2.953   4.089  15.627 -1.2078  1.0365  1.0570
  254TMC3    H1 3908   3.315   4.008  15.833 -0.0307 -1.0418  3.2759
  254TMC3    H2 3909   2.960   4.021  16.052  1.6226  1.9720  0.3658
  254TMC3    C7 3910   3.214   4.052  16.072 -0.4378  0.1078  1.4090
  254TMC3    C8 3911   2.824   4.156  15.865  0.0008 -0.4561  0.2139
  254TMC3    O1 3912   3.171   3.988  16.170  0.3461 -0.0797  0.1168
  254TMC3    O2 3913   2.789   4.151  15.986  0.0611 -0.4995  0.4904
  255MPD2     C 3914   2.280   2.072  10.429  0.3149 -0.2289  0.0082
  255MPD2    C1 3915   2.177   2.052  10.349  0.5924  0.4985 -0.4519
  255MPD2    C2 3916   2.198   1.978  10.233 -0.7424 -0.0139  0.1690
  255MPD2    C3 3917   2.323   1.940  10.197  0.1720 -0.1769 -0.0982
  255MPD2    C4 3918   2.427   1.960  10.289 -0.2878 -0.1324  0.3751
  255MPD2    C5 3919   2.410   2.036  10.395 -0.1819  0.3496 -0.0853
  255MPD2     H 3920   2.123   1.961  10.157 -2.3084 -1.1607  1.9684
  255MPD2    H1 3921   2.532   1.934  10.281 -0.3965 -0.7470  0.9998
  255MPD2    H2 3922   2.269   2.123  10.525 -1.2029  4.2718 -2.5322
  255MPD2    H3 3923   2.499   2.054  10.454 -0.4397  1.8993 -0.1719
  255MPD2     N 3924   2.336   1.879  10.070 -0.1560  0.5511  0.1981
  255MPD2    H5 3925   2.254   1.866  10.012  0.3194  0.1204 -0.3907
  255MPD2    N1 3926   2.045   2.097  10.385 -0.3923 -0.1718  0.3779
  255MPD2    H7 3927   2.038   2.161  10.464 -3.3535  0.9501 -0.7746
  256TMC3    C1 3928   1.814   2.135  10.381  0.7769 -0.0005 -0.0728
  256TMC3    C2 3929   1.836   2.236  10.471 -0.0602  0.5737 -0.5819
  256TMC3    C3 3930   1.731   2.319  10.489 -0.0140 -0.3457 -0.4854
  256TMC3    C4 3931   1.703   2.130  10.303  0.6586  0.0986 -0.4570
  256TMC3    C5 3932   1.598   2.202  10.345 -0.2554 -0.5377  0.3554
  256TMC3    C6 3933   1.608   2.305  10.434 -0.1897 -0.4939 -0.2014
  256TMC3     C 3934   1.928   2.060  10.326 -0.1764  0.1092 -0.3639
  256TMC3     O 3935   1.901   1.994  10.224 -0.5721 -0.0803  0.6687
  256TMC3     H 3936   1.915   2.237  10.545 -2.5517  1.4327  2.0320
  256TMC3    H1 3937   1.680   2.044  10.241  0.0796  0.3513 -0.5927
  256TMC3    H2 3938   1.525   2.370  10.460  1.1590  1.0547  0.2712
  256TMC3    C7 3939   1.470   2.176  10.286 -0.6504 -0.2793 -0.1687
  256TMC3    C8 3940   1.750   2.441  10.562  0.2662 -1.2533  0.6179
  256TMC3    O1 3941   1.478   2.116  10.179  0.3538 -0.0976  0.4719
  256TMC3    O2 3942   1.648   2.496  10.601  0.2098 -0.1561  0.1057
  257MPD2     C 3943   0.539   3.530  13.151 -0.8156  0.5368  0.1107
  257MPD2    C1 3944   0.671   3.524  13.165  0.3653 -0.3571  0.3647
  257MPD2    C2 3945   0.728   3.425  13.247 -0.6759 -0.2027  0.7341
  257MPD2    C3 3946   0.658   3.332  13.323  0.4973  0.0022 -0.7338
  257MPD2    C4 3947   0.513   3.340  13.309 -1.1382  0.1068  0.4217
  257MPD2    C5 3948   0.460   3.429  13.214  0.4109  0.4022 -0.0195
  257MPD2     H 3949   0.835   3.413  13.253 -0.8971 -2.4078  0.1820
  257MPD2    H1 3950   0.453   3.269  13.364 -2.4532 -1.4234 -2.9720
  257MPD2    H2 3951   0.482   3.595  13.085 -0.6029 -2.3128 -2.8754
  257MPD2    H3 3952   0.355   3.417  13.194  0.7353 -1.0554 -0.8285
  257MPD2     N 3953   0.727   3.244  13.415 -0.3375 -0.5112 -0.0272
  257MPD2    H5 3954   0.828   3.249  13.411 -0.0520 -3.9423  2.5987
  257MPD2    N1 3955   0.749   3.618  13.092 -0.8582 -0.3166 -0.1967
  257MPD2    H7 3956   0.692   3.680  13.035  0.4790  0.0049 -1.1749
  258TMC3    C1 3957   0.770   3.096  13.591  0.8946 -0.0256 -0.3289
  258TMC3    C2 3958   0.898   3.079  13.534  0.3695  0.6643  0.4880
  258TMC3    C3 3959   1.002   3.053  13.620 -0.6164 -0.6422  0.0208
  258TMC3    C4 3960   0.762   3.119  13.726  0.3277 -0.2949 -0.3044
  258TMC3    C5 3961   0.868   3.086  13.808 -0.1121  0.0264 -0.2194
  258TMC3    C6 3962   0.992   3.065  13.756  0.0532 -0.4762  0.2112
  258TMC3     C 3963   0.670   3.152  13.502 -0.3899 -0.5701  0.0708
  258TMC3     O 3964   0.555   3.125  13.534 -0.1299 -0.0689 -0.5825
  258TMC3     H 3965   0.905   3.061  13.428 -0.6415  0.2700  0.4932
  258TMC3    H1 3966   0.663   3.131  13.769  0.9296 -0.8792  1.2539
  258TMC3    H2 3967   1.078   3.048  13.819  0.5654  1.5582  0.0741
  258TMC3    C7 3968   0.861   3.110  13.955 -0.3303 -0.8137  0.3953
  258TMC3    C8 3969   1.125   2.996  13.571 -0.0788 -0.1265  0.5869
  258TMC3    O1 3970   0.782   3.196  13.996 -0.1685  0.1760  0.0055
  258TMC3    O2 3971   1.141   3.016  13.450 -0.3888 -0.5031 -0.3373
  259MPD2     C 3972   4.546   0.150   1.579  0.2199  0.3918 -0.1101
  259MPD2    C1 3973   4.522   0.213   1.457  0.0061  0.0175 -0.2116
  259MPD2    C2 3974   4.568   0.146   1.347  0.7455  0.0623 -0.9281
  259MPD2    C3 3975   4.636   0.027   1.351  0.6905 -0.3468  0.2961
  259MPD2    C4 3976   4.673   4.726   1.477  0.3750  0.1674  0.1795
  259MPD2    C5 3977   4.620   0.039   1.589  0.6218 -0.5398 -0.1857
  259MPD2     H 3978   4.541   0.183   1.248  0.6437  2.0047 -0.1698
  259MPD2    H1 3979   4.731   4.635   1.488 -0.9871 -0.3941  2.7276
  259MPD2    H2 3980   4.511   0.182   1.677  3.0916  0.9237  0.7785
  259MPD2    H3 3981   4.630   4.738   1.687  0.0696  3.0073  1.4851
  259MPD2     N 3982   4.694   4.718   1.232 -0.5230  0.1972 -0.7267
  259MPD2    H5 3983   4.671   0.017   1.143 -0.7143  0.9568 -0.3084
  259MPD2    N1 3984   4.429   0.312   1.448 -0.2001 -0.4459  0.3064
  259MPD2    H7 3985   4.371   0.317   1.531 -1.8147  0.0341 -0.8652
  260TMC3    C1 3986   0.104   4.646   1.087  0.3536  0.3644 -0.3967
  260TMC3    C2 3987   0.237   4.627   1.063 -0.2525 -0.5162 -0.4781
  260TMC3    C3 3988   0.289   4.658   0.945 -0.4502 -0.8454  0.3314
  260TMC3    C4 3989   0.027   4.707   0.988  0.0865 -0.0886  0.3183
  260TMC3    C5 3990   0.086   0.003   0.873  0.3253 -0.4303  0.2426
  260TMC3    C6 3991   0.217   4.725   0.848 -0.0106 -0.0548 -0.5375
  260TMC3     C 3992   0.048   4.625   1.218 -0.6562 -0.2305 -0.0237
  260TMC3     O 3993   0.099   4.549   1.298  0.2229  0.2342 -0.0567
  260TMC3     H 3994   0.300   4.581   1.137  1.5744  1.5595 -0.7575
  260TMC3    H1 3995   4.663   4.712   0.998 -0.1046  0.7782 -2.3360
  260TMC3    H2 3996   0.260   0.010   0.753  1.4222 -1.8983 -0.4474
  260TMC3    C7 3997   0.006   0.012   0.758 -0.5482  0.8162 -0.4767
  260TMC3    C8 3998   0.386   4.566   0.893  0.0925  0.2559  0.6618
  260TMC3    O1 3999   0.063   4.722   0.659 -0.4289 -0.1967 -0.1662
  260TMC3    O2 4000   0.459   4.510   0.972  0.3169 -0.5620 -0.1092
  261MPD2     C 4001   2.213   3.991  12.562 -0.3281  0.1788  0.4660
  261MPD2    C1 4002   2.192   3.850  12.568 -0.2735  0.3178  0.2803
  261MPD2    C2 4003   2.131   3.784  12.461  0.4482 -0.1897 -0.9792
  261MPD2    C3 4004   2.100   3.857  12.350 -0.4094 -0.2138 -0.6139
  261MPD2    C4 4005   2.120   3.992  12.338 -0.6794 -0.0608  0.1318
  261MPD2    C5 4006   2.179   4.058  12.441  0.3419  0.3053 -0.2550
  261MPD2     H 4007   2.117   3.677  12.463 -1.4568  0.0667 -0.8825
  261MPD2    H1 4008   2.097   4.050  12.249  0.7886 -0.2352 -0.3599
  261MPD2    H2 4009   2.257   4.058  12.635  1.5483 -1.6197  0.9637
  261MPD2    H3 4010   2.188   4.166  12.436  0.9091  0.4279  3.2213
  261MPD2     N 4011   2.038   3.787  12.249 -0.3165 -0.0275 -0.5718
  261MPD2    H5 4012   2.022   3.689  12.267 -1.2501  0.3511  0.6635
  261MPD2    N1 4013   2.232   3.782  12.687 -0.3983  0.0867  0.8610
  261MPD2    H7 4014   2.215   3.681  12.689 -1.2538  0.2288  0.7426
  262TMC3    C1 4015   1.891   3.750  12.081 -0.3989 -0.2229  0.0660
  262TMC3    C2 4016   1.790   3.716  12.165  0.0777 -1.2743  0.7430
  262TMC3    C3 4017   1.657   3.706  12.120  0.1611  0.1029 -0.5439
  262TMC3    C4 4018   1.866   3.758  11.947 -0.2725 -0.2072 -0.2818
  262TMC3    C5 4019   1.736   3.747  11.901  0.4929  0.4922 -0.4867
  262TMC3    C6 4020   1.637   3.726  11.988 -0.3221 -0.2782  0.2357
  262TMC3     C 4021   2.005   3.831  12.127 -0.6991 -0.3599 -0.7146
  262TMC3     O 4022   2.058   3.915  12.055 -0.1791  0.4990 -0.1575
  262TMC3     H 4023   1.810   3.725  12.271  2.1384  0.0079  0.2283
  262TMC3    H1 4024   1.939   3.802  11.881  0.9720 -2.4454 -0.3853
  262TMC3    H2 4025   1.534   3.714  11.955 -0.0500 -1.7830 -0.0356
  262TMC3    C7 4026   1.693   3.834  11.796 -0.6333  0.1062  0.3138
  262TMC3    C8 4027   1.556   3.748  12.211  0.5169 -0.3773  1.1330
  262TMC3    O1 4028   1.769   3.858  11.698  0.3228  0.6192 -0.3859
  262TMC3    O2 4029   1.459   3.810  12.169 -0.5027 -0.1170  0.0748
  263MPD2     C 4030   2.417   3.042  11.933 -0.0422  0.0730  0.0998
  263MPD2    C1 4031   2.547   3.073  11.881  0.5650 -0.2309 -0.0391
  263MPD2    C2 4032   2.540   3.137  11.757  0.8068  0.1910 -0.3718
  263MPD2    C3 4033   2.430   3.179  11.695 -0.0975  0.4326  0.3995
  263MPD2    C4 4034   2.311   3.145  11.755  0.4438 -0.0450 -0.6576
  263MPD2    C5 4035   2.300   3.066  11.864  0.4384  0.2636 -0.8258
  263MPD2     H 4036   2.631   3.166  11.706  0.3494  0.8641 -0.8095
  263MPD2    H1 4037   2.218   3.174  11.709  0.2086  1.0258  0.5061
  263MPD2    H2 4038   2.418   2.983  12.024  1.2947 -1.5314 -0.9642
  263MPD2    H3 4039   2.199   3.041  11.895  1.9057 -2.9939  1.2743
  263MPD2     N 4040   2.438   3.248  11.571 -0.5826 -0.5194  0.7093
  263MPD2    H5 4041   2.530   3.267  11.535 -0.1640  0.0941  2.1000
  263MPD2    N1 4042   2.668   3.037  11.943 -0.4639 -0.3978  0.3403
  263MPD2    H7 4043   2.668   2.984  12.030  0.2049 -0.6221  0.1990
  264TMC3    C1 4044   2.407   3.441  11.451 -0.4558 -0.3566  0.3481
  264TMC3    C2 4045   2.391   3.564  11.516  0.0235  0.0355 -0.2662
  264TMC3    C3 4046   2.402   3.675  11.448  0.1427 -0.2948  0.0868
  264TMC3    C4 4047   2.467   3.425  11.328 -0.5054  0.3536  0.4826
  264TMC3    C5 4048   2.479   3.543  11.264 -0.8093  0.6254 -0.0064
  264TMC3    C6 4049   2.446   3.663  11.318  0.8015  1.0203  0.0777
  264TMC3     C 4050   2.343   3.329  11.514  0.6416  0.2970  0.1580
  264TMC3     O 4051   2.226   3.341  11.544  0.2594 -0.1265 -0.3478
  264TMC3     H 4052   2.333   3.564  11.607 -0.0924 -3.5818 -0.3058
  264TMC3    H1 4053   2.500   3.330  11.287  0.7169  0.6422  0.8111
  264TMC3    H2 4054   2.450   3.752  11.255  0.1806  1.8071  1.1469
  264TMC3    C7 4055   2.568   3.552  11.165  0.3073 -0.1729  0.2117
  264TMC3    C8 4056   2.409   3.805  11.505 -0.0040 -0.4145  0.0301
  264TMC3    O1 4057   2.624   3.659  11.153  0.0270 -0.1460 -0.4100
  264TMC3    O2 4058   2.392   3.901  11.431  0.1624 -0.0598 -0.5419
  265MPD2     C 4059   4.613   3.357  15.712 -0.3727  0.6748 -0.2066
  265MPD2    C1 4060   4.648   3.426  15.596  0.2874 -0.4689 -0.9126
  265MPD2    C2 4061   4.717   3.368  15.493  0.6988  0.3049 -0.2511
  265MPD2    C3 4062   0.002   3.230  15.494  0.2286  0.0789  0.9141
  265MPD2    C4 4063   4.711   3.160  15.607  0.2712 -0.1675  0.4356
  265MPD2    C5 4064   4.647   3.222  15.712  0.4634 -0.3391 -0.0030
  265MPD2     H 4065   4.739   3.425  15.404  1.8668  0.2591  0.0113
  265MPD2    H1 4066   4.721   3.052  15.606  0.9181 -0.1087 -0.5644
  265MPD2    H2 4067   4.580   3.399  15.806 -0.8994  1.9227 -0.9483
  265MPD2    H3 4068   4.622   3.158  15.796 -0.0155 -0.1888 -0.0304
  265MPD2     N 4069   0.066   3.161  15.389  0.6118 -0.2773 -0.4703
  265MPD2    H5 4070   0.073   3.060  15.387 -0.8652 -0.3801 -0.4050
  265MPD2    N1 4071   4.594   3.560  15.572  0.3711  0.2743 -0.4826
  265MPD2    H7 4072   4.615   3.607  15.485 -2.6198  0.6736 -0.9913
  266TMC3    C1 4073   4.495   3.784  15.612 -0.4430  0.6503 -0.4448
  266TMC3    C2 4074   4.420   3.863  15.693 -0.0313 -0.5749 -0.8326
  266TMC3    C3 4075   4.361   3.969  15.636  0.0453  0.0134 -0.0960
  266TMC3    C4 4076   4.523   3.822  15.482 -0.1757 -0.0381  0.1773
  266TMC3    C5 4077   4.462   3.930  15.434  0.7244  0.2811  0.0724
  266TMC3    C6 4078   4.379   4.004  15.508  0.1074 -0.2702 -0.3792
  266TMC3     C 4079   4.525   3.644  15.663 -0.1720  0.0711  0.1680
  266TMC3     O 4080   4.501   3.626  15.779 -0.4703 -0.6177 -0.3691
  266TMC3     H 4081   4.396   3.832  15.794  0.2780  1.2418 -0.1941
  266TMC3    H1 4082   4.558   3.756  15.404  1.3786 -1.1819  1.8540
  266TMC3    H2 4083   4.342   4.099  15.470 -0.2209  0.2119  1.1825
  266TMC3    C7 4084   4.434   3.930  15.288  0.4463  0.6847 -0.8873
  266TMC3    C8 4085   4.272   4.063  15.710  0.1626 -0.1356 -0.5138
  266TMC3    O1 4086   4.522   3.899  15.212  0.2018 -0.0451  0.6085
  266TMC3    O2 4087   4.191   4.128  15.643 -0.6490  0.0042  0.2403
  267MPD2     C 4088   1.705   1.281   0.544  0.2599  0.0309  0.1702
  267MPD2    C1 4089   1.711   1.176   0.459  0.8309  0.1550  0.1913
  267MPD2    C2 4090   1.640   1.175   0.341  0.6079  0.5843 -0.2424
  267MPD2    C3 4091   1.570   1.293   0.307 -0.3564  1.2335 -0.2869
  267MPD2    C4 4092   1.568   1.403   0.395 -0.6929  0.1169 -0.3817
  267MPD2    C5 4093   1.625   1.391   0.519 -0.0400 -0.9805 -0.6502
  267MPD2     H 4094   1.663   1.100   0.266 -3.9502 -0.8295 -0.2317
  267MPD2    H1 4095   1.502   1.487   0.378  0.4155  1.4364  1.9903
  267MPD2    H2 4096   1.771   1.285   0.629  0.9617  1.5082 -0.4284
  267MPD2    H3 4097   1.631   1.479   0.581  0.0441  0.4007 -2.6019
  267MPD2     N 4098   1.502   1.310   0.186 -0.5444 -0.2115 -0.0065
  267MPD2    H5 4099   1.449   1.397   0.179  0.3384  0.4380  1.4489
  267MPD2    N1 4100   1.788   1.063   0.490 -0.2974 -0.4775 -0.1694
  267MPD2    H7 4101   1.861   1.073   0.560 -1.6105 -2.1246  1.4262
  268TMC3    C1 4102   1.885   0.840   0.484  0.3629  0.5678 -0.2251
  268TMC3    C2 4103   2.005   0.882   0.443  0.2966 -0.3560 -0.0652
  268TMC3    C3 4104   2.109   0.788   0.432  0.1167  0.0275  0.1890
  268TMC3    C4 4105   1.860   0.710   0.493 -0.1057  1.1853  0.0881
  268TMC3    C5 4106   1.969   0.619   0.481  0.1072 -0.7997  0.4689
  268TMC3    C6 4107   2.096   0.654   0.455  0.2950  1.0300 -0.4131
  268TMC3     C 4108   1.773   0.930   0.447  0.0628  0.3672 -0.0941
  268TMC3     O 4109   1.673   0.879   0.401 -0.6254 -0.3324 -0.4849
  268TMC3     H 4110   2.025   0.987   0.423 -0.7048 -0.1582 -0.0188
  268TMC3    H1 4111   1.761   0.677   0.522  0.5032  1.8033  2.8746
  268TMC3    H2 4112   2.165   0.573   0.434 -0.4290 -0.1435  1.8109
  268TMC3    C7 4113   1.941   0.476   0.455  0.4497  0.8283 -0.0864
  268TMC3    C8 4114   2.230   0.824   0.359  0.1943 -0.2128 -0.1457
  268TMC3    O1 4115   2.035   0.400   0.477  0.3454 -0.2179  0.1809
  268TMC3    O2 4116   2.323   0.749   0.369  1.2529  0.7012 -0.3464
  269MPD2     C 4117   2.454   4.284  15.419  0.6889  0.0040 -0.1140
  269MPD2    C1 4118   2.370   4.329  15.519 -0.5132 -0.6301  0.2594
  269MPD2    C2 4119   2.310   4.452  15.510  0.0641 -0.2112  0.6628
  269MPD2    C3 4120   2.339   4.534  15.403  0.1150 -0.5566  0.1045
  269MPD2    C4 4121   2.426   4.487  15.302 -0.2391  0.1817 -0.2605
  269MPD2    C5 4122   2.466   4.357  15.306  0.4113  0.4972  0.7231
  269MPD2     H 4123   2.253   4.493  15.593  0.1214 -0.3717  0.7799
  269MPD2    H1 4124   2.436   4.548  15.213 -0.7151 -0.6537 -0.8904
  269MPD2    H2 4125   2.498   4.185  15.424 -0.5561 -0.6056 -1.1700
  269MPD2    H3 4126   2.527   4.320  15.224  2.4635 -0.0712  2.5198
  269MPD2     N 4127   2.286   4.666  15.399  0.1066 -0.4835  0.3224
  269MPD2    H5 4128   2.215   4.687  15.469 -2.6352 -0.8980 -2.3421
  269MPD2    N1 4129   2.363   4.241  15.630  0.2712  0.3210  0.5359
  269MPD2    H7 4130   2.405   4.150  15.616  0.5869  0.1431  2.7072
  270TMC3    C1 4131   2.301   4.127  15.814  0.5186  0.1014  0.0175
  270TMC3    C2 4132   2.181   4.061  15.834 -1.1076  0.4311  0.0112
  270TMC3    C3 4133   2.185   3.929  15.841  0.2592 -0.0589 -0.3405
  270TMC3    C4 4134   2.420   4.056  15.802 -0.1922 -0.1736 -0.1228
  270TMC3    C5 4135   2.412   3.923  15.799 -0.0595 -0.5745  0.3483
  270TMC3    C6 4136   2.295   3.857  15.814  0.1315  0.3273  0.2689
  270TMC3     C 4137   2.293   4.248  15.746 -0.1292 -0.2139 -0.2213
  270TMC3     O 4138   2.211   4.326  15.789 -0.2584 -0.0215  0.1309
  270TMC3     H 4139   2.086   4.110  15.844 -1.3036  0.3308 -1.3643
  270TMC3    H1 4140   2.507   4.115  15.777  0.3411 -1.5543 -1.5301
  270TMC3    H2 4141   2.291   3.751  15.838  1.8812  0.3143  0.4740
  270TMC3    C7 4142   2.543   3.853  15.789 -0.5309 -0.2866 -0.3713
  270TMC3    C8 4143   2.061   3.880  15.789 -0.1765 -0.7115  0.1350
  270TMC3    O1 4144   2.642   3.925  15.804 -0.2381 -0.6235  0.1672
  270TMC3    O2 4145   1.950   3.927  15.827  0.4492 -0.1550  0.2806
  271MPD2     C 4146   1.680   3.795  14.002 -0.3775  0.3530 -0.1495
  271MPD2    C1 4147   1.612   3.712  14.089  0.1585 -0.2289 -0.0996
  271MPD2    C2 4148   1.476   3.700  14.084  0.0233  0.2866  0.7888
  271MPD2    C3 4149   1.400   3.772  13.993  0.0759 -0.3166  0.2591
  271MPD2    C4 4150   1.471   3.865  13.912 -0.1218  0.5039 -0.2748
  271MPD2    C5 4151   1.609   3.878  13.922  0.2507  0.0792  0.4997
  271MPD2     H 4152   1.431   3.631  14.154  0.6893 -1.2568 -0.2984
  271MPD2    H1 4153   1.427   3.941  13.849 -1.2297  0.2011  0.1425
  271MPD2    H2 4154   1.788   3.787  13.988 -0.4276 -0.0870 -0.2705
  271MPD2    H3 4155   1.662   3.953  13.865  1.0550 -0.9030 -0.0523
  271MPD2     N 4156   1.255   3.766  13.983 -0.1091  0.1350 -0.2084
  271MPD2    H5 4157   1.215   3.835  13.921  0.0807  1.0096  0.6507
  271MPD2    N1 4158   1.674   3.616  14.173  0.3134 -0.7535  0.1215
  271MPD2    H7 4159   1.634   3.526  14.197  1.2868 -1.2546 -0.1323
  272TMC3    C1 4160   1.836   3.523  14.315  0.3903 -0.5103 -0.5324
  272TMC3    C2 4161   1.969   3.511  14.347 -0.5517 -0.3672 -0.6795
  272TMC3    C3 4162   1.995   3.454  14.470  0.2975 -0.4052  0.0932
  272TMC3    C4 4163   1.735   3.513  14.410 -0.1110 -0.3200 -0.0197
  272TMC3    C5 4164   1.779   3.462  14.526 -0.2132  0.4078 -0.5777
  272TMC3    C6 4165   1.906   3.429  14.564 -0.3120  0.7582 -0.3448
  272TMC3     C 4166   1.808   3.628  14.216  0.3039  0.2128 -0.6082
  272TMC3     O 4167   1.886   3.713  14.187  0.6582  0.0025 -0.0254
  272TMC3     H 4168   2.045   3.528  14.272 -1.3285 -2.2840 -1.9075
  272TMC3    H1 4169   1.631   3.538  14.393  0.0925  1.3207  1.1481
  272TMC3    H2 4170   1.918   3.394  14.666 -0.1898  0.0034 -0.6177
  272TMC3    C7 4171   1.692   3.502  14.634  0.6959 -0.6417 -0.3767
  272TMC3    C8 4172   2.129   3.397  14.478  0.4272 -0.1664 -0.7768
  272TMC3    O1 4173   1.570   3.498  14.621 -0.0273  0.0872 -0.2197
  272TMC3    O2 4174   2.201   3.406  14.378 -0.2952 -0.4489 -0.1111
  273MPD2     C 4175   3.934   1.973  12.248  0.3112  0.8226  0.1389
  273MPD2    C1 4176   3.936   2.104  12.219  0.3215  0.0180 -0.9106
  273MPD2    C2 4177   3.869   2.150  12.110 -0.0675  0.5450  0.2019
  273MPD2    C3 4178   3.811   2.059  12.028 -0.5366  0.3067  0.1609
  273MPD2    C4 4179   3.828   1.924  12.045  0.1260 -0.4311  0.5589
  273MPD2    C5 4180   3.897   1.886  12.155  0.3065 -0.2710 -0.7930
  273MPD2     H 4181   3.865   2.256  12.092 -0.5988  0.5191  0.1659
  273MPD2    H1 4182   3.787   1.851  11.977 -1.0123  1.5149 -0.8207
  273MPD2    H2 4183   3.983   1.941  12.338  1.1766 -2.6493 -1.5761
  273MPD2    H3 4184   3.912   1.781  12.179 -1.0381 -0.2450  0.1839
  273MPD2     N 4185   3.746   2.105  11.911 -0.0789 -0.0276  0.6464
  273MPD2    H5 4186   3.733   2.206  11.906 -0.3764 -0.1582 -1.0614
  273MPD2    N1 4187   3.976   2.190  12.313 -0.1679 -0.8708 -0.9121
  273MPD2    H7 4188   4.004   2.161  12.406 -0.3114  0.1371 -0.5556
  274TMC3    C1 4189   3.638   2.109  11.705  0.1711 -0.0396  0.5709
  274TMC3    C2 4190   3.538   2.045  11.633 -0.3359  0.6915  0.2912
  274TMC3    C3 4191   3.445   2.117  11.566 -0.4766  0.4421 -0.4537
  274TMC3    C4 4192   3.640   2.246  11.712 -0.0851 -0.4034 -0.6597
  274TMC3    C5 4193   3.549   2.310  11.635 -0.5777  0.2472  0.1038
  274TMC3    C6 4194   3.453   2.251  11.559 -0.4256  0.4170 -1.0029
  274TMC3     C 4195   3.685   2.032  11.817  0.3984  0.1021  0.4540
  274TMC3     O 4196   3.665   1.914  11.812  0.0697  0.2136 -0.0669
  274TMC3     H 4197   3.536   1.937  11.622  1.9837  0.8366 -1.5107
  274TMC3    H1 4198   3.718   2.303  11.762 -1.3629 -1.1189  2.1496
  274TMC3    H2 4199   3.377   2.302  11.501 -3.1644  0.5710  2.7278
  274TMC3    C7 4200   3.510   2.452  11.669  0.3365  0.6265  0.3072
  274TMC3    C8 4201   3.311   2.055  11.572 -0.5991 -0.2669  0.0872
  274TMC3    O1 4202   3.510   2.486  11.787  0.3400 -0.3746  0.0430
  274TMC3    O2 4203   3.298   1.961  11.652  0.7913  0.2030  0.0955
  275MPD2     C 4204   2.904   0.210  14.409 -0.3839  0.0765 -0.2219
  275MPD2    C1 4205   2.907   0.091  14.486 -0.3934  0.1264 -0.6279
  275MPD2    C2 4206   2.804   0.001  14.484 -0.3957  0.1068  0.1785
  275MPD2    C3 4207   2.685   0.026  14.413  0.6917 -0.2827  0.0843
  275MPD2    C4 4208   2.672   0.146  14.349  0.4132  0.4001  0.0491
  275MPD2    C5 4209   2.776   0.237  14.352  0.6742 -0.2891  0.2825
  275MPD2     H 4210   2.817   4.660  14.551 -0.4372 -0.4230 -0.4867
  275MPD2    H1 4211   2.582   0.169  14.292  1.7165  2.2467 -1.2697
  275MPD2    H2 4212   2.982   0.284  14.404 -0.3084  0.0960  1.3236
  275MPD2    H3 4213   2.761   0.324  14.289  0.3691 -0.7923 -0.3331
  275MPD2     N 4214   2.575   4.683  14.397 -0.7302 -0.1436 -0.8573
  275MPD2    H5 4215   2.498   4.715  14.339 -0.8101  0.7682 -0.2328
  275MPD2    N1 4216   3.017   0.057  14.567 -0.2270  0.7607  0.0589
  275MPD2    H7 4217   3.010   4.713  14.618  2.0159 -1.3447 -3.2508
  276TMC3    C1 4218   3.217   0.084  14.696  0.1355  0.4580 -0.0441
  276TMC3    C2 4219   3.247   4.694  14.701 -0.0705  0.1854 -0.4850
  276TMC3    C3 4220   3.367   4.651  14.772 -0.4476  0.1273 -0.1884
  276TMC3    C4 4221   3.304   0.176  14.748 -1.1643  0.1552  0.2688
  276TMC3    C5 4222   3.419   0.125  14.809  0.2361  1.3219 -0.2140
  276TMC3    C6 4223   3.451   4.741  14.827  0.1597  0.2658  0.0112
  276TMC3     C 4224   3.126   0.140  14.596 -0.0761 -0.6159 -0.3110
  276TMC3     O 4225   3.150   0.249  14.551  0.0193  0.1458  0.2757
  276TMC3     H 4226   3.188   4.616  14.653 -0.8931  0.9382 -0.6876
  276TMC3    H1 4227   3.281   0.282  14.744  0.5596  0.4342 -2.4574
  276TMC3    H2 4228   3.537   4.723  14.890 -0.4259  1.2984  1.1107
  276TMC3    C7 4229   3.515   0.217  14.862 -0.3824 -0.0294  0.2494
  276TMC3    C8 4230   3.428   4.529  14.716 -0.6144 -0.4067  0.1596
  276TMC3    O1 4231   3.568   0.189  14.966  0.0135  0.0952 -0.0019
  276TMC3    O2 4232   3.547   4.533  14.698  0.0202 -0.1831  0.2908
  277MPD2     C 4233   4.605   4.066  12.837  0.0131  0.5221 -0.0680
  277MPD2    C1 4234   4.476   4.096  12.877  0.1614 -0.4779  0.4981
  277MPD2    C2 4235   4.418   4.026  12.988  0.0123  0.3404  0.1226
  277MPD2    C3 4236   4.485   3.922  13.046 -0.2841  0.0603  0.0834
  277MPD2    C4 4237   4.612   3.892  13.001 -0.0814 -0.4728  0.0330
  277MPD2    C5 4238   4.673   3.958  12.895 -1.1845  0.4900 -0.7055
  277MPD2     H 4239   4.328   4.065  13.033 -0.2215  1.5135 -1.3612
  277MPD2    H1 4240   4.671   3.811  13.041 -0.1130  0.1833  1.4052
  277MPD2    H2 4241   4.651   4.122  12.755  0.2276  1.1596  0.4856
  277MPD2    H3 4242   0.032   3.944  12.864 -1.5535 -1.5718 -1.0230
  277MPD2     N 4243   4.425   3.863  13.158  0.5582  0.1853  0.0905
  277MPD2    H5 4244   4.347   3.911  13.202  1.9633  1.7455  0.9186
  277MPD2    N1 4245   4.405   4.204  12.821  0.3724 -1.0099 -0.7114
  277MPD2    H7 4246   4.460   4.273  12.770 -0.9932 -0.3471 -1.2717
  278TMC3    C1 4247   4.395   3.709  13.337  0.3398 -0.4455 -0.2467
  278TMC3    C2 4248   4.471   3.628  13.419 -0.5959  0.5709  0.4056
  278TMC3    C3 4249   4.412   3.580  13.527  0.4745  0.6081 -0.1964
  278TMC3    C4 4250   4.276   3.759  13.368  0.4436 -0.2888  0.4528
  278TMC3    C5 4251   4.225   3.712  13.485 -0.9052 -0.0023 -0.0404
  278TMC3    C6 4252   4.291   3.625  13.573 -1.1314  0.9042  0.3616
  278TMC3     C 4253   4.467   3.747  13.216 -0.1659  0.2809 -0.1025
  278TMC3     O 4254   4.543   3.665  13.170 -0.0994 -0.2054 -0.3248
  278TMC3     H 4255   4.565   3.595  13.377 -1.2283 -0.6574 -0.0602
  278TMC3    H1 4256   4.219   3.823  13.303  0.2446  0.6926  1.5906
  278TMC3    H2 4257   4.248   3.582  13.662  1.3139  0.5078  1.3262
  278TMC3    C7 4258   4.092   3.744  13.521 -0.1920 -0.0810  0.2195
  278TMC3    C8 4259   4.427   3.440  13.568  0.5525 -0.3213  0.1002
  278TMC3    O1 4260   4.059   3.860  13.495 -0.0269 -0.1427 -0.5873
  278TMC3    O2 4261   4.493   3.428  13.671 -0.3628 -0.6359  0.8260
  279MPD2     C 4262   3.985   3.753   0.070  0.3926  0.3472  0.1811
  279MPD2    C1 4263   3.884   3.785   0.159  0.0714 -0.0051 -0.3742
  279MPD2    C2 4264   3.800   3.895   0.129 -0.2520  0.8455 -0.9775
  279MPD2    C3 4265   3.803   3.951   0.004 -0.7670  0.1483 -1.2233
  279MPD2    C4 4266   3.898   3.909  17.677 -0.1924 -0.6051  0.2932
  279MPD2    C5 4267   3.985   3.805  17.714 -0.3194 -0.0201  0.4149
  279MPD2     H 4268   3.738   3.939   0.207  0.6016  0.9220 -0.3459
  279MPD2    H1 4269   3.908   3.945  17.575  1.2771 -0.1167  0.6005
  279MPD2    H2 4270   4.059   3.678   0.095  0.5676  0.4683  0.0281
  279MPD2    H3 4271   4.058   3.780  17.638 -0.7148 -1.1771  0.4030
  279MPD2     N 4272   3.723   4.064  17.737  0.1419  0.6095  0.3284
  279MPD2    H5 4273   3.730   4.088  17.639 -0.7709  0.6808  0.2864
  279MPD2    N1 4274   3.885   3.709   0.276  0.1250 -0.0152 -0.1959
  279MPD2    H7 4275   3.971   3.664   0.303 -0.8655 -0.8988  1.4494
  280TMC3    C1 4276   3.650   3.721   0.300  0.0925  0.0137 -0.1518
  280TMC3    C2 4277   3.624   3.652   0.183 -0.3204  0.0824 -0.5392
  280TMC3    C3 4278   3.496   3.663   0.137 -0.3446 -0.0644 -0.7217
  280TMC3    C4 4279   3.563   3.808   0.359 -0.3230  0.1728  0.3520
  280TMC3    C5 4280   3.440   3.816   0.304 -0.7268 -0.5247 -0.1564
  280TMC3    C6 4281   3.400   3.741   0.198 -0.4191 -0.2192 -0.7215
  280TMC3     C 4282   3.777   3.697   0.361 -0.2349  0.4801 -0.2543
  280TMC3     O 4283   3.774   3.665   0.479  0.2386 -0.8256 -0.0820
  280TMC3     H 4284   3.699   3.586   0.141 -0.2081 -0.2252  0.1365
  280TMC3    H1 4285   3.590   3.844   0.458 -0.9780 -1.3561  1.0924
  280TMC3    H2 4286   3.298   3.731   0.162 -0.6493 -1.7143  0.3438
  280TMC3    C7 4287   3.356   3.929   0.352  0.3433 -0.2068 -0.1947
  280TMC3    C8 4288   3.468   3.620   0.001 -0.2448 -0.5099  0.4558
  280TMC3    O1 4289   3.365   3.967   0.471 -0.1675 -0.2940  0.1554
  280TMC3    O2 4290   3.376   3.672  17.714 -0.1935  0.7809 -0.1358
  281TMC3    C1 4291   2.994   3.900  13.854  0.2002  0.5892 -0.1858
  281TMC3    C2 4292   3.094   3.959  13.780  0.9573  0.0024  0.2780
  281TMC3    C3 4293   3.132   3.910  13.657 -0.7972 -0.3257  0.2946
  281TMC3    C4 4294   2.927   3.790  13.810  0.0883 -0.8870  0.3381
  281TMC3    C5 4295   2.967   3.739  13.691  0.3095 -0.3856 -0.1020
  281TMC3    C6 4296   3.062   3.798  13.614 -0.3474 -0.3069 -0.0387
  281TMC3     C 4297   2.916   3.984  13.936  0.1560 -0.0842  0.0271
  281TMC3     O 4298   2.828   3.931  14.006  0.2487 -0.7313  0.6605
  281TMC3     H 4299   3.144   4.048  13.818  0.2462  1.3580 -1.9604
  281TMC3    H1 4300   2.833   3.758  13.852  0.0717 -1.2562  0.0205
  281TMC3    H2 4301   3.095   3.750  13.523 -0.6797  0.4435 -0.5559
  281TMC3    C7 4302   2.885   3.638  13.626  0.9959 -0.1790 -0.7362
  281TMC3    C8 4303   3.235   3.951  13.564 -0.3737  0.0272 -0.2696
  281TMC3    O1 4304   2.919   3.601  13.516 -0.2950  0.4493  0.2505
  281TMC3    O2 4305   3.291   3.864  13.500 -0.1333  0.5098 -0.4985
  282MPD2     C 4306   4.595   0.141  14.937 -0.6484  0.3908  0.1240
  282MPD2    C1 4307   4.488   0.216  14.902  0.2638  0.2316 -0.2011
  282MPD2    C2 4308   4.458   0.242  14.768  0.9029 -0.5258  0.8017
  282MPD2    C3 4309   4.535   0.184  14.670  0.2523 -0.0713  0.2224
  282MPD2    C4 4310   4.652   0.123  14.703 -0.1847 -0.4488  0.8557
  282MPD2    C5 4311   4.679   0.098  14.834 -0.2011 -0.3454 -0.4529
  282MPD2     H 4312   4.372   0.301  14.737  1.3157 -1.2549 -1.7152
  282MPD2    H1 4313   4.723   0.078  14.634  1.0666  1.4300  0.9176
  282MPD2    H2 4314   4.622   0.107  15.037  0.2299 -1.1762 -0.6496
  282MPD2    H3 4315   0.012   0.025  14.857 -0.8334 -2.5222 -5.3388
  282MPD2     N 4316   4.494   0.200  14.540  0.1985 -0.0178 -0.0673
  282MPD2    H5 4317   4.417   0.261  14.514  0.0762  0.3196  1.0826
  282MPD2    N1 4318   4.399   0.278  14.992 -0.1660  0.0448  0.7095
  282MPD2    H7 4319   4.335   0.351  14.962  1.8319  0.9991 -1.2110
  283TMC3    C1 4320   4.305   0.337  15.198 -0.3495 -0.3075 -0.2306
  283TMC3    C2 4321   4.350   0.467  15.186  0.3830  0.3361 -0.1785
  283TMC3    C3 4322   4.337   0.542  15.303 -0.0411  0.0580  0.1594
  283TMC3    C4 4323   4.258   0.289  15.314 -0.0705  0.0532 -0.0692
  283TMC3    C5 4324   4.247   0.366  15.420  0.2264  0.6296  0.4000
  283TMC3    C6 4325   4.297   0.493  15.420  0.2831 -0.1305 -0.4680
  283TMC3     C 4326   4.385   0.248  15.126 -0.7079 -0.1433  0.0267
  283TMC3     O 4327   4.459   0.177  15.192  0.2411 -0.3058  0.3349
  283TMC3     H 4328   4.397   0.517  15.102 -1.0190 -0.7859 -1.6232
  283TMC3    H1 4329   4.236   0.184  15.328 -0.6154  0.1200 -0.4205
  283TMC3    H2 4330   4.283   0.555  15.508  0.9616 -0.6462 -0.0005
  283TMC3    C7 4331   4.135   0.336  15.512 -0.1105 -0.4125  0.3005
  283TMC3    C8 4332   4.411   0.662  15.304  0.3008 -0.3914 -0.0250
  283TMC3    O1 4333   4.121   0.407  15.610 -0.2359  0.0015 -0.1097
  283TMC3    O2 4334   4.419   0.709  15.193 -0.1451 -0.3912 -0.3816
  284MPD2     C 4335   2.397   0.009  12.418  0.4565  0.4135  0.5443
  284MPD2    C1 4336   2.489   4.740  12.319  0.2958  0.6147  0.0261
  284MPD2    C2 4337   2.600   4.665  12.341  0.1058 -0.0209 -0.0946
  284MPD2    C3 4338   2.614   4.578  12.452 -0.0526 -0.4869 -0.1923
  284MPD2    C4 4339   2.519   4.588  12.543  0.0822  0.6967  0.9578
  284MPD2    C5 4340   2.414   4.673  12.527 -0.1563 -0.0588 -0.0578
  284MPD2     H 4341   2.664   4.664  12.253  0.3559 -0.0536  0.0886
  284MPD2    H1 4342   2.523   4.535  12.638 -0.6018 -1.6087 -0.3226
  284MPD2    H2 4343   2.308   0.070  12.403  1.2306  0.9140 -1.9939
  284MPD2    H3 4344   2.337   4.672  12.604 -2.3518  1.5980 -2.2179
  284MPD2     N 4345   2.730   4.507  12.478  0.0552  0.8257  0.0528
  284MPD2    H5 4346   2.737   4.473  12.574 -1.0147  0.9153  0.1679
  284MPD2    N1 4347   2.496   0.077  12.204 -0.2508  0.0253 -0.2507
  284MPD2    H7 4348   2.589   0.085  12.165  0.9415  1.5191  2.9076
  285TMC3    C1 4349   2.438   0.232  12.041  0.6309  0.5692 -0.4378
  285TMC3    C2 4350   2.524   0.174  11.955  0.0556  0.1604 -0.3564
  285TMC3    C3 4351   2.610   0.246  11.881 -0.0464 -0.0428  0.5560
  285TMC3    C4 4352   2.432   0.368  12.057  0.0216 -0.8314 -0.1494
  285TMC3    C5 4353   2.514   0.439  11.981 -0.1362 -0.0855 -0.6100
  285TMC3    C6 4354   2.602   0.383  11.887 -0.3702 -0.3244  0.0165
  285TMC3     C 4355   2.398   0.158  12.155 -0.7670  0.6533  0.6818
  285TMC3     O 4356   2.285   0.185  12.196  0.6262 -0.6112 -0.1281
  285TMC3     H 4357   2.531   0.065  11.952  1.1680  0.2340 -0.2073
  285TMC3    H1 4358   2.362   0.413  12.126  0.7166 -0.4185  0.2862
  285TMC3    H2 4359   2.664   0.438  11.818 -0.4430  0.1205  0.3088
  285TMC3    C7 4360   2.471   0.577  11.958  0.2970 -0.7658 -0.0350
  285TMC3    C8 4361   2.685   0.170  11.776 -0.3033  0.2160  0.7986
  285TMC3    O1 4362   2.556   0.655  11.911  0.1345 -0.1819  0.4708
  285TMC3    O2 4363   2.678   0.050  11.781 -0.0706  0.3006  0.2498
  286MPD2     C 4364   2.188   3.502   1.187 -0.1332 -0.0021 -0.7336
  286MPD2    C1 4365   2.295   3.579   1.141 -1.2840 -0.3196 -0.0338
  286MPD2    C2 4366   2.420   3.526   1.140  0.3622  0.2413 -0.0549
  286MPD2    C3 4367   2.446   3.419   1.217 -0.0168 -0.4839 -0.1150
  286MPD2    C4 4368   2.350   3.357   1.286 -0.2094 -0.1429 -0.5261
  286MPD2    C5 4369   2.221   3.395   1.268  0.4635 -0.1260 -0.0490
  286MPD2     H 4370   2.503   3.578   1.094  0.7508 -0.5086 -0.2014
  286MPD2    H1 4371   2.375   3.264   1.336  1.2549  0.6958  0.3084
  286MPD2    H2 4372   2.085   3.531   1.174 -0.2871  0.0144  0.5385
  286MPD2    H3 4373   2.146   3.333   1.316  0.3491  0.2241  0.2241
  286MPD2     N 4374   2.577   3.372   1.213 -1.2940 -0.2776 -1.0322
  286MPD2    H5 4375   2.638   3.415   1.144 -0.2472  1.5912  1.0058
  286MPD2    N1 4376   2.286   3.702   1.081 -0.4679 -0.0955 -0.2514
  286MPD2    H7 4377   2.362   3.740   1.025 -0.2704  1.9418  1.4110
  287TMC3    C1 4378   2.776   3.258   1.276  0.4389  0.1190  0.2408
  287TMC3    C2 4379   2.808   3.223   1.146 -0.0437 -0.0968 -0.5655
  287TMC3    C3 4380   2.929   3.165   1.124 -0.1943  0.7651  0.1997
  287TMC3    C4 4381   2.868   3.235   1.374  1.2552  0.0629  0.3119
  287TMC3    C5 4382   2.989   3.175   1.347  0.2216  0.5805  0.1778
  287TMC3    C6 4383   3.026   3.139   1.216 -0.2125 -0.6294  0.1044
  287TMC3     C 4384   2.645   3.304   1.309 -0.4633  0.4603 -0.4427
  287TMC3     O 4385   2.602   3.257   1.415 -0.1952  0.1687 -0.2283
  287TMC3     H 4386   2.736   3.235   1.065  0.4999  0.1472 -1.0086
  287TMC3    H1 4387   2.859   3.274   1.475 -2.1177 -1.0392  0.4432
  287TMC3    H2 4388   3.116   3.080   1.201 -0.3705 -0.8029 -0.1476
  287TMC3    C7 4389   3.100   3.219   1.430 -0.1974 -0.4996  0.0309
  287TMC3    C8 4390   2.951   3.115   0.985  0.0629  0.0585 -0.6411
  287TMC3    O1 4391   3.087   3.319   1.498 -0.4253  0.1055 -0.3670
  287TMC3    O2 4392   2.862   3.074   0.911  0.5324 -0.2854  0.1344
  288TMC3    C1 4393   0.156   2.703  14.428  0.6882  0.4667  0.4938
  288TMC3    C2 4394   0.141   2.795  14.530  0.3042 -0.0746  0.7730
  288TMC3    C3 4395   0.136   2.928  14.489 -0.0009  0.2053  0.0841
  288TMC3    C4 4396   0.167   2.739  14.291  0.1775  0.5478  0.0591
  288TMC3    C5 4397   0.165   2.873  14.265  0.2803 -0.8987  0.9383
  288TMC3    C6 4398   0.152   2.969  14.364 -0.1135  0.0825  0.0415
  288TMC3     C 4399   0.173   2.560  14.452 -0.2612 -0.2943 -0.3328
  288TMC3     O 4400   0.153   2.481  14.359 -0.1461 -0.0990  0.2172
  288TMC3     H 4401   0.136   2.767  14.635  0.1211 -1.1194  0.4893
  288TMC3    H1 4402   0.202   2.673  14.213  0.3124  0.0969  0.5041
  288TMC3    H2 4403   0.135   3.074  14.343  0.5066  0.5238  1.7355
  288TMC3    C7 4404   0.170   2.915  14.128  0.5677  0.1373  0.2837
  288TMC3    C8 4405   0.048   3.015  14.563 -0.0610  0.8252  0.0286
  288TMC3    O1 4406   0.089   2.871  14.050  0.0408  0.0627 -0.0406
  288TMC3    O2 4407   0.073   3.135  14.573  0.1462  0.3378 -0.2608
  289MPD2     C 4408   0.060   2.774  13.687 -0.6694 -0.2617  0.7400
  289MPD2    C1 4409   4.691   2.724  13.619 -0.2462  0.5157 -0.0585
  289MPD2    C2 4410   4.647   2.595  13.665 -0.2178  0.3616  0.1340
  289MPD2    C3 4411   4.709   2.529  13.773 -0.0344 -0.3576  0.4770
  289MPD2    C4 4412   0.075   2.584  13.831 -0.7550  0.4268  0.0799
  289MPD2    C5 4413   0.117   2.705  13.781 -0.1960  0.0638  0.0363
  289MPD2     H 4414   4.554   2.556  13.625  0.4900  1.6306 -2.7661
  289MPD2    H1 4415   0.137   2.547  13.911 -2.7241  1.9724  2.3022
  289MPD2    H2 4416   0.096   2.873  13.660 -1.8273 -0.9128 -3.1766
  289MPD2    H3 4417   0.189   2.748  13.849 -0.4954  1.1856 -0.3648
  289MPD2     N 4418   4.658   2.416  13.833  0.3740 -0.0471 -0.1538
  289MPD2    H5 4419   4.696   2.374  13.918  0.4648 -0.4311 -0.3870
  289MPD2    N1 4420   4.629   2.796  13.514  0.6358  0.2637  0.0144
  289MPD2    H7 4421   4.678   2.882  13.492 -0.4860  1.6035  2.7818
  290TMC3    C1 4422   4.512   2.241  13.867  0.0397  0.5279  0.9274
  290TMC3    C2 4423   4.486   2.274  13.998  0.0320 -0.4460  0.7143
  290TMC3    C3 4424   4.388   2.208  14.073  0.1801  0.2811  0.1347
  290TMC3    C4 4425   4.462   2.123  13.810 -0.4229 -0.4281  0.5438
  290TMC3    C5 4426   4.382   2.050  13.898  0.6573  0.7199 -0.7087
  290TMC3    C6 4427   4.350   2.085  14.024  0.9351  0.2623 -1.0061
  290TMC3     C 4428   4.553   2.345  13.778 -0.3450 -1.0589 -0.3459
  290TMC3     O 4429   4.506   2.338  13.668  0.3542  0.2175  0.4522
  290TMC3     H 4430   4.517   2.371  14.035 -0.7632  0.4304 -0.9229
  290TMC3    H1 4431   4.479   2.089  13.709  2.0222  0.6444  0.5981
  290TMC3    H2 4432   4.271   2.029  14.072  0.6250  0.6192 -1.1065
  290TMC3    C7 4433   4.277   1.955  13.836  0.0807 -0.1492  0.5818
  290TMC3    C8 4434   4.272   2.284  14.120 -0.2924  0.8221 -0.2180
  290TMC3    O1 4435   4.246   1.988  13.719  0.1617  0.1072  0.0404
  290TMC3    O2 4436   4.161   2.240  14.089  0.2186 -0.1590  0.4926
  291MPD2     C 4437   4.418   2.468   0.077 -0.3819 -0.4583  0.0086
  291MPD2    C1 4438   4.323   2.557   0.117 -0.8787 -0.7571  0.0460
  291MPD2    C2 4439   4.362   2.668   0.185  0.5840  0.0715 -0.0339
  291MPD2    C3 4440   4.495   2.706   0.206 -0.4983 -0.0478 -0.2906
  291MPD2    C4 4441   4.590   2.615   0.171 -0.1079 -0.8380 -0.4360
  291MPD2    C5 4442   4.550   2.494   0.110  0.0540  0.2204  0.4441
  291MPD2     H 4443   4.285   2.738   0.217  0.1125 -0.9174  0.9810
  291MPD2    H1 4444   4.695   2.625   0.193 -0.3306 -0.6474  0.5609
  291MPD2    H2 4445   4.397   2.372   0.031 -0.7773 -0.9338  1.1792
  291MPD2    H3 4446   4.620   2.415   0.087 -1.8722 -1.2948 -0.2532
  291MPD2     N 4447   4.533   2.813   0.276  0.5890  0.0264  0.5050
  291MPD2    H5 4448   4.632   2.826   0.293  0.5745  1.3845 -0.4280
  291MPD2    N1 4449   4.176   2.537   0.099 -0.0528  0.0324 -0.1643
  291MPD2    H7 4450   4.117   2.600   0.153  1.7583  2.4807 -1.0368
  292TMC3    C1 4451   3.979   2.415   0.081  0.1282  0.5727 -0.8783
  292TMC3    C2 4452   3.919   2.496   0.173  0.3793  0.2995 -0.0694
  292TMC3    C3 4453   3.783   2.470   0.207  0.2001 -0.0350 -0.2896
  292TMC3    C4 4454   3.925   2.307   0.027  0.2272  0.8552  0.6337
  292TMC3    C5 4455   3.793   2.287   0.055  0.2713 -0.1827  0.2648
  292TMC3    C6 4456   3.721   2.365   0.144 -0.2016  0.3384 -0.1369
  292TMC3     C 4457   4.120   2.425   0.048 -0.2341  0.0836 -0.4134
  292TMC3     O 4458   4.175   2.326   0.005 -0.5193 -0.0395  0.0454
  292TMC3     H 4459   3.977   2.552   0.245 -1.3868 -2.3214  3.4115
  292TMC3    H1 4460   3.967   2.232  17.733  3.8756  2.6491  0.9054
  292TMC3    H2 4461   3.616   2.341   0.157  0.2603 -1.6529 -0.2227
  292TMC3    C7 4462   3.717   2.210  17.728 -0.4111 -0.0613 -0.4841
  292TMC3    C8 4463   3.759   2.477   0.347 -0.0677  0.1801 -0.2793
  292TMC3    O1 4464   3.615   2.267  17.688 -0.2213  0.0602 -0.3384
  292TMC3    O2 4465   3.799   2.573   0.405 -0.6263 -0.3902  0.5944
  293MPD2     C 4466   1.208   3.416  12.679 -0.4499 -0.1986  0.1025
  293MPD2    C1 4467   1.094   3.440  12.752  0.4691  0.5323 -0.7878
  293MPD2    C2 4468   1.090   3.472  12.889  0.6141  0.5944  0.0334
  293MPD2    C3 4469   1.213   3.495  12.957 -0.4794 -0.4188  0.2157
  293MPD2    C4 4470   1.329   3.469  12.883 -0.2233  0.0393  0.1770
  293MPD2    C5 4471   1.323   3.438  12.748  0.1201  0.1973  0.1301
  293MPD2     H 4472   0.997   3.481  12.944  0.0925  1.9057 -1.0650
  293MPD2    H1 4473   1.429   3.471  12.926 -0.6219  1.2204  1.0670
  293MPD2    H2 4474   1.214   3.384  12.575 -2.3267  1.6846 -0.6060
  293MPD2    H3 4475   1.417   3.403  12.706 -1.4518 -1.9677 -1.5858
  293MPD2     N 4476   1.220   3.522  13.103 -0.1055  0.1339 -0.0112
  293MPD2    H5 4477   1.126   3.532  13.140  0.6998  0.9543  1.8187
  293MPD2    N1 4478   0.979   3.430  12.670  0.2232  0.3404  0.0958
  293MPD2    H7 4479   0.993   3.431  12.570  0.1812 -0.9819  0.0755
  294TMC3    C1 4480   0.749   3.482  12.622  0.1264 -0.5195  0.4969
  294TMC3    C2 4481   0.623   3.498  12.670 -0.0074 -0.3098  0.9153
  294TMC3    C3 4482   0.522   3.528  12.578  0.2182  0.2541 -0.4255
  294TMC3    C4 4483   0.784   3.509  12.491  0.0641 -0.5070 -0.2290
  294TMC3    C5 4484   0.682   3.532  12.404 -0.1460  0.2911 -0.3688
  294TMC3    C6 4485   0.554   3.543  12.447  0.1152  0.7128  0.2783
  294TMC3     C 4486   0.849   3.444  12.722 -0.3309 -0.2775 -0.0129
  294TMC3     O 4487   0.803   3.437  12.837 -0.1125  0.7027  0.2687
  294TMC3     H 4488   0.597   3.467  12.770  1.6862  0.9222  1.7293
  294TMC3    H1 4489   0.885   3.502  12.453  0.0480  0.4273 -0.4292
  294TMC3    H2 4490   0.469   3.559  12.383  1.0811 -1.8593 -1.6420
  294TMC3    C7 4491   0.702   3.544  12.261  0.3312 -0.3080  0.9682
  294TMC3    C8 4492   0.395   3.464  12.612 -0.0351 -0.1010  0.3202
  294TMC3    O1 4493   0.623   3.625  12.210  0.4057 -0.4567  0.4276
  294TMC3    O2 4494   0.346   3.501  12.718  0.1106  0.6761 -0.0841
  295MPD2     C 4495   2.035   2.613   0.130 -0.2841  0.2032 -1.1445
  295MPD2    C1 4496   1.907   2.663   0.168 -0.4318 -0.1397 -0.2116
  295MPD2    C2 4497   1.855   2.625   0.292 -0.2151  0.3493 -0.2145
  295MPD2    C3 4498   1.919   2.534   0.374  0.2121  0.5264  0.4344
  295MPD2    C4 4499   2.042   2.480   0.325  0.2055  0.3016 -0.3930
  295MPD2    C5 4500   2.095   2.522   0.207 -0.4033  0.4863 -0.4277
  295MPD2     H 4501   1.758   2.661   0.327  0.6641  1.2444  1.3118
  295MPD2    H1 4502   2.100   2.418   0.393  1.1993 -0.9402 -2.4021
  295MPD2    H2 4503   2.097   2.649   0.049  2.3737 -0.9121  0.4158
  295MPD2    H3 4504   2.191   2.491   0.168 -0.1256 -0.1742  0.7490
  295MPD2     N 4505   1.889   2.509   0.507  0.2860  0.6898  0.1447
  295MPD2    H5 4506   1.948   2.441   0.555 -0.8614  0.8023  1.7185
  295MPD2    N1 4507   1.828   2.749   0.090 -0.8976  0.1501  0.4640
  295MPD2    H7 4508   1.734   2.767   0.124 -0.4348  1.0058  1.3082
  296TMC3    C1 4509   1.779   2.522   0.728  0.0859 -0.0091  0.1659
  296TMC3    C2 4510   1.728   2.618   0.816 -0.2698  0.0280 -0.3523
  296TMC3    C3 4511   1.711   2.576   0.947 -0.4654  0.2757 -0.0676
  296TMC3    C4 4512   1.804   2.397   0.757  0.4472  0.3291 -0.6359
  296TMC3    C5 4513   1.781   2.360   0.886  0.5091  0.2311 -0.3011
  296TMC3    C6 4514   1.730   2.442   0.982 -0.2220 -0.1573  0.4214
  296TMC3     C 4515   1.795   2.571   0.591  0.4342  0.3743  0.1909
  296TMC3     O 4516   1.732   2.667   0.560  0.0437  0.0812  0.7053
  296TMC3     H 4517   1.718   2.717   0.774 -0.5108 -0.3789 -1.2649
  296TMC3    H1 4518   1.853   2.330   0.687  0.0312 -1.6389  0.9589
  296TMC3    H2 4519   1.711   2.400   1.080  2.0886 -1.4594  0.3175
  296TMC3    C7 4520   1.774   2.217   0.916  0.5162  0.7584  0.0071
  296TMC3    C8 4521   1.632   2.668   1.035  0.3342  1.1812  1.1266
  296TMC3    O1 4522   1.873   2.150   0.906 -0.1256  0.1177 -0.3758
  296TMC3    O2 4523   1.544   2.723   0.973 -0.3647  0.1858  0.2247
  297MPD2     C 4524   3.429   4.417  16.560 -0.2181  0.1306  0.3793
  297MPD2    C1 4525   3.433   4.463  16.427 -0.1970 -0.3936  0.3188
  297MPD2    C2 4526   3.544   4.544  16.385  0.7923 -0.2538 -0.4523
  297MPD2    C3 4527   3.657   4.565  16.465 -0.4229  0.2136 -0.0483
  297MPD2    C4 4528   3.641   4.522  16.594  0.3380 -0.3676  0.4577
  297MPD2    C5 4529   3.532   4.463  16.643 -0.4763 -0.0523 -0.2827
  297MPD2     H 4530   3.545   4.583  16.284  0.6735  0.2696 -0.2501
  297MPD2    H1 4531   3.724   4.529  16.663  0.8211 -0.7689 -0.0890
  297MPD2    H2 4532   3.344   4.367  16.606 -0.3125 -0.4026 -0.3621
  297MPD2    H3 4533   3.531   4.442  16.750  0.2301  1.1655 -0.0344
  297MPD2     N 4534   3.768   4.640  16.411 -0.5674  0.5997  0.4725
  297MPD2    H5 4535   3.772   4.659  16.311  0.0464 -1.3222  0.1277
  297MPD2    N1 4536   3.318   4.446  16.339  0.7520 -0.2739 -0.6106
  297MPD2    H7 4537   3.319   4.481  16.244  0.4284  2.3692  0.3760
  298TMC3    C1 4538   3.089   4.415  16.283  0.8889 -0.0531  0.5113
  298TMC3    C2 4539   3.126   4.411  16.156  0.5489  0.3574  0.5316
  298TMC3    C3 4540   3.025   4.431  16.061  0.0771 -0.1362  0.5325
  298TMC3    C4 4541   2.958   4.435  16.321 -0.0188  0.0221  0.1621
  298TMC3    C5 4542   2.861   4.472  16.227 -0.0229 -0.8329 -0.6630
  298TMC3    C6 4543   2.897   4.479  16.098  0.1361  0.2139 -0.3793
  298TMC3     C 4544   3.193   4.412  16.384 -0.5581 -0.1096  0.4646
  298TMC3     O 4545   3.151   4.374  16.493  0.3928 -0.7425  0.5031
  298TMC3     H 4546   3.226   4.384  16.124  0.3975  1.4980 -0.9614
  298TMC3    H1 4547   2.933   4.436  16.426  2.1007  0.4179  0.6562
  298TMC3    H2 4548   2.828   4.509  16.021  0.4410  2.3377  0.1744
  298TMC3    C7 4549   2.755   4.558  16.279  0.1136 -0.6917  0.7817
  298TMC3    C8 4550   3.062   4.416  15.921 -0.2615  0.3786 -0.0698
  298TMC3    O1 4551   2.765   4.580  16.398 -0.2511  0.5136 -0.2856
  298TMC3    O2 4552   3.157   4.345  15.904 -0.2962 -0.1730  0.3837
  299MPD2     C 4553   3.896   4.364  10.967 -0.4246  0.7128  0.1424
  299MPD2    C1 4554   3.932   4.428  10.851 -0.0904 -0.4813  0.0034
  299MPD2    C2 4555   3.861   4.419  10.736  0.1953 -0.3759 -0.1147
  299MPD2    C3 4556   3.745   4.341  10.740 -0.2860  0.0722  0.2846
  299MPD2    C4 4557   3.696   4.293  10.856  0.1233 -0.1945 -0.1438
  299MPD2    C5 4558   3.777   4.302  10.970  0.7727  0.0741 -0.8931
  299MPD2     H 4559   3.903   4.469  10.650 -1.0649  1.6241  0.4374
  299MPD2    H1 4560   3.601   4.240  10.849  0.1054 -0.0188 -1.1967
  299MPD2    H2 4561   3.945   4.372  11.063 -1.4359  0.9498  0.6364
  299MPD2    H3 4562   3.752   4.260  11.067  2.0776 -1.5120 -1.2365
  299MPD2     N 4563   3.664   4.320  10.631 -0.2350 -0.1598 -0.2996
  299MPD2    H5 4564   3.567   4.300  10.652 -0.1931  0.7602  0.7457
  299MPD2    N1 4565   4.062   4.487  10.862 -0.0203  0.5915  0.1309
  299MPD2    H7 4566   4.101   4.479  10.955 -0.0521 -1.3663 -0.0236
  300TMC3    C1 4567   3.597   4.264  10.409 -0.0473 -0.1466 -0.6169
  300TMC3    C2 4568   3.623   4.277  10.278  0.3331  0.3138 -0.4995
  300TMC3    C3 4569   3.512   4.266  10.195 -0.4636  0.0285  0.7474
  300TMC3    C4 4570   3.474   4.224  10.455 -0.0632  0.2180 -0.5740
  300TMC3    C5 4571   3.369   4.215  10.369 -0.4199 -0.1738  0.3442
  300TMC3    C6 4572   3.383   4.238  10.239  0.2944  0.3578 -0.3851
  300TMC3     C 4573   3.698   4.325  10.497  0.7885 -0.1727 -0.5080
  300TMC3     O 4574   3.807   4.357  10.451  0.5062 -0.1598  0.5082
  300TMC3     H 4575   3.715   4.312  10.231  2.1185 -1.2648  1.7993
  300TMC3    H1 4576   3.469   4.162  10.545 -1.1815 -2.0521 -2.1988
  300TMC3    H2 4577   3.296   4.225  10.175 -0.1123  1.8305 -0.1201
  300TMC3    C7 4578   3.246   4.176  10.421 -0.2066  0.1643  0.3783
  300TMC3    C8 4579   3.528   4.298  10.057 -0.2533  0.4700 -0.1888
  300TMC3    O1 4580   3.170   4.133  10.333 -0.2381 -0.3247 -0.5522
  300TMC3    O2 4581   3.591   4.216   9.987  0.3975 -0.0803 -0.1988
  301MPD2     C 4582   1.719   0.902   0.907  0.2629 -0.4816 -0.8523
  301MPD2    C1 4583   1.634   0.853   0.815  0.0894  0.0986  0.3363
  301MPD2    C2 4584   1.629   0.715   0.790  0.2183 -0.0022 -0.4036
  301MPD2    C3 4585   1.721   0.632   0.851  0.6608  0.2453 -0.4882
  301MPD2    C4 4586   1.818   0.681   0.939  0.0283  0.0726 -0.3376
  301MPD2    C5 4587   1.811   0.817   0.967 -1.0042  0.4342  0.0283
  301MPD2     H 4588   1.555   0.675   0.722 -0.4711  1.3153 -0.4177
  301MPD2    H1 4589   1.900   0.620   0.976  1.9771  1.6933 -1.9458
  301MPD2    H2 4590   1.743   1.008   0.913  1.8796 -0.8048 -1.6785
  301MPD2    H3 4591   1.882   0.856   1.039 -0.5665 -1.1284  0.4472
  301MPD2     N 4592   1.718   0.490   0.840  0.1023 -0.1883  0.2015
  301MPD2    H5 4593   1.804   0.442   0.860 -0.8415 -1.7208  0.5626
  301MPD2    N1 4594   1.544   0.937   0.745 -1.0489  0.2631  0.4373
  301MPD2    H7 4595   1.460   0.893   0.709 -1.2962  1.1288 -0.0427
  302TMC3    C1 4596   1.646   0.280   0.800  0.9113 -0.1428 -0.0142
  302TMC3    C2 4597   1.706   0.232   0.907  0.3902  0.3386 -0.4186
  302TMC3    C3 4598   1.698   0.096   0.936 -0.4949  0.1729  0.0496
  302TMC3    C4 4599   1.571   0.201   0.710 -0.2547  0.4441  0.8131
  302TMC3    C5 4600   1.566   0.065   0.744 -0.4928  0.4764 -0.3975
  302TMC3    C6 4601   1.627   0.014   0.846 -0.3085 -0.3094  0.1870
  302TMC3     C 4602   1.619   0.418   0.790  0.4703 -0.3959  0.1643
  302TMC3     O 4603   1.506   0.442   0.746 -0.7922  0.1983  0.3565
  302TMC3     H 4604   1.738   0.302   0.983 -0.7993 -0.6627  1.0146
  302TMC3    H1 4605   1.507   0.236   0.630 -0.6002 -2.9071 -0.4001
  302TMC3    H2 4606   1.629   4.649   0.840  2.4923 -0.2646  0.4581
  302TMC3    C7 4607   1.445   4.732   0.709 -0.2270 -0.1701  0.0674
  302TMC3    C8 4608   1.706   0.041   1.069  0.3475  0.8725 -0.4312
  302TMC3    O1 4609   1.408   4.646   0.788  0.1985  0.5963 -0.0753
  302TMC3    O2 4610   1.676   4.665   1.070 -0.2014  0.5508  0.1015
  303MPD2     C 4611   1.790   3.960  11.334  0.8413 -0.2347 -0.4396
  303MPD2    C1 4612   1.682   3.869  11.314  0.7942 -0.7626 -0.7316
  303MPD2    C2 4613   1.661   3.837  11.179 -0.5546  0.4642 -0.0170
  303MPD2    C3 4614   1.738   3.893  11.077 -0.1257 -0.2750 -0.2160
  303MPD2    C4 4615   1.838   3.980  11.093 -0.1124 -0.9790 -0.4525
  303MPD2    C5 4616   1.863   4.010  11.226 -0.2879  0.3910  0.3782
  303MPD2     H 4617   1.572   3.776  11.165 -2.3024  2.6297  1.6833
  303MPD2    H1 4618   1.893   4.027  11.013 -2.8117  2.6246 -0.2038
  303MPD2    H2 4619   1.809   4.002  11.432 -0.2079 -0.9786  0.0847
  303MPD2    H3 4620   1.948   4.074  11.245  0.1233 -0.5155  1.5530
  303MPD2     N 4621   1.708   3.876  10.938 -0.2266 -0.0714 -0.5794
  303MPD2    H5 4622   1.761   3.926  10.868  0.2874  1.4185  0.8789
  303MPD2    N1 4623   1.616   3.812  11.424  0.0994 -0.1357 -0.8977
  303MPD2    H7 4624   1.642   3.845  11.516  0.8159 -0.5053 -0.9690
  304TMC3    C1 4625   1.479   3.661  11.535  0.0491 -0.9634 -0.6499
  304TMC3    C2 4626   1.368   3.741  11.580  0.4267  1.0063  0.0075
  304TMC3    C3 4627   1.266   3.667  11.642  0.1910 -0.0769  0.2848
  304TMC3    C4 4628   1.488   3.524  11.541  0.4456 -0.4661  0.2049
  304TMC3    C5 4629   1.376   3.465  11.588  0.1475  0.5857  0.5385
  304TMC3    C6 4630   1.269   3.530  11.639  1.2361 -0.5707 -0.3593
  304TMC3     C 4631   1.528   3.709  11.411 -0.0754  0.1618 -0.6968
  304TMC3     O 4632   1.505   3.639  11.316  0.2484 -0.1054  0.4981
  304TMC3     H 4633   1.358   3.843  11.543 -0.4129  1.0092  0.2554
  304TMC3    H1 4634   1.563   3.466  11.488 -0.1701 -0.1549 -1.0055
  304TMC3    H2 4635   1.188   3.481  11.691  1.4201  0.6673  1.1223
  304TMC3    C7 4636   1.322   3.362  11.503 -0.1439  0.3111  0.1937
  304TMC3    C8 4637   1.135   3.715  11.596 -0.1458 -0.3451 -0.5080
  304TMC3    O1 4638   1.205   3.345  11.524  0.2599 -0.1687  0.0188
  304TMC3    O2 4639   1.095   3.827  11.632 -0.6510  0.2112 -0.0935
  305MPD2     C 4640   4.635   0.720  14.052 -0.1140  0.1722 -0.2002
  305MPD2    C1 4641   4.679   0.590  14.060  0.0967  0.0834  0.7170
  305MPD2    C2 4642   4.643   0.501  13.952  0.2076 -0.1198  0.5045
  305MPD2    C3 4643   4.578   0.551  13.841  0.0897  0.4690  0.6146
  305MPD2    C4 4644   4.543   0.685  13.830 -0.5462  0.1465  0.3766
  305MPD2    C5 4645   4.574   0.767  13.938  0.2158  0.1040 -0.6331
  305MPD2     H 4646   4.673   0.397  13.956 -2.1443 -0.8432 -1.0985
  305MPD2    H1 4647   4.495   0.727  13.742  0.0727  2.1550  1.0003
  305MPD2    H2 4648   4.655   0.788  14.134  2.1080  1.1505 -1.5626
  305MPD2    H3 4649   4.537   0.869  13.933  1.2060  0.4595 -0.5828
  305MPD2     N 4650   4.560   0.475  13.719 -0.0520 -0.2789  0.1370
  305MPD2    H5 4651   4.512   0.527  13.646  0.0293  1.0059  0.9924
  305MPD2    N1 4652   0.002   0.548  14.172 -0.0166 -0.7965  0.0813
  305MPD2    H7 4653   0.017   0.620  14.242  0.4508 -1.4110  0.6218
  306TMC3    C1 4654   0.094   0.405  14.342  0.3645 -0.0599 -0.1897
  306TMC3    C2 4655   0.149   0.289  14.390 -0.4217 -0.7675 -0.0701
  306TMC3    C3 4656   0.176   0.274  14.525  0.1459 -0.1343  0.1861
  306TMC3    C4 4657   0.023   0.480  14.437 -1.2551 -0.3212  0.4595
  306TMC3    C5 4658   0.034   0.459  14.571 -0.0567 -0.2706  0.1604
  306TMC3    C6 4659   0.116   0.363  14.619  0.2757 -0.8943  0.1714
  306TMC3     C 4660   0.053   0.423  14.203  0.2829  0.0082 -0.1599
  306TMC3     O 4661   0.066   0.323  14.136  0.1063 -0.5745  0.2849
  306TMC3     H 4662   0.197   0.226  14.315  0.5036 -1.0699  0.7823
  306TMC3    H1 4663   4.685   0.548  14.413 -0.6933  0.7349  1.5324
  306TMC3    H2 4664   0.125   0.354  14.727 -0.0475 -2.5559  0.0590
  306TMC3    C7 4665   4.705   0.560  14.648  0.2228  0.1764  0.3711
  306TMC3    C8 4666   0.291   0.188  14.562  0.1294  0.1598 -0.0099
  306TMC3    O1 4667   4.595   0.594  14.608 -0.4818 -0.3409 -0.4791
  306TMC3    O2 4668   0.320   0.103  14.481 -0.6282 -0.0884 -0.7982
  307MPD2     C 4669   2.162   3.577   0.794  0.1810  0.4441 -0.0053
  307MPD2    C1 4670   2.092   3.682   0.737  0.3832  0.7701 -0.0809
  307MPD2    C2 4671   1.956   3.675   0.754 -0.6161  0.0625  0.2010
  307MPD2    C3 4672   1.885   3.574   0.812 -0.0914  0.3186  0.2706
  307MPD2    C4 4673   1.957   3.467   0.862  0.6867 -0.7177 -0.0254
  307MPD2    C5 4674   2.095   3.472   0.851 -0.1854 -0.0774 -0.4413
  307MPD2     H 4675   1.893   3.748   0.704 -0.8607  0.4478  1.0770
  307MPD2    H1 4676   1.909   3.378   0.901  0.4430 -1.1785 -1.3817
  307MPD2    H2 4677   2.270   3.568   0.790  0.2346  1.1580 -0.1140
  307MPD2    H3 4678   2.143   3.381   0.888 -0.0889  0.4850  0.8128
  307MPD2     N 4679   1.747   3.582   0.818  0.0098  0.4227  0.2284
  307MPD2    H5 4680   1.712   3.672   0.788  0.5515  0.1897 -1.0650
  307MPD2    N1 4681   2.144   3.778   0.656 -0.3266  0.0315 -0.4102
  307MPD2    H7 4682   2.070   3.833   0.613 -2.4924 -1.5831  1.2763
  308TMC3    C1 4683   1.329   3.495   0.735 -0.5638  0.5870 -1.2218
  308TMC3    C2 4684   1.308   3.632   0.711  0.2296 -0.0518 -1.3098
  308TMC3    C3 4685   1.396   3.720   0.767  0.2705 -0.4172  0.0625
  308TMC3    C4 4686   1.447   3.447   0.790 -0.4373  0.4723  1.1297
  308TMC3    C5 4687   1.527   3.538   0.838  0.6694 -0.3982 -0.4654
  308TMC3    C6 4688   1.505   3.672   0.829  0.0634  0.1753  0.1224
  308TMC3     C 4689   1.215   3.406   0.748 -0.5712  0.1238 -1.1183
  308TMC3     O 4690   1.222   3.308   0.825  0.5123 -0.2929 -0.4783
  308TMC3     H 4691   1.216   3.671   0.669 -0.9630 -0.3274  1.0617
  308TMC3    H1 4692   1.453   3.340   0.805 -0.6819  0.5580  1.8238
  308TMC3    H2 4693   1.576   3.742   0.872  2.3621 -2.1632  0.1174
  308TMC3    C7 4694   1.659   3.488   0.863  0.8405  0.7137  0.3207
  308TMC3    C8 4695   1.378   3.861   0.741 -0.0026 -0.0017  0.0245
  308TMC3    O1 4696   1.672   3.373   0.902 -0.4044  0.2237 -0.7082
  308TMC3    O2 4697   1.279   3.885   0.673  0.2038 -0.5253  0.2286
  309MPD2     C 4698   1.639   4.439  17.246  0.2816  0.3035 -1.1111
  309MPD2    C1 4699   1.530   4.498  17.171  0.9328  0.1644 -0.3753
  309MPD2    C2 4700   1.411   4.500  17.236 -0.2517 -0.2117  0.3877
  309MPD2    C3 4701   1.386   4.455  17.361 -0.0909  0.1239  0.0031
  309MPD2    C4 4702   1.485   4.391  17.431  0.6704 -0.1502  0.5016
  309MPD2    C5 4703   1.609   4.392  17.375 -0.1614 -0.1456  1.1933
  309MPD2     H 4704   1.331   4.558  17.191 -0.9971 -0.3375  1.5404
  309MPD2    H1 4705   1.463   4.345  17.526 -0.5027 -0.4254  0.1061
  309MPD2    H2 4706   1.737   4.420  17.205  0.6861 -0.3495  0.1575
  309MPD2    H3 4707   1.688   4.334  17.422  0.3590 -0.1558  0.2938
  309MPD2     N 4708   1.258   4.457  17.422 -0.3497  0.2029 -0.3839
  309MPD2    H5 4709   1.250   4.411  17.512 -0.1892  0.5517 -0.1929
  309MPD2    N1 4710   1.540   4.544  17.036 -0.0402 -0.1589 -0.1893
  309MPD2    H7 4711   1.456   4.577  16.990  0.7880  2.0310 -0.1203
  310TMC3    C1 4712   1.650   4.625  16.832 -0.3716  0.0713 -0.0412
  310TMC3    C2 4713   1.539   4.617  16.757 -0.2947  0.3341 -0.6751
  310TMC3    C3 4714   1.554   4.614  16.624  0.1691 -0.2930  0.7747
  310TMC3    C4 4715   1.771   4.628  16.771  0.0679 -0.5788 -0.1026
  310TMC3    C5 4716   1.778   4.591  16.636  0.7197  0.1521  0.8051
  310TMC3    C6 4717   1.668   4.584  16.564 -0.4202 -0.1929 -0.1233
  310TMC3     C 4718   1.657   4.570  16.966 -0.8275 -0.2277 -0.0807
  310TMC3     O 4719   1.769   4.558  17.014 -0.1270 -0.2370  0.1473
  310TMC3     H 4720   1.439   4.620  16.797  0.4312  0.3878  1.1302
  310TMC3    H1 4721   1.858   4.642  16.835 -2.0116 -0.0407  2.6186
  310TMC3    H2 4722   1.677   4.553  16.461 -2.9613 -1.8182  0.1633
  310TMC3    C7 4723   1.886   4.510  16.592  0.3742 -0.4477 -0.3807
  310TMC3    C8 4724   1.438   4.607  16.534  0.3384 -0.4578 -0.0398
  310TMC3    O1 4725   1.901   4.490  16.471  0.6290 -0.0912 -0.3416
  310TMC3    O2 4726   1.338   4.549  16.561  0.1077 -0.3173 -0.4795
  311MPD2     C 4727   3.455   1.446  12.322 -0.0323 -0.8214 -0.0477
  311MPD2    C1 4728   3.557   1.390  12.393  0.2347 -0.2592  0.0973
  311MPD2    C2 4729   3.539   1.293  12.485  0.2114 -0.0077  0.1564
  311MPD2    C3 4730   3.411   1.249  12.513 -0.0854 -0.1714 -0.1055
  311MPD2    C4 4731   3.307   1.303  12.444  0.2739 -0.7304  0.1832
  311MPD2    C5 4732   3.323   1.406  12.354 -0.3386  0.0705  0.0425
  311MPD2     H 4733   3.622   1.262  12.548  1.1334  2.3037  0.0688
  311MPD2    H1 4734   3.205   1.274  12.467  0.3795  0.8176  2.6500
  311MPD2    H2 4735   3.467   1.526  12.250 -0.9932  0.4106  1.1431
  311MPD2    H3 4736   3.237   1.460  12.317 -0.1352  0.4533  0.1313
  311MPD2     N 4737   3.395   1.153  12.622 -0.1690 -0.0023 -0.3636
  311MPD2    H5 4738   3.485   1.124  12.659 -0.4636 -0.2900  0.1384
  311MPD2    N1 4739   3.688   1.444  12.379 -0.4259  0.0834  0.2948
  311MPD2    H7 4740   3.757   1.420  12.449 -0.2424 -2.9703 -0.9293
  312TMC3    C1 4741   3.302   0.993  12.764 -0.4933 -0.4620 -0.8026
  312TMC3    C2 4742   3.190   0.913  12.789 -0.3411  0.1595 -1.0835
  312TMC3    C3 4743   3.170   0.855  12.914 -0.3171  0.9707 -0.1779
  312TMC3    C4 4744   3.397   1.017  12.863  0.2424  0.1122  0.0927
  312TMC3    C5 4745   3.371   0.956  12.986 -0.1107 -0.5503  0.4727
  312TMC3    C6 4746   3.260   0.876  13.011 -0.5702 -0.4987 -0.4031
  312TMC3     C 4747   3.278   1.086  12.656 -1.3770  0.0248  0.3298
  312TMC3     O 4748   3.168   1.092  12.600  1.1103  0.8263  0.0195
  312TMC3     H 4749   3.113   0.901  12.713 -1.4229  0.1146  0.0133
  312TMC3    H1 4750   3.486   1.077  12.846  0.1076 -0.1156 -1.4669
  312TMC3    H2 4751   3.228   0.841  13.108 -2.4726  3.3390  0.3680
  312TMC3    C7 4752   3.474   0.958  13.087 -0.1381 -0.0521  0.3803
  312TMC3    C8 4753   3.065   0.757  12.943  0.1328 -0.4944 -0.3896
  312TMC3    O1 4754   3.539   1.059  13.112 -0.1674  0.2639 -0.2397
  312TMC3    O2 4755   3.072   0.680  13.045 -0.6477 -0.3181  0.9114
  313MPD2     C 4756   2.498   0.617  11.570 -0.3588 -0.0307 -0.5075
  313MPD2    C1 4757   2.584   0.591  11.466 -0.3003 -0.1940  1.0039
  313MPD2    C2 4758   2.595   0.463  11.419  0.2163 -0.8243 -0.3423
  313MPD2    C3 4759   2.524   0.357  11.470 -0.4221  0.2008  0.0956
  313MPD2    C4 4760   2.436   0.388  11.572  0.2095  0.3705 -0.1766
  313MPD2    C5 4761   2.424   0.514  11.620 -0.1152  0.3385  0.3924
  313MPD2     H 4762   2.670   0.438  11.344  0.3604  0.2500 -0.5612
  313MPD2    H1 4763   2.376   0.303  11.604  0.6051 -1.1438 -3.5289
  313MPD2    H2 4764   2.491   0.715  11.614 -2.3971 -0.1930 -0.4659
  313MPD2    H3 4765   2.371   0.519  11.715 -0.1643  1.0903  0.3297
  313MPD2     N 4766   2.546   0.222  11.420  0.1937 -0.1009  0.1277
  313MPD2    H5 4767   2.600   0.217  11.334 -1.3009 -0.2977 -0.8036
  313MPD2    N1 4768   2.658   0.692  11.405  0.4576  0.0808  0.2003
  313MPD2    H7 4769   2.704   0.669  11.318  0.7403  2.5915 -0.2900
  314TMC3    C1 4770   2.763   0.894  11.367  0.1801  0.0083  0.2267
  314TMC3    C2 4771   2.858   0.980  11.421 -0.9082 -0.2457  0.0257
  314TMC3    C3 4772   2.929   1.066  11.337  0.4846  0.0331  0.2929
  314TMC3    C4 4773   2.725   0.899  11.237 -0.6553  0.3279  0.8334
  314TMC3    C5 4774   2.792   0.996  11.158  0.0853 -0.3298  0.4663
  314TMC3    C6 4775   2.887   1.077  11.202  0.2239  0.0982 -0.4933
  314TMC3     C 4776   2.690   0.813  11.460 -0.4953 -0.1675 -0.1786
  314TMC3     O 4777   2.679   0.854  11.577  0.5583  0.3007  0.2627
  314TMC3     H 4778   2.868   0.983  11.528 -0.6860 -0.1838  0.0029
  314TMC3    H1 4779   2.652   0.833  11.192  0.3755 -0.2548  0.0112
  314TMC3    H2 4780   2.939   1.142  11.133  2.1478 -4.3207 -3.1753
  314TMC3    C7 4781   2.806   0.967  11.021 -0.4505  0.4908  0.2765
  314TMC3    C8 4782   3.071   1.090  11.353 -0.3114 -0.9627  0.5467
  314TMC3    O1 4783   2.922   0.983  10.974 -0.3250 -0.1342  0.4371
  314TMC3    O2 4784   3.132   1.113  11.252 -0.3028 -0.0179  0.2097
  315MPD2     C 4785   2.736   3.651  17.206 -0.3906 -0.2704  0.6774
  315MPD2    C1 4786   2.754   3.671  17.342  0.1792 -0.0730  0.1416
  315MPD2    C2 4787   2.752   3.800  17.388 -0.1191 -0.6554  0.8196
  315MPD2    C3 4788   2.737   3.916  17.310 -0.2895  0.2302  0.1478
  315MPD2    C4 4789   2.734   3.890  17.169 -0.3418  0.0512  0.0304
  315MPD2    C5 4790   2.736   3.756  17.124 -0.5710 -0.5713  0.0252
  315MPD2     H 4791   2.764   3.806  17.496  2.7038 -1.2390  0.5237
  315MPD2    H1 4792   2.728   3.967  17.093  0.4455 -0.8866 -0.9819
  315MPD2    H2 4793   2.725   3.557  17.153  2.1445 -0.5864  0.7293
  315MPD2    H3 4794   2.725   3.726  17.021  4.4191  0.9246 -0.9480
  315MPD2     N 4795   2.742   4.039  17.376 -0.3936  0.2798  0.2115
  315MPD2    H5 4796   2.739   4.034  17.478  0.4131 -0.4435  0.1977
  315MPD2    N1 4797   2.755   3.566  17.435  0.0170  0.4692 -0.3244
  315MPD2    H7 4798   2.800   3.589  17.523 -0.4037 -1.5730  0.4293
  316TMC3    C1 4799   2.747   4.264  17.428  0.3823  0.1446 -0.4988
  316TMC3    C2 4800   2.815   4.239  17.544  0.0423 -0.0156 -0.0779
  316TMC3    C3 4801   2.790   4.331  17.649  0.4598 -0.4038  0.1099
  316TMC3    C4 4802   2.675   4.379  17.400  0.3311 -0.2553  0.3367
  316TMC3    C5 4803   2.660   4.471  17.501  0.0659 -0.0316 -0.2645
  316TMC3    C6 4804   2.717   4.438  17.626 -0.9387 -0.1586 -0.2253
  316TMC3     C 4805   2.731   4.161  17.320  0.6957 -0.2551  0.3132
  316TMC3     O 4806   2.705   4.184  17.203 -0.0267  0.5734 -0.4823
  316TMC3     H 4807   2.866   4.144  17.559  0.3132  0.0322 -0.6917
  316TMC3    H1 4808   2.617   4.392  17.309  1.0804  2.2376  0.2239
  316TMC3    H2 4809   2.723   4.509  17.708 -1.4818  0.6701 -0.8965
  316TMC3    C7 4810   2.587   4.600  17.496 -0.4274  0.3971 -0.3716
  316TMC3    C8 4811   2.850   4.322   0.008 -0.0164 -0.2033  0.2126
  316TMC3    O1 4812   2.573   4.655  17.601 -0.3556  0.4471 -0.1708
  316TMC3    O2 4813   2.794   4.385   0.096 -0.1632 -0.0806  0.2273
  317MPD2     C 4814   0.061   2.336  13.386  0.6717  0.8230 -0.0429
  317MPD2    C1 4815   0.082   2.226  13.305 -0.0728 -0.5850 -0.2467
  317MPD2    C2 4816   0.124   2.110  13.371 -0.0662 -0.3092  0.0155
  317MPD2    C3 4817   0.179   2.105  13.501  0.0572  0.3872  0.1494
  317MPD2    C4 4818   0.177   2.224  13.572  0.3840 -0.3970 -0.1379
  317MPD2    C5 4819   0.119   2.334  13.515 -0.1266  0.8668 -0.2577
  317MPD2     H 4820   0.132   2.016  13.317  2.3079 -0.4381  0.6010
  317MPD2    H1 4821   0.218   2.239  13.671 -0.4744 -0.2681  0.1967
  317MPD2    H2 4822   0.041   2.434  13.344  0.3709  1.5027  1.6981
  317MPD2    H3 4823   0.109   2.427  13.570  1.4756  1.7991 -1.5541
  317MPD2     N 4824   0.226   1.985  13.554  0.8064 -0.6301 -0.2652
  317MPD2    H5 4825   0.213   1.903  13.496  1.0298 -1.1097  0.3581
  317MPD2    N1 4826   0.060   2.222  13.167  0.2030 -0.3345 -0.1922
  317MPD2    H7 4827   0.089   2.134  13.127 -0.1518  0.2379 -1.6794
  318TMC3    C1 4828   0.355   1.840  13.678 -0.2056 -0.2357 -0.3083
  318TMC3    C2 4829   0.249   1.752  13.678  0.4908 -0.9901  0.1858
  318TMC3    C3 4830   0.262   1.631  13.734  0.5750  0.0508  0.5908
  318TMC3    C4 4831   0.462   1.815  13.761 -0.3122  0.2960 -0.0756
  318TMC3    C5 4832   0.466   1.693  13.823 -0.0560  0.1890  0.3009
  318TMC3    C6 4833   0.370   1.595  13.810  0.3399 -0.0418 -0.3189
  318TMC3     C 4834   0.328   1.976  13.645  0.0077 -0.1095 -0.1553
  318TMC3     O 4835   0.364   2.068  13.716  0.0187 -0.5619  0.1548
  318TMC3     H 4836   0.158   1.778  13.625  1.5358  0.2625 -1.0043
  318TMC3    H1 4837   0.530   1.893  13.795 -0.7073 -0.8158  3.2358
  318TMC3    H2 4838   0.386   1.494  13.845 -1.8029 -0.6402 -1.0609
  318TMC3    C7 4839   0.571   1.682  13.928  1.0542 -0.5262  0.1727
  318TMC3    C8 4840   0.138   1.550  13.750  0.2493 -0.0368  0.5571
  318TMC3    O1 4841   0.636   1.778  13.960 -0.7690 -0.0396  0.0705
  318TMC3    O2 4842   0.123   1.472  13.840  0.0936  0.3193  0.7535
  319MPD2     C 4843   1.174   3.718  16.708  0.7309  0.5009 -0.5996
  319MPD2    C1 4844   1.069   3.792  16.656 -0.6947 -0.0459  0.8216
  319MPD2    C2 4845   0.995   3.733  16.555  0.0752 -0.2320  0.0225
  319MPD2    C3 4846   1.008   3.599  16.523 -0.8509 -0.0611 -0.0072
  319MPD2    C4 4847   1.128   3.538  16.557 -0.7576  0.2419 -0.2013
  319MPD2    C5 4848   1.206   3.593  16.658 -0.4765  0.1387 -0.2563
  319MPD2     H 4849   0.928   3.808  16.516  0.6029  0.1437 -0.1576
  319MPD2    H1 4850   1.152   3.439  16.519 -1.0509 -0.2567  0.9163
  319MPD2    H2 4851   1.245   3.770  16.772  0.5475 -1.9374  1.5971
  319MPD2    H3 4852   1.285   3.540  16.709 -1.8761  0.8443  2.6075
  319MPD2     N 4853   0.911   3.538  16.447 -0.1705 -0.2045  0.2896
  319MPD2    H5 4854   0.838   3.598  16.411  0.2979  0.4611  0.4331
  319MPD2    N1 4855   1.063   3.927  16.691 -0.4550 -0.0254 -0.4507
  319MPD2    H7 4856   1.018   3.998  16.633 -2.2877 -0.1291  0.8362
  320TMC3    C1 4857   0.790   3.357  16.346  0.5221  0.6190  0.7015
  320TMC3    C2 4858   0.713   3.454  16.281 -0.4212  0.0215 -0.9419
  320TMC3    C3 4859   0.586   3.419  16.242 -0.1094  0.0295 -0.7487
  320TMC3    C4 4860   0.740   3.237  16.394  1.0546  0.1553 -0.2346
  320TMC3    C5 4861   0.610   3.211  16.352 -0.5415 -0.1590  0.4324
  320TMC3    C6 4862   0.534   3.293  16.270 -0.6637  0.2961 -0.6397
  320TMC3     C 4863   0.909   3.404  16.422  0.1323 -0.3441  0.0522
  320TMC3     O 4864   0.983   3.309  16.451  0.3687  0.1849  0.2151
  320TMC3     H 4865   0.757   3.538  16.230  2.0927  0.0052  1.2479
  320TMC3    H1 4866   0.801   3.154  16.426 -0.6691 -0.7916  0.5834
  320TMC3    H2 4867   0.434   3.265  16.236 -0.5274 -0.5403 -0.3536
  320TMC3    C7 4868   0.556   3.086  16.401  0.1383  0.8008 -0.4988
  320TMC3    C8 4869   0.512   3.525  16.180 -0.1356 -0.3591  0.1607
  320TMC3    O1 4870   0.466   3.042  16.330 -0.5875 -0.4546  0.3856
  320TMC3    O2 4871   0.533   3.641  16.219  0.7598  0.1515  0.1276
  321TMC3    C1 4872   1.094   4.123  16.834 -0.3007 -0.7338 -0.9094
  321TMC3    C2 4873   1.184   4.188  16.748  0.1358  0.4670 -0.1989
  321TMC3    C3 4874   1.276   4.281  16.806  1.0012  0.4904  1.1875
  321TMC3    C4 4875   1.078   4.155  16.967  0.1826  0.1463 -0.0373
  321TMC3    C5 4876   1.169   4.249  17.019  0.6630  0.1870  0.4141
  321TMC3    C6 4877   1.259   4.307  16.937 -0.6996  0.5059  0.6191
  321TMC3     C 4878   1.098   3.975  16.814  0.4320 -0.9793 -0.9893
  321TMC3     O 4879   1.139   3.909  16.909  0.6677  0.1350  0.0262
  321TMC3     H 4880   1.193   4.157  16.644  0.9484  1.4542 -0.4279
  321TMC3    H1 4881   1.015   4.101  17.038  1.3490  2.6518  2.8851
  321TMC3    H2 4882   1.323   4.373  16.994  3.4330  0.3296 -3.8761
  321TMC3    C7 4883   1.240   4.196  17.136  0.6677  0.0092 -0.2363
  321TMC3    C8 4884   1.418   4.270  16.779 -0.3185 -0.8878 -1.0732
  321TMC3    O1 4885   1.166   4.155  17.221 -0.1368 -0.5725  0.2393
  321TMC3    O2 4886   1.492   4.290  16.877 -0.4090  0.2673 -0.0655
  322MPD2     C 4887   4.616   4.616  13.613  0.3010  0.8224 -0.2477
  322MPD2    C1 4888   4.615   4.518  13.714  0.1723 -0.2666 -0.5219
  322MPD2    C2 4889   4.617   4.388  13.671  0.3904  0.1886 -0.7706
  322MPD2    C3 4890   4.614   4.349  13.538  0.0207  0.6968 -0.2158
  322MPD2    C4 4891   4.599   4.451  13.438 -0.6176  0.7390 -0.1772
  322MPD2    C5 4892   4.606   4.583  13.483  0.4346 -0.4911 -0.5032
  322MPD2     H 4893   4.609   4.307  13.743  1.9029  0.1502 -0.6567
  322MPD2    H1 4894   4.587   4.435  13.332  3.4724  1.4684 -0.7489
  322MPD2    H2 4895   4.616   4.722  13.638  0.2994  0.3864  1.6136
  322MPD2    H3 4896   4.602   4.657  13.404 -0.0267 -2.2925 -2.1707
  322MPD2     N 4897   4.603   4.210  13.505  0.0023  0.1473  0.1010
  322MPD2    H5 4898   4.595   4.150  13.587 -0.1635  0.2673  0.1715
  322MPD2    N1 4899   4.605   4.555  13.852 -0.1881  0.2160 -0.2798
  322MPD2    H7 4900   4.586   4.654  13.865 -0.7752  0.3261 -1.9772
  323TMC3    C1 4901   4.667   4.555  14.073  0.5954 -0.3154 -0.3571
  323TMC3    C2 4902   0.002   4.678  14.047 -0.9390 -0.3020  0.1882
  323TMC3    C3 4903   0.086   4.712  14.148 -0.2268 -0.7623  0.2357
  323TMC3    C4 4904   4.687   4.486  14.194  0.7771 -1.1662 -0.6944
  323TMC3    C5 4905   0.028   4.536  14.288  0.5969 -0.0200 -0.0543
  323TMC3    C6 4906   0.089   4.659  14.279  0.0348 -0.4114  0.2370
  323TMC3     C 4907   4.619   4.474  13.962 -0.6918  0.2848 -0.1904
  323TMC3     O 4908   4.608   4.352  13.965 -0.5374 -0.4504  0.2215
  323TMC3     H 4909   0.001   4.732  13.953  1.8836 -1.3277 -0.4162
  323TMC3    H1 4910   4.625   4.400  14.219  0.5895 -0.7654  0.2145
  323TMC3    H2 4911   0.159   4.701  14.351 -0.6635  0.2393  0.5290
  323TMC3    C7 4912   0.093   4.440  14.370  0.5219  0.2404 -1.2846
  323TMC3    C8 4913   0.222   0.012  14.113  0.1529 -0.4664 -0.0015
  323TMC3    O1 4914   0.079   4.319  14.345 -0.2847 -0.1009  0.3638
  323TMC3    O2 4915   0.312   4.712  14.176  0.1858  0.0618  0.3633
  324MPD2     C 4916   1.046   0.698  14.684  0.3015  0.2011 -0.4918
  324MPD2    C1 4917   1.027   0.830  14.708  0.8086 -0.2007  0.2972
  324MPD2    C2 4918   0.914   0.892  14.661  0.5349 -0.5413  1.3675
  324MPD2    C3 4919   0.827   0.827  14.579 -0.5629  0.4908  0.0628
  324MPD2    C4 4920   0.842   0.691  14.561 -0.2838 -0.2488  0.4001
  324MPD2    C5 4921   0.949   0.628  14.620 -0.1979  0.3955 -1.1491
  324MPD2     H 4922   0.886   0.992  14.694 -3.9214 -0.4958 -2.6757
  324MPD2    H1 4923   0.763   0.636  14.512 -0.6250 -1.0060  1.8054
  324MPD2    H2 4924   1.127   0.639  14.724 -1.3560 -1.4013  0.4702
  324MPD2    H3 4925   0.957   0.520  14.623 -2.1692  0.2777 -0.4430
  324MPD2     N 4926   0.725   0.886  14.500 -0.8219 -0.1280 -0.3586
  324MPD2    H5 4927   0.676   0.823  14.437 -2.9975  1.0796  0.1099
  324MPD2    N1 4928   1.103   0.904  14.801 -0.1039 -0.6589 -0.0493
  324MPD2    H7 4929   1.066   0.996  14.823  0.6225 -0.5953  0.8950
  325TMC3    C1 4930   0.580   1.066  14.415 -0.1125 -0.1109  0.7223
  325TMC3    C2 4931   0.514   0.977  14.336 -0.1133 -0.0543 -0.1838
  325TMC3    C3 4932   0.404   1.028  14.269 -0.8020  0.1480 -0.4874
  325TMC3    C4 4933   0.546   1.202  14.428  0.6845 -0.1144 -0.2877
  325TMC3    C5 4934   0.443   1.245  14.348 -0.1042 -0.4213 -0.6659
  325TMC3    C6 4935   0.376   1.164  14.266  0.0961  1.1317 -0.5489
  325TMC3     C 4936   0.683   1.023  14.507  0.3838 -0.8501  0.0635
  325TMC3     O 4937   0.725   1.109  14.582  0.7549  0.4075 -0.4304
  325TMC3     H 4938   0.544   0.873  14.332  0.3142 -0.0079  2.3442
  325TMC3    H1 4939   0.605   1.263  14.495 -1.4761 -0.0301  1.5342
  325TMC3    H2 4940   0.286   1.201  14.217 -0.6470 -1.7287 -1.3582
  325TMC3    C7 4941   0.410   1.384  14.359  0.0193  0.0832 -0.2146
  325TMC3    C8 4942   0.324   0.948  14.175 -0.1655 -0.0577  0.0241
  325TMC3    O1 4943   0.356   1.439  14.263  0.2310  0.7886  0.3498
  325TMC3    O2 4944   0.207   0.981  14.171 -0.3268 -0.0520  0.1532
  326MPD2     C 4945   2.861   2.321  10.529  0.0616  0.0614 -0.1954
  326MPD2    C1 4946   2.883   2.358  10.658 -0.7188  0.0394  0.0428
  326MPD2    C2 4947   2.990   2.449  10.686 -0.0961 -0.0284 -0.7427
  326MPD2    C3 4948   3.055   2.508  10.577 -0.0251  0.5318  0.4473
  326MPD2    C4 4949   3.017   2.479  10.449  0.1894  0.1827 -0.7439
  326MPD2    C5 4950   2.919   2.387  10.424 -0.1090  0.5334  0.0676
  326MPD2     H 4951   3.010   2.469  10.791  1.6196  2.2203 -1.5027
  326MPD2    H1 4952   3.062   2.520  10.359  2.4760 -1.4808 -0.3509
  326MPD2    H2 4953   2.784   2.250  10.500 -0.6546 -0.0286  1.9361
  326MPD2    H3 4954   2.880   2.369  10.324 -0.9783  0.5764  0.3982
  326MPD2     N 4955   3.154   2.608  10.585 -0.3901 -0.1046 -0.3840
  326MPD2    H5 4956   3.182   2.665  10.506  1.1409  1.7679  1.5384
  326MPD2    N1 4957   2.805   2.307  10.765  0.0942  0.3454 -0.3361
  326MPD2    H7 4958   2.830   2.340  10.858  1.5847 -1.6870 -0.0077
  327TMC3    C1 4959   2.624   2.260  10.883  0.6617  0.1826 -0.4142
  327TMC3    C2 4960   2.515   2.341  10.890  0.2132  0.6438  0.1722
  327TMC3    C3 4961   2.459   2.351  11.010 -0.2428 -0.1181  0.2588
  327TMC3    C4 4962   2.683   2.191  10.985  0.2123 -0.5123  0.1001
  327TMC3    C5 4963   2.629   2.213  11.106 -0.3808  0.4102 -0.7352
  327TMC3    C6 4964   2.515   2.288  11.115  0.2439  0.0438  0.4880
  327TMC3     C 4965   2.681   2.253  10.753  0.2925  0.7140 -0.0611
  327TMC3     O 4966   2.600   2.246  10.657 -0.3069 -0.6805  0.7458
  327TMC3     H 4967   2.470   2.380  10.800 -0.0785 -0.5165 -0.1833
  327TMC3    H1 4968   2.771   2.129  10.971 -0.5389 -1.7639  0.9523
  327TMC3    H2 4969   2.479   2.305  11.215  1.9932  0.4218  1.0582
  327TMC3    C7 4970   2.670   2.142  11.225  0.2113  0.1728  0.2713
  327TMC3    C8 4971   2.366   2.455  11.040 -0.6533  0.1288  0.5783
  327TMC3    O1 4972   2.576   2.116  11.297 -0.4601  0.2409 -0.0356
  327TMC3    O2 4973   2.291   2.437  11.137  0.0213  0.2738  0.2096
  328MPD2     C 4974   0.792   3.044  17.335  0.1034  0.1686 -0.3778
  328MPD2    C1 4975   0.722   2.929  17.354  0.5555  0.2457 -0.3170
  328MPD2    C2 4976   0.662   2.871  17.240 -0.2215  0.4276  0.2408
  328MPD2    C3 4977   0.646   2.929  17.121 -0.3519 -0.8404  0.2338
  328MPD2    C4 4978   0.712   3.054  17.102  0.6737  0.4966 -0.2073
  328MPD2    C5 4979   0.773   3.108  17.215  0.4773  0.1725  0.5412
  328MPD2     H 4980   0.610   2.776  17.245 -0.0319  0.2847 -0.5693
  328MPD2    H1 4981   0.716   3.110  17.009  0.5620  2.3364  0.9064
  328MPD2    H2 4982   0.824   3.112  17.413  1.1594  0.0762 -0.7283
  328MPD2    H3 4983   0.823   3.202  17.196 -1.2312  0.9227 -0.2960
  328MPD2     N 4984   0.567   2.879  17.017 -0.2145 -0.5833  0.0454
  328MPD2    H5 4985   0.567   2.913  16.922  0.6329  3.5262  1.5188
  328MPD2    N1 4986   0.721   2.868  17.478  0.0842  0.1980 -0.0812
  328MPD2    H7 4987   0.781   2.905  17.551  2.6749 -3.5804 -0.2962
  329TMC3    C1 4988   0.658   2.716  17.646  0.0370 -0.5361 -0.4990
  329TMC3    C2 4989   0.712   2.787  17.751 -0.8017  0.0212 -0.2368
  329TMC3    C3 4990   0.673   2.744   0.102  0.0184 -0.4338  0.6162
  329TMC3    C4 4991   0.599   2.591  17.650  0.8749 -0.4634  0.4621
  329TMC3    C5 4992   0.570   2.549   0.009  0.3009  0.3110  0.3120
  329TMC3    C6 4993   0.595   2.627   0.117  0.7658 -0.3977  0.1363
  329TMC3     C 4994   0.625   2.774  17.517 -0.2509  0.6874 -0.0749
  329TMC3     O 4995   0.542   2.720  17.449  0.1268  0.4958 -0.1626
  329TMC3     H 4996   0.743   2.891  17.747  1.0407 -0.3510  4.6245
  329TMC3    H1 4997   0.575   2.542  17.557  1.8873 -0.9932  0.4761
  329TMC3    H2 4998   0.554   2.594   0.212 -0.9403  1.5295  0.0812
  329TMC3    C7 4999   0.469   2.444   0.031  0.0054 -0.1114 -0.3567
  329TMC3    C8 5000   0.653   2.844   0.198 -0.4729 -0.1699 -0.2833
  329TMC3    O1 5001   0.436   2.413   0.148 -0.4502 -0.5217  0.5214
  329TMC3    O2 5002   0.762   2.896   0.230  0.0444 -0.3731 -0.5836
  330TMC3    C1 5003   3.453   1.928   9.748 -0.3693 -0.3745  0.0057
  330TMC3    C2 5004   3.359   1.865   9.667 -0.2372  0.1093  0.5032
  330TMC3    C3 5005   3.348   1.729   9.695 -0.2545 -0.0384  0.6305
  330TMC3    C4 5006   3.516   1.865   9.850 -0.7499 -0.1217 -0.1457
  330TMC3    C5 5007   3.493   1.733   9.873 -0.7954  0.3418 -0.0647
  330TMC3    C6 5008   3.414   1.663   9.795  0.1762 -0.5103  0.2329
  330TMC3     C 5009   3.454   2.071   9.765 -0.1920 -0.2351  0.0428
  330TMC3     O 5010   3.505   2.113   9.867 -0.5112  1.3181 -0.0323
  330TMC3     H 5011   3.306   1.908   9.583  0.8325 -1.4563 -0.9662
  330TMC3    H1 5012   3.600   1.908   9.903 -0.8191 -0.8342  0.5327
  330TMC3    H2 5013   3.391   1.562   9.826 -0.4540 -0.5950 -0.5108
  330TMC3    C7 5014   3.549   1.681   9.997 -0.3762 -0.3517 -0.2941
  330TMC3    C8 5015   3.258   1.658   9.602 -0.1167 -0.6399 -0.0263
  330TMC3    O1 5016   3.658   1.734  10.029  0.3485 -0.1852 -0.1606
  330TMC3    O2 5017   3.255   1.701   9.489 -0.1632 -0.3374 -0.0777
  331MPD2     C 5018   1.811   1.004  12.717  0.2573  0.8525 -0.3999
  331MPD2    C1 5019   1.676   0.981  12.709 -0.2608  0.6921  0.0021
  331MPD2    C2 5020   1.625   0.883  12.796  0.1125 -0.0916  0.4470
  331MPD2    C3 5021   1.705   0.806  12.868 -0.3352  0.3321 -0.2273
  331MPD2    C4 5022   1.837   0.823  12.868 -1.5518  0.0830 -0.4368
  331MPD2    C5 5023   1.888   0.927  12.796 -0.3610 -0.0594  0.1367
  331MPD2     H 5024   1.520   0.858  12.805 -0.3790  1.7862 -0.0685
  331MPD2    H1 5025   1.897   0.757  12.930 -0.0889  1.8826  0.0878
  331MPD2    H2 5026   1.853   1.088  12.663  0.9357 -0.5890 -2.1588
  331MPD2    H3 5027   1.996   0.938  12.787 -0.4801  0.4506 -0.6241
  331MPD2     N 5028   1.634   0.698  12.937 -0.2308  0.5628 -0.2790
  331MPD2    H5 5029   1.534   0.686  12.922 -0.3767 -1.6111  2.4449
  331MPD2    N1 5030   1.601   1.069  12.624 -0.4323 -0.1331  0.7630
  331MPD2    H7 5031   1.647   1.141  12.570 -0.5340 -2.5801 -2.5555
  332TMC3    C1 5032   1.616   0.497  13.057 -0.3174  0.3636 -0.0477
  332TMC3    C2 5033   1.511   0.467  12.973 -0.7941  0.0791  0.3345
  332TMC3    C3 5034   1.445   0.349  12.987  0.7539 -0.5589 -0.4575
  332TMC3    C4 5035   1.650   0.413  13.156  0.3980  0.0269 -0.4178
  332TMC3    C5 5036   1.574   0.299  13.172 -0.2364  0.6716  0.2110
  332TMC3    C6 5037   1.470   0.264  13.093  0.5107 -0.0236 -0.5226
  332TMC3     C 5038   1.700   0.609  13.022 -1.4266 -0.3075  0.0440
  332TMC3     O 5039   1.811   0.600  13.064  0.1050 -0.0016 -0.0587
  332TMC3     H 5040   1.496   0.526  12.883 -0.7150  1.7431  1.4064
  332TMC3    H1 5041   1.711   0.445  13.240 -0.1584 -0.8814  0.3343
  332TMC3    H2 5042   1.422   0.167  13.097 -0.5498  0.4368 -1.7663
  332TMC3    C7 5043   1.610   0.198  13.264 -0.2954  0.0124 -1.1672
  332TMC3    C8 5044   1.377   0.300  12.872  0.5017  0.0054 -1.0261
  332TMC3    O1 5045   1.528   0.121  13.317 -0.1674  0.0923  0.0840
  332TMC3    O2 5046   1.398   0.359  12.765 -0.1721 -0.1751  0.3785
  333MPD2     C 5047   1.036   1.197  11.391 -0.1796  0.1680  0.4259
  333MPD2    C1 5048   1.144   1.184  11.474 -0.4832  0.1312  0.1298
  333MPD2    C2 5049   1.144   1.075  11.565  0.5021 -0.4826 -0.0340
  333MPD2    C3 5050   1.040   0.986  11.577  0.2808  0.1534  0.0994
  333MPD2    C4 5051   0.934   1.013  11.497 -0.4772 -0.6677  0.5687
  333MPD2    C5 5052   0.927   1.123  11.412 -0.4749  0.0273 -1.5006
  333MPD2     H 5053   1.235   1.059  11.621 -1.3417 -3.4346  2.0778
  333MPD2    H1 5054   0.844   0.954  11.500  0.1412 -1.5555  1.7970
  333MPD2    H2 5055   1.035   1.275  11.316  0.2824 -0.2506 -0.0223
  333MPD2    H3 5056   0.841   1.140  11.349 -0.1391  0.8366 -1.7375
  333MPD2     N 5057   1.062   0.876  11.661  0.0606 -0.3034 -0.4752
  333MPD2    H5 5058   1.151   0.886  11.709 -0.8138  0.8166  0.8869
  333MPD2    N1 5059   1.258   1.263  11.443  0.3256  0.1549  0.5124
  333MPD2    H7 5060   1.258   1.314  11.355 -4.3837 -0.1512  0.3457
  334TMC3    C1 5061   1.482   1.296  11.445 -0.1106  0.2222  0.4345
  334TMC3    C2 5062   1.600   1.238  11.479 -0.5718 -0.6929 -0.1271
  334TMC3    C3 5063   1.710   1.249  11.394 -0.2981 -0.4736 -0.4564
  334TMC3    C4 5064   1.469   1.360  11.331  0.2715  0.1782 -0.6501
  334TMC3    C5 5065   1.581   1.371  11.249  0.5979  0.1581  1.1963
  334TMC3    C6 5066   1.705   1.317  11.281  0.3323  0.6870  0.5839
  334TMC3     C 5067   1.367   1.267  11.522 -0.1061 -0.3171 -0.0338
  334TMC3     O 5068   1.390   1.225  11.632 -0.1011 -0.2120 -0.6478
  334TMC3     H 5069   1.600   1.173  11.566  1.0177 -2.2135 -1.2523
  334TMC3    H1 5070   1.390   1.430  11.307  0.7716  1.1421  0.5189
  334TMC3    H2 5071   1.791   1.338  11.218 -0.7974  0.4608 -1.0367
  334TMC3    C7 5072   1.603   1.474  11.142  0.4681 -0.1165 -0.9512
  334TMC3    C8 5073   1.827   1.180  11.442 -0.2502  0.6130 -0.5217
  334TMC3    O1 5074   1.714   1.514  11.107  0.6975  0.5906  0.4934
  334TMC3    O2 5075   1.814   1.093  11.525  0.0956 -0.7011  0.1897
  335TMC3    C1 5076   1.057   2.456  17.697  0.0064 -0.0345  0.3478
  335TMC3    C2 5077   1.016   2.494  17.565 -0.1279 -0.1486 -0.5321
  335TMC3    C3 5078   1.105   2.543  17.478  0.3691  0.1332  0.3269
  335TMC3    C4 5079   1.186   2.476  17.743  0.1443  0.2799 -0.0164
  335TMC3    C5 5080   1.267   2.542  17.658 -0.0226  0.6001  0.3627
  335TMC3    C6 5081   1.223   2.580  17.532 -0.1819  1.0240 -0.6579
  335TMC3     C 5082   0.952   2.417   0.020  0.7877 -0.4703 -0.1576
  335TMC3     O 5083   0.838   2.430  17.748  0.0083  0.8900 -0.4145
  335TMC3     H 5084   0.912   2.490  17.536 -0.5120  0.5445  0.7968
  335TMC3    H1 5085   1.214   2.455   0.074  2.5888  0.0317 -0.7422
  335TMC3    H2 5086   1.299   2.616  17.464 -1.1276  0.0356 -2.2208
  335TMC3    C7 5087   1.407   2.497  17.666  0.2400  0.4776  0.5450
  335TMC3    C8 5088   1.121   2.501  17.340  0.2328 -0.1362 -0.4857
  335TMC3    O1 5089   1.456   2.474  17.558  0.4626  0.0577  0.3335
  335TMC3    O2 5090   1.213   2.549  17.279  0.3551 -0.8074 -0.8481
  336MPD2     C 5091   0.384   0.198  16.379  0.2705 -0.4345 -0.1997
  336MPD2    C1 5092   0.426   0.095  16.299  0.7064 -0.0615  0.0972
  336MPD2    C2 5093   0.485   4.724  16.356 -0.7332  0.4116  0.0855
  336MPD2    C3 5094   0.515   4.713  16.494  0.1378 -0.3053  0.2697
  336MPD2    C4 5095   0.475   0.078  16.571  0.0776 -0.3893 -0.5899
  336MPD2    C5 5096   0.425   0.199  16.513  0.1980  0.2417  0.1546
  336MPD2     H 5097   0.526   4.650  16.288 -0.2118  0.2594  0.5650
  336MPD2    H1 5098   0.491   0.082  16.678  0.3375  0.2740 -0.6547
  336MPD2    H2 5099   0.329   0.288  16.353  1.4684  0.0945 -0.9313
  336MPD2    H3 5100   0.388   0.275  16.582 -0.3419 -0.3550  0.5243
  336MPD2     N 5101   0.568   4.602  16.565  0.6872  0.7309 -0.4525
  336MPD2    H5 5102   0.559   4.610  16.665  0.0664  1.6724 -0.5766
  336MPD2    N1 5103   0.394   0.100  16.161 -0.1598 -0.2693 -0.1545
  336MPD2    H7 5104   0.412   0.018  16.104 -2.8511 -0.7976 -0.2475
  337TMC3    C1 5105   0.277   0.182  15.966  0.0031 -0.5500  0.3226
  337TMC3    C2 5106   0.266   0.052  15.922  0.3636  0.8311  0.3924
  337TMC3    C3 5107   0.214   0.039  15.791  0.2818  0.1210  0.3020
  337TMC3    C4 5108   0.241   0.293  15.885 -0.7238 -0.8981  1.2150
  337TMC3    C5 5109   0.198   0.269  15.757  0.3560  0.8469 -0.9440
  337TMC3    C6 5110   0.182   0.144  15.706  0.0158  0.3615 -0.3995
  337TMC3     C 5111   0.342   0.212  16.095  0.3399  0.3358 -0.0409
  337TMC3     O 5112   0.356   0.333  16.125 -0.7845 -0.1576  0.1709
  337TMC3     H 5113   0.258   4.720  15.999 -1.4387  0.1637 -0.4375
  337TMC3    H1 5114   0.237   0.390  15.933  3.5479 -0.7743  1.2837
  337TMC3    H2 5115   0.165   0.123  15.601 -0.3888 -1.1269 -0.0365
  337TMC3    C7 5116   0.179   0.376  15.665  0.3213 -0.0733  0.2788
  337TMC3    C8 5117   0.190   4.648  15.744 -0.0052  0.2029  0.4681
  337TMC3    O1 5118   0.235   0.477  15.694  0.0410 -0.1412 -0.1245
  337TMC3    O2 5119   0.265   4.570  15.804 -0.0820 -0.0686 -0.6615
  338MPD2     C 5120   0.275   4.165   0.965  0.5213  0.0313  0.7304
  338MPD2    C1 5121   0.226   4.181   0.833 -0.0904  0.3609 -0.0562
  338MPD2    C2 5122   0.116   4.260   0.812  0.0618 -0.1839 -0.4535
  338MPD2    C3 5123   0.045   4.316   0.915 -0.4959 -0.7022  0.4659
  338MPD2    C4 5124   0.090   4.301   1.042  0.2978 -0.7289 -0.3427
  338MPD2    C5 5125   0.210   4.235   1.069 -0.1458 -0.5270  0.3895
  338MPD2     H 5126   0.080   4.271   0.711  0.1895  0.6181 -0.4139
  338MPD2    H1 5127   0.032   4.331   1.129  0.1119 -0.0791 -0.6919
  338MPD2    H2 5128   0.353   4.093   0.989 -1.4396 -2.1029  0.7770
  338MPD2    H3 5129   0.228   4.214   1.174 -0.4641  0.2525  0.5954
  338MPD2     N 5130   4.672   4.381   0.872 -0.4418  0.4841 -0.2823
  338MPD2    H5 5131   4.669   4.384   0.771 -0.8483 -0.1397 -0.2913
  338MPD2    N1 5132   0.269   4.098   0.726 -1.0826 -0.0913  0.3151
  338MPD2    H7 5133   0.202   4.104   0.649  0.0118  2.2233 -0.4599
  339TMC3    C1 5134   4.463   4.477   0.878 -0.3315  0.4284 -0.4304
  339TMC3    C2 5135   4.389   4.569   0.933 -0.4544  1.3998  0.2098
  339TMC3    C3 5136   4.290   4.626   0.861 -0.9571  0.6230  0.0765
  339TMC3    C4 5137   4.434   4.423   0.757  0.5310 -0.0131 -0.0923
  339TMC3    C5 5138   4.323   4.472   0.684  0.3049 -0.2031 -0.2395
  339TMC3    C6 5139   4.254   4.581   0.736  0.0836 -0.1936 -0.1615
  339TMC3     C 5140   4.578   4.433   0.953  0.8193  0.1768 -0.1167
  339TMC3     O 5141   4.562   4.441   1.080  0.0296 -0.0057  0.2010
  339TMC3     H 5142   4.404   4.601   1.035 -5.3043 -1.9621  1.9990
  339TMC3    H1 5143   4.483   4.333   0.722 -0.3328 -1.0333  1.2998
  339TMC3    H2 5144   4.171   4.631   0.688  0.1631 -0.1037 -0.2036
  339TMC3    C7 5145   4.325   4.414   0.546 -0.5126  0.0638 -0.4767
  339TMC3    C8 5146   4.201   4.722   0.924  0.0657  0.7580 -0.1440
  339TMC3    O1 5147   4.375   4.308   0.527 -0.6478 -0.5705 -0.1243
  339TMC3    O2 5148   4.134   0.050   0.852 -0.0189 -0.4420  0.1021
  340MPD2     C 5149   1.008   1.992  10.338  0.1685 -0.8056  0.8470
  340MPD2    C1 5150   1.076   2.027  10.226  0.3255 -0.7657  0.3074
  340MPD2    C2 5151   1.197   2.093  10.230  0.0955  0.0971  0.2345
  340MPD2    C3 5152   1.243   2.138  10.354  0.5019 -0.6858  0.2866
  340MPD2    C4 5153   1.161   2.140  10.461 -0.1220 -0.3509 -0.1584
  340MPD2    C5 5154   1.049   2.058  10.455  0.4304  0.4032  0.3051
  340MPD2     H 5155   1.253   2.116  10.140 -1.2247 -1.0632 -0.8730
  340MPD2    H1 5156   1.197   2.170  10.559 -0.2054  0.7771 -0.4752
  340MPD2    H2 5157   0.915   1.937  10.338  0.7640 -1.8459 -1.9230
  340MPD2    H3 5158   0.990   2.040  10.544  1.6087 -3.3445  0.3164
  340MPD2     N 5159   1.369   2.179  10.378  0.0800 -0.1202 -0.3192
  340MPD2    H5 5160   1.387   2.221  10.468 -0.8251  0.3069 -0.3418
  340MPD2    N1 5161   1.024   1.963  10.107  0.6678  0.2596  0.4960
  340MPD2    H7 5162   0.939   1.907  10.106  0.0266  1.1799  2.5912
  341TMC3    C1 5163   1.027   1.900   9.866 -0.0509  0.2913 -0.2771
  341TMC3    C2 5164   0.961   1.785   9.885  1.2691  0.1068 -0.8682
  341TMC3    C3 5165   0.941   1.697   9.781  0.2703 -1.2677 -0.3270
  341TMC3    C4 5166   1.086   1.922   9.740 -1.1556 -0.6578 -0.0009
  341TMC3    C5 5167   1.052   1.835   9.638  0.0986 -0.3285  0.0398
  341TMC3    C6 5168   0.977   1.723   9.655  0.5781  0.0372 -0.5598
  341TMC3     C 5169   1.075   1.983   9.979  0.2876  0.0514  0.5116
  341TMC3     O 5170   1.170   2.056   9.948  0.3686  0.4816 -0.3401
  341TMC3     H 5171   0.942   1.746   9.985 -2.1639  0.5244 -1.3366
  341TMC3    H1 5172   1.151   2.006   9.719  0.8377 -1.5089  2.8220
  341TMC3    H2 5173   0.963   1.645   9.581  1.8949 -0.6291 -0.1004
  341TMC3    C7 5174   1.103   1.851   9.504  0.4769  0.7551 -0.4287
  341TMC3    C8 5175   0.882   1.566   9.800  0.0096  0.5719 -0.4149
  341TMC3    O1 5176   1.213   1.899   9.496  0.4382  0.5168 -0.3575
  341TMC3    O2 5177   0.935   1.473   9.750  0.4168 -0.4233  0.0563
  342MPD2     C 5178   3.241   0.758  17.567 -0.1883  0.9824 -0.5349
  342MPD2    C1 5179   3.378   0.731  17.577 -0.1411 -0.0725  0.1569
  342MPD2    C2 5180   3.471   0.837  17.577  0.1787  0.0274  0.0912
  342MPD2    C3 5181   3.430   0.961  17.553 -0.1306 -0.0808  0.0277
  342MPD2    C4 5182   3.295   0.989  17.550 -0.2920 -0.3904  0.4681
  342MPD2    C5 5183   3.196   0.888  17.562 -0.1868  0.4393  0.5918
  342MPD2     H 5184   3.575   0.812  17.593  0.6201  1.5448 -0.3214
  342MPD2    H1 5185   3.271   1.095  17.547  1.7281  0.0930  1.5144
  342MPD2    H2 5186   3.165   0.682  17.575  0.4041  0.3743 -0.6917
  342MPD2    H3 5187   3.093   0.922  17.569 -0.0565  0.5320  2.0822
  342MPD2     N 5188   3.517   1.072  17.540 -0.5468  0.3036  0.7756
  342MPD2    H5 5189   3.486   1.164  17.513 -2.6509 -0.4477  0.6000
  342MPD2    N1 5190   3.434   0.599  17.573 -0.3110  0.8656 -0.2515
  342MPD2    H7 5191   3.535   0.588  17.576 -0.2040  1.8191 -0.2140
  343TMC3    C1 5192   3.460   0.377  17.529  0.9341 -0.6688 -0.5914
  343TMC3    C2 5193   3.590   0.397  17.505 -0.4855  0.1956  0.2159
  343TMC3    C3 5194   3.667   0.299  17.443  0.0788 -0.3350 -0.7434
  343TMC3    C4 5195   3.402   0.265  17.485 -0.7991  1.0013 -0.3915
  343TMC3    C5 5196   3.476   0.163  17.432  0.6621 -0.3148  0.8560
  343TMC3    C6 5197   3.611   0.181  17.412  0.6242 -0.0837  0.7601
  343TMC3     C 5198   3.370   0.485  17.569  0.3320 -0.3003  0.0409
  343TMC3     O 5199   3.250   0.462  17.579  0.3827 -0.2128  0.1344
  343TMC3     H 5200   3.640   0.493  17.506  0.3089 -0.2160 -0.5115
  343TMC3    H1 5201   3.300   0.244  17.514 -1.0707  1.6133 -0.8990
  343TMC3    H2 5202   3.671   0.094  17.386 -1.7722 -1.3146 -0.6131
  343TMC3    C7 5203   3.429   0.027  17.435 -0.2757  0.5704  0.1764
  343TMC3    C8 5204   3.809   0.327  17.439 -0.3139  0.0223 -0.2792
  343TMC3    O1 5205   3.483   4.683  17.365  0.3923 -0.0270 -0.0539
  343TMC3    O2 5206   3.846   0.410  17.524  0.0689 -0.0384  0.1199
  344MPD2     C 5207   0.066   4.609  10.518 -0.3395 -0.0870  0.7898
  344MPD2    C1 5208   4.729   4.719  10.538 -0.4062 -0.3692  0.2968
  344MPD2    C2 5209   0.007   0.087  10.460  0.4312 -0.2132 -0.4109
  344MPD2    C3 5210   0.122   0.094  10.381 -0.4707 -0.4336 -0.6882
  344MPD2    C4 5211   0.206   4.728  10.365 -0.2947 -0.4757 -0.7322
  344MPD2    C5 5212   0.173   4.619  10.437 -1.0372  0.0968  0.7963
  344MPD2     H 5213   4.683   0.172  10.473 -2.0084 -1.8257 -2.6473
  344MPD2    H1 5214   0.291   4.734  10.298 -0.1968 -2.1629 -0.7556
  344MPD2    H2 5215   0.054   4.513  10.566  0.2537 -0.4917  0.1310
  344MPD2    H3 5216   0.226   4.526  10.421 -0.8894  0.3141  0.0374
  344MPD2     N 5217   0.157   0.197  10.296 -0.3003 -0.2108 -0.3190
  344MPD2    H5 5218   0.251   0.192  10.257  0.2886  1.3682  0.9378
  344MPD2    N1 5219   4.624   4.725  10.635 -0.5374 -0.5149 -0.0403
  344MPD2    H7 5220   4.564   0.063  10.624 -0.0887 -0.2267 -0.3434
  345TMC3    C1 5221   0.155   0.408  10.193  0.3361  0.3052 -0.2666
  345TMC3    C2 5222   0.282   0.429  10.214  0.5097  0.3660 -0.2684
  345TMC3    C3 5223   0.335   0.546  10.161  0.2410  0.3046 -0.1607
  345TMC3    C4 5224   0.073   0.492  10.118  0.0883  0.6276  0.3018
  345TMC3    C5 5225   0.131   0.600  10.060  0.7624 -0.2009 -0.1051
  345TMC3    C6 5226   0.262   0.627  10.077  0.6017  0.4110 -0.0745
  345TMC3     C 5227   0.085   0.307  10.273 -0.0544 -0.3595  0.1040
  345TMC3     O 5228   4.712   0.331  10.293  0.2949  0.2008 -1.0529
  345TMC3     H 5229   0.336   0.375  10.290 -3.9161 -0.7353  2.0671
  345TMC3    H1 5230   4.711   0.471  10.107  0.3293 -0.1910 -0.4590
  345TMC3    H2 5231   0.313   0.706  10.023  2.9353 -0.9273  0.1734
  345TMC3    C7 5232   0.047   0.719  10.020  0.1584  0.2998 -0.2555
  345TMC3    C8 5233   0.465   0.603  10.202  0.0369  0.3334  0.1649
  345TMC3    O1 5234   0.116   0.819  10.002  0.4833  0.5125  0.0961
  345TMC3    O2 5235   0.569   0.534  10.199 -0.4450  0.4006  0.1971
  346MPD2     C 5236   0.062   1.264  14.892  0.3650  0.0186  0.0895
  346MPD2    C1 5237   0.105   1.372  14.813 -0.4162 -0.6464  0.0233
  346MPD2    C2 5238   0.147   1.487  14.875 -0.4434 -0.1599  0.1089
  346MPD2    C3 5239   0.164   1.489  15.015  0.4885  0.1713 -0.2145
  346MPD2    C4 5240   0.122   1.380  15.095 -0.0299 -0.1110  0.3925
  346MPD2    C5 5241   0.076   1.269  15.027  0.4514 -0.1458 -0.6810
  346MPD2     H 5242   0.183   1.567  14.812  0.9184  0.4263  1.6371
  346MPD2    H1 5243   0.128   1.371  15.202  0.8064 -0.6861  0.2934
  346MPD2    H2 5244   0.014   1.178  14.847 -1.8259  0.6534  1.2060
  346MPD2    H3 5245   0.038   1.188  15.088  1.5353 -1.4010 -1.6618
  346MPD2     N 5246   0.231   1.599  15.071  0.0305  0.5596 -0.2668
  346MPD2    H5 5247   0.286   1.665  15.018  1.3474 -0.6562 -0.4143
  346MPD2    N1 5248   0.090   1.379  14.670  0.1574 -0.4342  0.4016
  346MPD2    H7 5249   0.118   1.463  14.621 -0.3882 -0.5922 -0.1830
  347TMC3    C1 5250   0.351   1.710  15.225  0.2830 -0.3610 -0.4536
  347TMC3    C2 5251   0.396   1.776  15.110  0.6265  0.4327  0.1346
  347TMC3    C3 5252   0.530   1.762  15.070 -0.3193  0.9786 -0.1399
  347TMC3    C4 5253   0.437   1.655  15.316  0.2487  0.0739  0.6837
  347TMC3    C5 5254   0.572   1.653  15.276 -0.4561 -0.1155 -0.0641
  347TMC3    C6 5255   0.616   1.694  15.149 -0.9031  0.3919 -0.2277
  347TMC3     C 5256   0.240   1.623  15.202 -0.1184 -0.5971  0.1774
  347TMC3     O 5257   0.185   1.570  15.295 -0.6480  0.5758  0.1877
  347TMC3     H 5258   0.325   1.846  15.066  1.7512  1.4263 -0.0991
  347TMC3    H1 5259   0.406   1.603  15.406  0.8284 -1.2888  0.0871
  347TMC3    H2 5260   0.721   1.679  15.124 -1.4540 -1.8976 -1.1749
  347TMC3    C7 5261   0.649   1.544  15.323 -0.1980 -0.8312 -0.7994
  347TMC3    C8 5262   0.540   1.700  14.935 -0.7402  0.4442 -0.0559
  347TMC3    O1 5263   0.683   1.456  15.245  0.0995  0.4227  0.0049
  347TMC3    O2 5264   0.591   1.590  14.923  0.2938 -0.4105 -0.3513
  348MPD2     C 5265   3.939   1.589  11.770 -0.0891 -0.1201 -0.9588
  348MPD2    C1 5266   3.820   1.565  11.705 -0.0376  0.8972 -0.8409
  348MPD2    C2 5267   3.785   1.642  11.596  0.0132 -0.1327 -0.1426
  348MPD2    C3 5268   3.865   1.745  11.563  0.4096  0.3525 -0.1853
  348MPD2    C4 5269   3.975   1.771  11.640  0.8851 -0.5909  0.4229
  348MPD2    C5 5270   4.014   1.692  11.740  0.1332 -0.8008  0.3894
  348MPD2     H 5271   3.696   1.613  11.542  0.1185  1.6002 -1.2356
  348MPD2    H1 5272   4.046   1.849  11.615  1.2786 -0.2192  2.6844
  348MPD2    H2 5273   3.967   1.529  11.856 -0.5421  0.3562 -0.4847
  348MPD2    H3 5274   4.106   1.713  11.792  0.9021 -2.1073 -0.4339
  348MPD2     N 5275   3.828   1.825  11.451 -0.1849  0.3063  0.3769
  348MPD2    H5 5276   3.754   1.797  11.387 -0.5113  0.8057  0.5383
  348MPD2    N1 5277   3.731   1.462  11.746 -0.4208 -0.0495  0.1106
  348MPD2    H7 5278   3.642   1.468  11.697 -0.0737  1.0665 -0.3941
  349TMC3    C1 5279   3.630   1.297  11.887  0.8333 -0.6621  0.5894
  349TMC3    C2 5280   3.650   1.200  11.984  0.9111  0.7162  0.0063
  349TMC3    C3 5281   3.547   1.159  12.062  0.1567 -0.0223 -0.1438
  349TMC3    C4 5282   3.510   1.348  11.868 -0.4718 -0.0235 -0.3390
  349TMC3    C5 5283   3.408   1.305  11.949 -0.0393 -0.4551  0.5131
  349TMC3    C6 5284   3.426   1.204  12.043  0.1836  0.2476 -0.6235
  349TMC3     C 5285   3.752   1.365  11.842 -0.0222 -0.2930 -0.3015
  349TMC3     O 5286   3.856   1.327  11.894 -0.0684  0.3649  0.0451
  349TMC3     H 5287   3.748   1.165  12.014  0.9895  0.4972 -0.5146
  349TMC3    H1 5288   3.494   1.410  11.781  0.9020 -0.7094 -1.0696
  349TMC3    H2 5289   3.343   1.174  12.107 -1.1842 -1.4655 -3.2003
  349TMC3    C7 5290   3.271   1.326  11.899 -0.1523  0.0776 -0.7707
  349TMC3    C8 5291   3.566   1.042  12.152  0.7565  0.3193 -0.3458
  349TMC3    O1 5292   3.182   1.242  11.927 -0.0870 -0.0755  0.7560
  349TMC3    O2 5293   3.681   1.004  12.170  0.0783 -0.0693 -0.1251
  350MPD2     C 5294   2.826   4.418  10.635 -0.7389  0.4257  0.2348
  350MPD2    C1 5295   2.695   4.385  10.674 -0.3163 -0.9093  0.0728
  350MPD2    C2 5296   2.650   4.436  10.795 -0.1196  0.6810 -0.4464
  350MPD2    C3 5297   2.726   4.522  10.872 -0.1025  0.2880  0.0610
  350MPD2    C4 5298   2.849   4.569  10.829 -0.8004  0.3875  0.7646
  350MPD2    C5 5299   2.893   4.517  10.707  0.2473  0.0114  0.5133
  350MPD2     H 5300   2.551   4.415  10.836 -0.8360  0.5328 -2.2484
  350MPD2    H1 5301   2.916   4.639  10.880 -0.8420  0.3324  0.8950
  350MPD2    H2 5302   2.874   4.382  10.545 -0.4374 -0.7339  0.8700
  350MPD2    H3 5303   2.989   4.555  10.673 -0.8975  1.9262 -0.5404
  350MPD2     N 5304   2.675   4.553  10.999 -0.0654 -0.1368 -0.1451
  350MPD2    H5 5305   2.582   4.513  11.008 -0.6731  1.2404 -0.3169
  350MPD2    N1 5306   2.625   4.287  10.599 -0.8994 -0.6853  0.1409
  350MPD2    H7 5307   2.661   4.265  10.506 -0.2526  0.3417  0.1495
  351TMC3    C1 5308   2.481   4.106  10.553 -0.1660  0.1496 -0.2539
  351TMC3    C2 5309   2.589   4.040  10.502  0.0682  0.0757  0.5630
  351TMC3    C3 5310   2.571   3.906  10.498  0.0229  0.9082  0.4245
  351TMC3    C4 5311   2.366   4.047  10.592 -0.3268 -0.5589  0.4813
  351TMC3    C5 5312   2.357   3.911  10.568  0.0345 -0.1610 -0.0022
  351TMC3    C6 5313   2.462   3.835  10.522 -0.1175 -0.2149  0.0511
  351TMC3     C 5314   2.509   4.221  10.638 -0.3898  0.7160 -0.2295
  351TMC3     O 5315   2.434   4.234  10.733  0.4258 -0.3845  0.6544
  351TMC3     H 5316   2.682   4.087  10.473  0.2749 -1.0374 -0.5975
  351TMC3    H1 5317   2.284   4.105  10.632  0.9666  2.0377 -0.6252
  351TMC3    H2 5318   2.466   3.729  10.504  0.0949 -0.8395  3.7116
  351TMC3    C7 5319   2.239   3.844  10.631  0.5017 -0.2088  0.4312
  351TMC3    C8 5320   2.676   3.825  10.451 -0.0619 -0.3106 -0.1405
  351TMC3    O1 5321   2.167   3.908  10.710 -0.2014 -0.0243 -0.7427
  351TMC3    O2 5322   2.772   3.885  10.402  0.8106  0.9024 -0.0698
  352MPD2     C 5323   0.905   1.435   1.222  0.0118 -0.2107 -0.0772
  352MPD2    C1 5324   0.860   1.460   1.088  0.1155 -0.1874 -0.1929
  352MPD2    C2 5325   0.938   1.409   0.983  0.1883 -0.1830 -0.9400
  352MPD2    C3 5326   1.054   1.335   1.012  0.5749  0.2382  0.1567
  352MPD2    C4 5327   1.090   1.300   1.147 -1.1505  0.1246  0.1014
  352MPD2    C5 5328   1.011   1.348   1.250 -0.4563  0.0753  0.0327
  352MPD2     H 5329   0.911   1.418   0.879 -0.4163 -0.0058 -0.7638
  352MPD2    H1 5330   1.170   1.231   1.173 -2.0438 -1.2327 -0.8163
  352MPD2    H2 5331   0.853   1.481   1.305 -3.3410 -1.6307 -1.3858
  352MPD2    H3 5332   1.037   1.321   1.351 -1.6472 -0.7011  0.1315
  352MPD2     N 5333   1.145   1.290   0.912 -0.3764 -0.9939 -0.2370
  352MPD2    H5 5334   1.235   1.252   0.941 -0.2818 -0.2092  0.4910
  352MPD2    N1 5335   0.755   1.556   1.068 -0.4918 -0.5260 -0.3903
  352MPD2    H7 5336   0.719   1.607   1.148  1.2620 -0.4537  0.3511
  353TMC3    C1 5337   1.216   1.219   0.694  0.0848  0.0264  0.3927
  353TMC3    C2 5338   1.341   1.214   0.739  0.2402 -0.0107 -0.1279
  353TMC3    C3 5339   1.426   1.126   0.682  0.6146 -0.4800  0.2776
  353TMC3    C4 5340   1.174   1.149   0.587  0.1715  0.3172 -0.1629
  353TMC3    C5 5341   1.268   1.083   0.517  0.3669  0.5375 -0.4006
  353TMC3    C6 5342   1.392   1.068   0.567 -0.5445  0.1748 -0.1314
  353TMC3     C 5343   1.113   1.275   0.784  0.8871  0.3714 -0.0647
  353TMC3     O 5344   1.003   1.281   0.738 -0.3266  0.0167  0.1922
  353TMC3     H 5345   1.375   1.261   0.831  1.7689 -2.5273  0.5830
  353TMC3    H1 5346   1.073   1.161   0.551 -0.3133  0.8969  1.4120
  353TMC3    H2 5347   1.451   0.987   0.528 -2.5387 -0.0310 -2.7540
  353TMC3    C7 5348   1.222   0.996   0.414  0.5655 -0.1735 -0.0084
  353TMC3    C8 5349   1.547   1.077   0.745 -0.9377 -0.1050 -0.5136
  353TMC3    O1 5350   1.107   0.967   0.420 -0.3045 -0.4335 -0.0985
  353TMC3    O2 5351   1.606   1.161   0.815  0.2004  0.7579 -0.0542
  354TMC3    C1 5352   2.624   2.288  13.968  0.1745  0.7440 -0.6637
  354TMC3    C2 5353   2.675   2.418  13.966  0.6929 -0.4460  0.4302
  354TMC3    C3 5354   2.673   2.483  13.847  0.3244 -0.0848  0.3885
  354TMC3    C4 5355   2.565   2.241  13.853  0.1718 -0.5400 -0.0422
  354TMC3    C5 5356   2.555   2.322  13.741 -0.2021 -0.2095  0.6536
  354TMC3    C6 5357   2.606   2.442  13.736  0.2564  0.1518 -0.6773
  354TMC3     C 5358   2.627   2.212  14.093 -0.3079  0.2289  0.5585
  354TMC3     O 5359   2.529   2.152  14.120 -0.2346  0.5745  0.3697
  354TMC3     H 5360   2.720   2.464  14.054  3.2102 -0.0400 -1.0489
  354TMC3    H1 5361   2.513   2.146  13.860 -2.1536  0.8594  1.7458
  354TMC3    H2 5362   2.577   2.505  13.652  0.8465  0.5647 -0.5720
  354TMC3    C7 5363   2.543   2.253  13.613 -0.7751 -1.1872  0.3897
  354TMC3    C8 5364   2.702   2.621  13.860 -0.0486  0.3755 -0.3868
  354TMC3    O1 5365   2.497   2.139  13.622 -0.6637 -0.0716 -0.6580
  354TMC3    O2 5366   2.714   2.677  13.974 -0.6396  0.1213 -1.0158
  355MPD2     C 5367   3.134   3.185  11.285 -0.2796  0.8719  0.2146
  355MPD2    C1 5368   3.059   3.254  11.378 -0.0280  0.7647 -0.3116
  355MPD2    C2 5369   3.132   3.343  11.457  0.1544  0.3860  0.3866
  355MPD2    C3 5370   3.260   3.381  11.429  0.5375 -0.9406 -0.5877
  355MPD2    C4 5371   3.332   3.307  11.345  0.4959 -0.1168  0.0667
  355MPD2    C5 5372   3.270   3.211  11.273  1.3149 -0.6598 -0.4286
  355MPD2     H 5373   3.077   3.404  11.527 -1.9107 -3.3113  1.9609
  355MPD2    H1 5374   3.439   3.320  11.338  0.7620 -1.0935  2.3310
  355MPD2    H2 5375   3.088   3.117  11.214  1.8240 -0.4369  0.0991
  355MPD2    H3 5376   3.333   3.149  11.211  2.4035 -0.4103  0.4332
  355MPD2     N 5377   3.321   3.483  11.505 -0.5596  0.2158 -0.0336
  355MPD2    H5 5378   3.414   3.514  11.476 -0.1715 -0.7944  0.1273
  355MPD2    N1 5379   2.916   3.237  11.383 -0.0735  0.2934 -0.1761
  355MPD2    H7 5380   2.883   3.145  11.357 -2.0496  0.7433  0.7459
  356TMC3    C1 5381   3.369   3.633  11.694  0.2732  0.1735  0.1618
  356TMC3    C2 5382   3.455   3.706  11.611 -0.1020  0.3214 -0.3491
  356TMC3    C3 5383   3.519   3.814  11.676  0.3285 -0.8458  0.2280
  356TMC3    C4 5384   3.343   3.656  11.825 -0.0920 -0.1980 -0.2598
  356TMC3    C5 5385   3.412   3.763  11.880 -0.0304  0.3671 -0.1818
  356TMC3    C6 5386   3.503   3.834  11.811  0.3471 -0.1254 -0.3286
  356TMC3     C 5387   3.291   3.522  11.634 -0.3550  0.0158  0.7066
  356TMC3     O 5388   3.213   3.470  11.713  1.0318  0.3705 -0.5057
  356TMC3     H 5389   3.474   3.681  11.508 -1.2213 -0.6036 -0.3320
  356TMC3    H1 5390   3.284   3.583  11.879  0.5556 -0.2725  0.3566
  356TMC3    H2 5391   3.570   3.896  11.868  0.4868 -1.8087  1.3303
  356TMC3    C7 5392   3.370   3.794  12.018  0.6476  0.2822 -0.4538
  356TMC3    C8 5393   3.606   3.898  11.601  0.8567 -0.4555  0.1061
  356TMC3    O1 5394   3.315   3.700  12.073 -0.2029 -0.1170  0.4869
  356TMC3    O2 5395   3.635   3.855  11.488 -0.4509  0.1959 -0.2855
  357MPD2     C 5396   2.708   3.301   0.151 -0.3828  0.7454 -0.5065
  357MPD2    C1 5397   2.645   3.398   0.223  0.0448  0.3429 -0.4299
  357MPD2    C2 5398   2.520   3.442   0.190 -0.5489  0.4890  0.1868
  357MPD2    C3 5399   2.447   3.380   0.092 -0.1394 -0.5458 -0.1859
  357MPD2    C4 5400   2.512   3.279   0.025 -0.4807  0.2235 -0.9649
  357MPD2    C5 5401   2.636   3.233   0.059  0.4688  0.0986 -0.1649
  357MPD2     H 5402   2.481   3.519   0.255 -2.7822  0.2767 -0.9034
  357MPD2    H1 5403   2.457   3.229  17.718 -0.7481  0.0695 -0.6842
  357MPD2    H2 5404   2.810   3.270   0.171 -0.8874 -1.3485 -1.1465
  357MPD2    H3 5405   2.687   3.157   0.001  0.1766 -0.0905 -0.1702
  357MPD2     N 5406   2.324   3.427   0.046  0.6034 -0.5176 -0.0031
  357MPD2    H5 5407   2.270   3.369  17.754 -0.4315 -0.1478  0.5438
  357MPD2    N1 5408   2.724   3.449   0.331  0.3866  0.0857  0.2701
  357MPD2    H7 5409   2.815   3.411   0.352 -0.0774  0.7289  3.4333
  358TMC3    C1 5410   2.772   3.552   0.538  0.5880 -0.5333  0.0625
  358TMC3    C2 5411   2.877   3.462   0.522  0.0813 -0.2959 -0.1313
  358TMC3    C3 5412   2.898   3.363   0.616  0.6334  0.2911 -0.0411
  358TMC3    C4 5413   2.696   3.543   0.646 -0.0154 -0.5812  0.5472
  358TMC3    C5 5414   2.714   3.448   0.743  0.3909  0.2093 -0.6541
  358TMC3    C6 5415   2.809   3.355   0.724 -1.2118 -0.1971 -0.3687
  358TMC3     C 5416   2.686   3.546   0.423 -1.1179 -0.7160  0.2996
  358TMC3     O 5417   2.592   3.624   0.421 -0.0563 -0.0468  0.4989
  358TMC3     H 5418   2.952   3.473   0.444 -0.2035 -3.2663 -0.8001
  358TMC3    H1 5419   2.609   3.608   0.652  1.1028  0.7981  1.6685
  358TMC3    H2 5420   2.842   3.297   0.809  0.6625  3.1486  1.1666
  358TMC3    C7 5421   2.590   3.394   0.797  0.2702  0.7553  0.0278
  358TMC3    C8 5422   2.914   3.246   0.551  0.2531  0.0280  0.4015
  358TMC3    O1 5423   2.491   3.465   0.797  0.4038  0.1193 -0.2953
  358TMC3    O2 5424   2.950   3.249   0.429  0.7339  0.1176  0.2425
  359MPD2     C 5425   3.460   2.357  12.767 -0.4515  0.6467 -0.5925
  359MPD2    C1 5426   3.453   2.386  12.630  0.7566  0.5844  0.8747
  359MPD2    C2 5427   3.338   2.357  12.557  0.7960 -0.6890  0.0535
  359MPD2    C3 5428   3.229   2.300  12.620 -0.1294  0.1128 -0.1324
  359MPD2    C4 5429   3.238   2.281  12.758 -0.0504  0.1879  0.2994
  359MPD2    C5 5430   3.352   2.312  12.829 -0.0111  0.3107 -0.2096
  359MPD2     H 5431   3.335   2.370  12.449 -2.2692  1.4191  0.4032
  359MPD2    H1 5432   3.156   2.246  12.820  0.0766 -1.1871 -0.3134
  359MPD2    H2 5433   3.544   2.392  12.826 -1.2514 -0.9679  1.4900
  359MPD2    H3 5434   3.361   2.276  12.931  1.7911  0.3247 -0.3598
  359MPD2     N 5435   3.106   2.259  12.566  0.1872 -0.5931 -0.1166
  359MPD2    H5 5436   3.033   2.219  12.624 -1.1264  0.8197 -0.7774
  359MPD2    N1 5437   3.564   2.433  12.554 -0.1878  0.3404  0.1630
  359MPD2    H7 5438   3.542   2.463  12.460  0.3215 -0.7882 -0.3216
  360TMC3    C1 5439   3.792   2.452  12.488  0.4716 -0.4955 -0.4167
  360TMC3    C2 5440   3.787   2.582  12.432  0.0977  0.0574 -0.4293
  360TMC3    C3 5441   3.881   2.603  12.339 -0.2153 -0.5901  0.4318
  360TMC3    C4 5442   3.902   2.371  12.476 -0.5431 -0.3365 -0.2114
  360TMC3    C5 5443   4.000   2.415  12.390  0.3864  0.0681  1.1711
  360TMC3    C6 5444   4.004   2.537  12.334 -0.4978 -0.3929 -0.2739
  360TMC3     C 5445   3.698   2.423  12.595 -0.3276 -0.2488 -0.6132
  360TMC3     O 5446   3.743   2.389  12.700 -0.6175 -0.5094  0.5770
  360TMC3     H 5447   3.696   2.641  12.435  1.8826  2.5944  3.8928
  360TMC3    H1 5448   3.915   2.282  12.536 -2.1775  0.5417  1.4372
  360TMC3    H2 5449   4.074   2.558  12.255 -0.7309 -0.0673 -0.3978
  360TMC3    C7 5450   4.013   2.317  12.281 -0.1504  0.3813 -0.1339
  360TMC3    C8 5451   3.832   2.657  12.219  0.1221 -0.2165  0.1723
  360TMC3    O1 5452   4.043   2.364  12.173 -0.0096  0.0517  0.2386
  360TMC3    O2 5453   3.736   2.730  12.216 -0.3501  0.3359  0.3389
  361MPD2     C 5454   0.141   1.442  17.354  0.3698  0.8830 -0.0422
  361MPD2    C1 5455   0.079   1.320  17.318  0.2811 -0.3845  0.0533
  361MPD2    C2 5456   0.146   1.202  17.344  0.5450 -0.0523 -0.3064
  361MPD2    C3 5457   0.277   1.203  17.394  0.6214  0.5853  0.2169
  361MPD2    C4 5458   0.341   1.325  17.417  0.2561 -0.4767  0.7129
  361MPD2    C5 5459   0.272   1.441  17.402 -0.2247 -0.3723 -0.0482
  361MPD2     H 5460   0.096   1.106  17.331  0.4254  0.1771 -1.6221
  361MPD2    H1 5461   0.439   1.334  17.461  0.0952  0.4092  0.9003
  361MPD2    H2 5462   0.088   1.533  17.330  1.7745  2.1617  1.8191
  361MPD2    H3 5463   0.319   1.536  17.422 -1.1268 -0.0628  0.6079
  361MPD2     N 5464   0.349   1.098  17.444  0.0391  0.7867  0.6255
  361MPD2    H5 5465   0.448   1.113  17.465  0.2135  2.3889 -1.2710
  361MPD2    N1 5466   4.697   1.310  17.254  0.2002 -0.6157 -0.6093
  361MPD2    H7 5467   4.668   1.218  17.222  2.6531 -1.2868 -0.8935
  362TMC3    C1 5468   4.508   1.352  17.132 -0.2105  0.4899 -0.4641
  362TMC3    C2 5469   4.379   1.335  17.169 -0.8274  0.1588 -0.1987
  362TMC3    C3 5470   4.294   1.264  17.091  0.3268 -0.2868 -0.5083
  362TMC3    C4 5471   4.555   1.293  17.025 -0.0047  0.2500  0.0238
  362TMC3    C5 5472   4.481   1.221  16.940 -0.1564  0.4623 -0.4803
  362TMC3    C6 5473   4.344   1.206  16.976  0.3547 -0.1298  0.5750
  362TMC3     C 5474   4.604   1.403  17.228  0.4982 -0.0943  0.1413
  362TMC3     O 5475   4.597   1.517  17.277  0.4927  0.2736 -0.5906
  362TMC3     H 5476   4.350   1.376  17.265  0.4232  0.2335  0.1461
  362TMC3    H1 5477   4.661   1.301  17.005 -0.0610  1.0449  0.0562
  362TMC3    H2 5478   4.275   1.156  16.908 -2.1429  1.5067  1.8882
  362TMC3    C7 5479   4.498   1.280  16.812 -0.3481 -0.6145  0.2859
  362TMC3    C8 5480   4.150   1.293  17.106 -0.1812  0.2076  0.2845
  362TMC3    O1 5481   4.581   1.371  16.806  0.0548  0.1200 -0.0169
  362TMC3    O2 5482   4.063   1.213  17.067  0.0174 -1.1343 -0.2869
  363TMC3    C1 5483   3.056   3.770   9.332 -0.1080  0.7021  0.7198
  363TMC3    C2 5484   3.146   3.730   9.432 -0.5089  0.0680  0.2033
  363TMC3    C3 5485   3.147   3.817   9.539 -0.0833  0.5144  0.0858
  363TMC3    C4 5486   2.978   3.882   9.344  0.1983 -0.6082  0.1411
  363TMC3    C5 5487   2.985   3.959   9.450 -0.1653  0.7958  0.1022
  363TMC3    C6 5488   3.068   3.930   9.552  0.2403 -0.1856  0.4063
  363TMC3     C 5489   3.040   3.696   9.210 -0.0718 -0.4258 -0.8719
  363TMC3     O 5490   2.951   3.720   9.133 -0.2771 -0.6852  0.7466
  363TMC3     H 5491   3.221   3.655   9.408 -0.3903 -0.1194  1.1895
  363TMC3    H1 5492   2.915   3.914   9.262  1.1160 -2.6963 -1.3851
  363TMC3    H2 5493   3.052   3.987   9.643 -0.9676  0.8676 -0.4662
  363TMC3    C7 5494   2.882   4.056   9.480 -0.2560 -0.1455  0.2644
  363TMC3    C8 5495   3.238   3.795   9.653  0.3786  0.2985  0.0595
  363TMC3    O1 5496   2.894   4.129   9.580  0.0780 -0.2937 -0.1437
  363TMC3    O2 5497   3.225   3.868   9.748  0.2714  0.1065 -0.4063
  364MPD2     C 5498   2.198   2.941  10.975  0.0207  0.5392  0.3574
  364MPD2    C1 5499   2.307   2.922  10.894 -0.2557  0.2488  0.5097
  364MPD2    C2 5500   2.383   2.804  10.899 -0.0401  1.0978 -1.4270
  364MPD2    C3 5501   2.335   2.694  10.972  0.6685  0.3063 -0.2121
  364MPD2    C4 5502   2.224   2.718  11.056  0.0994 -0.4168  0.5769
  364MPD2    C5 5503   2.159   2.840  11.060 -0.2281 -0.3109 -0.0390
  364MPD2     H 5504   2.477   2.788  10.848  1.0378  0.7261  0.6665
  364MPD2    H1 5505   2.184   2.635  11.114  0.2378 -1.4827 -0.8646
  364MPD2    H2 5506   2.128   3.024  10.967 -2.5378 -1.5662  1.0340
  364MPD2    H3 5507   2.065   2.847  11.113 -1.3083  0.9593 -2.1088
  364MPD2     N 5508   2.392   2.566  10.963 -0.7653  0.2614  0.0572
  364MPD2    H5 5509   2.473   2.559  10.902 -0.6923 -0.9166  0.2892
  364MPD2    N1 5510   2.339   3.033  10.815 -0.7662 -0.3777 -0.5409
  364MPD2    H7 5511   2.281   3.113  10.837  0.3441 -0.4982  2.8643
  365TMC3    C1 5512   2.475   3.157  10.665 -0.4902  0.1789 -0.2752
  365TMC3    C2 5513   2.505   3.170  10.532 -0.1936 -0.7376 -0.3866
  365TMC3    C3 5514   2.522   3.294  10.475  0.2880 -0.7123  0.2643
  365TMC3    C4 5515   2.451   3.275  10.732  0.5842 -0.0286  0.3176
  365TMC3    C5 5516   2.442   3.392  10.669 -0.1161  0.9245 -0.8415
  365TMC3    C6 5517   2.472   3.404  10.537  0.2551  0.5703  0.1792
  365TMC3     C 5518   2.429   3.022  10.712 -0.0313 -0.9395 -0.2989
  365TMC3     O 5519   2.493   2.930  10.667  0.0861  0.1721 -0.4228
  365TMC3     H 5520   2.522   3.076  10.480  1.5012  0.8120 -2.6727
  365TMC3    H1 5521   2.429   3.272  10.838  1.1989  2.4358  0.5147
  365TMC3    H2 5522   2.487   3.503  10.496 -0.4322  0.5954 -0.0190
  365TMC3    C7 5523   2.449   3.511  10.749 -0.6833 -0.7015 -0.1763
  365TMC3    C8 5524   2.546   3.303  10.331 -0.2952  0.0173  0.1476
  365TMC3    O1 5525   2.529   3.594  10.717  0.7354 -0.4267 -0.0652
  365TMC3    O2 5526   2.488   3.400  10.282 -0.1152 -0.4941  0.4276
  366MPD2     C 5527   0.150   3.889  15.232  0.3659  0.4690  0.0313
  366MPD2    C1 5528   0.267   3.961  15.269  0.2847 -0.1681  0.2904
  366MPD2    C2 5529   0.340   3.918  15.382 -0.6089 -0.5131  0.4841
  366MPD2    C3 5530   0.308   3.797  15.444  0.3071 -0.1574  0.4669
  366MPD2    C4 5531   0.201   3.722  15.394  0.5958  0.6262  0.6761
  366MPD2    C5 5532   0.126   3.771  15.289  0.1785  0.0321  0.6344
  366MPD2     H 5533   0.435   3.966  15.401  0.1271 -1.4126 -0.9333
  366MPD2    H1 5534   0.173   3.622  15.423 -1.6193  0.6436 -1.5162
  366MPD2    H2 5535   0.085   3.923  15.153 -0.3653  0.9967  0.8623
  366MPD2    H3 5536   0.052   3.707  15.241  0.1653  1.4005 -1.1641
  366MPD2     N 5537   0.395   3.760  15.556 -0.1511 -0.6662  0.8588
  366MPD2    H5 5538   0.457   3.832  15.591  0.2090  0.5124 -2.2015
  366MPD2    N1 5539   0.314   4.076  15.206  0.0890  0.7456 -0.7478
  366MPD2    H7 5540   0.373   4.134  15.265 -0.3311  1.4945 -1.0663
  367TMC3    C1 5541   0.267   4.268  15.089 -0.2556  0.4793  0.1296
  367TMC3    C2 5542   0.349   4.334  15.177 -0.4396  0.0867 -0.0155
  367TMC3    C3 5543   0.317   4.459  15.227 -0.4084  0.4354  0.3668
  367TMC3    C4 5544   0.144   4.318  15.057  0.1466  0.0290 -0.0933
  367TMC3    C5 5545   0.115   4.441  15.118 -0.9454  1.2144 -0.4473
  367TMC3    C6 5546   0.192   4.514  15.205  0.2682 -0.5184  0.2186
  367TMC3     C 5547   0.270   4.123  15.089 -0.1517 -0.4718 -1.0461
  367TMC3     O 5548   0.204   4.065  15.006 -0.1854  0.1794 -0.0388
  367TMC3     H 5549   0.449   4.299  15.199 -0.7144 -1.8205 -1.7748
  367TMC3    H1 5550   0.057   4.263  15.025 -0.3858  1.4522 -1.1117
  367TMC3    H2 5551   0.170   4.615  15.237 -0.6480 -0.9057  0.8090
  367TMC3    C7 5552   0.016   4.512  15.041 -0.5049 -0.5796 -0.3400
  367TMC3    C8 5553   0.395   4.511  15.335  0.0340 -0.2883  0.2801
  367TMC3    O1 5554   4.708   4.605  15.100  0.0898  0.1175 -0.0824
  367TMC3    O2 5555   0.489   4.443  15.370  0.7592 -0.1015 -1.1639
  368MPD2     C 5556   1.991   1.006  13.154  0.1783 -0.2932  0.0760
  368MPD2    C1 5557   1.922   1.102  13.087 -0.5968  0.1806 -0.0751
  368MPD2    C2 5558   1.989   1.180  12.988 -0.0862  0.5333  0.6235
  368MPD2    C3 5559   2.121   1.159  12.956  0.9718  0.4076 -0.0863
  368MPD2    C4 5560   2.183   1.065  13.027  0.3415 -0.5051 -0.2443
  368MPD2    C5 5561   2.126   0.987  13.125  0.4093 -0.4796  0.2716
  368MPD2     H 5562   1.935   1.257  12.935 -1.6955 -1.3927 -0.5295
  368MPD2    H1 5563   2.288   1.043  13.011  0.1120 -1.0266 -1.0529
  368MPD2    H2 5564   1.938   0.949  13.229  2.0392 -2.3952 -0.1881
  368MPD2    H3 5565   2.183   0.905  13.167  1.0932  1.1993  2.5875
  368MPD2     N 5566   2.190   1.239  12.866  0.3417  0.0513 -0.2109
  368MPD2    H5 5567   2.288   1.217  12.850  0.9112  0.6253  2.5940
  368MPD2    N1 5568   1.792   1.126  13.127 -0.2760 -0.7132 -0.2263
  368MPD2    H7 5569   1.740   1.057  13.182  1.7615  0.2754  2.9555
  369TMC3    C1 5570   1.585   1.263  13.141 -0.7746 -0.7896  0.2009
  369TMC3    C2 5571   1.546   1.384  13.100  0.4132 -0.4235  0.2480
  369TMC3    C3 5572   1.434   1.396  13.035  0.2902  0.1815  0.1114
  369TMC3    C4 5573   1.509   1.153  13.124  0.2465  0.0598  0.6579
  369TMC3    C5 5574   1.415   1.157  13.029 -0.0121  0.1357 -0.3029
  369TMC3    C6 5575   1.366   1.283  12.988 -0.5265  0.0588 -0.4052
  369TMC3     C 5576   1.725   1.242  13.105 -0.3707  0.6658 -0.5668
  369TMC3     O 5577   1.774   1.345  13.067  0.0737  0.7444 -0.1999
  369TMC3     H 5578   1.595   1.469  13.148 -1.6728  0.2690  1.1766
  369TMC3    H1 5579   1.544   1.056  13.160  0.1098 -1.0589 -2.2389
  369TMC3    H2 5580   1.295   1.304  12.909 -0.0425  1.8618 -0.3718
  369TMC3    C7 5581   1.311   1.060  13.057  0.6144 -0.5233 -0.1814
  369TMC3    C8 5582   1.455   1.495  12.927  0.1406 -0.3499 -0.5222
  369TMC3    O1 5583   1.329   0.985  13.153  0.0342 -0.1880  0.0877
  369TMC3    O2 5584   1.356   1.552  12.882 -0.1394  0.0834 -0.1214
  370TMC3    C1 5585   1.345   1.940  16.285  0.3642 -0.1159  0.1171
  370TMC3    C2 5586   1.254   1.879  16.364  0.1169  0.7292 -0.0623
  370TMC3    C3 5587   1.163   1.788  16.317  0.6720 -0.8160  0.8417
  370TMC3    C4 5588   1.359   1.901  16.155 -0.4772  0.8586 -0.2239
  370TMC3    C5 5589   1.273   1.806  16.110 -0.2906 -0.0415  0.3894
  370TMC3    C6 5590   1.181   1.742  16.188  0.2034  0.0697  0.4861
  370TMC3     C 5591   1.457   2.018  16.352  0.3920  1.0214  0.1399
  370TMC3     O 5592   1.494   1.977  16.464 -0.0081 -0.1409 -0.5361
  370TMC3     H 5593   1.252   1.926  16.461 -0.2332  2.1620 -0.7608
  370TMC3    H1 5594   1.438   1.941  16.093  1.0175  0.1592  1.2492
  370TMC3    H2 5595   1.113   1.666  16.151  0.4434  0.3580 -0.5493
  370TMC3    C7 5596   1.302   1.764  15.972  0.3592 -0.1698  0.1281
  370TMC3    C8 5597   1.087   1.709  16.415 -0.8773  0.5446 -0.4823
  370TMC3    O1 5598   1.357   1.840  15.899 -0.2101 -0.0090  0.3363
  370TMC3    O2 5599   1.014   1.618  16.379 -0.4878  0.7432  0.6673
  371TMC3    C1 5600   2.224   0.137  15.310 -0.4941 -0.3320  0.6532
  371TMC3    C2 5601   2.095   0.120  15.352  0.0795 -0.9728  0.4467
  371TMC3    C3 5602   2.023   0.234  15.368 -0.2694  0.3803  0.3955
  371TMC3    C4 5603   2.268   0.254  15.258 -0.0034  0.3192 -0.0382
  371TMC3    C5 5604   2.188   0.368  15.278  0.0701 -0.0290 -0.1663
  371TMC3    C6 5605   2.062   0.361  15.330 -0.5609  0.4024 -0.0730
  371TMC3     C 5606   2.322   0.023  15.306 -0.0593 -0.5188 -0.2501
  371TMC3     O 5607   2.427   0.039  15.241 -0.0468  0.7467  0.0630
  371TMC3     H 5608   2.065   0.022  15.389  0.4229 -1.9639 -1.8663
  371TMC3    H1 5609   2.372   0.266  15.231 -0.7315  0.3377 -2.8301
  371TMC3    H2 5610   2.009   0.451  15.357 -0.2390  0.7105 -0.4624
  371TMC3    C7 5611   2.239   0.500  15.259  0.0555  0.0103 -0.2415
  371TMC3    C8 5612   1.878   0.215  15.385  0.5803 -0.2026 -0.0939
  371TMC3    O1 5613   2.190   0.597  15.310  0.5403 -0.7288  0.3374
  371TMC3    O2 5614   1.826   0.109  15.353  0.0304  0.2294  0.3593
  372MPD2     C 5615   2.775   1.404  13.107  0.6865  0.9502  0.4217
  372MPD2    C1 5616   2.817   1.408  13.242  0.0763 -0.4674  0.0870
  372MPD2    C2 5617   2.742   1.330  13.328  0.5310 -0.0549  0.1963
  372MPD2    C3 5618   2.630   1.259  13.290  0.4743  0.6882 -0.4252
  372MPD2    C4 5619   2.588   1.264  13.157  0.9898 -0.6075 -0.1997
  372MPD2    C5 5620   2.665   1.333  13.064 -0.2634 -0.7760 -0.0355
  372MPD2     H 5621   2.783   1.316  13.427 -1.8049 -0.3510  1.1211
  372MPD2    H1 5622   2.502   1.212  13.115  0.2297  1.9638 -1.8662
  372MPD2    H2 5623   2.816   1.466  13.028  1.6175  0.3107  0.3998
  372MPD2    H3 5624   2.635   1.335  12.960 -1.6721 -0.0070  0.3739
  372MPD2     N 5625   2.561   1.181  13.386 -0.0542  0.3290 -0.3478
  372MPD2    H5 5626   2.616   1.158  13.468 -0.9193 -0.9748 -0.1414
  372MPD2    N1 5627   2.942   1.465  13.288 -0.0706 -0.0179 -0.5627
  372MPD2    H7 5628   2.960   1.445  13.386  3.2885  0.5376 -1.0866
  373TMC3    C1 5629   2.419   1.015  13.453  0.0453 -0.0801  0.6099
  373TMC3    C2 5630   2.300   1.010  13.512  0.8000 -0.1881 -0.7509
  373TMC3    C3 5631   2.281   0.935  13.626  0.6504 -0.0379  0.1741
  373TMC3    C4 5632   2.520   0.947  13.499  0.4234  0.5267 -0.6392
  373TMC3    C5 5633   2.492   0.864  13.608  0.6316 -0.1428 -0.2833
  373TMC3    C6 5634   2.377   0.852  13.670 -0.2056  0.3913 -0.3104
  373TMC3     C 5635   2.439   1.128  13.363 -0.2017 -0.3679 -0.0375
  373TMC3     O 5636   2.347   1.179  13.303  0.9833 -0.5215  0.1270
  373TMC3     H 5637   2.237   1.092  13.479 -1.1833 -0.9355  1.1888
  373TMC3    H1 5638   2.617   0.941  13.451  0.1769 -1.6515 -0.8657
  373TMC3    H2 5639   2.365   0.777  13.747  2.2306 -0.0486 -0.3630
  373TMC3    C7 5640   2.593   0.780  13.657  0.1613  0.2046  0.2025
  373TMC3    C8 5641   2.238   1.022  13.736  0.3888 -0.7304 -0.4492
  373TMC3    O1 5642   2.564   0.670  13.699  0.4903 -0.1874 -0.0956
  373TMC3    O2 5643   2.259   1.140  13.708  0.1152  0.2105  0.6279
  374TMC3    C1 5644   2.671   1.459   9.915 -0.1474  0.0610 -1.1106
  374TMC3    C2 5645   2.771   1.552   9.883 -0.0027  0.7158  0.2062
  374TMC3    C3 5646   2.766   1.613   9.762  0.2515  0.3183 -0.0075
  374TMC3    C4 5647   2.571   1.419   9.827 -0.1296 -0.7926  0.2179
  374TMC3    C5 5648   2.573   1.481   9.712 -0.0719  0.5067 -0.0619
  374TMC3    C6 5649   2.666   1.577   9.677  0.0372 -0.0201  0.5497
  374TMC3     C 5650   2.682   1.396  10.047  0.5146 -0.1058 -0.3803
  374TMC3     O 5651   2.784   1.406  10.114 -0.0198 -0.1006 -0.4442
  374TMC3     H 5652   2.859   1.547   9.946  0.1242  0.4364  0.0081
  374TMC3    H1 5653   2.498   1.342   9.849 -1.0283  0.3225  1.1319
  374TMC3    H2 5654   2.662   1.635   9.586  1.7971 -0.5937  0.0935
  374TMC3    C7 5655   2.460   1.469   9.625  0.9720 -0.5979 -0.4212
  374TMC3    C8 5656   2.824   1.742   9.740 -0.4113  0.0109  0.5345
  374TMC3    O1 5657   2.486   1.501   9.509  0.1546 -0.0086  0.1404
  374TMC3    O2 5658   2.810   1.796   9.629 -0.3232  0.0586  0.0144
  375MPD2     C 5659   2.390   1.533  17.442 -0.3372 -0.2349  0.0733
  375MPD2    C1 5660   2.373   1.633  17.352 -0.0831 -0.3202  0.1360
  375MPD2    C2 5661   2.445   1.644  17.232  0.2008  0.1214  0.0170
  375MPD2    C3 5662   2.532   1.545  17.199  0.1748 -0.3969  0.2969
  375MPD2    C4 5663   2.545   1.440  17.287 -0.1197 -0.0975 -0.2613
  375MPD2    C5 5664   2.484   1.436  17.406 -0.4988  0.2172 -0.3468
  375MPD2     H 5665   2.414   1.714  17.155 -0.4038  0.1315  0.2705
  375MPD2    H1 5666   2.619   1.364  17.265 -0.5557  0.3363 -3.1949
  375MPD2    H2 5667   2.342   1.525  17.539 -0.6357 -0.2228 -0.0760
  375MPD2    H3 5668   2.524   1.356  17.466 -0.7979  1.0058  0.9123
  375MPD2     N 5669   2.614   1.554  17.080  0.3459  0.5671  0.1617
  375MPD2    H5 5670   2.690   1.487  17.073 -0.3459  0.0248 -1.9377
  375MPD2    N1 5671   2.271   1.733  17.363 -0.3065  0.1009  0.4488
  375MPD2    H7 5672   2.269   1.813  17.300  0.7060 -0.9132 -0.8835
  376TMC3    C1 5673   2.710   1.677  16.901 -0.2610  0.0756 -0.4226
  376TMC3    C2 5674   2.839   1.640  16.951 -0.1339  0.5278  1.0875
  376TMC3    C3 5675   2.942   1.710  16.897 -0.3298  0.5610  0.3308
  376TMC3    C4 5676   2.698   1.778  16.815  0.4261  0.3671  0.1188
  376TMC3    C5 5677   2.806   1.838  16.763  0.4465  0.3167 -0.1179
  376TMC3    C6 5678   2.931   1.811  16.807 -0.4405  1.1232  0.1474
  376TMC3     C 5679   2.592   1.638  16.972 -0.1919 -0.0668  0.4736
  376TMC3     O 5680   2.491   1.700  16.943 -0.1808  1.2651 -0.2176
  376TMC3     H 5681   2.853   1.558  17.020  1.1260 -0.3394 -0.2037
  376TMC3    H1 5682   2.598   1.818  16.799  0.9354  2.1169  1.2091
  376TMC3    H2 5683   3.011   1.871  16.764 -1.2944  2.3707  0.2963
  376TMC3    C7 5684   2.786   1.964  16.690  0.4170  0.6669 -0.6205
  376TMC3    C8 5685   3.071   1.660  16.926  0.0515 -0.3086 -0.5222
  376TMC3    O1 5686   2.883   2.039  16.699 -0.3726  0.6902  0.2916
  376TMC3    O2 5687   3.079   1.602  17.031  0.1946 -0.0112 -0.5109
  377MPD2     C 5688   0.947   1.435  12.996 -0.2297  0.0050 -0.7172
  377MPD2    C1 5689   0.944   1.379  12.862  0.2149 -0.5319  0.1075
  377MPD2    C2 5690   0.894   1.252  12.835  0.2267 -0.0322  0.4939
  377MPD2    C3 5691   0.832   1.181  12.944 -0.2637  0.4353  0.8003
  377MPD2    C4 5692   0.831   1.234  13.070 -0.1795 -0.2358 -0.3943
  377MPD2    C5 5693   0.892   1.356  13.098  0.3885 -0.2336 -0.5863
  377MPD2     H 5694   0.912   1.199  12.742  2.1813  1.5818 -0.0407
  377MPD2    H1 5695   0.787   1.189  13.158  2.0261  1.9933  1.8748
  377MPD2    H2 5696   0.977   1.538  13.012 -0.7041  0.1256 -0.6169
  377MPD2    H3 5697   0.865   1.393  13.197 -1.0293 -1.2046 -0.6157
  377MPD2     N 5698   0.772   1.052  12.932 -0.2398 -0.1663 -0.3352
  377MPD2    H5 5699   0.723   1.026  13.017  0.1185 -0.2928 -0.1688
  377MPD2    N1 5700   0.981   1.468  12.762  0.3927 -0.1749  0.3806
  377MPD2    H7 5701   1.017   1.431  12.675  0.3867  0.5478  0.0714
  378TMC3    C1 5702   1.016   1.802  12.489 -0.2772 -0.0778 -0.8975
  378TMC3    C2 5703   0.975   1.769  12.613 -0.3851  0.0140 -0.2700
  378TMC3    C3 5704   1.039   1.664  12.664  0.2045  0.1711  0.0421
  378TMC3    C4 5705   1.129   1.759  12.431  0.6247 -0.4537 -0.1704
  378TMC3    C5 5706   1.192   1.656  12.493  0.0493 -0.2567 -0.1131
  378TMC3    C6 5707   1.147   1.599  12.607 -0.0951  0.2290 -1.5196
  378TMC3     C 5708   0.919   1.869  12.405  0.4452 -0.3017  0.1018
  378TMC3     O 5709   0.822   1.920  12.455  0.3022 -0.0608 -0.1339
  378TMC3     H 5710   0.882   1.812  12.649 -0.2163  0.3189 -0.2006
  378TMC3    H1 5711   1.176   1.812  12.349 -1.0053  1.7275  0.3182
  378TMC3    H2 5712   1.200   1.519  12.659 -0.6475  0.2101 -0.9936
  378TMC3    C7 5713   1.322   1.611  12.453  0.5228  0.3085  0.0582
  378TMC3    C8 5714   0.963   1.602  12.767  0.3346  0.2948 -0.2541
  378TMC3    O1 5715   1.376   1.535  12.529 -0.2121 -0.3148  0.4166
  378TMC3    O2 5716   0.885   1.669  12.834 -0.0835 -0.1999  0.5490
  379MPD2     C 5717   1.278   4.666  16.056  0.3775 -0.2214  0.6307
  379MPD2    C1 5718   1.211   4.611  16.160  0.7696 -0.3435 -0.2485
  379MPD2    C2 5719   1.270   4.606  16.285 -0.2827 -0.6861  0.6072
  379MPD2    C3 5720   1.395   4.658  16.296  0.0945 -0.0641  0.0045
  379MPD2    C4 5721   1.455   4.717  16.188 -0.6977  0.4300  0.6688
  379MPD2    C5 5722   1.399   4.728  16.067 -0.3702  0.1503 -0.2134
  379MPD2     H 5723   1.212   4.568  16.368 -1.3573 -0.0665  0.1253
  379MPD2    H1 5724   1.556   0.012  16.200 -0.4039 -0.8009  2.1975
  379MPD2    H2 5725   1.227   4.665  15.960  2.4330 -0.0931 -0.4604
  379MPD2    H3 5726   1.442   0.025  15.976 -0.7983 -0.3141 -0.6206
  379MPD2     N 5727   1.474   4.664  16.413 -0.0561  0.4836 -0.0456
  379MPD2    H5 5728   1.559   4.720  16.409  0.1952  0.2661  1.9513
  379MPD2    N1 5729   1.082   4.557  16.138 -0.4736 -1.1984 -0.6889
  379MPD2    H7 5730   1.043   4.573  16.045  1.3666  0.5283 -1.1743
  380TMC3    C1 5731   0.882   4.459  16.154 -0.2071 -0.6023  0.4264
  380TMC3    C2 5732   0.910   4.341  16.091 -0.2726  0.1156 -0.2774
  380TMC3    C3 5733   0.846   4.310  15.974 -0.0430  0.1136 -0.3836
  380TMC3    C4 5734   0.784   4.545  16.102  0.8396  0.2896  0.3234
  380TMC3    C5 5735   0.727   4.516  15.983 -0.0353 -0.4401 -0.3912
  380TMC3    C6 5736   0.752   4.396  15.920 -0.0718 -0.3125 -0.1265
  380TMC3     C 5737   0.996   4.511  16.234 -0.1231  0.2365 -1.0063
  380TMC3     O 5738   1.020   4.441  16.333  0.4666  0.0068 -0.5385
  380TMC3     H 5739   0.998   4.285  16.124  1.0015  1.5225 -1.2821
  380TMC3    H1 5740   0.761   4.639  16.152 -1.6312 -0.2328  0.1813
  380TMC3    H2 5741   0.697   4.379  15.828  2.3094 -0.0694 -1.5813
  380TMC3    C7 5742   0.651   4.630  15.924  0.6808  0.9742 -0.4328
  380TMC3    C8 5743   0.902   4.220  15.879  0.3361  0.0739  0.0664
  380TMC3    O1 5744   0.627   4.734  15.979 -0.2553 -0.0224 -0.6044
  380TMC3    O2 5745   0.875   4.247  15.760 -0.4830 -0.0703  0.2471
  381TMC3    C1 5746   0.926   0.880  16.155 -0.1371 -0.3080  0.1668
  381TMC3    C2 5747   1.046   0.939  16.173  1.2409  0.1344 -0.4595
  381TMC3    C3 5748   1.047   1.051  16.237 -0.2012  0.0844  0.9040
  381TMC3    C4 5749   0.807   0.934  16.195 -0.2536  0.1937  0.4032
  381TMC3    C5 5750   0.814   1.045  16.275  0.1910  0.3578 -0.1112
  381TMC3    C6 5751   0.937   1.098  16.297  0.1287  0.4004 -0.0657
  381TMC3     C 5752   0.918   0.784  16.049  0.8606 -0.1039  1.2936
  381TMC3     O 5753   0.992   0.801  15.957  0.5217 -0.0016  0.4409
  381TMC3     H 5754   1.133   0.902  16.119 -1.0143 -3.7368 -1.3772
  381TMC3    H1 5755   0.710   0.891  16.176 -0.3884  1.1161 -0.9814
  381TMC3    H2 5756   0.953   1.195  16.342  0.2481 -0.6267  2.0644
  381TMC3    C7 5757   0.698   1.047  16.367  0.2259 -1.2647  0.2282
  381TMC3    C8 5758   1.171   1.125  16.228  0.6116  0.4575  0.1117
  381TMC3    O1 5759   0.603   0.969  16.361 -0.2682 -0.0248 -0.4295
  381TMC3    O2 5760   1.232   1.112  16.125 -0.2224 -0.3494  0.2429
  382MPD2     C 5761   0.674   3.786  16.795  0.3440 -0.3378  0.6195
  382MPD2    C1 5762   0.645   3.791  16.926 -0.3646  0.3032  0.1904
  382MPD2    C2 5763   0.587   3.680  16.977  0.0355 -0.3417 -0.4995
  382MPD2    C3 5764   0.551   3.567  16.908  0.1397  0.6181 -0.1863
  382MPD2    C4 5765   0.579   3.572  16.780 -0.8926  0.9694 -0.0273
  382MPD2    C5 5766   0.645   3.671  16.727  0.2430 -0.6263  0.1489
  382MPD2     H 5767   0.549   3.688  17.079  0.9747 -1.9418 -0.0248
  382MPD2    H1 5768   0.555   3.485  16.720 -1.2502  0.4158  0.9106
  382MPD2    H2 5769   0.731   3.866  16.749 -1.0144  0.3004  0.0575
  382MPD2    H3 5770   0.667   3.664  16.621 -0.7864  2.1222 -0.2546
  382MPD2     N 5771   0.489   3.453  16.969  0.2150 -0.3689  0.1188
  382MPD2    H5 5772   0.470   3.383  16.898 -0.5788 -0.9792  0.9364
  382MPD2    N1 5773   0.662   3.905  17.007 -0.5047  0.3587  0.4811
  382MPD2    H7 5774   0.660   3.893  17.108 -1.1344  0.8169  0.5240
  383TMC3    C1 5775   0.439   3.283  17.126  0.4345 -0.2700 -0.3822
  383TMC3    C2 5776   0.331   3.238  17.051  0.0783  0.4201 -0.4847
  383TMC3    C3 5777   0.250   3.151  17.122  0.2780  0.0084  0.8160
  383TMC3    C4 5778   0.482   3.230  17.244  0.9083 -0.0019 -1.1352
  383TMC3    C5 5779   0.402   3.132  17.300 -0.4796  0.6542 -0.1429
  383TMC3    C6 5780   0.284   3.096  17.240  0.0726  0.1135 -0.6660
  383TMC3     C 5781   0.499   3.415  17.097  0.6318 -0.5274 -0.0476
  383TMC3     O 5782   0.545   3.472  17.189  0.1356 -0.3325 -0.3854
  383TMC3     H 5783   0.297   3.290  16.962 -0.6580  0.5271 -0.1424
  383TMC3    H1 5784   0.563   3.277  17.298  1.1434 -1.3597 -0.3006
  383TMC3    H2 5785   0.215   3.023  17.281  1.3291 -0.1193  1.0509
  383TMC3    C7 5786   0.408   3.107  17.441 -0.3178  0.6684  0.0126
  383TMC3    C8 5787   0.149   3.090  17.037  0.3698 -0.1197  0.2573
  383TMC3    O1 5788   0.310   3.063  17.504  0.1257 -0.7150 -0.3930
  383TMC3    O2 5789   0.112   3.143  16.936  0.0119 -0.4547 -0.0135
  384MPD2     C 5790   1.836   4.408  12.189  0.6508  0.0950  0.2811
  384MPD2    C1 5791   1.933   4.447  12.281 -0.3365  0.1786 -0.1884
  384MPD2    C2 5792   2.063   4.406  12.276 -0.3467  0.9636 -0.3929
  384MPD2    C3 5793   2.106   4.332  12.163  0.4497  0.2727 -0.7835
  384MPD2    C4 5794   2.013   4.294  12.069  0.2416  0.0539 -0.2546
  384MPD2    C5 5795   1.882   4.338  12.078  0.2522 -0.0219  0.3645
  384MPD2     H 5796   2.134   4.424  12.355  1.0065  0.2871 -1.4587
  384MPD2    H1 5797   2.038   4.228  11.988  0.8724  0.2523 -0.2168
  384MPD2    H2 5798   1.731   4.435  12.188  0.8925  1.1989  2.3628
  384MPD2    H3 5799   1.808   4.328  11.999  1.0783  0.1156 -0.4246
  384MPD2     N 5800   2.234   4.275  12.154  0.3322 -0.0619  0.1687
  384MPD2    H5 5801   2.246   4.212  12.075 -0.0618  0.9457 -0.6979
  384MPD2    N1 5802   1.894   4.522  12.397  0.0585 -0.5608 -0.0597
  384MPD2    H7 5803   1.974   4.528  12.459  0.7371  1.9102 -1.1557
  385TMC3    C1 5804   2.457   4.216  12.220 -0.6336  0.0921 -0.1353
  385TMC3    C2 5805   2.422   4.080  12.189 -0.0188  0.2473 -0.0109
  385TMC3    C3 5806   2.494   3.985  12.250 -0.3203 -0.2902 -0.8417
  385TMC3    C4 5807   2.549   4.240  12.314  0.1103  0.4280 -0.0467
  385TMC3    C5 5808   2.598   4.139  12.392 -0.4000  0.1322  0.6366
  385TMC3    C6 5809   2.576   4.013  12.356  0.3373 -0.8249  0.4020
  385TMC3     C 5810   2.338   4.301  12.239  0.3239 -0.8449  0.3544
  385TMC3     O 5811   2.354   4.365  12.341 -0.9301  0.6964 -0.0341
  385TMC3     H 5812   2.331   4.061  12.133 -0.8777 -1.2932  1.8906
  385TMC3    H1 5813   2.576   4.343  12.337 -1.0966  0.8517 -0.5417
  385TMC3    H2 5814   2.645   3.938  12.393  0.5727  0.7029  3.0092
  385TMC3    C7 5815   2.596   4.159  12.534 -0.3399  0.2606 -0.5418
  385TMC3    C8 5816   2.473   3.844  12.219  0.2105 -0.3744  0.5022
  385TMC3    O1 5817   2.654   4.073  12.600  0.4400 -0.3992 -0.2241
  385TMC3    O2 5818   2.525   3.770  12.306  0.3376 -0.2738 -0.6997
  386TMC3    C1 5819   2.341   2.035  11.672 -0.0121  0.6113  0.5182
  386TMC3    C2 5820   2.359   2.090  11.549  0.5626 -0.3151 -0.3279
  386TMC3    C3 5821   2.259   2.180  11.506 -1.2089  0.5437  0.2050
  386TMC3    C4 5822   2.246   2.074  11.758 -0.1244  0.7532  0.6582
  386TMC3    C5 5823   2.156   2.176  11.721 -0.5447 -0.7081 -0.2593
  386TMC3    C6 5824   2.159   2.226  11.587 -0.2702  0.0903 -0.4272
  386TMC3     C 5825   2.423   1.924  11.710 -0.0249 -0.3527 -0.2615
  386TMC3     O 5826   2.526   1.916  11.646 -0.8881  0.0800 -0.1308
  386TMC3     H 5827   2.434   2.045  11.485 -0.7824 -2.0377 -0.7086
  386TMC3    H1 5828   2.234   2.026  11.854  0.7655 -0.5144  0.1352
  386TMC3    H2 5829   2.091   2.305  11.556 -1.7915 -0.6377  1.0404
  386TMC3    C7 5830   2.026   2.167  11.791 -0.4760 -0.0557  0.0779
  386TMC3    C8 5831   2.234   2.188  11.367  0.5411  0.3474  0.1654
  386TMC3    O1 5832   2.031   2.130  11.909 -0.8341 -0.0046  0.0315
  386TMC3    O2 5833   2.145   2.264  11.337 -0.2281  0.0364 -0.0216
  387MPD2     C 5834   4.332   2.244   9.903 -0.4555  0.1748 -0.5110
  387MPD2    C1 5835   4.439   2.203   9.979  0.3959  0.1945  0.0516
  387MPD2    C2 5836   4.441   2.075  10.038 -0.2855 -0.4057  0.4942
  387MPD2    C3 5837   4.344   1.979   9.997 -0.1325  0.5287  0.0924
  387MPD2    C4 5838   4.234   2.017   9.920  0.6026  1.0021 -0.2576
  387MPD2    C5 5839   4.226   2.149   9.884 -0.0218 -0.1496  0.4603
  387MPD2     H 5840   4.528   2.051  10.098 -0.8240 -1.4938  0.8373
  387MPD2    H1 5841   4.159   1.946   9.888  3.4449 -2.2132  0.1900
  387MPD2    H2 5842   4.314   2.345   9.869 -1.5956 -0.7332 -2.6646
  387MPD2    H3 5843   4.134   2.178   9.834 -0.7203 -0.1446  1.7303
  387MPD2     N 5844   4.381   1.845  10.023 -0.4109 -0.1057 -0.6759
  387MPD2    H5 5845   4.460   1.837  10.086 -1.7913 -1.8054  0.8426
  387MPD2    N1 5846   4.553   2.282   9.991  0.1525  0.2986  0.1448
  387MPD2    H7 5847   4.626   2.256  10.056  0.6665  1.6424  0.1080
  388TMC3    C1 5848   4.717   2.439   9.942 -0.2546  0.2015  0.1499
  388TMC3    C2 5849   0.001   2.564   9.900 -0.4974 -0.4982  0.4004
  388TMC3    C3 5850   0.131   2.597   9.885 -0.1859 -1.0072 -0.1206
  388TMC3    C4 5851   0.063   2.338   9.937 -0.2902 -0.3339 -0.2230
  388TMC3    C5 5852   0.192   2.364   9.907  0.4640  0.3063 -0.0234
  388TMC3    C6 5853   0.224   2.493   9.885  0.1639  0.1172 -0.5217
  388TMC3     C 5854   4.577   2.397   9.924 -0.2389  0.2132 -0.6946
  388TMC3     O 5855   4.509   2.468   9.852 -0.2081  0.3231  0.1576
  388TMC3     H 5856   4.663   2.635   9.895 -2.4157 -2.9627 -3.4047
  388TMC3    H1 5857   0.032   2.238   9.966 -0.3053 -0.2417  0.0776
  388TMC3    H2 5858   0.325   2.524   9.858  0.5228  0.0700  0.7216
  388TMC3    C7 5859   0.293   2.253   9.884 -0.7421 -0.0480  0.0588
  388TMC3    C8 5860   0.188   2.729   9.899  0.1078 -0.5737  0.2173
  388TMC3    O1 5861   0.412   2.271   9.879 -0.3750 -0.0830 -0.0736
  388TMC3    O2 5862   0.312   2.741   9.905  0.3089 -0.3046  0.0218
  389MPD2     C 5863   4.019   0.062  11.117 -0.4959  0.1669  0.4789
  389MPD2    C1 5864   3.907   0.000  11.077 -0.3703 -0.2934  0.1505
  389MPD2    C2 5865   3.823   4.696  11.178 -0.3767  0.1065  0.3099
  389MPD2    C3 5866   3.858   4.711  11.311 -0.4737  0.2490 -0.1102
  389MPD2    C4 5867   3.977   0.033  11.349 -0.0634 -0.7781  0.1845
  389MPD2    C5 5868   4.061   0.070  11.246 -0.5941  0.1600 -0.3751
  389MPD2     H 5869   3.739   4.634  11.148 -0.0447  0.0999 -0.6193
  389MPD2    H1 5870   4.010   0.058  11.449 -0.0601 -0.0480  0.0051
  389MPD2    H2 5871   4.076   0.116  11.042 -1.9470  1.8060  0.5724
  389MPD2    H3 5872   4.152   0.130  11.250 -1.1264  1.0393 -1.5656
  389MPD2     N 5873   3.784   4.650  11.414 -0.0056  0.1644 -0.1373
  389MPD2    H5 5874   3.814   4.654  11.511 -2.7946 -3.0767  0.8685
  389MPD2    N1 5875   3.864   0.011  10.944  0.8553  0.4012  0.5011
  389MPD2    H7 5876   3.927   0.061  10.881 -0.8648 -0.0937 -1.6392
  390TMC3    C1 5877   3.613   4.524  11.510  0.0215  0.4867 -0.0680
  390TMC3    C2 5878   3.533   4.411  11.502 -0.1512 -0.0022  0.0263
  390TMC3    C3 5879   3.462   4.380  11.616 -0.0671 -0.1982 -0.1433
  390TMC3    C4 5880   3.633   4.589  11.627 -0.4183 -1.0909  0.3084
  390TMC3    C5 5881   3.573   4.548  11.735 -0.0600  0.1306  0.0813
  390TMC3    C6 5882   3.493   4.438  11.740  0.2628 -0.4861  0.7979
  390TMC3     C 5883   3.679   4.562  11.394  0.0854  0.1610 -0.9109
  390TMC3     O 5884   3.619   4.519  11.291 -0.0529 -0.0206 -0.3791
  390TMC3     H 5885   3.524   4.349  11.414  2.0650 -1.6849  0.9716
  390TMC3    H1 5886   3.675   4.688  11.623  0.6088 -1.4756  1.7348
  390TMC3    H2 5887   3.444   4.401  11.829 -1.3294  1.2037  0.6233
  390TMC3    C7 5888   3.605   4.623  11.851  0.0397 -0.4416  0.3829
  390TMC3    C8 5889   3.369   4.261  11.610 -0.0507 -0.6064  0.1366
  390TMC3    O1 5890   3.704   4.694  11.862 -0.2887  0.1647 -0.0549
  390TMC3    O2 5891   3.367   4.201  11.501 -0.0646  0.7796  0.5705
  391MPD2     C 5892   3.775   1.603  10.889 -0.3721  0.0282 -0.4493
  391MPD2    C1 5893   3.757   1.742  10.877 -0.7385 -0.2258 -0.8363
  391MPD2    C2 5894   3.714   1.795  10.758 -0.2941 -0.3791  0.7125
  391MPD2    C3 5895   3.680   1.713  10.649 -0.1687  0.4517 -0.4552
  391MPD2    C4 5896   3.697   1.578  10.666 -0.3622  0.3712  0.2400
  391MPD2    C5 5897   3.736   1.521  10.785 -0.9392 -0.0725 -0.7566
  391MPD2     H 5898   3.689   1.900  10.746  0.9539  0.1374  2.5321
  391MPD2    H1 5899   3.676   1.509  10.585 -1.6397  1.1968 -0.1322
  391MPD2    H2 5900   3.815   1.551  10.975 -0.1202 -1.1828 -1.2961
  391MPD2    H3 5901   3.743   1.413  10.793 -1.3664 -0.1956 -2.1101
  391MPD2     N 5902   3.643   1.754  10.514 -0.0038  0.0752  0.4277
  391MPD2    H5 5903   3.608   1.680  10.455 -0.9030  2.4246 -1.9688
  391MPD2    N1 5904   3.798   1.828  10.986 -0.1946  0.3231  0.1811
  391MPD2    H7 5905   3.809   1.785  11.077 -1.4017 -0.7585 -0.1855
  392TMC3    C1 5906   3.604   1.893  10.335 -0.3807 -0.5224  1.2663
  392TMC3    C2 5907   3.468   1.893  10.310  0.2061 -0.7828 -0.4890
  392TMC3    C3 5908   3.419   1.978  10.213 -0.0119 -0.1903 -0.0908
  392TMC3    C4 5909   3.686   1.986  10.271  0.1899 -0.2029 -0.4070
  392TMC3    C5 5910   3.631   2.074  10.187 -0.8922 -0.8191  0.0093
  392TMC3    C6 5911   3.500   2.070  10.152  0.6480 -0.2331  0.0525
  392TMC3     C 5912   3.645   1.883  10.471  0.2398 -0.2264  0.9271
  392TMC3     O 5913   3.681   1.982  10.531 -0.2220  0.3221  0.0096
  392TMC3     H 5914   3.402   1.831  10.370  0.1062 -0.9647 -0.7849
  392TMC3    H1 5915   3.789   1.996  10.304  0.5128 -0.2602 -1.3945
  392TMC3    H2 5916   3.462   2.148  10.087  0.0511 -0.7070 -0.1761
  392TMC3    C7 5917   3.701   2.203  10.185 -0.3283 -0.1623  0.5085
  392TMC3    C8 5918   3.293   1.935  10.147 -0.0169  0.0644  0.2644
  392TMC3    O1 5919   3.769   2.220  10.280 -0.9730  0.4009 -0.3031
  392TMC3    O2 5920   3.242   1.834  10.189 -0.1489 -0.0898 -0.0893
  393TMC3    C1 5921   1.688   4.447  10.788 -0.2062  0.4680 -0.0291
  393TMC3    C2 5922   1.592   4.366  10.730  0.1468 -0.2654 -0.2036
  393TMC3    C3 5923   1.545   4.259  10.810 -0.8311 -0.4046 -0.5922
  393TMC3    C4 5924   1.742   4.428  10.912  0.1113  0.0083 -0.4517
  393TMC3    C5 5925   1.698   4.320  10.977  0.4299 -0.1682  0.6220
  393TMC3    C6 5926   1.594   4.241  10.934  0.5245  0.8135  0.1020
  393TMC3     C 5927   1.736   4.553  10.699  0.0199 -0.7313 -0.0098
  393TMC3     O 5928   1.684   4.564  10.591 -0.0002  0.3822  0.0594
  393TMC3     H 5929   1.543   4.389  10.636 -0.3493 -0.4972 -0.0000
  393TMC3    H1 5930   1.803   4.497  10.970 -0.9291  1.8817 -1.5659
  393TMC3    H2 5931   1.562   4.156  10.993 -0.7243  1.1813 -0.0339
  393TMC3    C7 5932   1.740   4.301  11.117  0.0398  0.6251  0.2740
  393TMC3    C8 5933   1.462   4.160  10.751 -0.0426  0.3553 -1.0998
  393TMC3    O1 5934   1.649   4.270  11.197 -0.6755  0.3840 -0.3053
  393TMC3    O2 5935   1.380   4.104  10.824  0.1775  0.3763 -0.5258
  394TMC3    C1 5936   3.742   0.004  10.745 -0.4087  0.1792  0.8268
  394TMC3    C2 5937   3.615   0.008  10.695  0.3281  0.2164  0.3113
  394TMC3    C3 5938   3.601   0.041  10.563  0.3721 -0.7509  0.0181
  394TMC3    C4 5939   3.854   0.036  10.674  0.5068  0.0194  0.0417
  394TMC3    C5 5940   3.827   0.064  10.545  0.3681  0.1469 -0.3138
  394TMC3    C6 5941   3.707   0.071  10.486 -0.4598  0.0219  0.0564
  394TMC3     C 5942   3.747   4.709  10.884  0.2891  0.0558 -0.4042
  394TMC3     O 5943   3.644   4.660  10.934  0.1114  0.2548  0.4578
  394TMC3     H 5944   3.530   4.741  10.762  0.7577 -2.0497  0.5091
  394TMC3    H1 5945   3.952   0.034  10.719  0.7894  0.1129 -0.5714
  394TMC3    H2 5946   3.700   0.077  10.378 -0.3519 -0.4505  0.0257
  394TMC3    C7 5947   3.928   0.127  10.463  0.4156 -0.2367  0.9029
  394TMC3    C8 5948   3.475   0.008  10.498  0.6360 -0.0194  0.8178
  394TMC3    O1 5949   3.880   0.203  10.378  0.4521  0.2712  0.0889
  394TMC3    O2 5950   3.384   4.734  10.574  0.5234  0.2226  0.8806
  395TMC3    C1 5951   3.809   1.686  15.453 -0.2197  0.1220  0.1955
  395TMC3    C2 5952   3.810   1.560  15.402 -0.3507 -0.3658  0.0987
  395TMC3    C3 5953   3.781   1.539  15.265 -0.2316 -0.5860 -0.2052
  395TMC3    C4 5954   3.765   1.790  15.374  0.0410  0.8393 -0.0711
  395TMC3    C5 5955   3.755   1.769  15.239  0.1199 -0.0404  0.1893
  395TMC3    C6 5956   3.751   1.644  15.185  0.2417  0.2361  0.6292
  395TMC3     C 5957   3.744   1.696  15.579  0.2619  0.3534 -0.7777
  395TMC3     O 5958   3.667   1.788  15.605 -0.4607  0.3832  0.2393
  395TMC3     H 5959   3.849   1.478  15.463 -0.1775  0.1229  0.6406
  395TMC3    H1 5960   3.749   1.883  15.427  1.3383 -0.0200  1.8394
  395TMC3    H2 5961   3.737   1.625  15.079 -1.0439 -1.7238  1.1457
  395TMC3    C7 5962   3.794   1.883  15.162 -0.4468  0.2336  0.2360
  395TMC3    C8 5963   3.770   1.400  15.220  1.0616  0.2789  0.1559
  395TMC3    O1 5964   3.783   1.991  15.224 -0.2832  0.0469 -0.7093
  395TMC3    O2 5965   3.848   1.319  15.269 -0.1203  0.5747  0.0947
  396MPD2     C 5966   3.432   3.067  16.940 -0.0798 -0.4178  0.5251
  396MPD2    C1 5967   3.530   3.132  17.005  0.6201 -0.4440  0.0496
  396MPD2    C2 5968   3.555   3.265  16.987  0.1853  0.0512  0.3156
  396MPD2    C3 5969   3.475   3.331  16.897 -0.8250 -0.2176 -0.1534
  396MPD2    C4 5970   3.379   3.267  16.825  0.2801  0.8551 -0.1014
  396MPD2    C5 5971   3.352   3.136  16.855  0.4019  0.5847 -0.5241
  396MPD2     H 5972   3.643   3.307  17.034  0.5552 -2.4310  1.8083
  396MPD2    H1 5973   3.304   3.314  16.763  0.1750 -0.0332 -0.6490
  396MPD2    H2 5974   3.408   2.964  16.964  0.4725 -0.7795 -0.4663
  396MPD2    H3 5975   3.278   3.077  16.801 -1.4248  1.0576  1.4736
  396MPD2     N 5976   3.508   3.470  16.877  0.0643 -0.2332 -0.0305
  396MPD2    H5 5977   3.588   3.508  16.927 -0.5188 -1.3106  1.7371
  396MPD2    N1 5978   3.591   3.053  17.112 -0.0313 -0.2435 -0.3091
  396MPD2    H7 5979   3.549   2.961  17.127  0.6327  0.0488  3.3035
  397TMC3    C1 5980   3.737   3.004  17.296  0.5795 -0.2289  0.4961
  397TMC3    C2 5981   3.859   2.938  17.273 -0.2987  0.3040 -0.1782
  397TMC3    C3 5982   3.863   2.800  17.251 -0.3088  0.0367  0.0789
  397TMC3    C4 5983   3.627   2.923  17.317 -0.2645 -0.2696  0.6688
  397TMC3    C5 5984   3.633   2.788  17.290 -0.7126 -0.1367  0.6230
  397TMC3    C6 5985   3.748   2.723  17.249 -0.0310 -0.7301 -0.0266
  397TMC3     C 5986   3.704   3.092  17.181 -0.0164 -0.3210  0.3766
  397TMC3     O 5987   3.794   3.167  17.154 -0.4235  0.2825 -0.0989
  397TMC3     H 5988   3.935   3.009  17.243  0.9349 -0.4733  1.1228
  397TMC3    H1 5989   3.526   2.954  17.343 -0.7436 -0.4481 -0.9426
  397TMC3    H2 5990   3.751   2.620  17.215 -4.1712 -1.0850  0.6865
  397TMC3    C7 5991   3.522   2.699  17.316  0.2670  0.1838 -0.1524
  397TMC3    C8 5992   3.936   2.770  17.131 -0.0190  0.2925 -0.5662
  397TMC3    O1 5993   3.508   2.604  17.243 -0.4905 -0.2446  0.5815
  397TMC3    O2 5994   3.864   2.712  17.045  0.0737  0.2262  0.1188
  398MPD2     C 5995   1.311   3.816  17.718 -0.4921 -0.3168  0.1727
  398MPD2    C1 5996   1.372   3.842   0.068  0.2540 -0.0336 -0.2591
  398MPD2    C2 5997   1.385   3.975   0.102  0.2735  0.3067  0.7328
  398MPD2    C3 5998   1.345   4.075   0.017 -0.3455 -0.3691 -0.2176
  398MPD2    C4 5999   1.286   4.046  17.664 -0.1729 -0.4579 -0.0755
  398MPD2    C5 6000   1.269   3.913  17.632  0.2551 -0.0759 -0.0930
  398MPD2     H 6001   1.420   4.008   0.199  2.7351 -0.0199 -0.0354
  398MPD2    H1 6002   1.249   4.120  17.595  1.1276  1.0603  0.8402
  398MPD2    H2 6003   1.318   3.716  17.676 -0.4816 -0.8270  1.3861
  398MPD2    H3 6004   1.236   3.888  17.532  1.4540  0.1393 -0.5485
  398MPD2     N 6005   1.345   4.203   0.075 -0.7908  0.2359 -0.5241
  398MPD2    H5 6006   1.379   4.203   0.170  1.8016  2.3450 -1.4449
  398MPD2    N1 6007   1.430   3.751   0.154  0.0009 -0.5480  0.2529
  398MPD2    H7 6008   1.483   3.787   0.232  0.1446  1.3894 -0.7506
  399TMC3    C1 6009   1.483   3.546   0.260  0.6360  0.0543  0.8878
  399TMC3    C2 6010   1.600   3.586   0.305  0.4560  0.4021 -0.5270
  399TMC3    C3 6011   1.659   3.512   0.402  0.3765  0.7578 -0.1459
  399TMC3    C4 6012   1.420   3.429   0.293  0.4473  0.8635 -0.2719
  399TMC3    C5 6013   1.470   3.362   0.399 -0.0315  0.1564 -0.1962
  399TMC3    C6 6014   1.596   3.395   0.448  0.1224 -0.2460 -0.5277
  399TMC3     C 6015   1.411   3.615   0.153 -0.1567 -0.3231 -0.2765
  399TMC3     O 6016   1.345   3.548   0.074 -0.4463  0.4708 -0.2527
  399TMC3     H 6017   1.652   3.673   0.267  0.1352  0.1117 -1.6146
  399TMC3    H1 6018   1.327   3.400   0.246 -0.2462  0.4504  1.3427
  399TMC3    H2 6019   1.633   3.340   0.534  0.0079 -0.9530 -0.9286
  399TMC3    C7 6020   1.385   3.256   0.461  0.2631  0.1852 -0.1434
  399TMC3    C8 6021   1.803   3.534   0.405  0.4263  1.0370 -0.0769
  399TMC3    O1 6022   1.448   3.170   0.525  0.1214  0.4870  0.0655
  399TMC3    O2 6023   1.852   3.642   0.372  0.0777 -0.7480  0.6388
  400TMC3    C1 6024   0.391   2.770  16.923 -0.4254  0.5823  0.7945
  400TMC3    C2 6025   0.311   2.662  16.920 -0.1611  0.2545 -0.1883
  400TMC3    C3 6026   0.207   2.646  16.841  0.3745  0.4768  0.3832
  400TMC3    C4 6027   0.378   2.867  16.829  0.4928  0.2869 -0.2201
  400TMC3    C5 6028   0.270   2.847  16.749  0.1678  0.1699  0.7249
  400TMC3    C6 6029   0.181   2.739  16.748  0.1808  0.5917 -0.0544
  400TMC3     C 6030   0.472   2.784  17.039 -0.4313 -0.1401  0.6844
  400TMC3     O 6031   0.431   2.726  17.141  0.0074 -0.8447 -0.3226
  400TMC3     H 6032   0.335   2.586  16.993 -0.6016 -1.0776 -1.4372
  400TMC3    H1 6033   0.438   2.957  16.834  2.0469 -0.6946 -1.1137
  400TMC3    H2 6034   0.080   2.757  16.712  0.0141  0.0793  0.1655
  400TMC3    C7 6035   0.231   2.973  16.682  0.2199  0.1065  0.1463
  400TMC3    C8 6036   0.122   2.538  16.870 -0.0347 -0.0180 -0.0535
  400TMC3    O1 6037   0.319   3.058  16.682 -0.1699  0.1045  0.0387
  400TMC3    O2 6038   0.124   2.509  16.989  0.0174 -0.8872 -0.4435
  401MPD2     C 6039   2.864   1.587   0.429 -0.1323 -0.1510 -0.1244
  401MPD2    C1 6040   2.997   1.559   0.450  0.1094 -0.0271  0.1849
  401MPD2    C2 6041   3.055   1.449   0.386 -0.1985  0.6181  0.1364
  401MPD2    C3 6042   2.980   1.367   0.302 -0.0398  0.6325  0.1565
  401MPD2    C4 6043   2.850   1.396   0.284 -0.1340  0.6397  0.0072
  401MPD2    C5 6044   2.791   1.502   0.351 -0.1563  0.2084 -0.1199
  401MPD2     H 6045   3.158   1.420   0.401  0.4026  2.4372 -0.5060
  401MPD2    H1 6046   2.772   1.349   0.226 -1.0785  0.3177  1.5487
  401MPD2    H2 6047   2.811   1.666   0.481  0.2798 -0.8680  1.3915
  401MPD2    H3 6048   2.686   1.526   0.343 -0.0564  0.1498 -1.6457
  401MPD2     N 6049   3.035   1.248   0.253  0.0102  0.1868 -0.4752
  401MPD2    H5 6050   3.127   1.222   0.286  0.1513 -1.7083 -2.3407
  401MPD2    N1 6051   3.079   1.633   0.536 -0.2004 -0.0205 -0.2610
  401MPD2    H7 6052   3.174   1.603   0.558  0.2557  0.9598 -0.9016
  402TMC3    C1 6053   3.050   1.026   0.173  0.3473  0.0083  0.7154
  402TMC3    C2 6054   3.018   0.927   0.265 -0.0915  0.2825 -0.0357
  402TMC3    C3 6055   3.107   0.830   0.292 -0.2745  0.2924 -0.5261
  402TMC3    C4 6056   3.183   1.042   0.132  0.2268  0.2716  0.0617
  402TMC3    C5 6057   3.274   0.942   0.169 -0.0277  0.0580  0.4324
  402TMC3    C6 6058   3.235   0.843   0.257  0.3797 -0.0373  0.2282
  402TMC3     C 6059   2.975   1.146   0.186  0.3772  0.0801  0.2419
  402TMC3     O 6060   2.858   1.139   0.154 -0.2296  0.4371 -0.4646
  402TMC3     H 6061   2.914   0.931   0.297 -0.3181  1.5679 -0.9543
  402TMC3    H1 6062   3.193   1.120   0.058 -1.2153 -1.3529 -1.8484
  402TMC3    H2 6063   3.301   0.759   0.274  1.3685  0.3257 -1.8963
  402TMC3    C7 6064   3.413   0.981   0.165  0.2051 -0.5485  0.0117
  402TMC3    C8 6065   3.090   0.766   0.419 -0.4678  0.3292  0.1497
  402TMC3    O1 6066   3.489   0.889   0.192  0.0228 -0.3788  0.4537
  402TMC3    O2 6067   3.182   0.693   0.458  0.1721  0.5399  0.1994
  403MPD2     C 6068   1.671   3.359  13.704 -0.2161  0.5384 -0.0415
  403MPD2    C1 6069   1.667   3.495  13.689 -0.5328 -0.7659  0.2254
  403MPD2    C2 6070   1.769   3.579  13.741 -0.2179  0.5612 -0.0939
  403MPD2    C3 6071   1.866   3.519  13.821  0.4503 -0.0388 -0.0299
  403MPD2    C4 6072   1.865   3.380  13.834  0.1737  0.4762 -0.4018
  403MPD2    C5 6073   1.772   3.301  13.776  0.9614  0.5785 -0.0232
  403MPD2     H 6074   1.762   3.686  13.726  1.5359  0.6287 -0.4170
  403MPD2    H1 6075   1.937   3.329  13.897 -0.4467  0.8089  0.5704
  403MPD2    H2 6076   1.593   3.297  13.660  0.1021 -0.7129  1.1735
  403MPD2    H3 6077   1.770   3.194  13.794  0.3282  0.6352  0.2291
  403MPD2     N 6078   1.970   3.597  13.884 -0.9252 -0.0245  0.1293
  403MPD2    H5 6079   1.960   3.693  13.851  1.6224 -0.0680 -0.8263
  403MPD2    N1 6080   1.556   3.540  13.610  0.9346  0.6992 -0.3103
  403MPD2    H7 6081   1.490   3.468  13.584 -0.2851  1.3412  0.9992
  404TMC3    C1 6082   1.386   3.683  13.517 -0.6724  0.1630 -0.4665
  404TMC3    C2 6083   1.303   3.604  13.587  0.0339 -0.8727 -0.1173
  404TMC3    C3 6084   1.220   3.514  13.527 -0.0454  0.1335 -1.4997
  404TMC3    C4 6085   1.382   3.676  13.380  0.1185  0.3676  0.0678
  404TMC3    C5 6086   1.294   3.592  13.320  0.1955 -0.1193 -0.7292
  404TMC3    C6 6087   1.210   3.518  13.391  0.8067 -0.2487  0.0430
  404TMC3     C 6088   1.527   3.670  13.565 -0.3854 -0.4058 -0.8374
  404TMC3     O 6089   1.610   3.759  13.544  0.5424  0.1459 -0.6244
  404TMC3     H 6090   1.324   3.581  13.691  0.8649  0.7541  0.0841
  404TMC3    H1 6091   1.444   3.738  13.315 -0.2941  0.3315 -0.3611
  404TMC3    H2 6092   1.167   3.432  13.340  0.6844 -0.5349  0.6291
  404TMC3    C7 6093   1.330   3.561  13.181 -0.0750 -0.4471 -0.0934
  404TMC3    C8 6094   1.254   3.382  13.576 -0.0010  0.5888  0.5886
  404TMC3    O1 6095   1.452   3.548  13.156  0.9738 -0.1461 -1.2317
  404TMC3    O2 6096   1.365   3.354  13.541 -0.0648 -0.1883  0.0109
  405MPD2     C 6097   1.809   4.022  14.816 -0.5188 -0.9048 -0.6645
  405MPD2    C1 6098   1.718   3.985  14.720 -0.6491  0.0651 -0.2546
  405MPD2    C2 6099   1.725   4.050  14.595 -0.4176 -0.0166 -0.0048
  405MPD2    C3 6100   1.818   4.151  14.569 -0.7638  0.2700  0.2928
  405MPD2    C4 6101   1.904   4.188  14.674  0.4530 -0.5094  0.2220
  405MPD2    C5 6102   1.891   4.127  14.795  0.2955  0.2695 -0.1141
  405MPD2     H 6103   1.641   4.039  14.527 -0.4294 -3.0661  0.5189
  405MPD2    H1 6104   1.971   4.274  14.674 -1.5116  1.0130 -3.0721
  405MPD2    H2 6105   1.806   3.972  14.912 -0.4977 -1.9415 -1.2134
  405MPD2    H3 6106   1.959   4.161  14.872 -1.3801  2.1836  0.5265
  405MPD2     N 6107   1.807   4.215  14.445  0.7073  0.2820  0.0186
  405MPD2    H5 6108   1.742   4.177  14.377  0.5259  0.9141 -0.1635
  405MPD2    N1 6109   1.619   3.882  14.738  0.8609 -0.2534  0.2641
  405MPD2    H7 6110   1.610   3.842  14.830  0.5978  0.5842  0.6073
  406TMC3    C1 6111   1.772   4.547  14.137  0.4700 -0.7520 -0.3633
  406TMC3    C2 6112   1.688   4.473  14.064 -0.1862 -0.0560  0.1687
  406TMC3    C3 6113   1.675   4.341  14.106 -0.2135  0.1354 -0.0910
  406TMC3    C4 6114   1.840   4.498  14.244 -0.0397  0.0633  0.0321
  406TMC3    C5 6115   1.837   4.362  14.271 -0.0006  0.1148  0.7494
  406TMC3    C6 6116   1.753   4.282  14.201 -0.5940  0.3364  0.6903
  406TMC3     C 6117   1.710   4.670  14.175  0.4101  0.8882  0.2526
  406TMC3     O 6118   1.784   0.011  14.227  0.7827  0.3229  0.4249
  406TMC3     H 6119   1.626   4.523  13.991  1.2004  0.6696 -0.5179
  406TMC3    H1 6120   1.890   4.565  14.312  0.9778  1.9186 -2.5476
  406TMC3    H2 6121   1.763   4.174  14.196  0.4228  0.4571  0.2453
  406TMC3    C7 6122   1.863   4.336  14.409  0.1812  0.1795  0.4957
  406TMC3    C8 6123   1.539   4.293  14.096 -0.3360 -0.1524  0.1739
  406TMC3    O1 6124   1.942   4.413  14.466  0.3940 -0.5051 -0.0274
  406TMC3    O2 6125   1.458   4.362  14.033 -0.2646  0.2211  0.3547
  407MPD2     C 6126   3.966   1.516  10.239 -0.1526 -0.3363  0.1133
  407MPD2    C1 6127   4.008   1.607  10.145  0.6182  0.6040  0.0031
  407MPD2    C2 6128   4.038   1.733  10.183 -0.2392  0.7121  0.0321
  407MPD2    C3 6129   4.020   1.777  10.310 -0.3016  0.5177 -0.1617
  407MPD2    C4 6130   3.987   1.688  10.406  0.0331 -0.6402 -0.1783
  407MPD2    C5 6131   3.954   1.559  10.372  0.4025 -0.0506  0.9407
  407MPD2     H 6132   4.064   1.804  10.105 -1.3949 -0.0327 -1.0425
  407MPD2    H1 6133   3.986   1.727  10.507  1.1707  0.5560 -0.6383
  407MPD2    H2 6134   3.923   1.419  10.216  0.4838 -0.8287  1.0212
  407MPD2    H3 6135   3.915   1.492  10.447  0.6458 -0.3193  0.8313
  407MPD2     N 6136   4.035   1.917  10.350 -0.1919  0.0645  0.6565
  407MPD2    H5 6137   4.021   1.948  10.445  0.0752 -0.9678  1.0238
  407MPD2    N1 6138   4.008   1.588  10.006 -0.3648  0.6618  1.0964
  407MPD2    H7 6139   4.038   1.663   9.944 -5.0824  1.3804 -0.2480
  408TMC3    C1 6140   3.990   1.475   9.805  0.2213 -0.0875  0.3285
  408TMC3    C2 6141   4.079   1.384   9.748  0.7069  0.4009 -0.1599
  408TMC3    C3 6142   4.165   1.435   9.653 -0.1021 -0.0184 -0.1175
  408TMC3    C4 6143   3.972   1.603   9.754 -0.5190  0.0122  0.3780
  408TMC3    C5 6144   4.052   1.644   9.653 -0.0414 -0.0185  0.4673
  408TMC3    C6 6145   4.151   1.556   9.608 -0.8704  0.1086 -0.1029
  408TMC3     C 6146   3.969   1.465   9.944 -0.8862 -0.0432 -0.5620
  408TMC3     O 6147   3.937   1.349   9.985 -0.3980 -0.3603 -0.1753
  408TMC3     H 6148   4.107   1.291   9.796 -3.3769 -1.5308 -1.5525
  408TMC3    H1 6149   3.901   1.680   9.785 -0.3854  0.6820 -0.9455
  408TMC3    H2 6150   4.205   1.596   9.524  0.5929  1.1147  1.3092
  408TMC3    C7 6151   4.058   1.778   9.606  0.1158 -0.7755  0.4105
  408TMC3    C8 6152   4.295   1.365   9.648  0.3155  0.0594  0.1789
  408TMC3    O1 6153   4.138   1.806   9.516 -0.7248 -0.0006  0.2571
  408TMC3    O2 6154   4.303   1.245   9.666 -0.2461  0.0080 -0.3617
  409MPD2     C 6155   3.631   2.415  16.731  0.3066  0.7080  0.6110
  409MPD2    C1 6156   3.738   2.441  16.814  0.6718 -0.2825  0.5359
  409MPD2    C2 6157   3.841   2.520  16.766  0.7477  0.1911 -0.0168
  409MPD2    C3 6158   3.837   2.578  16.642  0.2605 -0.1873  0.3157
  409MPD2    C4 6159   3.735   2.545  16.557 -0.6273  0.0347  0.3132
  409MPD2    C5 6160   3.635   2.462  16.605 -0.0653 -0.3065 -0.1513
  409MPD2     H 6161   3.916   2.540  16.842  1.5657  0.4321 -0.8919
  409MPD2    H1 6162   3.718   2.582  16.457 -0.3547 -1.1967 -0.1845
  409MPD2    H2 6163   3.539   2.366  16.761  0.5863  0.5449  1.2126
  409MPD2    H3 6164   3.559   2.420  16.539 -1.4886  2.1562 -0.0889
  409MPD2     N 6165   3.938   2.666  16.599 -0.2019  0.1285  0.1049
  409MPD2    H5 6166   3.906   2.720  16.519 -2.7368 -0.3310  0.7953
  409MPD2    N1 6167   3.751   2.383  16.943 -0.0828  0.1670 -0.0879
  409MPD2    H7 6168   3.828   2.411  17.002  0.1925 -2.2132  0.6686
  410TMC3    C1 6169   4.127   2.811  16.613 -0.1932 -0.0544  0.9406
  410TMC3    C2 6170   4.224   2.851  16.691  0.2087  0.4088  0.1306
  410TMC3    C3 6171   4.309   2.951  16.654  0.1150  0.5505  0.3805
  410TMC3    C4 6172   4.104   2.869  16.492 -0.6185  0.0384  0.1175
  410TMC3    C5 6173   4.180   2.977  16.460 -0.8690 -0.8579 -0.1588
  410TMC3    C6 6174   4.279   3.024  16.543  0.1069  0.2787 -0.6041
  410TMC3     C 6175   4.058   2.694  16.661  0.4933  0.1778  0.0875
  410TMC3     O 6176   4.105   2.639  16.759 -0.4420 -0.7793  0.4836
  410TMC3     H 6177   4.245   2.803  16.785 -1.3004  1.3404  0.9353
  410TMC3    H1 6178   4.024   2.840  16.424 -1.2262  2.6462 -0.2657
  410TMC3    H2 6179   4.340   3.108  16.514 -0.2798  0.3999 -1.0758
  410TMC3    C7 6180   4.175   3.018  16.323  0.2402 -0.4742 -0.2664
  410TMC3    C8 6181   4.434   2.974  16.723 -0.3375  0.5274  0.3374
  410TMC3    O1 6182   4.141   2.937  16.239 -0.9106 -0.7203 -0.2605
  410TMC3    O2 6183   4.482   3.086  16.740 -0.2716 -0.2803  0.2083
  411MPD2     C 6184   4.231   2.753  14.633  0.1995  0.0746  0.0165
  411MPD2    C1 6185   4.152   2.811  14.726 -0.1363 -0.0137 -0.2525
  411MPD2    C2 6186   4.043   2.740  14.767 -0.8575 -0.2273 -0.0461
  411MPD2    C3 6187   4.011   2.615  14.710  0.1159 -0.0478 -0.0264
  411MPD2    C4 6188   4.087   2.575  14.605  0.7545  0.2110 -0.0576
  411MPD2    C5 6189   4.205   2.635  14.573 -0.4436  0.7235 -0.5918
  411MPD2     H 6190   3.966   2.775  14.834  0.5551  0.2301  1.3464
  411MPD2    H1 6191   4.069   2.475  14.569  0.9136  0.0490  0.3174
  411MPD2    H2 6192   4.309   2.807  14.580 -0.0033  0.2664 -0.0861
  411MPD2    H3 6193   4.264   2.588  14.494 -0.4964  0.9239 -0.7491
  411MPD2     N 6194   3.901   2.537  14.749 -0.1071  0.0063 -0.3488
  411MPD2    H5 6195   3.873   2.457  14.693  1.9585  0.4381 -2.0215
  411MPD2    N1 6196   4.181   2.946  14.769  0.3151 -0.5208 -0.2738
  411MPD2    H7 6197   4.245   3.009  14.721 -0.1118 -0.4656 -0.7665
  412TMC3    C1 6198   3.713   2.464  14.857  0.0004 -0.2508  0.4897
  412TMC3    C2 6199   3.592   2.515  14.902 -0.9163 -0.4451 -0.5019
  412TMC3    C3 6200   3.489   2.421  14.901  0.2311  1.1957 -0.2878
  412TMC3    C4 6201   3.734   2.336  14.821  1.2677 -0.4458 -0.5370
  412TMC3    C5 6202   3.631   2.248  14.825  0.6654  0.5945  0.4970
  412TMC3    C6 6203   3.509   2.286  14.874  0.4102  0.8088 -0.3998
  412TMC3     C 6204   3.818   2.562  14.851  0.3717  0.4553  0.0792
  412TMC3     O 6205   3.808   2.657  14.927 -0.0344  0.4675  0.3179
  412TMC3     H 6206   3.582   2.612  14.950  1.4361  0.4945 -1.8838
  412TMC3    H1 6207   3.830   2.302  14.784  0.3593 -2.4308 -1.0784
  412TMC3    H2 6208   3.426   2.219  14.892 -0.3741  1.8262 -0.1811
  412TMC3    C7 6209   3.643   2.136  14.730 -0.1449  0.1604  0.2032
  412TMC3    C8 6210   3.361   2.478  14.859 -0.2725  0.2410  0.2079
  412TMC3    O1 6211   3.732   2.143  14.647 -0.1008 -0.0652  0.3704
  412TMC3    O2 6212   3.366   2.595  14.817  0.3726  0.8967  0.0008
  413MPD2     C 6213   0.933   0.793  15.510 -0.1018  0.0470  0.4866
  413MPD2    C1 6214   0.910   0.798  15.375  0.4243  0.2713  0.3312
  413MPD2    C2 6215   0.955   0.696  15.291  0.5232 -0.7498  0.4888
  413MPD2    C3 6216   1.017   0.587  15.345  0.1075  0.0380 -0.4553
  413MPD2    C4 6217   1.045   0.585  15.485  0.1894 -0.2804  0.3676
  413MPD2    C5 6218   1.010   0.696  15.559  0.8599  0.0840  0.2823
  413MPD2     H 6219   0.935   0.705  15.185 -0.0563 -2.5309  0.4389
  413MPD2    H1 6220   1.083   0.499  15.538  2.4614  1.0297  0.8480
  413MPD2    H2 6221   0.904   0.870  15.580 -3.0671 -0.0925 -0.6098
  413MPD2    H3 6222   1.036   0.695  15.665  2.0001  2.3660  0.0321
  413MPD2     N 6223   1.060   0.486  15.256 -0.5376 -0.1651  0.1508
  413MPD2    H5 6224   1.055   0.491  15.155 -1.0729  0.9585  0.2386
  413MPD2    N1 6225   0.821   0.904  15.337 -0.0897 -0.0921  0.3932
  413MPD2    H7 6226   0.777   0.955  15.413 -2.3561 -1.9234  0.3286
  414TMC3    C1 6227   1.174   0.299  15.181  1.0765 -0.1697  0.1746
  414TMC3    C2 6228   1.235   0.175  15.215  0.1428 -0.4410 -0.4531
  414TMC3    C3 6229   1.337   0.124  15.135  0.2280 -0.2431  0.0074
  414TMC3    C4 6230   1.231   0.376  15.083  0.0164  0.4748 -0.0503
  414TMC3    C5 6231   1.333   0.318  15.017 -0.1686 -0.3293  0.3393
  414TMC3    C6 6232   1.391   0.196  15.032  0.0243 -0.2544 -0.2070
  414TMC3     C 6233   1.117   0.369  15.292 -0.5873 -0.0223  0.1537
  414TMC3     O 6234   1.123   0.318  15.401  0.2970 -0.2953  0.0827
  414TMC3     H 6235   1.194   0.118  15.298  0.8300  1.3395  1.1001
  414TMC3    H1 6236   1.201   0.473  15.045 -0.0156  0.5465  0.1593
  414TMC3    H2 6237   1.455   0.149  14.958 -2.1269 -0.4355 -1.9786
  414TMC3    C7 6238   1.406   0.393  14.914  0.5188  0.8652  0.3565
  414TMC3    C8 6239   1.377   4.731  15.159  0.8434 -1.1503  0.0263
  414TMC3    O1 6240   1.342   0.445  14.822  0.0815 -0.5077  0.0214
  414TMC3    O2 6241   1.291   4.662  15.211  0.1127  0.3303  0.5434
  415TMC3    C1 6242   1.587   3.785  10.748  0.2465 -0.4388 -0.1817
  415TMC3    C2 6243   1.696   3.811  10.671  0.1904 -0.4161 -0.6549
  415TMC3    C3 6244   1.680   3.779  10.540  0.4521  0.6046 -0.5775
  415TMC3    C4 6245   1.463   3.744  10.697  0.3778  0.1221 -0.6858
  415TMC3    C5 6246   1.453   3.725  10.563  0.3448  0.1848  0.5161
  415TMC3    C6 6247   1.563   3.740  10.485 -0.9928  0.2698 -0.5404
  415TMC3     C 6248   1.597   3.808  10.887 -0.1029 -0.1271  0.3545
  415TMC3     O 6249   1.499   3.766  10.946  0.1364 -0.1923 -0.2124
  415TMC3     H 6250   1.797   3.822  10.709 -0.1343 -2.3985  0.8045
  415TMC3    H1 6251   1.376   3.745  10.762  0.8932 -0.5128  0.0196
  415TMC3    H2 6252   1.563   3.726  10.378 -3.8656  0.5709 -0.5796
  415TMC3    C7 6253   1.328   3.671  10.508  0.4650  0.2978 -0.2940
  415TMC3    C8 6254   1.799   3.791  10.460 -0.1097 -0.7303 -0.2559
  415TMC3    O1 6255   1.324   3.651  10.386  0.3804 -0.5610 -0.4297
  415TMC3    O2 6256   1.789   3.744  10.347 -0.2832 -0.0950  0.0760
  416MPD2     C 6257   3.211   2.856  11.523  0.4939 -0.0812 -0.2314
  416MPD2    C1 6258   3.238   2.801  11.647 -0.1502  1.0807 -0.4321
  416MPD2    C2 6259   3.329   2.699  11.664 -0.0746 -0.4034  0.4186
  416MPD2    C3 6260   3.376   2.630  11.558 -0.2575  0.8763 -0.2655
  416MPD2    C4 6261   3.349   2.678  11.431 -0.4606 -0.3050  0.2996
  416MPD2    C5 6262   3.261   2.783  11.414  0.9259 -0.1809  0.2626
  416MPD2     H 6263   3.370   2.669  11.760  1.4543 -1.0255 -0.4260
  416MPD2    H1 6264   3.390   2.628  11.344 -0.5243  3.9656 -2.2061
  416MPD2    H2 6265   3.145   2.939  11.502  1.0819  0.3793 -0.2289
  416MPD2    H3 6266   3.238   2.813  11.313  0.2758 -0.9520  0.1837
  416MPD2     N 6267   3.452   2.509  11.558 -0.1744  0.1046  0.4730
  416MPD2    H5 6268   3.475   2.472  11.467  2.4490  0.0378  1.1542
  416MPD2    N1 6269   3.193   2.867  11.762 -1.0449 -0.0444 -0.7798
  416MPD2    H7 6270   3.147   2.957  11.752 -1.5850 -0.3159 -0.7511
  417TMC3    C1 6271   3.106   2.894  11.982  0.2534  0.0970  0.6427
  417TMC3    C2 6272   3.088   2.853  12.113 -0.6103 -0.2969 -0.2121
  417TMC3    C3 6273   2.968   2.888  12.175  0.6007 -1.0268  0.5488
  417TMC3    C4 6274   3.011   2.962  11.910 -0.3438  0.2438  0.1018
  417TMC3    C5 6275   2.896   2.992  11.978  0.0051  0.6748 -0.8317
  417TMC3    C6 6276   2.876   2.959  12.108 -0.9568  0.8618 -0.0711
  417TMC3     C 6277   3.187   2.807  11.892 -0.5955 -0.7843 -0.4596
  417TMC3     O 6278   3.243   2.709  11.940 -0.5957  0.2919  0.1458
  417TMC3     H 6279   3.153   2.786  12.168  2.1014  1.3723 -1.3561
  417TMC3    H1 6280   3.010   2.981  11.803  2.6885  1.2448  0.2568
  417TMC3    H2 6281   2.790   3.001  12.159 -1.0232  0.7533 -0.0947
  417TMC3    C7 6282   2.794   3.055  11.892 -0.0405  0.2397 -0.1968
  417TMC3    C8 6283   2.966   2.901  12.318 -0.3317 -0.2048 -0.3340
  417TMC3    O1 6284   2.832   3.122  11.792  0.0448  0.0340  0.0884
  417TMC3    O2 6285   2.913   3.003  12.366  0.0630 -0.2095 -0.6775
  418TMC3    C1 6286   1.485   4.521   0.197 -0.0679 -0.4514  0.5811
  418TMC3    C2 6287   1.396   4.495   0.094  1.2473 -0.4815  0.9758
  418TMC3    C3 6288   1.287   4.415   0.123 -0.1403 -0.8720  0.3056
  418TMC3    C4 6289   1.473   4.468   0.326 -0.6271 -0.1513  0.4931
  418TMC3    C5 6290   1.366   4.388   0.340 -0.8328 -0.0678  1.2754
  418TMC3    C6 6291   1.268   4.362   0.246  0.5472  0.5921 -0.0398
  418TMC3     C 6292   1.620   4.545   0.152 -0.0244 -0.1422 -0.0352
  418TMC3     O 6293   1.635   4.630   0.066  0.2208  0.1214  0.5384
  418TMC3     H 6294   1.423   4.513  17.763 -0.7228 -1.9848  0.2016
  418TMC3    H1 6295   1.552   4.471   0.400  0.9458 -1.1666 -1.1342
  418TMC3    H2 6296   1.190   4.288   0.262  0.0391  0.7848 -1.6354
  418TMC3    C7 6297   1.375   4.293   0.450  1.0133 -0.4713 -0.1858
  418TMC3    C8 6298   1.283   4.315   0.020 -0.4998 -0.6647  0.5224
  418TMC3    O1 6299   1.317   4.184   0.432 -0.2220 -0.0621  0.0360
  418TMC3    O2 6300   1.258   4.336  17.672  0.2284  0.5330  0.3487
  419MPD2     C 6301   0.381   2.273  12.576 -0.1517  0.4697  0.4221
  419MPD2    C1 6302   0.317   2.391  12.581  0.4176 -0.1106 -0.7335
  419MPD2    C2 6303   0.295   2.455  12.701 -0.1956 -0.2586 -0.0094
  419MPD2    C3 6304   0.341   2.402  12.821  0.3575 -0.2281 -0.2135
  419MPD2    C4 6305   0.407   2.287  12.815  0.6920  0.0610 -0.6199
  419MPD2    C5 6306   0.412   2.215  12.699  0.3545  0.0342 -0.0622
  419MPD2     H 6307   0.265   2.559  12.692 -0.8582 -0.4283  0.2161
  419MPD2    H1 6308   0.449   2.243  12.905  0.6295 -1.8204 -1.5237
  419MPD2    H2 6309   0.393   2.226  12.479 -0.3662  3.2143 -0.9400
  419MPD2    H3 6310   0.471   2.124  12.696 -1.4420 -1.2280  2.5891
  419MPD2     N 6311   0.312   2.475  12.941 -0.2723 -0.0268  0.1741
  419MPD2    H5 6312   0.267   2.565  12.925  2.3114  1.3566  0.5945
  419MPD2    N1 6313   0.287   2.474  12.467 -0.5963 -0.2089  0.2310
  419MPD2    H7 6314   0.220   2.550  12.480 -0.2434 -0.0604  1.1579
  420TMC3    C1 6315   0.313   2.530  13.175  0.3328  0.1031 -0.2658
  420TMC3    C2 6316   0.216   2.619  13.151  0.3325 -0.7001 -0.4815
  420TMC3    C3 6317   0.183   2.709  13.249 -0.3063 -0.7577  0.7290
  420TMC3    C4 6318   0.369   2.519  13.301 -0.8578 -0.2452 -0.3002
  420TMC3    C5 6319   0.333   2.607  13.396  0.5328  0.0886 -0.8215
  420TMC3    C6 6320   0.245   2.714  13.368  0.7415 -0.4464  1.3668
  420TMC3     C 6321   0.338   2.430  13.074 -0.1801  0.5781 -0.0478
  420TMC3     O 6322   0.394   2.328  13.111  0.4154  0.9516  0.4789
  420TMC3     H 6323   0.150   2.604  13.066  1.0779  0.1169 -1.2075
  420TMC3    H1 6324   0.451   2.453  13.324  0.8838  2.0873  0.1391
  420TMC3    H2 6325   0.219   2.786  13.445 -1.6745 -2.4780  2.4130
  420TMC3    C7 6326   0.390   2.582  13.530  1.6024  0.2651  0.9587
  420TMC3    C8 6327   0.063   2.780  13.226 -0.4959  0.5462  0.7496
  420TMC3    O1 6328   0.424   2.471  13.570  0.0396 -0.0341  0.0353
  420TMC3    O2 6329   0.047   2.896  13.266  0.2070  0.4043 -0.7893
  421TMC3    C1 6330   2.140   3.673  14.024 -0.1286 -0.2882  0.3790
  421TMC3    C2 6331   2.096   3.799  13.994 -0.0702  0.1517  0.0239
  421TMC3    C3 6332   2.174   3.911  14.039  0.1364 -0.0173  0.4665
  421TMC3    C4 6333   2.253   3.651  14.106  0.4921 -0.6409 -0.2575
  421TMC3    C5 6334   2.314   3.764  14.151 -0.2738 -0.0019  0.0689
  421TMC3    C6 6335   2.284   3.894  14.114  0.4835  0.0108  1.2354
  421TMC3     C 6336   2.070   3.556  13.965 -0.2471  0.1537  0.3484
  421TMC3     O 6337   2.095   3.442  14.006  0.2954 -0.2325 -0.3158
  421TMC3     H 6338   2.020   3.822  13.920 -0.6250 -0.7242  0.3248
  421TMC3    H1 6339   2.287   3.550  14.127  0.9099 -0.3086  0.6633
  421TMC3    H2 6340   2.349   3.978  14.133 -0.7955  1.2928  0.0117
  421TMC3    C7 6341   2.438   3.743  14.221 -0.1632  0.2300  0.4377
  421TMC3    C8 6342   2.152   4.050  13.995  0.5010  0.0749  0.7274
  421TMC3    O1 6343   2.517   3.835  14.213  0.0638  0.0887 -0.2609
  421TMC3    O2 6344   2.240   4.130  14.033  0.1371 -0.4631 -0.6199
  422TMC3    C1 6345   4.090   1.495  12.192  0.4644  0.2097  0.1887
  422TMC3    C2 6346   4.149   1.550  12.302  0.3405 -0.4801 -0.7495
  422TMC3    C3 6347   4.064   1.592  12.401  0.1194  0.2767 -0.4080
  422TMC3    C4 6348   3.957   1.492  12.170  0.6237  0.1321 -0.0534
  422TMC3    C5 6349   3.876   1.539  12.280  0.0444 -0.4430  0.1435
  422TMC3    C6 6350   3.929   1.579  12.400 -0.1624 -0.0203 -0.2443
  422TMC3     C 6351   4.175   1.415  12.105  0.2186  0.2309 -0.7946
  422TMC3     O 6352   4.290   1.411  12.146 -0.1103  0.0092 -0.2576
  422TMC3     H 6353   4.255   1.571  12.310  0.0720 -0.0503  1.5747
  422TMC3    H1 6354   3.905   1.461  12.080  1.3864 -1.2200 -0.0393
  422TMC3    H2 6355   3.866   1.621  12.478 -0.2528  0.7050 -0.7090
  422TMC3    C7 6356   3.734   1.507  12.265 -0.0728  1.1614  0.3157
  422TMC3    C8 6357   4.120   1.630  12.525  0.5877 -0.1145  0.3110
  422TMC3    O1 6358   3.691   1.511  12.151 -0.4795  0.0252  0.2277
  422TMC3    O2 6359   4.050   1.616  12.628  0.4697 -0.2033  0.2242
  423MPD2     C 6360   0.380   2.023   0.440 -0.9928 -1.4488 -0.3350
  423MPD2    C1 6361   0.480   1.931   0.476 -0.5827  0.3888 -0.8333
  423MPD2    C2 6362   0.581   1.904   0.385  0.3377  0.0799  0.0459
  423MPD2    C3 6363   0.587   1.957   0.264  0.0256 -0.2878 -0.2799
  423MPD2    C4 6364   0.491   2.047   0.221  0.8628 -0.0659  0.0014
  423MPD2    C5 6365   0.388   2.073   0.310  1.1029  0.1138 -0.6047
  423MPD2     H 6366   0.658   1.836   0.419 -0.5441 -0.7154  0.4375
  423MPD2    H1 6367   0.494   2.085   0.120  2.5471  2.6551  1.0649
  423MPD2    H2 6368   0.300   2.058   0.504 -0.2987 -0.6703  0.1074
  423MPD2    H3 6369   0.306   2.140   0.287  2.9919  2.7734  0.4415
  423MPD2     N 6370   0.683   1.927   0.164  0.3012  0.6089  0.0411
  423MPD2    H5 6371   0.683   1.976   0.075  0.7782  1.8699  0.7283
  423MPD2    N1 6372   0.492   1.868   0.603 -0.4257  0.4106  0.0729
  423MPD2    H7 6373   0.558   1.793   0.616 -0.0932  0.5991 -0.5362
  424TMC3    C1 6374   0.431   1.798   0.826  0.1436  0.0348  0.4290
  424TMC3    C2 6375   0.552   1.731   0.822  0.1623 -0.2903 -0.3462
  424TMC3    C3 6376   0.586   1.676   0.945 -0.8120  0.1736 -0.2296
  424TMC3    C4 6377   0.345   1.796   0.930  0.6825 -0.3916 -0.0191
  424TMC3    C5 6378   0.380   1.730   1.049 -0.9488 -0.1675  0.7378
  424TMC3    C6 6379   0.503   1.670   1.057 -0.6377 -0.4020  0.0084
  424TMC3     C 6380   0.400   1.882   0.712  0.2483 -0.1458  0.3269
  424TMC3     O 6381   0.299   1.956   0.719  0.4691 -0.3769 -0.1536
  424TMC3     H 6382   0.630   1.739   0.747  0.6875  3.3551  0.5870
  424TMC3    H1 6383   0.260   1.862   0.928  1.1920  0.2612 -0.1810
  424TMC3    H2 6384   0.530   1.617   1.147  0.4217  1.4417  0.7931
  424TMC3    C7 6385   0.299   1.748   1.164 -0.3578 -0.4149 -0.6636
  424TMC3    C8 6386   0.709   1.604   0.945  0.6024 -0.8184  0.1256
  424TMC3    O1 6387   0.361   1.755   1.267  0.2286  0.0978  0.1079
  424TMC3    O2 6388   0.752   1.572   0.835  0.8658  0.2777  0.3345
  425MPD2     C 6389   4.530   1.027  17.449  0.8322  0.6736  0.3075
  425MPD2    C1 6390   4.444   0.961  17.363  0.2672  0.4401  0.3688
  425MPD2    C2 6391   4.311   1.006  17.356  0.5400 -0.5876  0.7141
  425MPD2    C3 6392   4.275   1.131  17.423 -0.1369  0.1189 -0.8839
  425MPD2    C4 6393   4.369   1.195  17.492 -0.4754 -0.5867  1.0268
  425MPD2    C5 6394   4.488   1.141  17.516 -0.0961 -0.3384 -0.3853
  425MPD2     H 6395   4.242   0.953  17.292 -1.0914  0.5355  1.5508
  425MPD2    H1 6396   4.352   1.284  17.551 -2.2276  1.1754 -2.1499
  425MPD2    H2 6397   4.628   0.982  17.460  0.6975 -0.6837 -3.9351
  425MPD2    H3 6398   4.565   1.189  17.576 -0.5068 -0.0889 -0.0551
  425MPD2     N 6399   4.137   1.166  17.428  0.1634 -0.3550 -0.2170
  425MPD2    H5 6400   4.076   1.099  17.382 -0.7773 -0.2251  0.8268
  425MPD2    N1 6401   4.473   0.829  17.317 -0.2289  0.4050 -0.0361
  425MPD2    H7 6402   4.567   0.796  17.336 -0.8415 -0.6138  1.1607
  426TMC3    C1 6403   4.452   0.611  17.250  0.0701  0.3869 -0.4660
  426TMC3    C2 6404   4.401   0.538  17.149  0.0441  0.2031 -0.3755
  426TMC3    C3 6405   4.461   0.426  17.110  0.3144 -0.2311  0.2632
  426TMC3    C4 6406   4.544   0.557  17.337 -0.0598  0.2386 -0.3276
  426TMC3    C5 6407   4.594   0.437  17.295  0.0871 -0.0783  0.4277
  426TMC3    C6 6408   4.569   0.374  17.175  0.4718  0.0557  0.5030
  426TMC3     C 6409   4.387   0.731  17.270 -0.1311  0.0077 -0.0576
  426TMC3     O 6410   4.268   0.732  17.242 -0.2869  0.6965 -0.3949
  426TMC3     H 6411   4.335   0.590  17.079  1.4647 -0.4047 -2.1648
  426TMC3    H1 6412   4.587   0.618  17.416 -0.5171 -0.2034  0.2625
  426TMC3    H2 6413   4.595   0.269  17.173  1.3720  0.2606  1.5508
  426TMC3    C7 6414   4.673   0.360  17.388 -0.3254  0.0523  0.1651
  426TMC3    C8 6415   4.406   0.344  17.008 -0.2380 -0.1292 -0.1459
  426TMC3    O1 6416   0.006   0.276  17.343 -0.7347  0.4603 -0.3022
  426TMC3    O2 6417   4.481   0.266  16.954 -0.1587  0.3442  0.3702
  427MPD2     C 6418   3.077   2.596  15.107  0.3489 -0.4212 -0.6549
  427MPD2    C1 6419   3.079   2.668  15.219 -0.2317  0.3115  0.6621
  427MPD2    C2 6420   2.971   2.750  15.248 -0.3112  0.4834  0.2265
  427MPD2    C3 6421   2.859   2.761  15.169 -0.2933 -0.3835 -0.1484
  427MPD2    C4 6422   2.859   2.683  15.054  0.3290 -0.4150  0.7035
  427MPD2    C5 6423   2.964   2.604  15.027  0.0968  0.4207 -0.2679
  427MPD2     H 6424   2.977   2.813  15.336 -1.4815  1.7098 -0.5757
  427MPD2    H1 6425   2.780   2.688  14.979  0.1595 -2.1162  0.7669
  427MPD2    H2 6426   3.150   2.520  15.079  0.3597 -0.2681 -1.0450
  427MPD2    H3 6427   2.956   2.554  14.931 -2.6607  2.5952 -1.1520
  427MPD2     N 6428   2.748   2.845  15.190 -0.6448  0.3925  0.2831
  427MPD2    H5 6429   2.672   2.848  15.124  0.2329  0.6554 -0.7101
  427MPD2    N1 6430   3.180   2.666  15.322  0.4496  0.7466 -0.8224
  427MPD2    H7 6431   3.169   2.721  15.407 -2.1169  1.1570 -1.4102
  428TMC3    C1 6432   3.361   2.630  15.437  0.1456 -0.8317 -0.4374
  428TMC3    C2 6433   3.305   2.566  15.538 -0.0640  0.7820 -0.2066
  428TMC3    C3 6434   3.383   2.536  15.649 -0.1998  0.0766 -0.3607
  428TMC3    C4 6435   3.497   2.663  15.443 -1.0012 -0.3240  0.9601
  428TMC3    C5 6436   3.575   2.620  15.547 -0.1014 -0.7719 -0.4793
  428TMC3    C6 6437   3.520   2.563  15.658  0.6139  0.0825 -0.7412
  428TMC3     C 6438   3.305   2.613  15.309  0.3627  0.1855 -0.3489
  428TMC3     O 6439   3.370   2.586  15.211 -0.0071  0.3039 -0.4380
  428TMC3     H 6440   3.208   2.518  15.522  0.8906 -1.0359 -0.5703
  428TMC3    H1 6441   3.535   2.726  15.363 -1.6389 -2.5422 -1.0929
  428TMC3    H2 6442   3.580   2.549  15.747 -0.7293 -0.6199  0.0550
  428TMC3    C7 6443   3.709   2.673  15.572  0.7655  0.2751  0.0192
  428TMC3    C8 6444   3.319   2.444  15.742 -0.2897 -0.6526 -0.0929
  428TMC3    O1 6445   3.741   2.686  15.688 -0.1541 -0.1023  0.1566
  428TMC3    O2 6446   3.376   2.337  15.762 -0.2182 -0.3730 -0.1728
  429MPD2     C 6447   4.373   3.492  17.543 -0.6110  0.7604  0.4439
  429MPD2    C1 6448   4.465   3.401  17.496 -0.1748  0.0025  0.2004
  429MPD2    C2 6449   4.548   3.438  17.388  0.1045 -0.6022 -0.0809
  429MPD2    C3 6450   4.537   3.571  17.334 -0.3804  0.3300  0.0078
  429MPD2    C4 6451   4.449   3.661  17.393 -0.5591  0.5444  0.0656
  429MPD2    C5 6452   4.369   3.616  17.495 -0.2707 -0.0896  0.5229
  429MPD2     H 6453   4.629   3.376  17.352  0.9884  1.6806 -1.9802
  429MPD2    H1 6454   4.439   3.767  17.368 -2.6116 -0.4440 -3.2880
  429MPD2    H2 6455   4.307   3.476  17.627  1.6808  0.8549  2.2604
  429MPD2    H3 6456   4.287   3.677  17.531 -0.1422  1.8352 -2.4055
  429MPD2     N 6457   4.613   3.624  17.224 -0.4012 -0.1087 -0.0865
  429MPD2    H5 6458   4.577   3.715  17.199  1.4694  0.9319  1.0466
  429MPD2    N1 6459   4.474   3.268  17.552  0.1775  0.1790 -0.4903
  429MPD2    H7 6460   4.549   3.213  17.512 -1.0741 -0.8952 -1.3445
  430TMC3    C1 6461   0.026   3.628  17.039 -0.1885 -0.3257 -0.0932
  430TMC3    C2 6462   4.702   3.741  16.993  0.5634 -0.2463  0.6367
  430TMC3    C3 6463   4.713   3.774  16.862 -0.2421 -0.0318 -0.1628
  430TMC3    C4 6464   0.096   3.552  16.951  0.3330 -0.3183  0.6851
  430TMC3    C5 6465   0.118   3.599  16.827 -0.2344 -0.5352  1.1823
  430TMC3    C6 6466   0.054   3.708  16.779 -0.1636  0.8094  0.1389
  430TMC3     C 6467   4.705   3.555  17.148 -0.7006 -0.3988 -0.0380
  430TMC3     O 6468   0.003   3.442  17.164  0.8371  0.3413  0.5966
  430TMC3     H 6469   4.635   3.798  17.056  0.0376 -1.3690  1.0966
  430TMC3    H1 6470   0.144   3.458  16.977  0.1507 -0.4302  0.6175
  430TMC3    H2 6471   0.088   3.749  16.684  1.2197  1.9024  1.0967
  430TMC3    C7 6472   0.164   3.499  16.736  0.5863  0.0993 -0.1327
  430TMC3    C8 6473   4.612   3.856  16.803 -0.0699 -1.3331 -0.4771
  430TMC3    O1 6474   0.254   3.426  16.775 -0.2175  0.5125 -0.3407
  430TMC3    O2 6475   4.633   3.888  16.684  0.0080  0.1766  0.2710
  431MPD2     C 6476   0.202   3.244  12.670  0.4134  0.3628  0.2276
  431MPD2    C1 6477   0.283   3.255  12.557 -0.7727 -0.3506  0.2538
  431MPD2    C2 6478   0.294   3.154  12.466 -0.4502 -0.4103 -0.1730
  431MPD2    C3 6479   0.223   3.035  12.487  0.2969  0.8415 -0.1278
  431MPD2    C4 6480   0.143   3.016  12.596 -0.7554  0.5525 -0.1034
  431MPD2    C5 6481   0.132   3.124  12.689  0.6722 -0.2644  0.2184
  431MPD2     H 6482   0.366   3.165  12.386 -0.0872 -0.6898  0.1139
  431MPD2    H1 6483   0.083   2.928  12.612 -0.9638  0.4030 -1.6932
  431MPD2    H2 6484   0.197   3.324  12.743  1.4966 -0.8264  1.6004
  431MPD2    H3 6485   0.071   3.115  12.778  2.6553 -1.6217  1.4485
  431MPD2     N 6486   0.229   2.927  12.396  0.0551  0.3976  0.3462
  431MPD2    H5 6487   0.181   2.845  12.432  1.7720  0.0313  1.7837
  431MPD2    N1 6488   0.368   3.360  12.526 -0.0594 -0.4230  0.2761
  431MPD2    H7 6489   0.433   3.343  12.450 -0.2672  1.3761 -0.3039
  432TMC3    C1 6490   0.310   2.790  12.224  0.2347 -0.0398 -0.2651
  432TMC3    C2 6491   0.367   2.777  12.107  0.1708 -0.1893 -0.5143
  432TMC3    C3 6492   0.381   2.652  12.053 -0.2422  0.7227  0.0209
  432TMC3    C4 6493   0.282   2.682  12.303  0.0440  0.1307  0.0118
  432TMC3    C5 6494   0.299   2.556  12.247  0.5064  0.2261  0.2976
  432TMC3    C6 6495   0.343   2.541  12.118 -0.4666  0.0216  0.0256
  432TMC3     C 6496   0.299   2.922  12.279 -1.0608 -0.2057 -0.1481
  432TMC3     O 6497   0.352   3.014  12.220 -0.1311 -0.3761  0.2097
  432TMC3     H 6498   0.392   2.863  12.048  0.6077  0.4036  0.5304
  432TMC3    H1 6499   0.249   2.695  12.405 -1.0087  1.1652 -0.4675
  432TMC3    H2 6500   0.370   2.443  12.080 -0.2966 -0.1837  0.6744
  432TMC3    C7 6501   0.325   2.448  12.340 -0.1685  1.3299  0.0142
  432TMC3    C8 6502   0.477   2.636  11.947  0.0943 -0.5258 -0.1280
  432TMC3    O1 6503   0.398   2.353  12.304 -0.5168 -0.0656 -0.3011
  432TMC3    O2 6504   0.463   2.544  11.867  0.5528 -0.6320 -0.8630
  433MPD2     C 6505   4.153   2.003  10.793  0.0579  0.6677 -0.4554
  433MPD2    C1 6506   4.201   1.914  10.886 -0.0568 -0.2311 -0.4412
  433MPD2    C2 6507   4.202   1.940  11.021 -0.4306  0.0228 -0.2816
  433MPD2    C3 6508   4.152   2.066  11.063 -0.3936 -0.0869 -0.0984
  433MPD2    C4 6509   4.102   2.151  10.974 -0.7570 -0.1948  0.4751
  433MPD2    C5 6510   4.101   2.120  10.842 -0.1466 -0.0152  0.0530
  433MPD2     H 6511   4.254   1.885  11.099  0.3310  1.3831  0.1787
  433MPD2    H1 6512   4.063   2.247  11.006  0.5249  0.9630 -1.4185
  433MPD2    H2 6513   4.141   1.981  10.688 -0.2551  0.6597 -0.4170
  433MPD2    H3 6514   4.057   2.194  10.776 -0.9003 -0.7565 -0.2748
  433MPD2     N 6515   4.177   2.099  11.199 -0.2375  0.5908 -0.0964
  433MPD2    H5 6516   4.208   2.027  11.264 -4.0085 -0.8893  0.0582
  433MPD2    N1 6517   4.248   1.790  10.837  0.2086 -0.4556  0.0048
  433MPD2    H7 6518   4.233   1.768  10.739 -3.4183  2.5405 -0.1347
  434TMC3    C1 6519   4.365   1.600  10.829 -0.1700  0.0684  0.1864
  434TMC3    C2 6520   4.475   1.537  10.868  0.2350  0.5234  0.1125
  434TMC3    C3 6521   4.494   1.408  10.829  0.0302 -0.4534 -0.2092
  434TMC3    C4 6522   4.275   1.543  10.743 -0.0053  1.1365 -0.9730
  434TMC3    C5 6523   4.297   1.411  10.702  0.5412  0.0540 -0.6851
  434TMC3    C6 6524   4.410   1.347  10.746 -0.0273 -0.4889 -0.1344
  434TMC3     C 6525   4.326   1.703  10.911  0.8224 -0.5386 -0.2606
  434TMC3     O 6526   4.364   1.701  11.026 -0.1046  0.1567  0.4723
  434TMC3     H 6527   4.533   1.588  10.944  0.0549  2.5675 -1.0949
  434TMC3    H1 6528   4.193   1.602  10.704 -1.0175  1.5291  1.7211
  434TMC3    H2 6529   4.430   1.246  10.714  0.4701 -0.1312 -0.9718
  434TMC3    C7 6530   4.182   1.343  10.639 -0.1160  0.3892 -0.7441
  434TMC3    C8 6531   4.593   1.342  10.909  0.4256  0.6477  0.4551
  434TMC3    O1 6532   4.081   1.407  10.632 -0.4274  0.0173  0.3019
  434TMC3    O2 6533   4.688   1.408  10.943 -0.2968  0.0658  0.2906
  435MPD2     C 6534   1.654   2.001  15.550  0.1658 -0.5654 -0.0174
  435MPD2    C1 6535   1.586   1.958  15.654  0.5195 -0.1120  0.7286
  435MPD2    C2 6536   1.626   1.848  15.729 -0.2375  0.0698  0.9798
  435MPD2    C3 6537   1.732   1.778  15.683 -0.4808 -0.2266  0.3355
  435MPD2    C4 6538   1.812   1.833  15.585  0.1715  0.3420 -0.6705
  435MPD2    C5 6539   1.773   1.945  15.519 -0.3737 -0.2906  0.0567
  435MPD2     H 6540   1.566   1.806  15.810  1.4260 -1.2302  1.5510
  435MPD2    H1 6541   1.908   1.785  15.568  0.0986 -0.3474  0.8323
  435MPD2    H2 6542   1.623   2.082  15.486  0.3762 -0.3846  0.1098
  435MPD2    H3 6543   1.828   1.984  15.434 -0.6444 -1.1837 -0.5299
  435MPD2     N 6544   1.771   1.658  15.754 -0.6009  0.2491 -1.1048
  435MPD2    H5 6545   1.724   1.638  15.842  2.9549  2.6924  1.3298
  435MPD2    N1 6546   1.466   2.015  15.694  0.9104 -0.0987  0.2393
  435MPD2    H7 6547   1.406   1.966  15.760  0.2707 -0.4628 -0.6019
  436TMC3    C1 6548   1.151   2.166  15.911 -0.0005 -0.6423 -0.5025
  436TMC3    C2 6549   1.261   2.125  15.848 -0.1876  0.1481  0.1398
  436TMC3    C3 6550   1.290   2.158  15.715 -0.3897  0.5370  1.1581
  436TMC3    C4 6551   1.052   2.240  15.842  0.0093 -0.5187 -0.3134
  436TMC3    C5 6552   1.091   2.277  15.710 -0.1251 -0.4141 -0.1630
  436TMC3    C6 6553   1.207   2.241  15.646  0.0034  0.4779 -0.5286
  436TMC3     C 6554   1.163   2.189  16.052 -0.6577  0.6540  0.2266
  436TMC3     O 6555   1.275   2.218  16.093 -0.3247 -0.3639  0.7374
  436TMC3     H 6556   1.340   2.085  15.910  0.4437  2.5818  0.8762
  436TMC3    H1 6557   0.961   2.283  15.883  1.1554  1.5526  0.1061
  436TMC3    H2 6558   1.229   2.283  15.548  1.7921  0.4889 -0.1053
  436TMC3    C7 6559   1.014   2.368  15.630  0.0840 -0.4475  0.0561
  436TMC3    C8 6560   1.421   2.138  15.655 -0.6888 -0.6481 -0.3292
  436TMC3    O1 6561   1.075   2.442  15.557  0.4127 -0.3127  0.5712
  436TMC3    O2 6562   1.459   2.217  15.571 -0.0246 -0.5931  0.0660
  437TMC3    C1 6563   0.624   4.004  11.968 -0.3778  0.4741  0.3288
  437TMC3    C2 6564   0.653   4.069  11.852 -0.0500 -0.1111 -0.2686
  437TMC3    C3 6565   0.771   4.037  11.797  1.0894 -0.0446 -0.0011
  437TMC3    C4 6566   0.705   3.916  12.033 -0.4205 -0.4582 -0.2866
  437TMC3    C5 6567   0.822   3.891  11.967  0.5172  0.6109  0.5711
  437TMC3    C6 6568   0.856   3.944  11.847  0.1022 -0.5986 -0.5740
  437TMC3     C 6569   0.519   4.054  12.055 -0.4363 -0.7950 -0.9789
  437TMC3     O 6570   0.527   4.019  12.172  0.4606  0.2466 -0.1619
  437TMC3     H 6571   0.593   4.150  11.812  1.4540  1.6952  1.1203
  437TMC3    H1 6572   0.679   3.857  12.120 -2.2837  0.6823 -0.0637
  437TMC3    H2 6573   0.953   3.933  11.801  0.3098  0.3786 -0.3744
  437TMC3    C7 6574   0.924   3.814  12.041  0.3502  1.4268  0.3906
  437TMC3    C8 6575   0.812   4.112  11.681 -0.7429  0.4002  0.2432
  437TMC3    O1 6576   1.021   3.786  11.977 -0.1427  0.0352  0.0127
  437TMC3    O2 6577   0.754   4.218  11.669 -0.5225 -0.3212 -0.2036
  438MPD2     C 6578   2.008   0.174  16.494 -0.0871  0.5665 -0.1571
  438MPD2    C1 6579   2.082   0.075  16.551  0.4419  0.1404  0.2308
  438MPD2    C2 6580   2.080   0.054  16.691 -0.4224  0.6026  0.0982
  438MPD2    C3 6581   2.005   0.139  16.773  0.0078 -0.3238  0.2117
  438MPD2    C4 6582   1.941   0.242  16.713 -0.4270  0.0820 -0.9033
  438MPD2    C5 6583   1.934   0.259  16.574  0.4726  0.1448 -0.1160
  438MPD2     H 6584   2.147   4.721  16.729 -0.2610  0.4031 -0.5942
  438MPD2    H1 6585   1.895   0.318  16.776 -1.8886 -1.0392 -0.6156
  438MPD2    H2 6586   2.016   0.193  16.387 -0.8055 -2.3180 -0.7217
  438MPD2    H3 6587   1.883   0.343  16.528  0.3198 -1.5548 -3.0794
  438MPD2     N 6588   2.014   0.131  16.910 -0.5560 -0.3692 -0.1957
  438MPD2    H5 6589   1.968   0.210  16.955  0.3651  0.0216  0.0638
  438MPD2    N1 6590   2.166   4.720  16.490 -0.1823  0.0743 -0.2580
  438MPD2    H7 6591   2.215   4.654  16.549 -1.1653  1.8892  2.5745
  439TMC3    C1 6592   2.277   4.597  16.333 -0.4874  0.2801 -0.2504
  439TMC3    C2 6593   2.280   4.533  16.211  0.0844 -0.0142 -0.2612
  439TMC3    C3 6594   2.331   4.407  16.207 -0.4177  0.4155  0.2604
  439TMC3    C4 6595   2.339   4.536  16.447  0.7686 -0.8557  0.0186
  439TMC3    C5 6596   2.382   4.400  16.437 -0.2215  0.0015  0.0263
  439TMC3    C6 6597   2.364   4.339  16.321  0.1781 -0.0006  0.5673
  439TMC3     C 6598   2.187   4.708  16.353 -0.1301  0.1840  0.2605
  439TMC3     O 6599   2.139   0.029  16.258  0.0997 -0.0232  0.0075
  439TMC3     H 6600   2.224   4.575  16.128 -2.9364 -1.0280  1.2787
  439TMC3    H1 6601   2.375   4.590  16.534  2.4105 -0.1382 -1.1026
  439TMC3    H2 6602   2.390   4.235  16.306 -0.7590 -0.0795 -0.5498
  439TMC3    C7 6603   2.503   4.361  16.512  0.3389  0.2032 -0.5201
  439TMC3    C8 6604   2.437   4.379  16.113 -1.0853 -0.5953 -0.3492
  439TMC3    O1 6605   2.520   4.405  16.629 -0.0538 -0.1700  0.4648
  439TMC3    O2 6606   2.524   4.303  16.152  0.2092  0.1311 -0.1981
  440MPD2     C 6607   1.254   4.729  14.780  0.0609  0.4561 -0.3479
  440MPD2    C1 6608   1.151   4.698  14.866  0.0602  0.1381  0.7242
  440MPD2    C2 6609   1.143   4.575  14.926  0.2772  0.4383  0.2769
  440MPD2    C3 6610   1.236   4.481  14.903 -0.1040 -0.0054 -0.2337
  440MPD2    C4 6611   1.341   4.509  14.815 -0.2978 -0.0145  0.0540
  440MPD2    C5 6612   1.352   4.634  14.756  0.3439  0.0082 -0.2276
  440MPD2     H 6613   1.052   4.561  14.983  1.3437 -0.9163  1.6407
  440MPD2    H1 6614   1.411   4.430  14.791 -1.4380 -1.5742  1.8977
  440MPD2    H2 6615   1.252   0.072  14.715  1.6952  0.4987 -0.3272
  440MPD2    H3 6616   1.420   4.650  14.673 -1.6929 -0.1013 -1.8988
  440MPD2     N 6617   1.232   4.347  14.956  0.3210  0.7842 -0.1388
  440MPD2    H5 6618   1.307   4.286  14.924 -0.8925 -1.8294  2.0182
  440MPD2    N1 6619   1.048   0.046  14.899 -0.2552 -0.1903 -0.0976
  440MPD2    H7 6620   0.987   0.030  14.979 -1.2839 -2.0498 -1.2541
  441TMC3    C1 6621   1.181   4.171  15.096 -0.5789  0.4881 -0.6292
  441TMC3    C2 6622   1.298   4.108  15.048  0.4731 -0.2029 -0.6651
  441TMC3    C3 6623   1.384   4.046  15.142  0.9559  0.1020  0.4309
  441TMC3    C4 6624   1.150   4.160  15.223  0.3280  0.2081 -0.4574
  441TMC3    C5 6625   1.231   4.091  15.312  0.6463  0.0756 -0.0361
  441TMC3    C6 6626   1.342   4.029  15.271  0.0966  0.5188  0.6061
  441TMC3     C 6627   1.138   4.301  15.042 -0.5069 -0.0403 -0.3898
  441TMC3     O 6628   1.038   4.346  15.086 -0.7595  0.1181  0.0871
  441TMC3     H 6629   1.338   4.116  14.947  0.0646 -0.0283 -0.8117
  441TMC3    H1 6630   1.048   4.188  15.248 -0.0259 -0.1797 -1.4581
  441TMC3    H2 6631   1.402   3.979  15.346 -0.4771  0.9802  1.3744
  441TMC3    C7 6632   1.182   4.092  15.446  0.0133  0.2392  0.0013
  441TMC3    C8 6633   1.514   4.102  15.140  0.0912 -0.1566  0.0011
  441TMC3    O1 6634   1.084   4.165  15.460 -0.8463  0.8550 -0.3914
  441TMC3    O2 6635   1.583   4.076  15.042  0.0168  1.0087 -0.1133
  442MPD2     C 6636   4.457   0.666  16.759 -0.0630 -0.3911  0.8252
  442MPD2    C1 6637   4.328   0.656  16.722 -0.6148 -0.0595  0.5733
  442MPD2    C2 6638   4.270   0.537  16.674  0.1716 -0.3076  0.0784
  442MPD2    C3 6639   4.343   0.424  16.644  0.5049  0.4224  0.6765
  442MPD2    C4 6640   4.478   0.435  16.688 -0.1827  0.1345  0.7869
  442MPD2    C5 6641   4.528   0.549  16.755 -0.5216 -0.3584 -0.3642
  442MPD2     H 6642   4.164   0.537  16.650  0.1251 -0.2343  0.2793
  442MPD2    H1 6643   4.551   0.356  16.670 -0.5658 -0.2284  0.8400
  442MPD2    H2 6644   4.498   0.755  16.805  1.0962 -0.3894 -0.2067
  442MPD2    H3 6645   4.629   0.550  16.794 -1.0324 -1.7939  0.9749
  442MPD2     N 6646   4.300   0.303  16.583 -0.1244  0.0722 -0.2479
  442MPD2    H5 6647   4.371   0.231  16.581  0.9436  1.1510 -1.5099
  442MPD2    N1 6648   4.234   0.759  16.750  0.2726 -0.2188 -0.9041
  442MPD2    H7 6649   4.137   0.730  16.741  0.4841 -0.4775 -2.2976
  443TMC3    C1 6650   4.137   0.958  16.811  0.0571 -0.1658 -0.3278
  443TMC3    C2 6651   4.104   1.040  16.703  0.1890  0.3786  0.1533
  443TMC3    C3 6652   3.977   1.060  16.676 -0.7647 -0.0334 -0.0964
  443TMC3    C4 6653   4.047   0.911  16.901  0.5254 -0.4926 -0.0803
  443TMC3    C5 6654   3.920   0.959  16.884  0.6477 -0.4053  0.6901
  443TMC3    C6 6655   3.884   1.033  16.775  0.7923 -0.1585 -0.3367
  443TMC3     C 6656   4.260   0.886  16.788 -0.6711 -0.3147 -0.2769
  443TMC3     O 6657   4.361   0.952  16.781 -0.2585  0.1812  0.5396
  443TMC3     H 6658   4.170   1.066  16.621  1.9582 -1.5446  0.9593
  443TMC3    H1 6659   4.084   0.852  16.984  0.2561  0.1214  0.4748
  443TMC3    H2 6660   3.778   1.045  16.758  1.1718  2.7580 -0.7117
  443TMC3    C7 6661   3.823   0.913  16.984 -0.0314 -0.5878  0.2130
  443TMC3    C8 6662   3.934   1.006  16.549 -0.5172  0.3284  0.8784
  443TMC3    O1 6663   3.850   0.804  17.030  0.2615 -0.9949  0.7023
  443TMC3    O2 6664   3.991   0.910  16.504  0.1556 -0.5203 -0.5208
  444MPD2     C 6665   4.113   0.305  17.415  0.0424  0.7391  0.0434
  444MPD2    C1 6666   4.023   0.228  17.349  0.6942 -0.4366  0.7156
  444MPD2    C2 6667   4.067   0.130  17.262  0.8156  0.2437 -0.2964
  444MPD2    C3 6668   4.201   0.100  17.262 -0.7777  0.3788 -0.1555
  444MPD2    C4 6669   4.291   0.187  17.314  0.4672  0.2025 -0.4846
  444MPD2    C5 6670   4.249   0.290  17.398  0.2872  0.2992  0.0583
  444MPD2     H 6671   3.998   0.060  17.216  0.1141  2.0936 -2.0568
  444MPD2    H1 6672   4.397   0.180  17.293  0.4080 -0.4927 -0.5610
  444MPD2    H2 6673   4.087   0.380  17.489  0.6795 -0.7716  1.7882
  444MPD2    H3 6674   4.318   0.354  17.451 -0.4219  1.7045 -0.6952
  444MPD2     N 6675   4.251   4.720  17.211 -0.1859  0.5498  0.0821
  444MPD2    H5 6676   4.184   4.656  17.170 -0.7921  0.7544  0.7700
  444MPD2    N1 6677   3.884   0.240  17.359  0.7631  0.1877  0.1282
  444MPD2    H7 6678   3.829   0.185  17.294 -0.9882  2.0556  0.0086
  445TMC3    C1 6679   4.391   4.545  17.137 -0.0218  0.1697  0.5873
  445TMC3    C2 6680   4.306   4.446  17.187 -0.9546 -0.3186 -0.0575
  445TMC3    C3 6681   4.354   4.319  17.182  0.1164 -0.5902 -0.0600
  445TMC3    C4 6682   4.511   4.520  17.078  0.7073  0.2439 -0.1247
  445TMC3    C5 6683   4.553   4.386  17.077 -0.1493  0.1997  0.0236
  445TMC3    C6 6684   4.477   4.287  17.129 -0.8148 -0.0383 -0.1287
  445TMC3     C 6685   4.382   4.676  17.193 -0.6407 -0.1580 -0.0666
  445TMC3     O 6686   4.490   4.724  17.225 -0.6330  0.2466  0.3081
  445TMC3     H 6687   4.214   4.471  17.238 -0.1600  0.0181  1.2033
  445TMC3    H1 6688   4.580   4.599  17.051 -0.1782  0.3371 -2.1697
  445TMC3    H2 6689   4.480   4.182  17.104 -1.2016 -0.4140  1.3830
  445TMC3    C7 6690   4.668   4.348  16.997  0.7008 -0.3100 -0.2273
  445TMC3    C8 6691   4.255   4.207  17.192  0.3409  0.0364  0.1052
  445TMC3    O1 6692   4.715   4.422  16.910  0.4733  0.1056  0.3585
  445TMC3    O2 6693   4.295   4.095  17.220  0.1390  0.6370  0.5935
  446MPD2     C 6694   4.238   1.457  11.510 -0.3285 -0.2519  0.1923
  446MPD2    C1 6695   4.207   1.500  11.383 -0.8246 -0.1207 -0.4285
  446MPD2    C2 6696   4.304   1.556  11.298  0.5040 -0.3494 -0.5041
  446MPD2    C3 6697   4.437   1.556  11.343  0.5786 -0.3230  0.1185
  446MPD2    C4 6698   4.464   1.523  11.471 -0.1953 -0.5788 -0.3210
  446MPD2    C5 6699   4.365   1.475  11.557  0.0346  0.8263  0.5525
  446MPD2     H 6700   4.281   1.569  11.193 -1.4977  0.5712  0.0586
  446MPD2    H1 6701   4.567   1.530  11.503  0.2401  1.2600 -2.1220
  446MPD2    H2 6702   4.166   1.413  11.578 -0.6277 -1.6270 -0.9976
  446MPD2    H3 6703   4.401   1.448  11.655 -1.0169 -0.9670  0.4481
  446MPD2     N 6704   4.541   1.585  11.251  0.4399  0.7422  0.5175
  446MPD2    H5 6705   4.505   1.615  11.161  1.2286  1.1222  0.3296
  446MPD2    N1 6706   4.076   1.478  11.332  0.5234 -0.3485 -0.6245
  446MPD2    H7 6707   4.042   1.527  11.250  1.9130 -2.4727 -2.4771
  447TMC3    C1 6708   0.010   1.635  11.181 -0.4623  0.3914  0.0124
  447TMC3    C2 6709   4.701   1.729  11.099 -0.4924  0.7254  0.0594
  447TMC3    C3 6710   0.029   1.769  10.992 -0.1834 -0.8733  0.0844
  447TMC3    C4 6711   0.125   1.570  11.155 -0.0173 -0.8984  0.2379
  447TMC3    C5 6712   0.197   1.616  11.041 -0.6056 -0.1961  0.0569
  447TMC3    C6 6713   0.144   1.705  10.954  0.3118 -0.8984  0.4114
  447TMC3     C 6714   4.671   1.562  11.272  0.0692 -0.3542 -0.0997
  447TMC3     O 6715   4.733   1.487  11.344  0.0273 -0.5176  0.1203
  447TMC3     H 6716   4.601   1.764  11.123  0.1247  2.6334 -0.1173
  447TMC3    H1 6717   0.161   1.494  11.223 -0.9966 -0.7527  0.9247
  447TMC3    H2 6718   0.181   1.728  10.855 -2.1017 -0.6680 -0.4374
  447TMC3    C7 6719   0.300   1.530  10.982 -0.6007  0.7392  0.3305
  447TMC3    C8 6720   4.716   1.866  10.903  0.2578 -0.4578  0.6192
  447TMC3    O1 6721   0.291   1.413  11.020  0.1458  0.3555  0.1403
  447TMC3    O2 6722   4.727   1.847  10.780  0.0330 -0.1000 -0.0930
  448TMC3    C1 6723   2.012   1.356  17.293 -0.4000  0.3084 -0.5033
  448TMC3    C2 6724   2.021   1.279  17.184 -0.4847  0.5083 -0.0421
  448TMC3    C3 6725   2.089   1.161  17.202  0.4358 -0.1691  0.3509
  448TMC3    C4 6726   2.061   1.323  17.417  0.3148 -0.3424 -0.2569
  448TMC3    C5 6727   2.132   1.212  17.434  0.0045 -0.5503 -0.3356
  448TMC3    C6 6728   2.141   1.127  17.325 -0.5957 -0.0253  0.9393
  448TMC3     C 6729   1.934   1.475  17.269  0.2824 -0.9040 -0.3427
  448TMC3     O 6730   1.941   1.522  17.158  0.7831  1.1137  0.2445
  448TMC3     H 6731   1.968   1.310  17.095 -0.9231  0.1021  0.0774
  448TMC3    H1 6732   2.054   1.396  17.496  1.5729  1.0047 -1.3939
  448TMC3    H2 6733   2.183   1.028  17.341  0.2056  0.0759 -0.6063
  448TMC3    C7 6734   2.132   1.151  17.564 -0.9616 -0.0050  0.3412
  448TMC3    C8 6735   2.103   1.061  17.096 -0.0811 -0.0984  0.1367
  448TMC3    O1 6736   2.059   1.190  17.653 -0.3806  0.2700 -0.0096
  448TMC3    O2 6737   2.182   0.970  17.119 -0.2767 -0.0625 -0.1127
  449MPD2     C 6738   4.254   3.930  13.878 -0.0447 -0.6553  0.0479
  449MPD2    C1 6739   4.117   3.911  13.869 -1.3871  0.4668 -0.3052
  449MPD2    C2 6740   4.068   3.787  13.906 -0.2772  0.4198 -0.1024
  449MPD2    C3 6741   4.148   3.683  13.946 -0.7271  0.7336  0.1002
  449MPD2    C4 6742   4.282   3.703  13.938 -0.2299  0.8281  0.8477
  449MPD2    C5 6743   4.331   3.827  13.914 -0.3356  0.0384  0.1192
  449MPD2     H 6744   3.962   3.766  13.895 -0.4216  0.4549  1.2721
  449MPD2    H1 6745   4.351   3.619  13.939  0.3676  1.3180  1.0540
  449MPD2    H2 6746   4.292   4.029  13.855  1.3679 -2.0341 -3.5051
  449MPD2    H3 6747   4.439   3.839  13.905 -0.1995 -0.4370  1.1038
  449MPD2     N 6748   4.082   3.567  13.977  0.0575 -0.2229 -0.6134
  449MPD2    H5 6749   3.981   3.576  13.978  0.1641  0.7135  1.2555
  449MPD2    N1 6750   4.017   4.013  13.869  0.3716 -0.1295 -0.4640
  449MPD2    H7 6751   3.931   3.970  13.902  0.5940 -0.2171  0.0048
  450TMC3    C1 6752   3.890   4.211  13.845  0.4992  0.2549 -0.5886
  450TMC3    C2 6753   3.840   4.226  13.719 -0.4682 -0.1784 -0.0247
  450TMC3    C3 6754   3.713   4.194  13.694  0.6378 -0.5840 -0.3797
  450TMC3    C4 6755   3.808   4.167  13.944  0.0953 -0.4019  0.0237
  450TMC3    C5 6756   3.682   4.131  13.914 -0.0805  0.1159  0.0289
  450TMC3    C6 6757   3.634   4.141  13.791  0.3871 -0.1509  0.2470
  450TMC3     C 6758   4.018   4.150  13.843  0.8929  0.2437  0.1740
  450TMC3     O 6759   4.105   4.221  13.804 -0.0828  0.6587  0.0560
  450TMC3     H 6760   3.904   4.269  13.643 -1.6890 -2.5797 -2.4071
  450TMC3    H1 6761   3.845   4.145  14.044 -2.4962  1.1072  1.3210
  450TMC3    H2 6762   3.531   4.115  13.769 -0.4157  1.7870  1.7154
  450TMC3    C7 6763   3.663   3.996  13.962  0.2624 -0.2702  0.0288
  450TMC3    C8 6764   3.659   4.187  13.557 -0.9390 -0.4946  0.4679
  450TMC3    O1 6765   3.770   3.937  13.968  0.1666  0.3599 -0.0414
  450TMC3    O2 6766   3.561   4.115  13.549  0.3756  0.3579  0.5461
  451MPD2     C 6767   0.040   3.150   1.431  0.1550  0.7019  0.5640
  451MPD2    C1 6768   0.027   3.161   1.295  0.2669 -0.1001 -0.3277
  451MPD2    C2 6769   0.043   3.038   1.226 -0.4212  0.7362  0.6250
  451MPD2    C3 6770   0.063   2.919   1.297  0.3088 -0.2598 -0.1634
  451MPD2    C4 6771   0.087   2.916   1.432  0.4239  0.7796  0.4332
  451MPD2    C5 6772   0.070   3.032   1.499  1.0384 -0.1577 -0.0089
  451MPD2     H 6773   0.037   3.029   1.118 -1.5274  0.2995  0.7190
  451MPD2    H1 6774   0.105   2.827   1.491  0.8060 -0.0400 -0.9326
  451MPD2    H2 6775   0.027   3.235   1.497 -1.4680  1.5823 -0.8945
  451MPD2    H3 6776   0.066   3.041   1.607 -0.5063 -0.4547 -0.0442
  451MPD2     N 6777   0.070   2.792   1.233  0.6532  0.5566  0.3165
  451MPD2    H5 6778   0.105   2.710   1.281  1.6820  1.1164  0.5225
  451MPD2    N1 6779   4.738   3.286   1.235 -0.0428  0.4832 -0.1363
  451MPD2    H7 6780   4.726   3.367   1.295 -3.2483  1.0872 -1.5982
  452TMC3    C1 6781   0.053   2.632   1.067  0.1140 -0.2479 -0.3297
  452TMC3    C2 6782   4.715   2.576   0.970  0.3408  0.2437 -0.4199
  452TMC3    C3 6783   0.027   2.494   0.880 -0.3588  0.0330 -0.2422
  452TMC3    C4 6784   0.187   2.586   1.076  0.5081  0.3195  0.6206
  452TMC3    C5 6785   0.236   2.499   0.987  0.9115  0.5130 -0.0963
  452TMC3    C6 6786   0.161   2.446   0.885  0.3172 -0.2721  1.0522
  452TMC3     C 6787   0.015   2.767   1.112 -0.4045  0.1476 -0.0453
  452TMC3     O 6788   4.668   2.826   1.053 -0.7794  0.5221  0.4888
  452TMC3     H 6789   4.617   2.620   0.954  0.6406  1.2152  0.4370
  452TMC3    H1 6790   0.254   2.636   1.146  1.2771  1.4033 -0.8609
  452TMC3    H2 6791   0.205   2.386   0.806  0.7554  0.3006  0.8564
  452TMC3    C7 6792   0.376   2.468   0.992  0.4527 -0.4180  0.1580
  452TMC3    C8 6793   4.679   2.452   0.774  0.0131 -0.8942 -0.7500
  452TMC3    O1 6794   0.448   2.543   1.059  0.6571 -0.1667  0.0886
  452TMC3    O2 6795   4.584   2.523   0.751 -0.4421  0.1466  0.5089
  453TMC3    C1 6796   1.223   4.502  12.630 -0.2993  0.7463 -0.0601
  453TMC3    C2 6797   1.234   4.378  12.677  0.0339 -0.1203  0.3882
  453TMC3    C3 6798   1.229   4.270  12.594  0.5476 -0.2003 -0.4307
  453TMC3    C4 6799   1.199   4.523  12.495  0.7041  0.5472  0.3340
  453TMC3    C5 6800   1.200   4.416  12.412 -0.7543  0.7396  0.3746
  453TMC3    C6 6801   1.216   4.288  12.459  0.4308  0.6336 -0.1284
  453TMC3     C 6802   1.310   4.594  12.687 -0.4619  0.5617  0.4857
  453TMC3     O 6803   1.357   4.668  12.600  0.2358 -0.1465  0.2463
  453TMC3     H 6804   1.250   4.360  12.783 -0.0994 -1.3944  0.1894
  453TMC3    H1 6805   1.184   4.626  12.465 -2.1837  0.0959  0.2283
  453TMC3    H2 6806   1.204   4.204  12.392 -0.2359  1.2142 -0.7433
  453TMC3    C7 6807   1.225   4.444  12.273  0.0762  0.8748 -0.0712
  453TMC3    C8 6808   1.284   4.144  12.636  0.3227  0.9383 -0.7607
  453TMC3    O1 6809   1.195   4.558  12.236 -0.1120  0.3055 -0.1877
  453TMC3    O2 6810   1.281   4.122  12.754 -0.3394  0.1486 -0.1603
  454MPD2     C 6811   0.266   4.475  16.443 -0.6738  0.3189  0.5041
  454MPD2    C1 6812   0.213   4.354  16.397  0.0967 -0.9651  0.2552
  454MPD2    C2 6813   0.102   4.302  16.460  0.5585  0.9558 -0.1702
  454MPD2    C3 6814   0.058   4.360  16.570 -0.0318  0.3774  0.2079
  454MPD2    C4 6815   0.123   4.468  16.629  0.2805 -0.0088  0.3851
  454MPD2    C5 6816   0.224   4.526  16.564  0.4232  0.6753  0.2726
  454MPD2     H 6817   0.059   4.211  16.420  0.5470  1.2290 -0.7811
  454MPD2    H1 6818   0.098   4.508  16.727 -0.2037 -1.9091  1.0544
  454MPD2    H2 6819   0.340   4.532  16.388 -0.8023  0.5968  0.6193
  454MPD2    H3 6820   0.263   4.620  16.601  1.7038  0.3011 -0.1343
  454MPD2     N 6821   4.685   4.329  16.640  0.0497  0.2398 -0.8093
  454MPD2    H5 6822   4.662   4.385  16.721 -0.8987 -0.3403 -0.6736
  454MPD2    N1 6823   0.235   4.291  16.276  0.0829 -0.3168 -0.7217
  454MPD2    H7 6824   0.176   4.210  16.261  2.5212 -1.7809 -2.3686
  455TMC3    C1 6825   4.450   4.306  16.613 -0.4409 -0.6703 -0.3526
  455TMC3    C2 6826   4.422   4.418  16.692 -0.6245  0.7842  0.2410
  455TMC3    C3 6827   4.300   4.477  16.691 -0.5772 -0.8358 -0.0435
  455TMC3    C4 6828   4.361   4.278  16.518 -0.1835 -0.2565  0.7639
  455TMC3    C5 6829   4.243   4.352  16.505  0.1145 -0.5237 -0.3711
  455TMC3    C6 6830   4.209   4.452  16.598 -0.3613 -0.4061 -0.4040
  455TMC3     C 6831   4.588   4.251  16.594 -0.1148 -0.0941 -0.1423
  455TMC3     O 6832   4.596   4.164  16.510 -0.7899  0.3925  0.4033
  455TMC3     H 6833   4.480   4.440  16.780 -3.4163 -3.6740  3.2566
  455TMC3    H1 6834   4.384   4.195  16.452  0.3300 -0.2533  0.9424
  455TMC3    H2 6835   4.121   4.516  16.596 -0.4123 -0.4224  2.3273
  455TMC3    C7 6836   4.168   4.342  16.381 -0.1105 -0.6243 -0.2251
  455TMC3    C8 6837   4.302   4.609  16.750 -0.1954  0.3876 -0.3400
  455TMC3    O1 6838   4.068   4.410  16.379 -0.0589 -1.0898  0.0595
  455TMC3    O2 6839   4.413   4.658  16.767 -0.3563 -0.3941  0.2088
  456MPD2     C 6840   2.522   0.014  16.078  0.0438 -0.1780 -0.3793
  456MPD2    C1 6841   2.588   4.721  16.194 -0.3312  0.4893 -0.3445
  456MPD2    C2 6842   2.557   0.039  16.314  0.4357  0.5713 -0.0452
  456MPD2    C3 6843   2.461   0.134  16.330  0.2810 -0.5736 -0.8250
  456MPD2    C4 6844   2.395   0.168  16.214  0.0486 -0.0900 -0.0805
  456MPD2    C5 6845   2.424   0.107  16.092  0.0340  0.4907 -0.4638
  456MPD2     H 6846   2.605   0.004  16.404  1.2087 -1.4069 -1.2185
  456MPD2    H1 6847   2.312   0.238  16.215  0.3712  0.2988 -0.3321
  456MPD2    H2 6848   2.558   4.723  15.982 -0.9968 -2.7020  0.1659
  456MPD2    H3 6849   2.369   0.159  16.013 -1.1584 -1.2314 -0.7745
  456MPD2     N 6850   2.438   0.195  16.454 -0.6782  0.2241  0.7021
  456MPD2    H5 6851   2.508   0.184  16.526  0.1317  0.4896 -0.0519
  456MPD2    N1 6852   2.692   4.627  16.181 -0.2673 -0.3481  0.5050
  456MPD2    H7 6853   2.727   4.614  16.086  0.1005  1.0621  0.4431
  457TMC3    C1 6854   2.330   0.318  16.624 -0.3930 -0.1882  0.0443
  457TMC3    C2 6855   2.269   0.440  16.644 -0.4247  0.5131 -0.6650
  457TMC3    C3 6856   2.254   0.482  16.773 -0.5918  0.0790 -0.6571
  457TMC3    C4 6857   2.376   0.237  16.723 -0.7088  0.3665 -0.1368
  457TMC3    C5 6858   2.351   0.282  16.851 -0.2608 -1.0343 -0.8360
  457TMC3    C6 6859   2.286   0.403  16.881  0.3489 -0.4192  0.6836
  457TMC3     C 6860   2.336   0.280  16.485  0.1943 -0.3170 -0.1668
  457TMC3     O 6861   2.258   0.335  16.410  0.3521  0.0702 -0.7758
  457TMC3     H 6862   2.249   0.506  16.561  2.5443  1.3785 -0.6801
  457TMC3    H1 6863   2.434   0.148  16.702 -2.6246 -1.2302  1.3166
  457TMC3    H2 6864   2.286   0.451  16.978  1.1450 -1.2150  1.0716
  457TMC3    C7 6865   2.430   0.207  16.950 -0.3269  0.4614  0.1903
  457TMC3    C8 6866   2.172   0.600  16.806 -0.1912  0.4392  0.5076
  457TMC3    O1 6867   2.475   0.094  16.921 -0.8219  0.3905 -0.1904
  457TMC3    O2 6868   2.135   0.608  16.922 -0.3983  0.1621 -0.0413
  458MPD2     C 6869   1.174   3.681  12.459 -0.1083 -0.2388 -0.0347
  458MPD2    C1 6870   1.064   3.752  12.503  0.3251  0.3115 -0.4534
  458MPD2    C2 6871   0.972   3.801  12.410 -0.1955 -0.2619 -0.5853
  458MPD2    C3 6872   0.999   3.775  12.274  0.3909 -1.2156 -0.1340
  458MPD2    C4 6873   1.105   3.697  12.237  0.8882 -0.0502  0.4955
  458MPD2    C5 6874   1.199   3.652  12.327  0.2319 -0.3167 -0.0226
  458MPD2     H 6875   0.891   3.862  12.447 -0.5327  1.4601 -4.2713
  458MPD2    H1 6876   1.127   3.666  12.136 -0.1213 -0.5137  0.4191
  458MPD2    H2 6877   1.249   3.649  12.531  0.0866 -0.8243 -0.5049
  458MPD2    H3 6878   1.290   3.601  12.300  0.4403 -0.4708  0.9796
  458MPD2     N 6879   0.906   3.821  12.171 -0.8165 -0.3620  0.3932
  458MPD2    H5 6880   0.822   3.864  12.209  2.2262  3.2441  2.9644
  458MPD2    N1 6881   1.044   3.774  12.638  0.4835 -0.3632  0.2485
  458MPD2    H7 6882   1.122   3.752  12.699  0.7790 -4.2573 -1.4991
  459TMC3    C1 6883   0.960   3.842  12.837  0.2954 -0.0501  0.5880
  459TMC3    C2 6884   1.088   3.887  12.863  0.0538 -0.9002  0.1151
  459TMC3    C3 6885   1.128   3.877  12.995  0.7637 -0.5319 -0.6383
  459TMC3    C4 6886   0.880   3.775  12.922  0.7701  0.3423  0.2323
  459TMC3    C5 6887   0.933   3.756  13.046 -0.1105  0.9516 -0.4635
  459TMC3    C6 6888   1.055   3.801  13.083 -0.0418  0.2913  0.4638
  459TMC3     C 6889   0.927   3.826  12.700  0.3927  0.2023  0.0022
  459TMC3     O 6890   0.810   3.824  12.666 -0.2923 -0.0984  0.1985
  459TMC3     H 6891   1.152   3.929  12.786 -1.1605 -0.9533 -0.9172
  459TMC3    H1 6892   0.793   3.726  12.881  0.7740  1.6731 -1.3564
  459TMC3    H2 6893   1.077   3.784  13.187 -0.9709 -0.3123  0.5645
  459TMC3    C7 6894   0.883   3.642  13.119  0.1478  0.6340  0.2297
  459TMC3    C8 6895   1.248   3.926  13.070 -0.4193 -0.4941  0.1341
  459TMC3    O1 6896   0.949   3.594  13.211 -0.3094  0.1094  0.0024
  459TMC3    O2 6897   1.269   3.885  13.181 -0.3749  0.1922 -0.8233
  460MPD2     C 6898   4.506   2.138  11.027  0.4736  0.0949 -0.5898
  460MPD2    C1 6899   4.557   2.060  10.924 -0.2346 -0.2738 -0.7659
  460MPD2    C2 6900   4.511   2.081  10.795  0.1747 -0.0435 -0.3577
  460MPD2    C3 6901   4.429   2.180  10.758 -0.6600  0.4680 -0.1697
  460MPD2    C4 6902   4.393   2.268  10.858 -0.3531 -0.0889  0.7171
  460MPD2    C5 6903   4.427   2.245  10.989  1.4300  0.5260  0.5955
  460MPD2     H 6904   4.527   2.016  10.710  0.3795  0.7336 -0.9105
  460MPD2    H1 6905   4.333   2.356  10.837  0.8810  0.5747 -0.0715
  460MPD2    H2 6906   4.526   2.129  11.134  0.9347 -0.8266 -0.7564
  460MPD2    H3 6907   4.394   2.316  11.065 -4.1944 -0.4253 -0.9728
  460MPD2     N 6908   4.384   2.195  10.622  0.2492 -0.1456  0.1553
  460MPD2    H5 6909   4.427   2.142  10.548  1.0923 -0.6762  1.0262
  460MPD2    N1 6910   4.641   1.958  10.976  0.4500 -0.3432  0.7071
  460MPD2    H7 6911   4.646   1.947  11.076  0.4746 -3.6734  0.3450
  461TMC3    C1 6912   4.252   2.250  10.435 -0.2917  0.2810  0.4813
  461TMC3    C2 6913   4.170   2.143  10.423  0.1906  0.1802 -0.0953
  461TMC3    C3 6914   4.106   2.138  10.299 -0.3854  0.9254  0.0379
  461TMC3    C4 6915   4.265   2.353  10.345 -0.7297  0.4022 -0.2057
  461TMC3    C5 6916   4.199   2.345  10.223  0.0852  0.1982  0.2913
  461TMC3    C6 6917   4.117   2.233  10.203 -0.0625  0.2695 -0.1682
  461TMC3     C 6918   4.277   2.273  10.578  0.5641  0.2113  0.1760
  461TMC3     O 6919   4.199   2.353  10.634  0.1230  0.2474  0.0612
  461TMC3     H 6920   4.159   2.070  10.502  1.1288 -0.4643 -0.5506
  461TMC3    H1 6921   4.311   2.443  10.383 -2.2967  1.0726  0.1054
  461TMC3    H2 6922   4.063   2.213  10.111  1.2402 -1.2987 -0.5762
  461TMC3    C7 6923   4.191   2.458  10.132 -0.4130 -0.6773  0.0711
  461TMC3    C8 6924   4.041   2.014  10.257  0.1048 -0.1015  0.7119
  461TMC3    O1 6925   4.118   2.447  10.033 -0.5156 -0.4184  0.2725
  461TMC3    O2 6926   3.996   2.011  10.140  0.0631 -0.2250 -0.5374
  462TMC3    C1 6927   4.509   3.175   0.558  0.0260  0.4766 -0.1559
  462TMC3    C2 6928   4.615   3.133   0.638  0.6953  0.1631 -0.3037
  462TMC3    C3 6929   4.684   3.028   0.590 -0.8892  0.6292 -0.1729
  462TMC3    C4 6930   4.468   3.113   0.449  0.2381  0.5760  0.5847
  462TMC3    C5 6931   4.533   3.005   0.407  0.4196  0.2673 -0.4716
  462TMC3    C6 6932   4.648   2.959   0.477 -0.1901  0.3035  0.3050
  462TMC3     C 6933   4.412   3.263   0.620  0.1244  0.3216  0.3582
  462TMC3     O 6934   4.314   3.300   0.557  0.1723 -0.3043  0.2329
  462TMC3     H 6935   4.650   3.196   0.719  3.0944 -0.0041 -1.2011
  462TMC3    H1 6936   4.385   3.155   0.393 -1.1752 -0.8367  1.6211
  462TMC3    H2 6937   4.703   2.868   0.460  0.3080  0.1620  2.7342
  462TMC3    C7 6938   4.456   2.914   0.325  0.0747 -0.1482 -0.1365
  462TMC3    C8 6939   0.083   3.041   0.610 -0.0560  0.2617  0.0608
  462TMC3    O1 6940   4.340   2.937   0.313  0.4593 -0.1190 -0.3526
  462TMC3    O2 6941   0.119   3.109   0.703 -0.4928 -0.1314  0.5834
  463MPD2     C 6942   0.468   1.730   1.749 -1.0210  0.1587 -0.0587
  463MPD2    C1 6943   0.451   1.682   1.619 -0.9466  0.2276 -0.4501
  463MPD2    C2 6944   0.558   1.700   1.530 -0.3420  0.4638 -0.4159
  463MPD2    C3 6945   0.664   1.783   1.568 -0.4131 -0.0815 -0.1365
  463MPD2    C4 6946   0.670   1.837   1.695 -0.6950  0.3347 -0.5894
  463MPD2    C5 6947   0.574   1.803   1.788 -0.2419 -0.0018 -0.0993
  463MPD2     H 6948   0.556   1.640   1.440  0.8634 -0.9902  0.5293
  463MPD2    H1 6949   0.749   1.905   1.725  1.0494 -1.9543  0.0661
  463MPD2    H2 6950   0.399   1.695   1.824 -0.1760 -2.6778 -0.6058
  463MPD2    H3 6951   0.573   1.829   1.893  0.5287  1.6150 -0.4884
  463MPD2     N 6952   0.748   1.844   1.472 -0.3884  0.0600  0.0691
  463MPD2    H5 6953   0.829   1.890   1.512  1.0016 -2.6516  0.3842
  463MPD2    N1 6954   0.338   1.604   1.573 -0.1113 -0.7187 -1.1652
  463MPD2    H7 6955   0.343   1.574   1.476 -0.0363 -1.4064 -0.9485
  464TMC3    C1 6956   0.113   1.520   1.557 -1.0390  0.0539  0.3784
  464TMC3    C2 6957   0.128   1.512   1.425  0.9045 -0.1455  0.6078
  464TMC3    C3 6958   0.025   1.472   1.349  0.0260  0.5529  0.4232
  464TMC3    C4 6959   4.729   1.506   1.619  0.3171 -0.2840  0.9947
  464TMC3    C5 6960   4.630   1.473   1.530  0.4999 -1.0419 -0.0974
  464TMC3    C6 6961   4.643   1.454   1.397  0.0393  0.6054  0.9836
  464TMC3     C 6962   0.221   1.570   1.645  0.3455  0.4703 -0.0220
  464TMC3     O 6963   0.207   1.603   1.766 -0.2262 -0.1346  0.9712
  464TMC3     H 6964   0.222   1.529   1.374  0.1657 -0.3552 -0.8326
  464TMC3    H1 6965   4.712   1.529   1.724  3.7616  0.3326  1.4256
  464TMC3    H2 6966   4.567   1.422   1.326 -0.1193 -0.4778  1.6427
  464TMC3    C7 6967   4.506   1.436   1.593  0.3971  0.4401  0.2747
  464TMC3    C8 6968   0.042   1.452   1.202 -1.0295  0.2408 -0.0754
  464TMC3    O1 6969   4.470   1.491   1.693 -0.0400  0.1504 -0.2349
  464TMC3    O2 6970   4.689   1.419   1.137 -0.3550 -0.2962 -0.7936
  465MPD2     C 6971   1.754   0.719  16.530 -1.2326  0.0861  0.3883
  465MPD2    C1 6972   1.685   0.632  16.614 -1.1466  0.1503  0.0487
  465MPD2    C2 6973   1.606   0.530  16.558  0.4113 -0.3961 -0.2690
  465MPD2    C3 6974   1.598   0.519  16.420  0.1988 -0.1912  0.3840
  465MPD2    C4 6975   1.659   0.614  16.343  0.7537  0.2017  0.9834
  465MPD2    C5 6976   1.737   0.712  16.395 -1.2868  0.8498 -0.3263
  465MPD2     H 6977   1.559   0.456  16.622  1.8239 -0.0668  1.1170
  465MPD2    H1 6978   1.655   0.606  16.235  0.1226  2.6992  0.8404
  465MPD2    H2 6979   1.813   0.801  16.570  0.5099  0.6962 -3.4375
  465MPD2    H3 6980   1.780   0.789  16.331  3.0865 -0.8974  0.4926
  465MPD2     N 6981   1.507   0.424  16.371  0.4673  0.1659  0.7980
  465MPD2    H5 6982   1.447   0.378  16.439  0.2101  2.1560  1.9051
  465MPD2    N1 6983   1.691   0.647  16.756  0.0749 -0.4031 -0.8846
  465MPD2    H7 6984   1.648   0.570  16.806  1.1352  0.7174  1.7315
  466TMC3    C1 6985   1.243   0.190  16.397  0.2262 -0.2596 -0.2951
  466TMC3    C2 6986   1.128   0.232  16.340  0.1292 -0.0162 -0.1040
  466TMC3    C3 6987   1.134   0.298  16.224  0.2989  0.0241 -0.4905
  466TMC3    C4 6988   1.364   0.228  16.342 -0.4827 -0.2810 -0.0733
  466TMC3    C5 6989   1.369   0.306  16.229  0.6951  0.6652 -0.1520
  466TMC3    C6 6990   1.253   0.337  16.170 -0.0604 -0.0798 -0.5267
  466TMC3     C 6991   1.243   0.141  16.537  0.6232 -0.7221  0.3047
  466TMC3     O 6992   1.342   0.169  16.606 -0.0104 -0.3442  0.2219
  466TMC3     H 6993   1.029   0.215  16.380  0.9493 -1.3290  1.4002
  466TMC3    H1 6994   1.455   0.188  16.385 -1.4861 -1.6657  0.7393
  466TMC3    H2 6995   1.245   0.392  16.077  0.3954  0.0077 -0.5141
  466TMC3    C7 6996   1.468   0.409  16.241  0.1876 -0.4362 -0.1199
  466TMC3    C8 6997   1.054   0.419  16.234 -0.4204  0.0598  0.0896
  466TMC3    O1 6998   1.490   0.479  16.144  1.0134  0.5359  0.1577
  466TMC3    O2 6999   1.105   0.529  16.218 -0.1467 -0.2910 -0.1709
  467TMC3    C1 7000   2.655   3.001  14.275 -0.7256 -0.2972  0.3583
  467TMC3    C2 7001   2.616   3.132  14.244 -0.2038 -0.4715  0.3791
  467TMC3    C3 7002   2.521   3.150  14.145 -0.0958 -0.0398 -0.7724
  467TMC3    C4 7003   2.577   2.894  14.226 -0.6484 -0.2740  0.0774
  467TMC3    C5 7004   2.470   2.924  14.152  0.1078  0.7542 -0.3492
  467TMC3    C6 7005   2.453   3.048  14.097  0.4218 -0.5671  0.0585
  467TMC3     C 7006   2.797   2.982  14.253  0.5181  0.5685  0.3043
  467TMC3     O 7007   2.836   2.890  14.178  0.5698 -0.0248  0.9237
  467TMC3     H 7008   2.676   3.215  14.279 -0.4058  0.4252 -1.4291
  467TMC3    H1 7009   2.603   2.793  14.255 -1.2992 -0.8692 -1.4207
  467TMC3    H2 7010   2.378   3.059  14.020  1.0301 -0.1188 -0.4763
  467TMC3    C7 7011   2.363   2.828  14.150  0.5452  0.4266 -0.3756
  467TMC3    C8 7012   2.565   3.246  14.050 -0.1714 -0.3810  1.4148
  467TMC3    O1 7013   2.384   2.710  14.142  0.2116 -0.3549 -0.1881
  467TMC3    O2 7014   2.634   3.337  14.097  0.4788  0.2664  0.3297
  468MPD2     C 7015   1.390   1.677  10.729  0.1703 -0.6787 -0.7043
  468MPD2    C1 7016   1.498   1.716  10.798 -0.2875 -0.0020  0.2841
  468MPD2    C2 7017   1.543   1.636  10.906  0.0960 -0.0295  0.4494
  468MPD2    C3 7018   1.463   1.531  10.950  0.0957  0.9802  0.1009
  468MPD2    C4 7019   1.340   1.514  10.893  0.0130  0.9288 -0.0889
  468MPD2    C5 7020   1.311   1.580  10.779  0.3412 -0.0105  0.0835
  468MPD2     H 7021   1.629   1.661  10.966 -0.9155  3.4151  0.4941
  468MPD2    H1 7022   1.278   1.434  10.932 -0.8394  1.7694  0.2873
  468MPD2    H2 7023   1.343   1.729  10.646 -1.1898  0.4377  0.7388
  468MPD2    H3 7024   1.224   1.554  10.720 -0.4311 -0.3239  1.3511
  468MPD2     N 7025   1.485   1.466  11.072  0.1999  0.5692 -0.1983
  468MPD2    H5 7026   1.411   1.410  11.112 -0.6483  0.0126 -2.5497
  468MPD2    N1 7027   1.570   1.833  10.761 -0.5762 -0.1368 -0.1403
  468MPD2    H7 7028   1.658   1.851  10.808 -0.5772 -0.0870 -0.1572
  469TMC3    C1 7029   1.592   2.042  10.694  0.1833 -0.5238 -0.1591
  469TMC3    C2 7030   1.728   2.006  10.712 -0.3367  0.5971 -0.4515
  469TMC3    C3 7031   1.799   2.092  10.787  0.4464 -0.4552  0.0419
  469TMC3    C4 7032   1.539   2.160  10.744  0.1984  0.0903  0.6640
  469TMC3    C5 7033   1.617   2.241  10.821  0.0201 -0.2260  0.6027
  469TMC3    C6 7034   1.751   2.214  10.835 -0.1704  0.6236  0.0726
  469TMC3     C 7035   1.501   1.939  10.692  0.4689  0.4731 -0.0584
  469TMC3     O 7036   1.384   1.958  10.666  0.2706 -0.1693 -0.5753
  469TMC3     H 7037   1.765   1.916  10.663 -1.8456 -0.7354  0.8229
  469TMC3    H1 7038   1.437   2.190  10.722  0.7257 -0.1602 -2.1107
  469TMC3    H2 7039   1.826   2.274  10.887 -0.4692  1.6390 -0.6764
  469TMC3    C7 7040   1.554   2.329  10.910 -0.5268  0.2169  0.6100
  469TMC3    C8 7041   1.943   2.071  10.794  0.4306 -0.2415 -0.8717
  469TMC3    O1 7042   1.442   2.350  10.879  1.1287 -0.3677 -0.0701
  469TMC3    O2 7043   1.994   2.022  10.694  0.5095 -0.2680  0.1800
  470TMC3    C1 7044   3.403   2.763   0.754  0.3315  0.2530  0.8133
  470TMC3    C2 7045   3.472   2.844   0.839 -0.1171  0.3082 -0.0585
  470TMC3    C3 7046   3.416   2.873   0.963 -0.3299 -0.5048 -0.5809
  470TMC3    C4 7047   3.282   2.723   0.783 -0.2230 -0.0430  0.0965
  470TMC3    C5 7048   3.219   2.770   0.898 -0.2753  0.3647 -0.5353
  470TMC3    C6 7049   3.286   2.840   0.992  0.6589  0.2559  0.3960
  470TMC3     C 7050   3.463   2.738   0.623  0.5167 -0.0691 -0.0490
  470TMC3     O 7051   3.549   2.814   0.576  0.1010 -0.6562 -0.1783
  470TMC3     H 7052   3.569   2.880   0.804 -0.7695  0.6559 -1.5188
  470TMC3    H1 7053   3.214   2.687   0.707 -0.0329 -1.7260  0.7265
  470TMC3    H2 7054   3.252   2.896   1.078  1.9699  1.1583  0.3218
  470TMC3    C7 7055   3.082   2.725   0.914 -0.3443  0.0900  0.3486
  470TMC3    C8 7056   3.471   2.993   1.026 -0.4458 -0.1126 -0.8548
  470TMC3    O1 7057   3.049   2.632   0.841  0.1002 -0.4873  0.1157
  470TMC3    O2 7058   3.391   3.070   1.078  0.5522  0.5117 -0.2297
  471MPD2     C 7059   4.143   4.030  16.719 -0.1352 -0.4589 -0.5760
  471MPD2    C1 7060   4.233   3.980  16.628 -0.2200 -0.0194 -0.3747
  471MPD2    C2 7061   4.352   3.933  16.685  0.1953  0.0607 -0.7248
  471MPD2    C3 7062   4.378   3.940  16.817  0.1295  0.2470 -0.6615
  471MPD2    C4 7063   4.283   3.999  16.897 -0.3826  0.2284  0.3670
  471MPD2    C5 7064   4.166   4.046  16.850  0.5871 -0.6744 -0.3045
  471MPD2     H 7065   4.420   3.893  16.610 -1.2184  1.5209 -2.7989
  471MPD2    H1 7066   4.297   4.019  17.002  0.7103  0.3013  0.2089
  471MPD2    H2 7067   4.051   4.071  16.679  0.4915 -0.3375 -1.9136
  471MPD2    H3 7068   4.102   4.114  16.904 -0.4215  1.0844 -3.7460
  471MPD2     N 7069   4.502   3.900  16.878  0.0393 -0.2061 -0.0387
  471MPD2    H5 7070   4.509   3.894  16.979 -0.7366 -1.9212 -0.0911
  471MPD2    N1 7071   4.207   3.964  16.487  0.3516  0.0147  0.8442
  471MPD2    H7 7072   4.285   3.926  16.435 -0.7470  0.7827 -1.3408
  472TMC3    C1 7073   4.092   3.941  16.275  0.8686  0.5871 -0.2336
  472TMC3    C2 7074   3.982   3.969  16.200 -0.1352 -0.2354  0.1570
  472TMC3    C3 7075   3.953   3.891  16.095  0.5908 -0.5938 -0.6222
  472TMC3    C4 7076   4.188   3.854  16.232 -0.3484  0.4151  0.8738
  472TMC3    C5 7077   4.151   3.771  16.131  0.3971  0.0501 -0.1327
  472TMC3    C6 7078   4.029   3.777  16.068 -0.2410  0.3495 -0.8384
  472TMC3     C 7079   4.097   4.000  16.408  0.1337  0.4057  0.1813
  472TMC3     O 7080   3.992   4.055  16.436  0.2643  0.1764  0.3791
  472TMC3     H 7081   3.899   4.030  16.235 -1.1072  0.0516 -2.6667
  472TMC3    H1 7082   4.291   3.846  16.265  0.3090  1.2448 -0.9818
  472TMC3    H2 7083   4.001   3.703  15.994  1.3588 -2.0980  1.0009
  472TMC3    C7 7084   4.199   3.639  16.154 -0.0358  0.6138  0.3534
  472TMC3    C8 7085   3.813   3.877  16.091 -0.3788 -0.9116 -0.1920
  472TMC3    O1 7086   4.242   3.630  16.270  0.2092 -0.0873 -0.0327
  472TMC3    O2 7087   3.744   3.977  16.059  0.1927  0.5777 -0.2045
  473MPD2     C 7088   4.117   0.439  13.560  0.4926 -0.6965 -0.3672
  473MPD2    C1 7089   4.062   0.565  13.536  0.4312 -0.2728  0.3320
  473MPD2    C2 7090   4.075   0.666  13.633 -1.2675 -0.5823 -0.4156
  473MPD2    C3 7091   4.148   0.651  13.751 -0.1108 -0.1265 -0.1067
  473MPD2    C4 7092   4.198   0.522  13.771  0.0216 -0.2649 -0.3843
  473MPD2    C5 7093   4.178   0.419  13.679  0.7541  0.3437 -0.6425
  473MPD2     H 7094   4.017   0.756  13.613  0.1795 -0.4676 -4.1230
  473MPD2    H1 7095   4.259   0.505  13.859 -1.5011 -2.1372  0.2866
  473MPD2    H2 7096   4.107   0.352  13.496  2.5237  0.4200 -2.1918
  473MPD2    H3 7097   4.221   0.324  13.706  1.0642  0.3507 -1.1144
  473MPD2     N 7098   4.168   0.751  13.849  0.0733  0.2918 -0.4600
  473MPD2    H5 7099   4.226   0.734  13.930  1.6515 -0.6203 -1.7790
  473MPD2    N1 7100   3.995   0.598  13.414 -0.2780  0.2616  0.1897
  473MPD2    H7 7101   3.972   0.695  13.399 -0.6802  0.0789 -0.3509
  474TMC3    C1 7102   4.182   0.971  13.938 -0.7608  0.3015  0.1491
  474TMC3    C2 7103   4.178   1.105  13.922 -0.0599  0.3891 -0.9343
  474TMC3    C3 7104   4.223   1.186  14.024  0.0172  0.1042 -0.0463
  474TMC3    C4 7105   4.234   0.916  14.053  0.3197 -1.2809 -0.1082
  474TMC3    C5 7106   4.280   0.999  14.149 -0.2746  0.0089 -0.0571
  474TMC3    C6 7107   4.273   1.135  14.134  0.6989 -0.4475 -0.6286
  474TMC3     C 7108   4.144   0.886  13.826  0.3577 -0.5203 -0.2828
  474TMC3     O 7109   4.115   0.944  13.723 -0.2912  0.1413  0.1325
  474TMC3     H 7110   4.141   1.162  13.837 -0.6676 -2.7057 -2.7386
  474TMC3    H1 7111   4.239   0.809  14.070  1.7376 -1.0486  0.9377
  474TMC3    H2 7112   4.317   1.205  14.204 -0.3015 -1.9237  1.4857
  474TMC3    C7 7113   4.283   0.941  14.280  0.7836 -0.6596  0.5276
  474TMC3    C8 7114   4.221   1.328  14.017  0.5935 -0.0127 -0.6930
  474TMC3    O1 7115   4.240   0.825  14.297 -0.0066  0.3709  0.3984
  474TMC3    O2 7116   4.314   1.389  14.070  0.2064 -0.2288 -0.0767
  475MPD2     C 7117   2.054   4.395  11.502 -0.0566 -0.1665 -0.1921
  475MPD2    C1 7118   2.122   4.404  11.384 -0.5330  0.2844 -0.4396
  475MPD2    C2 7119   2.051   4.396  11.270 -0.3011 -0.3617  0.6132
  475MPD2    C3 7120   1.925   4.357  11.270 -0.1967 -0.8542 -0.4546
  475MPD2    C4 7121   1.861   4.317  11.389 -0.4096 -0.1343  0.0945
  475MPD2    C5 7122   1.928   4.342  11.506  0.7861  0.9161 -0.0240
  475MPD2     H 7123   2.097   4.413  11.174  0.0874  0.1930  0.9016
  475MPD2    H1 7124   1.759   4.278  11.393 -0.0814 -0.8843  1.3676
  475MPD2    H2 7125   2.100   4.424  11.596 -1.4272  0.5026  0.2708
  475MPD2    H3 7126   1.885   4.308  11.599 -2.2681  1.4683 -1.2496
  475MPD2     N 7127   1.871   4.338  11.143 -0.6285 -0.2814 -0.0535
  475MPD2    H5 7128   1.924   4.371  11.063  0.8222  0.2680  1.1304
  475MPD2    N1 7129   2.257   4.441  11.386  0.4925  0.0598 -0.3989
  475MPD2    H7 7130   2.285   4.476  11.477 -1.1545  0.0687  0.0934
  476TMC3    C1 7131   2.466   4.508  11.312  0.0114 -0.5816 -0.3952
  476TMC3    C2 7132   2.565   4.503  11.223 -0.2920 -0.4325  0.0859
  476TMC3    C3 7133   2.640   4.621  11.203  0.2934 -0.0804 -0.5655
  476TMC3    C4 7134   2.437   4.628  11.377  0.3762 -0.4283  0.0827
  476TMC3    C5 7135   2.527   4.738  11.368 -0.2749  0.1718 -0.5396
  476TMC3    C6 7136   2.634   4.733  11.281 -0.5955 -0.0653 -0.8352
  476TMC3     C 7137   2.344   4.435  11.280 -0.4368  0.6654  0.5025
  476TMC3     O 7138   2.328   4.381  11.171  0.6177 -0.2137 -0.2988
  476TMC3     H 7139   2.602   4.412  11.178  0.1637 -0.1708 -0.0725
  476TMC3    H1 7140   2.358   4.642  11.450  0.6864  0.8580  0.1833
  476TMC3    H2 7141   2.707   0.068  11.268 -1.0747  0.5356  0.1824
  476TMC3    C7 7142   2.501   0.101  11.466  0.1567  0.0013 -0.8135
  476TMC3    C8 7143   2.733   4.622  11.095  0.4469  0.4435 -0.1294
  476TMC3    O1 7144   2.431   0.070  11.557  0.2782  0.5905 -0.5664
  476TMC3    O2 7145   2.834   4.693  11.088 -0.4259 -0.6372 -0.3985
  477MPD2     C 7146   0.536   1.269  12.166 -0.1607  0.3549 -0.3762
  477MPD2    C1 7147   0.469   1.189  12.065 -0.1872 -0.2315 -0.6611
  477MPD2    C2 7148   0.450   1.057  12.106  0.3044 -0.0635  0.2573
  477MPD2    C3 7149   0.493   1.017  12.233  0.5791  0.1507  0.1310
  477MPD2    C4 7150   0.572   1.098  12.315 -0.2111  0.6032  0.5867
  477MPD2    C5 7151   0.592   1.223  12.274  0.1818  0.2930 -0.6424
  477MPD2     H 7152   0.400   0.982  12.044  1.1528 -1.0938  0.8327
  477MPD2    H1 7153   0.619   1.070  12.409  1.0356  3.5804  0.8560
  477MPD2    H2 7154   0.536   1.376  12.150 -0.4336  0.5668  1.0447
  477MPD2    H3 7155   0.654   1.295  12.327  0.7628 -0.8279  0.2039
  477MPD2     N 7156   0.467   0.884  12.273  0.0705 -0.2869 -0.1114
  477MPD2    H5 7157   0.443   0.819  12.199 -1.7747  0.5899 -0.2753
  477MPD2    N1 7158   0.410   1.251  11.955  0.2323 -0.2037  0.1051
  477MPD2    H7 7159   0.434   1.347  11.937  0.5719 -0.1449  0.8742
  478TMC3    C1 7160   0.269   1.265  11.762  0.0572  0.2714 -0.3769
  478TMC3    C2 7161   0.211   1.385  11.800  0.3064 -0.9081 -0.6321
  478TMC3    C3 7162   0.098   1.423  11.727  0.2764  0.0229  0.1641
  478TMC3    C4 7163   0.224   1.186  11.659 -0.4237 -0.2991  0.2779
  478TMC3    C5 7164   0.126   1.236  11.580 -0.7542 -0.0622 -0.6241
  478TMC3    C6 7165   0.061   1.353  11.614  0.3310  1.0167 -0.5587
  478TMC3     C 7166   0.339   1.182  11.860 -0.2858 -0.2583 -0.2517
  478TMC3     O 7167   0.309   1.068  11.857  0.8904 -0.1192  0.1638
  478TMC3     H 7168   0.233   1.439  11.891  0.2287 -0.1893 -1.0407
  478TMC3    H1 7169   0.269   1.090  11.635 -0.7918 -0.0294 -1.4556
  478TMC3    H2 7170   4.707   1.380  11.577 -0.5557  1.2576  1.9540
  478TMC3    C7 7171   0.086   1.148  11.475 -0.0425 -0.1814 -0.1848
  478TMC3    C8 7172   4.728   1.472  11.806  0.4752 -0.0420  0.4264
  478TMC3    O1 7173   0.102   1.026  11.497  0.0349  0.0796  0.0475
  478TMC3    O2 7174   4.719   1.427  11.920  0.1408  0.5034 -0.6746
  479MPD2     C 7175   3.930   2.816  15.319  0.7464 -0.1933 -0.7021
  479MPD2    C1 7176   3.896   2.772  15.444  0.2202 -0.3383 -0.8250
  479MPD2    C2 7177   3.987   2.786  15.554  0.3277 -0.0015 -0.5822
  479MPD2    C3 7178   4.103   2.857  15.536 -0.4104  0.3567  0.3891
  479MPD2    C4 7179   4.127   2.908  15.414  1.7360 -0.2837 -0.1953
  479MPD2    C5 7180   4.046   2.889  15.310 -0.2277 -0.9994  0.6532
  479MPD2     H 7181   3.967   2.731  15.645 -0.2794 -1.4386 -1.5753
  479MPD2    H1 7182   4.219   2.964  15.398  0.0078  2.5029 -0.4684
  479MPD2    H2 7183   3.849   2.819  15.248 -0.6856  2.2436  1.0361
  479MPD2    H3 7184   4.077   2.941  15.220 -3.1691  3.0750  2.0194
  479MPD2     N 7185   4.206   2.870  15.643 -0.1788 -0.3373 -0.1822
  479MPD2    H5 7186   4.297   2.907  15.617 -0.2893  0.3566  0.4015
  479MPD2    N1 7187   3.778   2.712  15.453  0.7586 -0.8350 -0.0776
  479MPD2    H7 7188   3.738   2.681  15.365  2.9973 -1.5361 -0.8446
  480TMC3    C1 7189   3.887   2.749  15.939  0.2011 -1.0305  0.2373
  480TMC3    C2 7190   3.804   2.860  15.921 -0.3895  0.0224  0.1353
  480TMC3    C3 7191   3.854   2.971  15.847  0.3409  0.1564  0.2686
  480TMC3    C4 7192   4.020   2.749  15.907  0.5201  0.7490 -0.2823
  480TMC3    C5 7193   4.059   2.857  15.837  0.3022  1.0520  0.3091
  480TMC3    C6 7194   3.979   2.966  15.801 -0.6514  0.9954  0.2249
  480TMC3     C 7195   3.843   2.642  16.024 -0.3217 -0.0859 -0.3077
  480TMC3     O 7196   3.931   2.570  16.071  0.1543 -0.3895 -0.1402
  480TMC3     H 7197   3.706   2.875  15.964  0.5566 -1.0942  2.6978
  480TMC3    H1 7198   4.080   2.659  15.907  0.0064  0.3947  1.8726
  480TMC3    H2 7199   4.024   3.049  15.749 -1.0807  0.6800 -0.6479
  480TMC3    C7 7200   4.191   2.836  15.777  0.2285 -0.2609  0.0687
  480TMC3    C8 7201   3.747   3.030  15.768  0.3205 -0.5165 -0.2842
  480TMC3    O1 7202   4.281   2.810  15.852  0.3972 -0.0859 -0.0678
  480TMC3    O2 7203   3.633   3.020  15.808 -0.5046  0.2952  0.0942
  481MPD2     C 7204   0.790   2.494  14.749 -0.2200  0.3775  0.1314
  481MPD2    C1 7205   0.673   2.419  14.751 -0.0508 -0.0881 -0.0264
  481MPD2    C2 7206   0.622   2.374  14.873 -0.0771 -0.2447  0.2696
  481MPD2    C3 7207   0.681   2.405  14.990  0.5620  0.0104 -0.2938
  481MPD2    C4 7208   0.794   2.484  14.986  0.5116 -0.1228 -0.4254
  481MPD2    C5 7209   0.848   2.523  14.870 -0.0532 -0.6861  0.6785
  481MPD2     H 7210   0.535   2.311  14.859  1.1342 -1.6669 -0.9293
  481MPD2    H1 7211   0.841   2.515  15.078  0.1728 -0.3556 -0.1719
  481MPD2    H2 7212   0.827   2.546  14.662 -1.0841  0.6650 -0.0671
  481MPD2    H3 7213   0.932   2.590  14.877  0.2423 -0.5921 -3.6996
  481MPD2     N 7214   0.640   2.356  15.119  0.0846  0.0541 -0.3786
  481MPD2    H5 7215   0.703   2.363  15.199 -0.2778  0.5845 -0.1446
  481MPD2    N1 7216   0.603   2.404  14.629 -0.0334  0.2801  0.5296
  481MPD2    H7 7217   0.640   2.464  14.557  2.3722 -1.4886  0.2977
  482TMC3    C1 7218   0.459   2.307  14.467  0.0549 -0.3084  0.7938
  482TMC3    C2 7219   0.379   2.204  14.421  0.1649  0.1844  0.1300
  482TMC3    C3 7220   0.326   2.217  14.300  0.1520 -0.8177  0.0482
  482TMC3    C4 7221   0.488   2.415  14.392 -0.0885  0.3142 -0.3325
  482TMC3    C5 7222   0.460   2.415  14.266  0.0314  0.6897 -0.3944
  482TMC3    C6 7223   0.366   2.317  14.215  0.1259 -0.1517  0.1890
  482TMC3     C 7224   0.510   2.304  14.602 -0.1585  0.0760  0.8055
  482TMC3     O 7225   0.498   2.197  14.664 -0.2997 -0.3928 -0.5172
  482TMC3     H 7226   0.365   2.124  14.492 -1.5865  1.6619  1.4304
  482TMC3    H1 7227   0.515   2.510  14.437  0.9048 -0.1238 -0.0048
  482TMC3    H2 7228   0.303   2.346  14.131 -0.2625  0.8899  0.8364
  482TMC3    C7 7229   0.490   2.539  14.193  0.3234 -0.9387  0.1027
  482TMC3    C8 7230   0.235   2.115  14.249 -0.0696 -0.5457  0.4029
  482TMC3    O1 7231   0.520   2.631  14.261  0.1186 -0.1802 -0.1478
  482TMC3    O2 7232   0.161   2.062  14.332 -0.5449 -0.0515  0.3487
  483TMC3    C1 7233   3.158   1.780   0.699  0.4525  0.6909 -0.2260
  483TMC3    C2 7234   3.217   1.901   0.674 -0.8288  0.8590  0.1288
  483TMC3    C3 7235   3.332   1.930   0.727 -1.0309 -0.3031 -0.0660
  483TMC3    C4 7236   3.222   1.687   0.771  0.3631 -0.2914 -0.5433
  483TMC3    C5 7237   3.351   1.716   0.820 -0.1803 -0.0149 -0.5539
  483TMC3    C6 7238   3.404   1.842   0.798 -0.2997  0.5926 -0.7717
  483TMC3     C 7239   3.044   1.745   0.611  0.1411 -0.0718  0.6385
  483TMC3     O 7240   2.949   1.824   0.590  0.2222  0.3129 -0.4216
  483TMC3     H 7241   3.168   1.976   0.613  2.3057  1.2844 -1.8821
  483TMC3    H1 7242   3.177   1.592   0.795  0.3102 -0.1018  0.0992
  483TMC3    H2 7243   3.506   1.853   0.832  0.3757  2.2766 -3.3598
  483TMC3    C7 7244   3.418   1.619   0.907 -0.0605 -0.2836 -0.5471
  483TMC3    C8 7245   3.408   2.040   0.672 -0.6458  0.0261  0.3424
  483TMC3    O1 7246   3.531   1.650   0.952  0.5106 -0.2263 -0.8489
  483TMC3    O2 7247   3.357   2.090   0.570  0.4272  0.3257  0.0086
  484MPD2     C 7248   1.512   4.033  13.175 -0.3686 -0.4895 -0.5246
  484MPD2    C1 7249   1.439   4.081  13.064 -0.9211 -0.1836  0.3038
  484MPD2    C2 7250   1.503   4.179  12.985  0.0877 -0.2091  0.5851
  484MPD2    C3 7251   1.627   4.233  13.019 -0.2177  0.9383  0.0797
  484MPD2    C4 7252   1.676   4.191  13.142 -0.3871  0.1665  0.0809
  484MPD2    C5 7253   1.625   4.090  13.221  0.2735 -0.1122 -0.0574
  484MPD2     H 7254   1.441   4.218  12.905 -0.5152  0.3513  1.3201
  484MPD2    H1 7255   1.767   4.239  13.175 -1.6438  3.2571 -0.9763
  484MPD2    H2 7256   1.488   3.948  13.238  1.2274  0.8212  1.8408
  484MPD2    H3 7257   1.660   4.063  13.320 -0.9194 -0.0857  0.3710
  484MPD2     N 7258   1.709   4.320  12.940  0.2187  0.0633 -0.2331
  484MPD2    H5 7259   1.794   4.355  12.983  1.0506 -0.4285 -1.4536
  484MPD2    N1 7260   1.329   4.015  13.003  0.2324  0.5928  0.4946
  484MPD2    H7 7261   1.301   4.049  12.911 -1.4086  1.5335  1.3457
  485TMC3    C1 7262   1.754   4.471  12.754  0.4538  0.1522 -0.6510
  485TMC3    C2 7263   1.867   4.502  12.812 -0.6974 -0.3818 -0.2451
  485TMC3    C3 7264   1.953   4.582  12.735 -0.5076 -0.2862 -0.4786
  485TMC3    C4 7265   1.698   4.528  12.641 -0.2313 -0.5763  0.6939
  485TMC3    C5 7266   1.783   4.617  12.573 -0.4265  0.6664 -0.3257
  485TMC3    C6 7267   1.914   4.640  12.615 -0.1026  0.8328 -0.2153
  485TMC3     C 7268   1.667   4.363  12.815  0.2088 -0.1211 -0.7118
  485TMC3     O 7269   1.575   4.319  12.751  0.3608  0.2367  1.6304
  485TMC3     H 7270   1.901   4.466  12.908 -1.5740  1.0986  0.6178
  485TMC3    H1 7271   1.601   4.504  12.600  1.6712 -0.3723 -3.9566
  485TMC3    H2 7272   1.978   4.708  12.562  1.2161  0.0346  0.3620
  485TMC3    C7 7273   1.771   4.577  12.429  0.0509 -0.0432 -0.8349
  485TMC3    C8 7274   2.084   4.533  12.707  0.0692 -0.1108  0.4391
  485TMC3    O1 7275   1.663   4.571  12.374  0.2223 -0.1354  0.6984
  485TMC3    O2 7276   2.107   4.535  12.586  0.2334 -1.0423  0.1338
  486MPD2     C 7277   3.324   2.925  13.462 -0.1261  0.5105  0.6452
  486MPD2    C1 7278   3.263   2.914  13.338  0.6506 -0.3155 -0.0116
  486MPD2    C2 7279   3.239   3.025  13.264 -0.4453  0.0049  0.3166
  486MPD2    C3 7280   3.239   3.148  13.332 -0.8942 -0.7144 -0.6475
  486MPD2    C4 7281   3.290   3.158  13.462  0.3454 -0.0268 -0.3855
  486MPD2    C5 7282   3.333   3.046  13.525  0.6990  0.1745 -0.0938
  486MPD2     H 7283   3.223   3.027  13.156 -0.2458 -0.1861  0.2832
  486MPD2    H1 7284   3.280   3.252  13.514 -0.3693  1.4216 -3.1794
  486MPD2    H2 7285   3.341   2.842  13.529  3.0931  1.8265  1.4367
  486MPD2    H3 7286   3.359   3.055  13.630  1.5044  3.8730 -0.5985
  486MPD2     N 7287   3.200   3.264  13.258 -0.5534 -0.3367  0.4411
  486MPD2    H5 7288   3.178   3.253  13.160  0.4682  0.0854  0.1649
  486MPD2    N1 7289   3.244   2.784  13.284  0.0523 -0.6407 -0.5477
  486MPD2    H7 7290   3.298   2.713  13.333 -0.6639 -0.4863  0.4657
  487TMC3    C1 7291   3.162   2.600  13.146 -0.6037 -0.5163 -0.9292
  487TMC3    C2 7292   3.071   2.552  13.060  0.7250 -0.3696  0.4563
  487TMC3    C3 7293   3.065   2.423  13.022 -0.4306 -0.9016  0.0101
  487TMC3    C4 7294   3.242   2.517  13.215  0.4574  0.2419  0.2407
  487TMC3    C5 7295   3.217   2.381  13.211  0.0434 -0.1616 -0.3104
  487TMC3    C6 7296   3.128   2.341  13.107 -1.1201  0.1175 -0.5949
  487TMC3     C 7297   3.167   2.746  13.180  0.2792  0.7035  0.4079
  487TMC3     O 7298   3.100   2.814  13.109 -0.3078  0.2782  0.2279
  487TMC3     H 7299   3.010   2.623  13.005  1.9741 -0.5937 -1.2261
  487TMC3    H1 7300   3.312   2.553  13.289 -0.3890  1.4618  0.4477
  487TMC3    H2 7301   3.084   2.243  13.122 -2.1181  0.6798  0.0835
  487TMC3    C7 7302   3.229   2.308  13.344  0.0658  0.0896 -0.2709
  487TMC3    C8 7303   2.928   2.375  13.010 -0.2792 -0.1983  0.3652
  487TMC3    O1 7304   3.314   2.348  13.422  0.2006  0.6519 -0.2212
  487TMC3    O2 7305   2.914   2.286  12.931  0.2365 -0.2125 -0.4612
  488MPD2     C 7306   3.330   0.056  16.475  0.3885  0.1342  0.9660
  488MPD2    C1 7307   3.397   0.174  16.503  0.2275  0.4703  0.6104
  488MPD2    C2 7308   3.383   0.230  16.631 -0.3867 -0.1531  0.0423
  488MPD2    C3 7309   3.296   0.177  16.725 -0.9625 -0.7184  0.2605
  488MPD2    C4 7310   3.245   0.053  16.698 -0.2722 -0.0438 -0.4780
  488MPD2    C5 7311   3.256   4.741  16.572 -0.3300 -0.2109  0.4294
  488MPD2     H 7312   3.429   0.325  16.653  2.2419 -1.0935 -1.3467
  488MPD2    H1 7313   3.197   4.742  16.779 -1.4179  1.2172 -0.2976
  488MPD2    H2 7314   3.330   0.006  16.379 -1.3670 -0.0963  1.0782
  488MPD2    H3 7315   3.216   4.644  16.545 -0.2364  0.0215 -0.5175
  488MPD2     N 7316   3.283   0.243  16.852  0.1573 -0.3218  0.5075
  488MPD2    H5 7317   3.345   0.323  16.861 -2.6459  1.7045  1.8248
  488MPD2    N1 7318   3.484   0.242  16.411  0.5113 -0.2364 -0.7229
  488MPD2    H7 7319   3.539   0.317  16.452 -0.5192  0.4697 -0.6091
  489TMC3    C1 7320   3.243   0.284  17.080  0.2165 -0.5042  0.3606
  489TMC3    C2 7321   3.341   0.387  17.079  0.7061 -0.3050 -0.0287
  489TMC3    C3 7322   3.320   0.490  17.164  0.1654  0.4584 -0.4121
  489TMC3    C4 7323   3.123   0.291  17.146  0.4399 -0.1653 -0.0586
  489TMC3    C5 7324   3.114   0.397  17.227  0.6130 -0.7090 -0.0378
  489TMC3    C6 7325   3.204   0.500  17.246  0.4781  0.0403  0.1810
  489TMC3     C 7326   3.223   0.195  16.964 -0.3346 -0.2521 -0.2497
  489TMC3     O 7327   3.154   0.095  16.979  0.1744  0.1411  0.4753
  489TMC3     H 7328   3.432   0.377  17.019 -0.0740  2.2764 -1.6270
  489TMC3    H1 7329   3.038   0.224  17.141 -0.3832  0.9187 -0.5865
  489TMC3    H2 7330   3.200   0.561  17.335  0.7455  0.3068  0.0095
  489TMC3    C7 7331   3.048   0.369  17.353 -0.4453 -0.1695 -0.9021
  489TMC3    C8 7332   3.424   0.587  17.179 -0.9279  0.0230  0.5089
  489TMC3    O1 7333   2.991   0.469  17.400 -0.0153 -0.4748 -0.4142
  489TMC3    O2 7334   3.542   0.548  17.169  0.2266  0.7322  0.0111
  490MPD2     C 7335   3.786   0.091  17.723 -0.0133  0.5532  0.1428
  490MPD2    C1 7336   3.852   4.724  17.677  0.4985 -0.0208 -0.3229
  490MPD2    C2 7337   3.989   4.727  17.651  0.4184 -0.2260  0.2936
  490MPD2    C3 7338   4.062   0.089  17.694 -0.1904 -0.2868  0.4827
  490MPD2    C4 7339   3.992   0.200  17.745 -0.5686  0.6792 -0.1105
  490MPD2    C5 7340   3.858   0.195  17.770 -0.6857 -0.2202  0.2618
  490MPD2     H 7341   4.027   4.632  17.613  0.9065  0.3734 -0.7261
  490MPD2    H1 7342   4.041   0.289   0.012  1.0647  0.8661 -2.6147
  490MPD2    H2 7343   3.677   0.097  17.724 -0.0235  0.4095 -0.1373
  490MPD2    H3 7344   3.821   0.285   0.044 -0.6170 -0.5205  0.9099
  490MPD2     N 7345   4.196   0.093  17.688 -0.0841  0.3744  0.1555
  490MPD2    H5 7346   4.247   0.164  17.739 -0.7969  0.9166  0.1111
  490MPD2    N1 7347   3.770   4.615  17.649 -0.1602  0.4236 -0.1472
  490MPD2    H7 7348   3.800   4.550  17.576 -0.5163 -1.0940  1.0504
  491TMC3    C1 7349   3.602   4.467  17.685  0.1799 -0.0550 -0.3839
  491TMC3    C2 7350   3.601   4.368   0.010  0.0986  0.4788  0.7551
  491TMC3    C3 7351   3.571   4.239  17.747 -0.1545 -0.1823 -0.4879
  491TMC3    C4 7352   3.587   4.436  17.552 -0.1066 -0.0204  0.4282
  491TMC3    C5 7353   3.534   4.309  17.524  0.3048  0.7856 -0.1583
  491TMC3    C6 7354   3.548   4.209  17.615  0.1629 -0.0125 -0.3216
  491TMC3     C 7355   3.655   4.588  17.724 -0.1672 -0.6165  0.2013
  491TMC3     O 7356   3.623   4.633   0.063  0.1481 -0.1556  0.4874
  491TMC3     H 7357   3.642   4.393   0.107 -0.0748  1.6371  0.5242
  491TMC3    H1 7358   3.585   4.513  17.477  1.2326  0.5613  0.9957
  491TMC3    H2 7359   3.527   4.104  17.603  1.5911 -0.2513 -0.7922
  491TMC3    C7 7360   3.508   4.273  17.382 -0.4544 -0.0008 -0.0689
  491TMC3    C8 7361   3.626   4.127   0.047  0.5572 -0.1028 -0.9195
  491TMC3    O1 7362   3.499   4.151  17.359  0.1463 -0.4298 -0.3730
  491TMC3    O2 7363   3.604   4.135   0.167 -0.0210 -0.3999 -0.4308
  492MPD2     C 7364   4.735   4.428  11.308 -0.9139 -1.2508  0.6573
  492MPD2    C1 7365   4.601   4.451  11.311 -0.6724  0.0890 -0.0545
  492MPD2    C2 7366   4.520   4.415  11.418 -0.3007  0.2209  0.0400
  492MPD2    C3 7367   4.570   4.330  11.520  0.3456  0.0991  0.2218
  492MPD2    C4 7368   4.704   4.306  11.512 -0.1634 -0.1870 -0.6588
  492MPD2    C5 7369   0.038   4.355  11.415  0.3026 -0.2583 -0.2066
  492MPD2     H 7370   4.416   4.446  11.420 -0.2880  0.1407  1.6331
  492MPD2    H1 7371   4.742   4.234  11.583  1.3462  1.0987 -0.1506
  492MPD2    H2 7372   0.056   4.447  11.224 -0.0251  1.4126  1.9502
  492MPD2    H3 7373   0.145   4.334  11.407 -0.3444 -3.1519 -1.4498
  492MPD2     N 7374   4.489   4.259  11.612  1.0151 -0.1639 -0.2654
  492MPD2    H5 7375   4.533   4.212  11.690 -2.0658  0.5535  1.8931
  492MPD2    N1 7376   4.558   4.516  11.191 -0.2566 -0.8845 -0.0410
  492MPD2    H7 7377   4.618   4.502  11.110 -2.0284 -0.2706 -1.4670
  493TMC3    C1 7378   4.409   4.596  11.021 -0.1273 -0.1677  0.1062
  493TMC3    C2 7379   4.515   4.630  10.942  0.4539  0.3129 -0.3286
  493TMC3    C3 7380   4.489   4.645  10.809  0.5853 -0.5395  0.8123
  493TMC3    C4 7381   4.286   4.578  10.968  0.9718 -0.5693  0.2626
  493TMC3    C5 7382   4.263   4.589  10.837 -0.2223 -0.6558  0.3112
  493TMC3    C6 7383   4.361   4.624  10.757 -0.1034  0.3779 -0.1983
  493TMC3     C 7384   4.433   4.565  11.161 -0.1240  0.3677  0.2984
  493TMC3     O 7385   4.337   4.587  11.232 -0.2232  0.0275 -0.6169
  493TMC3     H 7386   4.615   4.630  10.984 -0.4386 -0.4829  1.8057
  493TMC3    H1 7387   4.202   4.558  11.034 -0.1910  2.8429 -0.2218
  493TMC3    H2 7388   4.341   4.646  10.653 -2.5572 -1.1201 -0.0422
  493TMC3    C7 7389   4.138   4.557  10.775 -0.0772  0.4908 -0.5019
  493TMC3    C8 7390   4.608   4.628  10.730  0.3270  0.2639  0.1728
  493TMC3    O1 7391   4.116   4.584  10.655 -0.2523 -0.3828  0.2690
  493TMC3    O2 7392   4.696   4.548  10.770 -0.5346  0.3200  0.1823
  494TMC3    C1 7393   0.273   1.299   0.195 -0.1154  0.6470 -0.0761
  494TMC3    C2 7394   0.282   1.158   0.180 -0.0688 -0.2537  0.3812
  494TMC3    C3 7395   0.381   1.111   0.092  0.3849  0.9566  1.2336
  494TMC3    C4 7396   0.346   1.385   0.117  0.5999  0.0969 -0.4985
  494TMC3    C5 7397   0.439   1.334   0.035  1.4234 -0.0049 -0.5435
  494TMC3    C6 7398   0.459   1.197   0.029 -0.9680  0.2235  0.0589
  494TMC3     C 7399   0.157   1.357   0.255 -0.1967  0.2312  0.0329
  494TMC3     O 7400   0.138   1.473   0.231  0.1976  0.0485  0.5544
  494TMC3     H 7401   0.235   1.087   0.247 -1.0079  1.2244  1.2895
  494TMC3    H1 7402   0.328   1.491   0.125 -1.0475 -0.2391  0.1670
  494TMC3    H2 7403   0.552   1.168  17.754 -1.5354 -1.8788  0.2684
  494TMC3    C7 7404   0.528   1.420  17.729 -0.5269  0.3942  0.4021
  494TMC3    C8 7405   0.423   0.969   0.098 -1.0033  0.4908  0.2047
  494TMC3    O1 7406   0.602   1.365  17.649 -0.2587 -0.3985 -0.8130
  494TMC3    O2 7407   0.543   0.948   0.082  0.2907 -0.1573  0.4797
  495TMC3    C1 7408   4.115   3.139  14.873 -0.3289  0.0225  0.0982
  495TMC3    C2 7409   4.031   3.167  14.772  0.0992  0.1944 -0.4963
  495TMC3    C3 7410   3.905   3.213  14.792 -0.1676  0.1487  0.1584
  495TMC3    C4 7411   4.070   3.160  15.001  0.0500  0.5754  0.8386
  495TMC3    C5 7412   3.943   3.208  15.016 -0.2916 -0.4025 -0.3364
  495TMC3    C6 7413   3.857   3.237  14.915  0.0519  0.0276  0.7095
  495TMC3     C 7414   4.133   2.995  14.882 -0.1529 -0.0401  1.0206
  495TMC3     O 7415   4.076   2.936  14.969  0.1691  0.5178 -0.3274
  495TMC3     H 7416   4.057   3.152  14.668 -0.1546  2.1204 -0.8302
  495TMC3    H1 7417   4.126   3.128  15.088  1.5037 -1.4395 -0.8408
  495TMC3    H2 7418   3.753   3.260  14.937  0.1018  2.0186 -1.0890
  495TMC3    C7 7419   3.903   3.195  15.155  0.8125  0.6525 -0.0157
  495TMC3    C8 7420   3.807   3.154  14.706  0.0899 -0.5724  0.3110
  495TMC3    O1 7421   3.990   3.219  15.237 -0.3752 -0.1461 -0.1829
  495TMC3    O2 7422   3.704   3.219  14.713  0.2661  0.2164 -0.2825
  496MPD2     C 7423   0.770   3.239  15.362 -0.3094 -0.1762  0.6539
  496MPD2    C1 7424   0.821   3.249  15.490  0.2290  0.7254 -0.6082
  496MPD2    C2 7425   0.733   3.224  15.589  0.9903 -0.0503  0.5919
  496MPD2    C3 7426   0.596   3.200  15.571 -0.8199 -0.7226  0.3064
  496MPD2    C4 7427   0.544   3.190  15.441  0.7734  0.6508  0.7024
  496MPD2    C5 7428   0.640   3.211  15.343 -0.0087  0.0093 -0.0118
  496MPD2     H 7429   0.768   3.242  15.690  3.1046 -1.5213  0.0962
  496MPD2    H1 7430   0.440   3.179  15.415  0.5105  1.6334  1.3453
  496MPD2    H2 7431   0.839   3.267  15.283  1.0570  0.9105  2.2281
  496MPD2    H3 7432   0.609   3.222  15.240 -1.0904 -2.8993  0.0068
  496MPD2     N 7433   0.503   3.178  15.677  0.9530 -0.2783  0.4341
  496MPD2    H5 7434   0.416   3.136  15.646  1.0050  0.9038 -1.2645
  496MPD2    N1 7435   0.964   3.262  15.498  0.1836  0.3711  0.1929
  496MPD2    H7 7436   1.009   3.267  15.407  2.7055  1.2025  1.5123
  497TMC3    C1 7437   0.416   3.146  15.886  0.3054  0.4200 -0.3433
  497TMC3    C2 7438   0.316   3.090  15.803 -0.3817 -0.5879  0.1625
  497TMC3    C3 7439   0.302   2.954  15.800  0.2021 -0.9495 -0.0153
  497TMC3    C4 7440   0.481   3.071  15.973  1.1043  0.1972 -0.1087
  497TMC3    C5 7441   0.476   2.936  15.954  0.0256  0.2358  0.2336
  497TMC3    C6 7442   0.386   2.878  15.869 -0.4555 -0.6346  0.8166
  497TMC3     C 7443   0.509   3.216  15.807  0.1965  0.1683 -0.4125
  497TMC3     O 7444   0.601   3.277  15.863 -0.2091 -0.4185 -0.3709
  497TMC3     H 7445   0.240   3.152  15.757 -0.4429  0.1495  1.2666
  497TMC3    H1 7446   0.546   3.116  16.047 -0.5680  0.5200  1.1564
  497TMC3    H2 7447   0.388   2.770  15.869  0.7679 -0.6351 -1.4388
  497TMC3    C7 7448   0.559   2.857  16.048  0.5423  0.2710  0.8152
  497TMC3    C8 7449   0.290   2.925  15.661  0.2511  0.4321  0.8631
  497TMC3    O1 7450   0.542   2.735  16.061  0.0374 -0.2611  0.3184
  497TMC3    O2 7451   0.281   3.016  15.584  0.2164  0.2416 -0.1290
  498MPD2     C 7452   2.217   4.014  10.277  0.1240  1.4788  0.2567
  498MPD2    C1 7453   2.155   4.101  10.368 -0.1851 -0.5592  0.1325
  498MPD2    C2 7454   2.047   4.054  10.442 -0.7355 -0.2524  0.1864
  498MPD2    C3 7455   1.992   3.928  10.421 -0.2817 -0.1849 -0.0916
  498MPD2    C4 7456   2.041   3.847  10.320 -0.7868  0.3170  0.2410
  498MPD2    C5 7457   2.155   3.896  10.248 -0.4371  0.0631 -0.3514
  498MPD2     H 7458   2.000   4.115  10.519 -1.1399 -2.4351  1.6527
  498MPD2    H1 7459   2.004   3.747  10.299  0.3871  0.4072 -2.2589
  498MPD2    H2 7460   2.301   4.046  10.216  0.1485  0.1445 -0.4090
  498MPD2    H3 7461   2.204   3.847  10.165  0.7401  0.9833 -0.2090
  498MPD2     N 7462   1.873   3.898  10.492 -0.6432 -0.3097 -0.5114
  498MPD2    H5 7463   1.842   3.955  10.570  3.7587 -0.0269  1.0064
  498MPD2    N1 7464   2.204   4.224  10.397  0.2226 -0.0358 -0.4956
  498MPD2    H7 7465   2.159   4.271  10.475 -0.6167 -0.6771 -0.5931
  499TMC3    C1 7466   2.317   4.432  10.375 -0.1604  0.8338  0.0934
  499TMC3    C2 7467   2.277   4.456  10.504 -0.1575  0.2331 -0.0365
  499TMC3    C3 7468   2.287   4.583  10.553 -0.1333 -0.3874  0.3410
  499TMC3    C4 7469   2.343   4.534  10.285  0.6208 -0.2392 -0.0297
  499TMC3    C5 7470   2.331   4.661  10.344  0.2304 -0.1446  0.4316
  499TMC3    C6 7471   2.320   4.688  10.477  0.8056  0.2877  0.4489
  499TMC3     C 7472   2.292   4.299  10.323 -0.5213 -0.1009 -0.1251
  499TMC3     O 7473   2.359   4.268  10.227 -0.2718 -0.4996 -0.1275
  499TMC3     H 7474   2.276   4.382  10.583  1.9516 -0.1766 -0.3798
  499TMC3    H1 7475   2.369   4.524  10.180 -0.6416  1.8861 -0.5458
  499TMC3    H2 7476   2.287   0.041  10.510  0.2140  0.5125 -0.8058
  499TMC3    C7 7477   2.281   0.018  10.259  0.4252  0.0806 -1.0812
  499TMC3    C8 7478   2.269   4.603  10.698  0.0703 -0.0657  0.6086
  499TMC3    O1 7479   2.305   0.136  10.279 -0.3497 -0.1417  0.2622
  499TMC3    O2 7480   2.192   4.527  10.758  0.6398 -0.3163 -0.6325
  500MPD2     C 7481   3.744   0.321  10.884 -0.0369  0.1334  0.7155
  500MPD2    C1 7482   3.760   0.338  10.750  0.0182 -0.0013  0.1085
  500MPD2    C2 7483   3.655   0.355  10.670  0.9813  0.6498 -0.8034
  500MPD2    C3 7484   3.521   0.343  10.717  0.6366 -0.1248 -0.3157
  500MPD2    C4 7485   3.511   0.319  10.853  0.0634 -0.1620 -0.2941
  500MPD2    C5 7486   3.617   0.310  10.937 -0.1337 -0.3535  0.1533
  500MPD2     H 7487   3.671   0.381  10.566 -2.4266  1.5478 -1.0839
  500MPD2    H1 7488   3.417   0.305  10.905  0.1313 -0.4045 -0.2374
  500MPD2    H2 7489   3.832   0.308  10.947  0.8688  0.4194 -0.4813
  500MPD2    H3 7490   3.603   0.274  11.038 -1.8377  2.6029  0.9740
  500MPD2     N 7491   3.404   0.379  10.646 -0.1093 -0.2724  0.3197
  500MPD2    H5 7492   3.322   0.399  10.702  0.2620 -0.0834  0.7960
  500MPD2    N1 7493   3.888   0.360  10.689 -0.3622  0.5631 -0.1381
  500MPD2    H7 7494   3.884   0.387  10.591  2.7189  1.2894 -0.0457
  501TMC3    C1 7495   4.114   0.378  10.679 -0.3940  0.6747 -0.2920
  501TMC3    C2 7496   4.105   0.512  10.654 -0.0138  0.0330  0.2308
  501TMC3    C3 7497   4.223   0.577  10.629  0.6165  0.1444  0.7665
  501TMC3    C4 7498   4.231   0.319  10.704  0.4906 -0.3054 -0.0552
  501TMC3    C5 7499   4.345   0.391  10.685  0.1884 -0.2783  0.0100
  501TMC3    C6 7500   4.348   0.516  10.639 -0.1105 -0.3870  0.7044
  501TMC3     C 7501   4.003   0.335  10.757  0.5500 -0.3580 -0.5419
  501TMC3     O 7502   4.027   0.251  10.839  0.4310  0.2532 -0.1480
  501TMC3     H 7503   4.009   0.559  10.666  0.2672  0.8983 -0.9671
  501TMC3    H1 7504   4.236   0.216  10.740 -2.4190 -0.5634 -0.3465
  501TMC3    H2 7505   4.444   0.566  10.627  0.0787 -0.2548  2.6537
  501TMC3    C7 7506   4.460   0.313  10.691 -0.1276  0.1408  0.5202
  501TMC3    C8 7507   4.222   0.711  10.571  0.7367  0.2954 -0.3119
  501TMC3    O1 7508   4.451   0.187  10.706  0.1003 -0.1351 -0.5473
  501TMC3    O2 7509   4.327   0.773  10.558  0.2530  0.1495 -0.3115
  502TMC3    C1 7510   3.182   3.628  14.964  0.0627 -0.3044  0.5309
  502TMC3    C2 7511   3.201   3.719  14.869  0.1049 -0.2872  0.6375
  502TMC3    C3 7512   3.098   3.796  14.838  0.4530 -0.0172  0.5522
  502TMC3    C4 7513   3.063   3.605  15.019 -0.0643  0.1828  0.0054
  502TMC3    C5 7514   2.959   3.691  14.986 -0.0222 -0.6085 -0.1450
  502TMC3    C6 7515   2.972   3.785  14.889 -0.2593 -0.0610 -0.0680
  502TMC3     C 7516   3.295   3.625  15.049 -0.1287  0.6985  0.1886
  502TMC3     O 7517   3.403   3.654  15.002  0.3904 -0.8446 -0.2794
  502TMC3     H 7518   3.302   3.740  14.834  0.4473  0.5740  2.1716
  502TMC3    H1 7519   3.050   3.536  15.101  0.8284 -0.1840 -0.1539
  502TMC3    H2 7520   2.887   3.848  14.865  0.2081 -0.9772 -4.2114
  502TMC3    C7 7521   2.910   3.737  15.114 -0.6204 -0.5992  0.2457
  502TMC3    C8 7522   3.131   3.931  14.773  0.3375 -0.2355  0.2833
  502TMC3    O1 7523   2.985   3.715  15.211 -0.2548  0.1254 -0.1584
  502TMC3    O2 7524   3.052   4.019  14.797  0.2169 -0.2376 -0.6367
  503MPD2     C 7525   0.378   0.230  17.490 -0.0716  0.6629  0.2443
  503MPD2    C1 7526   0.507   0.287  17.482 -0.4585  0.1062 -0.7389
  503MPD2    C2 7527   0.622   0.209  17.510  0.5920 -0.3046 -0.0996
  503MPD2    C3 7528   0.613   0.078  17.548 -0.4088  0.5313 -0.4713
  503MPD2    C4 7529   0.481   0.026  17.549  0.1847 -0.1926 -0.8730
  503MPD2    C5 7530   0.364   0.101  17.526 -0.2913 -0.4588  0.2472
  503MPD2     H 7531   0.724   0.244  17.503  0.5913 -0.1630  0.5400
  503MPD2    H1 7532   0.457   4.667  17.572 -1.6806  0.3878 -0.2287
  503MPD2    H2 7533   0.294   0.295  17.468  0.8469  0.9287 -2.3821
  503MPD2    H3 7534   0.270   0.047  17.527  0.0431 -1.0755 -1.6858
  503MPD2     N 7535   0.731   4.743  17.560 -0.1331  0.0646 -0.2498
  503MPD2    H5 7536   0.818   0.041  17.531  0.8989 -1.8329  0.1189
  503MPD2    N1 7537   0.530   0.422  17.452 -0.1648  0.2604  0.5469
  503MPD2    H7 7538   0.626   0.452  17.441 -0.2430  0.5910  0.7682
  504TMC3    C1 7539   0.857   4.536  17.607 -0.6010 -0.0242 -0.3276
  504TMC3    C2 7540   0.849   4.408  17.649 -0.3460  0.0272  0.0878
  504TMC3    C3 7541   0.932   4.321  17.592 -0.5389  0.4001 -0.0010
  504TMC3    C4 7542   0.941   4.584  17.507 -0.3310 -0.1374  0.1726
  504TMC3    C5 7543   1.029   4.486  17.460 -1.0118 -0.1242 -0.4968
  504TMC3    C6 7544   1.024   4.352  17.502 -0.5537  0.0593  0.1397
  504TMC3     C 7545   0.733   4.610  17.601 -0.4419  0.1260  0.1689
  504TMC3     O 7546   0.635   4.540  17.630  0.4276  0.5016 -0.8849
  504TMC3     H 7547   0.778   4.383  17.728 -0.6825 -0.8005 -0.4737
  504TMC3    H1 7548   0.959   4.690  17.496 -1.6722 -0.1785 -2.4466
  504TMC3    H2 7549   1.099   4.285  17.462 -1.3824 -0.5827 -0.3317
  504TMC3    C7 7550   1.146   4.535  17.392 -0.0980  0.0270  0.1846
  504TMC3    C8 7551   0.939   4.185  17.638  0.4622 -0.3982 -0.3281
  504TMC3    O1 7552   1.133   4.619  17.304  0.1040 -0.0438 -0.1782
  504TMC3    O2 7553   0.992   4.105  17.561  0.1369 -0.6992 -0.2569
  505MPD2     C 7554   0.720   3.648  11.298  0.2480  0.4183 -0.2224
  505MPD2    C1 7555   0.779   3.521  11.327  0.0467  0.2016  0.1328
  505MPD2    C2 7556   0.888   3.514  11.406  0.4041  0.4402  0.9733
  505MPD2    C3 7557   0.936   3.625  11.469  0.3819 -0.3578  0.4020
  505MPD2    C4 7558   0.875   3.744  11.450 -0.2200  0.2083  0.5543
  505MPD2    C5 7559   0.763   3.753  11.376  0.1111 -0.6660  0.3300
  505MPD2     H 7560   0.937   3.419  11.421 -0.0342 -0.0178 -0.5006
  505MPD2    H1 7561   0.898   3.835  11.503  2.5688 -1.0307  1.4528
  505MPD2    H2 7562   0.642   3.649  11.223  0.0116 -0.9089  0.0037
  505MPD2    H3 7563   0.709   3.847  11.370 -0.3686 -0.9499  0.2294
  505MPD2     N 7564   1.058   3.615  11.537  0.2530 -0.0147  0.7818
  505MPD2    H5 7565   1.105   3.525  11.533  1.1479  0.5550 -1.0960
  505MPD2    N1 7566   0.732   3.409  11.249 -0.2706 -0.4015 -0.8514
  505MPD2    H7 7567   0.659   3.440  11.186 -2.4205 -2.8750  0.4533
  506TMC3    C1 7568   0.758   3.196  11.145 -0.2698 -0.2860 -0.3439
  506TMC3    C2 7569   0.728   3.248  11.027  0.0878  0.5699  0.0672
  506TMC3    C3 7570   0.779   3.188  10.911  0.0646 -0.0765 -0.4899
  506TMC3    C4 7571   0.843   3.091  11.155  0.1017  0.5912  0.3041
  506TMC3    C5 7572   0.883   3.032  11.038  0.4374  0.6444  0.1798
  506TMC3    C6 7573   0.857   3.075  10.912  0.3196  0.3188  0.5829
  506TMC3     C 7574   0.773   3.277  11.265 -0.4315 -0.2805  0.3436
  506TMC3     O 7575   0.842   3.232  11.356 -0.0627  0.1405 -0.3041
  506TMC3     H 7576   0.671   3.339  11.018  0.5615  1.0412  1.9600
  506TMC3    H1 7577   0.839   3.041  11.251 -0.6993 -1.9648 -1.0400
  506TMC3    H2 7578   0.890   3.029  10.820 -0.0550 -0.5793  0.8918
  506TMC3    C7 7579   1.021   2.999  11.061  0.2400  0.4970  0.4353
  506TMC3    C8 7580   0.786   3.264  10.785  0.6460 -0.5340 -0.4099
  506TMC3    O1 7581   1.079   2.912  10.994 -0.0824 -0.1890  0.5758
  506TMC3    O2 7582   0.682   3.292  10.728 -0.5075  0.1723  0.1104
  507TMC3    C1 7583   1.220   3.824  14.822  0.2314 -0.5982  0.2014
  507TMC3    C2 7584   1.136   3.792  14.719 -0.4532 -0.3887  0.3170
  507TMC3    C3 7585   1.189   3.746  14.607 -0.4402 -0.0515  0.9884
  507TMC3    C4 7586   1.354   3.818  14.812 -0.4574 -0.7789  0.5732
  507TMC3    C5 7587   1.412   3.765  14.694 -0.7208 -0.2414  0.6686
  507TMC3    C6 7588   1.327   3.725  14.593  0.1036  0.0561 -0.1673
  507TMC3     C 7589   1.166   3.817  14.961 -0.7163 -0.3771 -0.1187
  507TMC3     O 7590   1.242   3.770  15.040 -0.1129 -1.1406 -0.5206
  507TMC3     H 7591   1.029   3.797  14.741 -0.0763  0.3118  2.0216
  507TMC3    H1 7592   1.412   3.853  14.896 -2.5547  0.8780  1.3401
  507TMC3    H2 7593   1.356   3.654  14.516  0.0992 -2.4591  2.1550
  507TMC3    C7 7594   1.537   3.825  14.643  0.3857 -0.0969  0.1923
  507TMC3    C8 7595   1.144   3.830  14.495  0.2448  0.0708 -0.3446
  507TMC3    O1 7596   1.542   3.826  14.520 -0.0600  0.2933  0.1719
  507TMC3    O2 7597   1.026   3.864  14.490 -0.2996 -0.2792 -0.5529
  508MPD2     C 7598   2.502   2.037  16.471 -0.3370 -0.1680 -0.0485
  508MPD2    C1 7599   2.616   2.068  16.539  0.5997 -0.4227  0.0210
  508MPD2    C2 7600   2.677   2.183  16.510 -0.2737 -0.3304 -1.2618
  508MPD2    C3 7601   2.631   2.258  16.412 -0.0635 -0.6063 -0.3433
  508MPD2    C4 7602   2.516   2.224  16.337  0.4215  0.7083  0.8510
  508MPD2    C5 7603   2.442   2.122  16.382  0.7463 -0.6872 -0.2198
  508MPD2     H 7604   2.761   2.218  16.569 -1.2343 -0.1531 -0.0056
  508MPD2    H1 7605   2.486   2.277  16.248 -1.9476 -1.1944  0.5006
  508MPD2    H2 7606   2.442   1.948  16.483  0.3430 -1.0412 -2.9609
  508MPD2    H3 7607   2.354   2.082  16.331  0.8619  0.0344 -0.9759
  508MPD2     N 7608   2.704   2.379  16.388 -0.7241 -0.9302  0.4433
  508MPD2    H5 7609   2.799   2.381  16.421 -0.0540  0.7434 -1.5712
  508MPD2    N1 7610   2.668   1.968  16.618  0.2659  0.5153  0.1763
  508MPD2    H7 7611   2.630   1.874  16.610  3.3184 -0.5558 -1.9277
  509TMC3    C1 7612   2.741   2.831  16.235 -0.0082  0.0827 -0.0299
  509TMC3    C2 7613   2.878   2.836  16.242 -0.5078  0.0867  0.3000
  509TMC3    C3 7614   2.943   2.717  16.274  0.8035  0.3029 -0.1754
  509TMC3    C4 7615   2.661   2.722  16.243 -0.1435  0.3195  0.1029
  509TMC3    C5 7616   2.727   2.605  16.282  0.5723  0.4122 -0.2354
  509TMC3    C6 7617   2.866   2.601  16.292  0.0811 -0.2115  0.5367
  509TMC3     C 7618   2.682   2.960  16.188  0.0029  0.1706  0.5849
  509TMC3     O 7619   2.691   3.064  16.249  0.0867  0.0953 -0.8531
  509TMC3     H 7620   2.930   2.930  16.251 -1.1657  0.5492 -0.8406
  509TMC3    H1 7621   2.554   2.731  16.256 -0.3425 -0.3186 -1.0291
  509TMC3    H2 7622   2.903   2.504  16.325 -1.8791 -1.3902 -0.7450
  509TMC3    C7 7623   2.642   2.492  16.321  0.0423  0.0925  0.0411
  509TMC3    C8 7624   3.083   2.717  16.293  0.0035  0.1377 -0.9397
  509TMC3    O1 7625   2.523   2.507  16.289  0.4539  1.0626 -0.3111
  509TMC3    O2 7626   3.137   2.622  16.337 -0.0610  0.0646 -0.2084
  510MPD2     C 7627   0.399   3.244  14.552 -0.1453 -0.2241 -0.1135
  510MPD2    C1 7628   0.459   3.251  14.670  0.1772 -0.1214 -0.3919
  510MPD2    C2 7629   0.581   3.316  14.683  0.3310 -0.3853  0.4647
  510MPD2    C3 7630   0.647   3.354  14.564 -0.4816  0.8818  0.6786
  510MPD2    C4 7631   0.568   3.366  14.451 -0.2550 -0.1752 -0.2190
  510MPD2    C5 7632   0.438   3.314  14.441 -0.0446 -0.4004 -0.3666
  510MPD2     H 7633   0.636   3.316  14.776 -0.8632 -1.0475  1.1530
  510MPD2    H1 7634   0.608   3.407  14.359  0.0702  0.6128  0.2786
  510MPD2    H2 7635   0.303   3.195  14.538 -0.2518  0.0603 -0.4014
  510MPD2    H3 7636   0.373   3.320  14.356 -1.6062  1.1500  0.9448
  510MPD2     N 7637   0.786   3.386  14.571 -0.3375  0.1238  0.5581
  510MPD2    H5 7638   0.833   3.366  14.658  1.9697 -1.1039 -0.9665
  510MPD2    N1 7639   0.395   3.184  14.776  0.3177  0.0683  0.4693
  510MPD2    H7 7640   0.315   3.129  14.747 -0.6094  0.0866  3.0408
  511TMC3    C1 7641   0.351   3.112  15.007 -0.1366  0.5399 -0.4816
  511TMC3    C2 7642   0.310   3.173  15.121 -0.3634  0.1918 -0.3178
  511TMC3    C3 7643   0.208   3.122  15.198  0.1971  0.4012 -0.6290
  511TMC3    C4 7644   0.286   3.003  14.957 -0.1456 -0.0067  0.3772
  511TMC3    C5 7645   0.177   2.959  15.027  0.5451  0.1816  0.0375
  511TMC3    C6 7646   0.134   3.019  15.142  0.4271  0.4048 -1.0207
  511TMC3     C 7647   0.426   3.201  14.909 -0.0718  0.8432 -0.2785
  511TMC3     O 7648   0.481   3.294  14.962 -0.3706  0.4875 -0.1507
  511TMC3     H 7649   0.362   3.262  15.154  1.9662 -1.0426 -0.6780
  511TMC3    H1 7650   0.329   2.945  14.876 -0.7418 -0.3551  0.3127
  511TMC3    H2 7651   0.034   3.010  15.183  1.5289  0.8373  1.7744
  511TMC3    C7 7652   0.108   2.838  14.978 -0.8084  0.4837  0.1400
  511TMC3    C8 7653   0.156   3.217  15.302 -0.0274 -0.4996  0.1714
  511TMC3    O1 7654   0.149   2.792  14.873  0.3036  0.3128 -0.5669
  511TMC3    O2 7655   0.194   3.333  15.283  0.0289 -0.5778  0.2437
  512TMC3    C1 7656   3.635   3.013  13.263  0.2408  0.4449 -0.2229
  512TMC3    C2 7657   3.745   3.024  13.354 -0.0589 -0.7443  0.1714
  512TMC3    C3 7658   3.803   2.911  13.401  0.2871 -0.0908 -0.3371
  512TMC3    C4 7659   3.593   2.889  13.224 -0.1983  0.0427 -0.9608
  512TMC3    C5 7660   3.652   2.780  13.279 -0.3428  0.3165 -0.1664
  512TMC3    C6 7661   3.767   2.787  13.357 -0.3920 -0.1531  0.1049
  512TMC3     C 7662   3.582   3.134  13.194 -0.0252 -0.3415  0.2151
  512TMC3     O 7663   3.531   3.124  13.084  0.5255 -0.1518  0.3634
  512TMC3     H 7664   3.777   3.119  13.395 -0.9448 -0.8231  1.0533
  512TMC3    H1 7665   3.512   2.884  13.152  1.3308  0.0353 -2.6866
  512TMC3    H2 7666   3.803   2.706  13.419 -1.7809  0.3414  1.5557
  512TMC3    C7 7667   3.619   2.656  13.220 -0.3859 -0.0725 -0.0623
  512TMC3    C8 7668   3.922   2.919  13.484  0.4665 -0.8052  0.7687
  512TMC3    O1 7669   3.524   2.653  13.142  0.0740  0.1307 -0.3477
  512TMC3    O2 7670   3.941   2.829  13.561 -0.1781 -0.2760 -0.3501
  513MPD2     C 7671   1.066   2.557  13.306  0.3706 -0.4360  0.4333
  513MPD2    C1 7672   1.076   2.424  13.293  0.0362  0.3247 -0.0831
  513MPD2    C2 7673   1.097   2.347  13.407 -0.0899  0.5751  0.6172
  513MPD2    C3 7674   1.128   2.403  13.533  0.0753 -0.1620 -0.4299
  513MPD2    C4 7675   1.131   2.542  13.539 -0.5438 -0.0781  0.2063
  513MPD2    C5 7676   1.101   2.623  13.423 -0.2317 -0.0879  0.2236
  513MPD2     H 7677   1.088   2.239  13.401  1.5182  0.4171  0.9168
  513MPD2    H1 7678   1.164   2.586  13.633  1.7098  1.9533 -1.5427
  513MPD2    H2 7679   1.028   2.617  13.224 -0.9741 -1.3446  0.3972
  513MPD2    H3 7680   1.115   2.730  13.427 -1.0427  0.0265 -0.0871
  513MPD2     N 7681   1.160   2.315  13.640 -0.5976  0.3237 -0.5186
  513MPD2    H5 7682   1.153   2.216  13.618  2.2444 -0.1557  0.7790
  513MPD2    N1 7683   1.069   2.357  13.168 -0.1880  0.0778 -0.3508
  513MPD2    H7 7684   1.064   2.255  13.173  1.8625 -0.0143 -0.1292
  514TMC3    C1 7685   1.088   2.307  12.948  0.3081 -0.4019  0.4460
  514TMC3    C2 7686   1.213   2.320  12.894 -0.8253 -0.1854  0.0489
  514TMC3    C3 7687   1.290   2.207  12.887 -0.1263  0.2772  0.9086
  514TMC3    C4 7688   1.051   2.180  12.999  0.8279 -0.1254  0.0366
  514TMC3    C5 7689   1.131   2.070  12.990 -0.4041 -0.0088 -0.2838
  514TMC3    C6 7690   1.252   2.089  12.937 -0.6929 -0.8262 -0.8729
  514TMC3     C 7691   1.071   2.412  13.047  0.3157 -0.6715 -0.3697
  514TMC3     O 7692   1.105   2.526  13.018 -0.0532  0.1499  0.0910
  514TMC3     H 7693   1.244   2.419  12.864  0.8847 -0.3741  1.2017
  514TMC3    H1 7694   0.954   2.164  13.045  0.8629 -1.0923 -0.2435
  514TMC3    H2 7695   1.325   2.010  12.926 -0.8785 -1.2707  1.1001
  514TMC3    C7 7696   1.132   2.004  13.120 -0.5205  0.1411 -0.1565
  514TMC3    C8 7697   1.416   2.218  12.816  0.7466 -0.4019  0.2276
  514TMC3    O1 7698   1.077   2.066  13.205  0.1296  0.1616 -0.0590
  514TMC3    O2 7699   1.501   2.141  12.851 -0.2186  0.3848  0.5547
  515MPD2     C 7700   4.710   4.026  14.626  0.2644 -0.1399  0.5313
  515MPD2    C1 7701   4.585   4.070  14.574 -0.4154  0.3753 -0.0586
  515MPD2    C2 7702   4.502   4.133  14.665 -0.0456  0.5405 -0.5967
  515MPD2    C3 7703   4.526   4.151  14.803 -0.6462 -0.0262  0.3787
  515MPD2    C4 7704   4.649   4.110  14.848  0.2652 -0.3170 -0.1300
  515MPD2    C5 7705   4.740   4.059  14.760 -0.1543 -0.1698  0.3612
  515MPD2     H 7706   4.406   4.160  14.623 -1.4242 -1.6043  1.2086
  515MPD2    H1 7707   4.684   4.114  14.951 -1.7058 -0.3478  0.5305
  515MPD2    H2 7708   0.044   3.983  14.564 -0.7550 -0.3725 -0.5811
  515MPD2    H3 7709   0.099   4.050  14.793 -0.2362  0.8642  0.9058
  515MPD2     N 7710   4.438   4.205  14.900  0.0288 -0.2980  0.1446
  515MPD2    H5 7711   4.478   4.206  14.993 -1.3264  0.2268  0.7179
  515MPD2    N1 7712   4.534   4.026  14.453 -0.3333 -0.1906 -0.1828
  515MPD2    H7 7713   4.453   4.076  14.418 -0.1335 -0.3936 -0.9297
  516TMC3    C1 7714   4.468   3.888  14.289  0.1869 -0.3542 -0.1689
  516TMC3    C2 7715   4.394   3.992  14.241  0.1110 -0.0993  0.0238
  516TMC3    C3 7716   4.266   3.970  14.218  0.6503  0.3784 -0.0363
  516TMC3    C4 7717   4.422   3.761  14.302  0.1033  0.7930  0.5258
  516TMC3    C5 7718   4.287   3.747  14.284  0.5374  1.2029  0.9762
  516TMC3    C6 7719   4.204   3.848  14.243 -1.1823 -0.0166  0.6435
  516TMC3     C 7720   4.578   3.924  14.379 -0.0380  0.2540  0.5437
  516TMC3     O 7721   4.649   3.833  14.415  0.6727 -0.1988  0.1246
  516TMC3     H 7722   4.442   4.089  14.235  1.0757 -0.5265  0.8836
  516TMC3    H1 7723   4.489   3.680  14.329 -0.0134  0.1440 -1.1803
  516TMC3    H2 7724   4.100   3.837  14.216 -1.3196 -2.7382  2.2656
  516TMC3    C7 7725   4.241   3.634  14.362  0.0071 -0.3129 -0.4810
  516TMC3    C8 7726   4.185   4.096  14.207  0.2010  0.3400 -0.0689
  516TMC3    O1 7727   4.319   3.548  14.414 -0.3492  0.0966  0.1724
  516TMC3    O2 7728   4.067   4.094  14.229  0.2603 -0.6446 -0.3667
  517MPD2     C 7729   3.610   1.822  17.428  0.2252  0.0408  0.8225
  517MPD2    C1 7730   3.709   1.785  17.507 -0.2882  0.0877  0.4335
  517MPD2    C2 7731   3.770   1.878  17.586  0.0053 -0.1838 -0.3721
  517MPD2    C3 7732   3.724   2.007  17.588 -0.1049 -0.8394 -0.3258
  517MPD2    C4 7733   3.618   2.037  17.509 -0.6298 -0.1157 -0.2889
  517MPD2    C5 7734   3.557   1.947  17.427  0.1447  0.1277 -0.0112
  517MPD2     H 7735   3.856   1.845  17.643  0.8073  0.3987 -1.2561
  517MPD2    H1 7736   3.590   2.141  17.500 -0.9134 -0.2041 -0.4498
  517MPD2    H2 7737   3.563   1.755  17.357 -1.9785  0.9315  1.4588
  517MPD2    H3 7738   3.483   1.983  17.356 -1.2148  1.0847  1.8815
  517MPD2     N 7739   3.781   2.096  17.681  0.4137  0.2562 -0.6509
  517MPD2    H5 7740   3.864   2.057  17.723  0.5879 -0.2031 -1.4193
  517MPD2    N1 7741   3.755   1.650  17.507 -0.0270  1.0177 -0.2089
  517MPD2    H7 7742   3.840   1.624  17.556 -1.4066 -2.0117  0.5952
  518TMC3    C1 7743   3.753   1.420  17.459  0.5123 -0.4763 -0.7564
  518TMC3    C2 7744   3.684   1.309  17.473  0.4725 -0.1350 -0.3111
  518TMC3    C3 7745   3.737   1.182  17.489 -0.5013  0.1459 -0.6105
  518TMC3    C4 7746   3.887   1.417  17.460  0.1812  0.0511  0.5892
  518TMC3    C5 7747   3.936   1.292  17.480  0.5185  0.5692  0.1940
  518TMC3    C6 7748   3.873   1.176  17.486 -0.1702 -0.6742  0.8677
  518TMC3     C 7749   3.681   1.548  17.450 -0.2753  0.0824 -1.2654
  518TMC3     O 7750   3.565   1.538  17.413 -0.0239 -0.2000 -0.1882
  518TMC3     H 7751   3.577   1.325  17.478  0.5148 -0.1611  0.5559
  518TMC3    H1 7752   3.952   1.502  17.446 -1.6032  1.3563  0.3028
  518TMC3    H2 7753   3.925   1.082  17.495  0.3523 -0.4841 -0.1799
  518TMC3    C7 7754   4.076   1.287  17.481  0.2615 -0.0763 -0.0730
  518TMC3    C8 7755   3.657   1.064  17.523 -0.0048 -0.2727 -0.0156
  518TMC3    O1 7756   4.137   1.387  17.518  0.0580  0.1653 -0.4410
  518TMC3    O2 7757   3.731   0.962  17.536 -0.3973 -0.4548 -0.5677
  519MPD2     C 7758   0.633   4.292  14.497 -0.1200  0.9070  0.4016
  519MPD2    C1 7759   0.642   4.292  14.353  0.4973  0.2813 -0.5782
  519MPD2    C2 7760   0.713   4.185  14.294  0.4477 -1.1838  0.1495
  519MPD2    C3 7761   0.755   4.074  14.371  0.6397 -0.1488  0.1052
  519MPD2    C4 7762   0.745   4.079  14.514 -0.1973 -0.4062  0.1351
  519MPD2    C5 7763   0.692   4.196  14.573  0.2754 -0.1701  0.0161
  519MPD2     H 7764   0.723   4.187  14.186  0.1469 -0.4516  0.1327
  519MPD2    H1 7765   0.776   3.993  14.574  0.0006 -0.3076  0.1749
  519MPD2    H2 7766   0.575   4.378  14.531 -0.3030  1.2091 -0.6599
  519MPD2    H3 7767   0.685   4.199  14.681  2.0323 -0.0573  0.1269
  519MPD2     N 7768   0.786   3.952  14.313  0.1483 -0.6104  0.1360
  519MPD2    H5 7769   0.848   3.893  14.367 -0.0825 -2.2674 -1.3957
  519MPD2    N1 7770   0.573   4.388  14.269 -0.0428 -0.4864 -0.1909
  519MPD2    H7 7771   0.496   4.442  14.307  1.2122  0.9758  0.2647
  520TMC3    C1 7772   0.822   3.807  14.126  0.0840 -0.0967  0.5211
  520TMC3    C2 7773   0.764   3.787  14.001  0.4351  0.7565 -0.6773
  520TMC3    C3 7774   0.851   3.760  13.902  0.3701 -0.0880  0.5143
  520TMC3    C4 7775   0.949   3.765  14.157 -0.8342 -0.0554 -0.2662
  520TMC3    C5 7776   1.031   3.731  14.050  0.3177  0.3278 -0.1867
  520TMC3    C6 7777   0.989   3.735  13.922 -0.2668 -0.4348  0.6733
  520TMC3     C 7778   0.766   3.924  14.184 -0.1490  0.2122  0.5843
  520TMC3     O 7779   0.689   3.978  14.107  0.7144 -0.8145  0.6421
  520TMC3     H 7780   0.659   3.813  13.993  0.5713  1.7750  0.9141
  520TMC3    H1 7781   0.996   3.780  14.254 -0.4596 -0.8995 -0.3153
  520TMC3    H2 7782   1.058   3.726  13.839  0.9307 -0.3517  1.6523
  520TMC3    C7 7783   1.176   3.707  14.074  0.2418 -0.3829  0.7069
  520TMC3    C8 7784   0.825   3.766  13.761  0.3181  0.7357  0.1958
  520TMC3    O1 7785   1.195   3.639  14.171 -0.0365  0.1714  0.3688
  520TMC3    O2 7786   0.914   3.732  13.684 -0.4745  0.0934 -0.2428
  521MPD2     C 7787   1.590   2.355   0.174  0.8099  0.6166  0.5786
  521MPD2    C1 7788   1.564   2.386   0.041 -0.6231 -0.2971 -0.5600
  521MPD2    C2 7789   1.651   2.337  17.710  0.7779  0.0673 -0.3414
  521MPD2    C3 7790   1.758   2.255  17.743  0.3301  0.6185 -0.3080
  521MPD2    C4 7791   1.788   2.244   0.108  0.2811 -0.5443 -0.4597
  521MPD2    C5 7792   1.709   2.292   0.209 -0.2295 -0.4804  0.4375
  521MPD2     H 7793   1.634   2.352  17.604 -1.0951  0.3883  0.0101
  521MPD2    H1 7794   1.878   2.190   0.136 -2.1412 -4.3084  0.0507
  521MPD2    H2 7795   1.527   2.384   0.257  0.0231  2.2497 -0.5836
  521MPD2    H3 7796   1.735   2.270   0.312  0.2534 -0.5575  0.3003
  521MPD2     N 7797   1.836   2.190  17.642 -0.0138 -0.2510 -0.5317
  521MPD2    H5 7798   1.814   2.215  17.546 -0.5251 -0.8081 -0.5640
  521MPD2    N1 7799   1.447   2.454   0.022  0.1983  0.2623 -0.0360
  521MPD2    H7 7800   1.401   2.499   0.101 -0.4589  0.2512 -0.4142
  522TMC3    C1 7801   1.981   2.039  17.541 -0.2616 -0.1100 -0.3537
  522TMC3    C2 7802   2.056   1.925  17.561  0.1484  0.1272 -0.0261
  522TMC3    C3 7803   2.098   1.860  17.451 -0.2315 -0.3097 -0.2188
  522TMC3    C4 7804   1.962   2.103  17.422 -0.1676  0.5274  0.7614
  522TMC3    C5 7805   2.021   2.036  17.317 -0.5348  0.2672 -0.2693
  522TMC3    C6 7806   2.085   1.920  17.327 -0.6199  0.6846 -0.6376
  522TMC3     C 7807   1.935   2.098  17.668 -0.0587 -0.2133 -0.5289
  522TMC3     O 7808   1.999   2.060  17.766 -0.1727  0.1763 -0.0012
  522TMC3     H 7809   2.064   1.870  17.654  2.9624 -0.6898 -0.7311
  522TMC3    H1 7810   1.928   2.205  17.414 -1.9216 -0.1846 -0.6894
  522TMC3    H2 7811   2.128   1.872  17.239  2.3263  0.2945  1.0044
  522TMC3    C7 7812   2.025   2.106  17.189  0.3617  0.3843  0.6183
  522TMC3    C8 7813   2.184   1.741  17.468 -0.5545  1.0924  0.3537
  522TMC3    O1 7814   2.108   2.069  17.107 -0.2818  0.4932 -0.4466
  522TMC3    O2 7815   2.179   1.684  17.574 -0.3054  0.0716  0.0504
  523MPD2     C 7816   4.388   2.782  10.175  0.1412  0.0128 -0.3768
  523MPD2    C1 7817   4.296   2.700  10.115 -0.1326 -0.1905 -0.0462
  523MPD2    C2 7818   4.197   2.750  10.028  0.5205 -0.1709 -0.1940
  523MPD2    C3 7819   4.193   2.887  10.006 -0.5447  1.7613 -0.1187
  523MPD2    C4 7820   4.292   2.972  10.058  0.5776 -1.4904  0.6216
  523MPD2    C5 7821   4.390   2.916  10.142  0.3531 -0.1590 -0.0703
  523MPD2     H 7822   4.120   2.687   9.986  1.1203 -0.6413 -0.5868
  523MPD2    H1 7823   4.305   3.074  10.023  0.4203 -2.5528 -2.4893
  523MPD2    H2 7824   4.462   2.739  10.242  0.0222 -0.3661 -0.4941
  523MPD2    H3 7825   4.458   2.989  10.183  0.7882 -1.0815  0.8331
  523MPD2     N 7826   4.112   2.945   9.913 -0.5283 -0.2803 -0.1146
  523MPD2    H5 7827   4.128   3.046   9.913  0.7630 -0.4779 -0.8857
  523MPD2    N1 7828   4.282   2.565  10.163  0.3462  0.3249  0.3665
  523MPD2    H7 7829   4.350   2.548  10.237  0.7349  1.5028  0.2787
  524TMC3    C1 7830   3.949   2.976   9.745 -0.2279  0.3971 -0.6040
  524TMC3    C2 7831   3.935   2.974   9.613 -0.3148 -0.3647  1.0826
  524TMC3    C3 7832   3.850   3.066   9.560  0.5028  0.9304  0.0515
  524TMC3    C4 7833   3.865   3.060   9.822  0.4901 -0.4870  0.0472
  524TMC3    C5 7834   3.779   3.151   9.765 -0.3928 -0.3354 -0.0196
  524TMC3    C6 7835   3.763   3.145   9.628  0.1586  0.3359 -0.4097
  524TMC3     C 7836   4.027   2.881   9.828  0.0323  0.6126 -0.5262
  524TMC3     O 7837   4.027   2.763   9.794 -0.0076  0.6453 -0.0123
  524TMC3     H 7838   3.998   2.908   9.554  0.0482  0.8144  0.1593
  524TMC3    H1 7839   3.889   3.065   9.928 -0.0672 -1.3354  0.2057
  524TMC3    H2 7840   3.685   3.198   9.574  1.3296  2.2104 -0.2863
  524TMC3    C7 7841   3.714   3.254   9.840 -0.7455 -0.2940  0.1381
  524TMC3    C8 7842   3.807   3.042   9.423  0.7689  0.9375 -1.1240
  524TMC3    O1 7843   3.760   3.280   9.950  0.4721 -0.0672 -0.1899
  524TMC3    O2 7844   3.735   3.123   9.364  0.2056  0.0828 -0.4819
  525MPD2     C 7845   2.041   3.742  14.581  0.4795  0.4833  0.0762
  525MPD2    C1 7846   2.159   3.766  14.637 -0.5138  0.3649  0.3292
  525MPD2    C2 7847   2.227   3.877  14.588  0.5461 -0.2144 -0.5831
  525MPD2    C3 7848   2.177   3.962  14.495 -0.2620 -0.4221  0.0688
  525MPD2    C4 7849   2.060   3.929  14.432 -0.2177 -0.0657  0.0656
  525MPD2    C5 7850   1.988   3.819  14.478 -0.5363  0.3499 -0.2653
  525MPD2     H 7851   2.318   3.901  14.640 -0.1149  0.4664  0.2577
  525MPD2    H1 7852   2.016   3.995  14.358  0.7678 -0.4255 -0.8213
  525MPD2    H2 7853   1.965   3.675  14.618  2.3864 -1.3340  0.7269
  525MPD2    H3 7854   1.889   3.791  14.442 -0.0346 -0.6379 -0.8646
  525MPD2     N 7855   2.234   4.092  14.474  0.0175 -0.3338  0.2263
  525MPD2    H5 7856   2.177   4.153  14.416  0.1209 -0.7518 -0.3198
  525MPD2    N1 7857   2.217   3.701  14.748  0.3041 -0.0165 -0.0029
  525MPD2    H7 7858   2.303   3.741  14.785  0.9551 -1.9719  0.6415
  526TMC3    C1 7859   2.233   3.574  14.948 -1.3681 -0.1710  0.0522
  526TMC3    C2 7860   2.158   3.527  15.052 -0.6628  0.3402 -0.1701
  526TMC3    C3 7861   2.216   3.479  15.164 -0.2047  0.5536 -0.0418
  526TMC3    C4 7862   2.374   3.559  14.948 -0.2352  0.2754 -0.4686
  526TMC3    C5 7863   2.420   3.488  15.053  0.2199  0.0268 -0.5649
  526TMC3    C6 7864   2.349   3.449  15.161 -0.2673 -0.5200  0.2952
  526TMC3     C 7865   2.163   3.597  14.818 -0.4625  0.5353 -0.2648
  526TMC3     O 7866   2.061   3.534  14.797  0.3399  0.0003  0.1549
  526TMC3     H 7867   2.053   3.551  15.032 -1.3134 -2.0248  0.4774
  526TMC3    H1 7868   2.438   3.599  14.870 -1.4742  0.0816 -1.5841
  526TMC3    H2 7869   2.395   3.392  15.241 -0.5448  2.4301  2.5624
  526TMC3    C7 7870   2.554   3.437  15.051  0.3768 -0.0544 -0.0567
  526TMC3    C8 7871   2.160   3.512  15.293  0.3380 -0.9052 -0.4461
  526TMC3    O1 7872   2.598   3.409  14.938 -0.3518  0.4476  0.0076
  526TMC3    O2 7873   2.243   3.519  15.380  0.3378  0.1773  0.5634
  527MPD2     C 7874   4.644   1.839   1.451  0.2937  0.3625 -0.4614
  527MPD2    C1 7875   4.591   1.814   1.327  0.0851 -0.0788  0.3725
  527MPD2    C2 7876   4.683   1.784   1.224 -0.5437 -0.2732 -0.5847
  527MPD2    C3 7877   0.073   1.796   1.244  0.4408  0.3199  0.3729
  527MPD2    C4 7878   0.125   1.859   1.357 -0.2544 -0.3615  0.6995
  527MPD2    C5 7879   0.037   1.863   1.463  0.2325  0.6306  0.1235
  527MPD2     H 7880   4.640   1.741   1.135  0.7566 -2.8545  0.0590
  527MPD2    H1 7881   0.230   1.870   1.385  0.0471  0.8266 -0.9120
  527MPD2    H2 7882   4.592   1.854   1.544 -1.6573  0.0255 -1.4923
  527MPD2    H3 7883   0.068   1.906   1.557 -1.2242  3.2867 -0.5777
  527MPD2     N 7884   0.162   1.766   1.139  1.3683 -0.5487  0.2925
  527MPD2    H5 7885   0.122   1.746   1.047 -1.8825 -0.1758  1.6496
  527MPD2    N1 7886   4.460   1.779   1.310  0.2583 -0.0866  0.7010
  527MPD2    H7 7887   4.432   1.738   1.221 -2.2191  0.0353  1.4019
  528TMC3    C1 7888   4.231   1.711   1.353  0.9121 -0.1026  0.3958
  528TMC3    C2 7889   4.194   1.736   1.226  0.2916 -0.5071  0.4188
  528TMC3    C3 7890   4.081   1.672   1.178 -0.0923 -0.1452  0.3739
  528TMC3    C4 7891   4.152   1.653   1.446  0.1525 -0.4806 -0.3503
  528TMC3    C5 7892   4.040   1.589   1.396 -0.6331  0.3748 -0.4908
  528TMC3    C6 7893   3.999   1.608   1.270  0.3911 -0.1867 -0.9471
  528TMC3     C 7894   4.361   1.763   1.405 -0.0440 -0.9895  0.1964
  528TMC3     O 7895   4.372   1.784   1.524  0.4330  0.7495 -0.0887
  528TMC3     H 7896   4.256   1.785   1.152 -1.1825 -1.2124 -1.2877
  528TMC3    H1 7897   4.195   1.622   1.541 -0.3690  0.8845  0.3391
  528TMC3    H2 7898   3.908   1.560   1.236  0.0828  1.4521 -2.4778
  528TMC3    C7 7899   3.946   1.514   1.479  0.6801  0.7058 -0.4897
  528TMC3    C8 7900   4.018   1.734   1.064  0.8214 -0.4908  0.6234
  528TMC3    O1 7901   3.861   1.450   1.425 -0.2401  0.3224  0.0747
  528TMC3    O2 7902   4.049   1.851   1.049 -0.3160 -0.5663  0.0903
  529MPD2     C 7903   1.651   0.068   0.396  0.7764 -0.7150 -0.6063
  529MPD2    C1 7904   1.772   0.088   0.455 -0.1976  0.1691  0.3128
  529MPD2    C2 7905   1.813   0.217   0.474  0.5047  0.2620  0.8994
  529MPD2    C3 7906   1.747   0.321   0.420  0.2396  0.1486  0.1154
  529MPD2    C4 7907   1.626   0.309   0.362  0.0522 -0.0189 -0.8105
  529MPD2    C5 7908   1.580   0.179   0.345 -0.0200 -0.6336 -0.3480
  529MPD2     H 7909   1.897   0.242   0.538 -0.4296  4.4371  0.5256
  529MPD2    H1 7910   1.565   0.387   0.319 -0.0690 -0.3741 -1.2860
  529MPD2    H2 7911   1.611   4.715   0.367  0.4677 -0.7328 -0.1153
  529MPD2    H3 7912   1.497   0.157   0.280 -0.1782 -1.5539  0.1587
  529MPD2     N 7913   1.805   0.450   0.425 -0.1732  0.3367 -0.4512
  529MPD2    H5 7914   1.752   0.529   0.390 -2.4271 -1.1710 -0.4199
  529MPD2    N1 7915   1.843   4.730   0.512 -0.1430 -0.3493  0.4983
  529MPD2    H7 7916   1.938   0.002   0.544  0.0924  0.8760 -0.7583
  530TMC3    C1 7917   1.903   4.522   0.576 -0.3940 -0.1038  0.3111
  530TMC3    C2 7918   2.025   4.538   0.519 -0.6479  0.0608 -0.6725
  530TMC3    C3 7919   2.126   4.454   0.553 -0.0515  0.0890  0.0615
  530TMC3    C4 7920   1.880   4.418   0.669  0.1448 -0.3560 -0.4492
  530TMC3    C5 7921   1.982   4.328   0.700  0.5780  0.3924 -0.5430
  530TMC3    C6 7922   2.108   4.347   0.641 -0.0393 -0.1938  0.1814
  530TMC3     C 7923   1.791   4.610   0.550 -0.5387 -0.3558 -0.5154
  530TMC3     O 7924   1.681   4.568   0.551  0.3558  0.3699 -0.3446
  530TMC3     H 7925   2.044   4.613   0.444 -0.0505  2.9149  2.3019
  530TMC3    H1 7926   1.785   4.409   0.721 -0.6647 -0.9589 -2.0183
  530TMC3    H2 7927   2.184   4.275   0.667 -0.7837 -0.8390  0.5700
  530TMC3    C7 7928   1.956   4.208   0.767 -0.4993 -0.2012  0.4281
  530TMC3    C8 7929   2.263   4.517   0.533  0.1704 -0.0746 -0.6708
  530TMC3    O1 7930   2.001   4.099   0.717  0.5698 -0.2866 -0.3483
  530TMC3    O2 7931   2.269   4.603   0.448  0.6598 -0.5391  0.5832
  531MPD2     C 7932   1.212   1.645  13.473  0.3542 -0.5596 -0.4688
  531MPD2    C1 7933   1.186   1.783  13.483 -0.8701 -0.2372 -0.6094
  531MPD2    C2 7934   1.182   1.862  13.369 -0.2114  0.5077 -0.4221
  531MPD2    C3 7935   1.197   1.806  13.247  0.0106  0.2442 -0.2938
  531MPD2    C4 7936   1.227   1.671  13.236 -0.8872  0.0364  0.1506
  531MPD2    C5 7937   1.234   1.594  13.349  0.7370 -0.0116 -0.5279
  531MPD2     H 7938   1.155   1.966  13.385  0.3795  0.8441 -1.6356
  531MPD2    H1 7939   1.260   1.621  13.146  1.2419  0.0575  0.9348
  531MPD2    H2 7940   1.207   1.575  13.556  1.8510 -0.2999 -0.1497
  531MPD2    H3 7941   1.248   1.488  13.332 -1.4158 -0.5228  0.7535
  531MPD2     N 7942   1.188   1.876  13.130 -0.2616  0.1975 -0.3503
  531MPD2    H5 7943   1.225   1.834  13.046 -0.2020  0.2418 -0.3469
  531MPD2    N1 7944   1.175   1.825  13.619 -0.5995 -0.8324  0.2751
  531MPD2    H7 7945   1.182   1.766  13.701 -1.0483 -0.4854  0.5678
  532TMC3    C1 7946   1.172   2.003  13.787  0.7227 -0.0362  0.1161
  532TMC3    C2 7947   1.121   2.129  13.788 -0.9446  0.4522  0.2449
  532TMC3    C3 7948   1.183   2.233  13.853 -0.2229 -0.0162 -0.2438
  532TMC3    C4 7949   1.297   1.979  13.843 -0.7692 -0.2275  0.1213
  532TMC3    C5 7950   1.356   2.080  13.913  0.5621 -0.1316 -0.3718
  532TMC3    C6 7951   1.301   2.209  13.918  0.3728  0.9982  0.1101
  532TMC3     C 7952   1.150   1.957  13.649 -0.5945 -0.4882 -0.0597
  532TMC3     O 7953   1.107   2.046  13.579 -0.1562  0.4569  0.7360
  532TMC3     H 7954   1.022   2.143  13.746 -0.3944  3.1391 -0.1366
  532TMC3    H1 7955   1.354   1.891  13.815 -1.4427  0.0460 -2.0768
  532TMC3    H2 7956   1.349   2.286  13.977  2.0447  1.5436 -1.9616
  532TMC3    C7 7957   1.498   2.072  13.932 -0.2951  0.8326  0.1080
  532TMC3    C8 7958   1.195   2.351  13.769  0.4345 -0.0964  0.6114
  532TMC3    O1 7959   1.550   2.181  13.959 -0.2406  0.0513  0.4238
  532TMC3    O2 7960   1.245   2.459  13.803 -0.2959  0.4082  0.3272
  533TMC3    C1 7961   2.348   4.286  14.512  0.4712  0.2195  1.4986
  533TMC3    C2 7962   2.458   4.351  14.461  0.4945 -0.7295 -0.0088
  533TMC3    C3 7963   2.459   4.487  14.438 -0.3674 -0.2752 -0.2925
  533TMC3    C4 7964   2.239   4.361  14.546  0.5695 -0.5059 -0.8647
  533TMC3    C5 7965   2.245   4.498  14.542  0.7935 -0.2659 -0.8971
  533TMC3    C6 7966   2.356   4.562  14.490  0.3975 -0.2478  0.4670
  533TMC3     C 7967   2.348   4.146  14.526 -0.2253 -0.0320 -0.0337
  533TMC3     O 7968   2.449   4.087  14.562 -0.3263  0.3143 -0.7892
  533TMC3     H 7969   2.540   4.293  14.421 -0.4038 -1.3214 -1.0051
  533TMC3    H1 7970   2.149   4.311  14.581 -0.2693  1.5115 -0.1569
  533TMC3    H2 7971   2.350   4.670  14.483 -0.5650 -0.4764 -2.3417
  533TMC3    C7 7972   2.186   4.561  14.662  0.4457  0.1640 -0.1219
  533TMC3    C8 7973   2.582   4.551  14.428 -0.4039  0.0526  0.0854
  533TMC3    O1 7974   2.168   4.686  14.663  0.1916  0.5199  0.2165
  533TMC3    O2 7975   2.678   4.477  14.457 -0.4052 -0.1823 -0.7069
  534MPD2     C 7976   4.253   1.295   1.666  0.5377  0.8028 -0.4826
  534MPD2    C1 7977   4.350   1.250   1.581  0.4868  0.3756 -0.7753
  534MPD2    C2 7978   4.328   1.133   1.521 -1.1287  0.2244  0.2013
  534MPD2    C3 7979   4.228   1.043   1.562 -0.5462  0.0599  0.4141
  534MPD2    C4 7980   4.137   1.089   1.652  0.7361  0.8967  0.1915
  534MPD2    C5 7981   4.155   1.215   1.703 -0.0517  0.0251  0.2680
  534MPD2     H 7982   4.385   1.106   1.433 -1.4166 -0.2565  0.1631
  534MPD2    H1 7983   4.048   1.030   1.670  1.2343  0.2461  0.5484
  534MPD2    H2 7984   4.261   1.386   1.724 -0.2426  1.7950 -1.9433
  534MPD2    H3 7985   4.083   1.258   1.772  0.0013 -1.8193  1.4600
  534MPD2     N 7986   4.206   0.918   1.508 -0.1634  0.1626 -0.6240
  534MPD2    H5 7987   4.126   0.865   1.540  0.6280 -1.9115 -2.0685
  534MPD2    N1 7988   4.465   1.321   1.535  1.3513 -0.0461  0.7549
  534MPD2    H7 7989   4.519   1.284   1.457  1.3645  1.0580  0.2346
  535TMC3    C1 7990   4.240   0.720   1.386 -0.1981 -0.7172 -0.2817
  535TMC3    C2 7991   4.116   0.680   1.428  0.0835  0.4809 -0.3603
  535TMC3    C3 7992   4.096   0.547   1.434 -0.0744 -0.4522  0.4872
  535TMC3    C4 7993   4.339   0.629   1.358 -0.6405  0.6643 -0.1213
  535TMC3    C5 7994   4.311   0.497   1.356  0.4596 -0.1565  0.7379
  535TMC3    C6 7995   4.191   0.456   1.413 -0.1380  0.8406 -0.5618
  535TMC3     C 7996   4.274   0.862   1.406 -0.1737  0.9144  0.2046
  535TMC3     O 7997   4.371   0.901   1.343 -0.4437 -0.5529  0.3313
  535TMC3     H 7998   4.025   0.735   1.447  1.4978  2.3696  0.9931
  535TMC3    H1 7999   4.438   0.667   1.335  1.2040 -4.9239 -1.6100
  535TMC3    H2 8000   4.163   0.352   1.427  0.6755  0.9312  1.8169
  535TMC3    C7 8001   4.425   0.408   1.348  0.8329  0.4079  0.0258
  535TMC3    C8 8002   3.958   0.512   1.417  1.1020 -0.2128  0.4428
  535TMC3    O1 8003   4.493   0.424   1.245 -0.4582  0.6212 -0.1737
  535TMC3    O2 8004   3.921   0.494   1.300  0.3693  0.1048 -0.1787
  536MPD2     C 8005   3.648   4.188  16.329 -0.5244 -0.0479 -0.4267
  536MPD2    C1 8006   3.544   4.102  16.360  0.0728 -0.2677  0.3679
  536MPD2    C2 8007   3.439   4.085  16.270  0.1301 -0.4484 -0.7054
  536MPD2    C3 8008   3.432   4.154  16.148  0.2543  0.5225 -0.0940
  536MPD2    C4 8009   3.530   4.251  16.121  0.4986  0.4244 -0.2168
  536MPD2    C5 8010   3.636   4.259  16.205  0.7394 -0.4172  1.0274
  536MPD2     H 8011   3.360   4.018  16.304  0.6416  0.1760  1.7339
  536MPD2    H1 8012   3.530   4.303  16.026  1.4524 -0.0499 -0.4675
  536MPD2    H2 8013   3.731   4.205  16.397 -1.7399  0.1252  1.0162
  536MPD2    H3 8014   3.718   4.328  16.192 -0.3491  1.0324  1.9411
  536MPD2     N 8015   3.327   4.126  16.052 -0.0750  0.0563 -0.2595
  536MPD2    H5 8016   3.338   4.179  15.966 -1.2560  0.7163 -0.0056
  536MPD2    N1 8017   3.560   4.028  16.477  0.4511 -0.6152  0.2042
  536MPD2    H7 8018   3.643   4.048  16.532  0.3327 -0.1300  0.2114
  537TMC3    C1 8019   3.549   3.857  16.627  0.0402 -0.3464 -0.5711
  537TMC3    C2 8020   3.534   3.949  16.728  0.3378  0.4989  0.1209
  537TMC3    C3 8021   3.486   3.904  16.842 -0.4907  0.1469  0.6486
  537TMC3    C4 8022   3.518   3.722  16.647 -0.0142  0.4763 -0.1953
  537TMC3    C5 8023   3.490   3.685  16.777 -0.4934  0.4807  0.2648
  537TMC3    C6 8024   3.463   3.774  16.874  0.0159 -0.8481  0.0436
  537TMC3     C 8025   3.502   3.907  16.495  0.1836 -0.5241  0.0050
  537TMC3     O 8026   3.406   3.851  16.446 -0.1449  0.5231  0.5381
  537TMC3     H 8027   3.558   4.053  16.709  1.3819  0.0060 -1.2540
  537TMC3    H1 8028   3.509   3.655  16.562 -0.6980 -0.6019  0.7443
  537TMC3    H2 8029   3.412   3.744  16.965 -1.2754  0.3303 -0.2911
  537TMC3    C7 8030   3.451   3.546  16.777 -0.0637  0.2345 -0.8065
  537TMC3    C8 8031   3.444   3.993  16.941  0.1681 -0.8380  0.6060
  537TMC3    O1 8032   3.390   3.512  16.677 -0.3668  0.1788  0.5860
  537TMC3    O2 8033   3.463   3.953  17.053  0.1747 -0.1302  0.0849
  538TMC3    C1 8034   4.645   2.416  11.298 -0.0038  0.5858  0.2042
  538TMC3    C2 8035   4.721   2.301  11.279 -0.0405 -0.0602 -0.0248
  538TMC3    C3 8036   0.036   2.273  11.154  0.5440 -0.5028 -0.1242
  538TMC3    C4 8037   4.635   2.506  11.207  0.0124  0.4128 -0.2621
  538TMC3    C5 8038   4.691   2.475  11.083  0.5536  0.1135  0.1906
  538TMC3    C6 8039   0.018   2.365  11.047 -0.5225 -0.4544 -0.1188
  538TMC3     C 8040   4.575   2.441  11.418 -0.6482 -0.1561  0.0548
  538TMC3     O 8041   4.483   2.520  11.409 -0.5199 -0.6179  0.0009
  538TMC3     H 8042   4.732   2.233  11.363 -1.1326  1.0195  0.9955
  538TMC3    H1 8043   4.575   2.596  11.218 -0.0882  0.3513 -0.3054
  538TMC3    H2 8044   0.068   2.361  10.950 -0.1368 -1.4434  0.1232
  538TMC3    C7 8045   4.651   2.561  10.972 -0.7212 -0.0237 -0.0030
  538TMC3    C8 8046   0.136   2.165  11.152 -0.5535  0.7482 -0.0505
  538TMC3    O1 8047   4.614   2.507  10.865 -0.0792 -0.0278  0.0838
  538TMC3    O2 8048   0.159   2.108  11.258  0.1186 -0.3824 -0.4997
  539MPD2     C 8049   4.498   1.596  11.921  0.3083 -0.2686 -0.3878
  539MPD2    C1 8050   4.557   1.640  11.804 -0.0412  0.3265 -0.4061
  539MPD2    C2 8051   4.506   1.755  11.741  0.0033  0.3754 -0.1871
  539MPD2    C3 8052   4.416   1.840  11.799 -0.2009 -0.2817  0.7226
  539MPD2    C4 8053   4.377   1.810  11.924  0.3379  0.1987  0.1669
  539MPD2    C5 8054   4.414   1.688  11.983 -0.0003 -0.5039 -0.1646
  539MPD2     H 8055   4.548   1.779  11.643 -0.9281  0.1090 -0.6492
  539MPD2    H1 8056   4.322   1.886  11.979 -1.9733 -0.7502 -0.8141
  539MPD2    H2 8057   4.509   1.497  11.964  1.0929 -0.6032 -1.3498
  539MPD2    H3 8058   4.385   1.673  12.086 -0.3871 -2.8360 -0.6202
  539MPD2     N 8059   4.353   1.951  11.734 -0.9239  0.1411  0.1695
  539MPD2    H5 8060   4.277   1.998  11.782 -2.2055 -1.0663 -0.7019
  539MPD2    N1 8061   4.665   1.573  11.741  0.3335 -1.1299 -0.2214
  539MPD2    H7 8062   4.712   1.615  11.662 -0.6054  2.8042  1.3301
  540TMC3    C1 8063   4.315   2.120  11.570 -0.4132 -0.6744 -0.3210
  540TMC3    C2 8064   4.293   2.131  11.438  0.1505  0.7003 -0.2039
  540TMC3    C3 8065   4.186   2.200  11.401 -1.0269  0.3110  0.1852
  540TMC3    C4 8066   4.237   2.177  11.666  0.0295  0.1819  0.1441
  540TMC3    C5 8067   4.133   2.254  11.622  1.1869  0.4504 -0.6256
  540TMC3    C6 8068   4.106   2.262  11.492 -0.0082 -0.3056  0.2548
  540TMC3     C 8069   4.398   2.008  11.612 -0.5542  0.1547  0.4566
  540TMC3     O 8070   4.498   1.979  11.540  0.7517 -0.2272  0.3284
  540TMC3     H 8071   4.363   2.085  11.369 -1.0669 -0.1966 -0.8538
  540TMC3    H1 8072   4.267   2.175  11.771 -0.6423  0.8177  0.3453
  540TMC3    H2 8073   4.006   2.293  11.464  1.0345  1.8713 -1.0405
  540TMC3    C7 8074   4.045   2.306  11.724 -0.4248 -0.7394  0.2224
  540TMC3    C8 8075   4.141   2.212  11.263  0.6110  0.4541  0.4179
  540TMC3    O1 8076   4.056   2.269  11.843  0.0248  0.6500  0.4528
  540TMC3    O2 8077   4.068   2.306  11.223  0.0743  0.0495  0.3139
  541MPD2     C 8078   2.774   2.908  13.817  0.0657  0.1859 -0.5792
  541MPD2    C1 8079   2.774   2.813  13.717 -0.0795  0.1048  0.5278
  541MPD2    C2 8080   2.801   2.851  13.587  0.4946  0.5320  0.2257
  541MPD2    C3 8081   2.823   2.992  13.554 -0.0634 -0.0100  0.7228
  541MPD2    C4 8082   2.821   3.076  13.663 -0.1753  0.2424 -0.1583
  541MPD2    C5 8083   2.804   3.041  13.795 -0.3282  0.2997  0.2015
  541MPD2     H 8084   2.802   2.769  13.516  3.2007  0.4629  0.3359
  541MPD2    H1 8085   2.844   3.182  13.650  1.5555 -0.3242 -1.7975
  541MPD2    H2 8086   2.749   2.887  13.920 -1.1722  0.8089 -0.7507
  541MPD2    H3 8087   2.809   3.101  13.885 -0.5676 -1.7310  1.5828
  541MPD2     N 8088   2.849   3.044  13.428  0.6131 -0.3852  0.5347
  541MPD2    H5 8089   2.885   3.139  13.432 -0.8986  0.2227 -0.2012
  541MPD2    N1 8090   2.746   2.678  13.737  0.7356  0.2642 -0.0762
  541MPD2    H7 8091   2.751   2.614  13.658  1.3864 -1.3284  1.2686
  542TMC3    C1 8092   2.860   3.063  13.195 -0.2769  0.5244 -0.7072
  542TMC3    C2 8093   2.871   3.004  13.077  0.3125  0.3682  0.3474
  542TMC3    C3 8094   2.849   3.078  12.970  0.4789 -0.3739  0.1694
  542TMC3    C4 8095   2.839   3.202  13.209 -0.1308 -0.1340  0.2936
  542TMC3    C5 8096   2.817   3.280  13.096  0.0253  0.3882  0.0887
  542TMC3    C6 8097   2.832   3.218  12.972  0.1695  0.1514 -0.0781
  542TMC3     C 8098   2.829   2.977  13.309  0.5260 -0.3443  0.8081
  542TMC3     O 8099   2.805   2.860  13.289  0.2076 -0.2748 -0.1602
  542TMC3     H 8100   2.878   2.896  13.069 -1.5012  0.4303 -2.1438
  542TMC3    H1 8101   2.836   3.253  13.304  1.0267  2.7688 -1.2245
  542TMC3    H2 8102   2.797   3.262  12.880 -0.5062 -4.4188 -2.0209
  542TMC3    C7 8103   2.754   3.407  13.113  0.6471 -0.1118  0.3334
  542TMC3    C8 8104   2.884   3.027  12.844  0.4146  0.1898  0.0522
  542TMC3    O1 8105   2.684   3.428  13.212  0.0241 -0.2956  0.3191
  542TMC3    O2 8106   2.819   3.057  12.743 -0.5672 -0.1124 -0.3233
  543TMC3    C1 8107   2.089   0.060  17.124 -0.5420  0.8876 -0.0236
  543TMC3    C2 8108   2.114   4.695  17.207 -0.5226  0.8195  0.2823
  543TMC3    C3 8109   2.167   4.729  17.327 -0.1614 -0.4525  0.0455
  543TMC3    C4 8110   2.118   0.189  17.156  0.5629  0.1072  0.0004
  543TMC3    C5 8111   2.168   0.217  17.278 -0.3381 -0.6881 -0.4929
  543TMC3    C6 8112   2.191   0.114  17.371 -0.3181 -0.3939  0.2495
  543TMC3     C 8113   2.065   0.032  16.984 -0.5744  0.4733 -0.2630
  543TMC3     O 8114   2.094   4.662  16.948  0.4451  0.0374  0.4552
  543TMC3     H 8115   2.100   4.592  17.178 -0.4840  0.5215  1.3105
  543TMC3    H1 8116   2.116   0.268  17.081  0.0514  1.0770  1.0364
  543TMC3    H2 8117   2.249   0.137  17.460 -0.6129  0.9275  0.0963
  543TMC3    C7 8118   2.160   0.355  17.325  0.6288 -0.4742  0.1824
  543TMC3    C8 8119   2.216   4.627  17.415  0.1616  0.0199  0.0171
  543TMC3    O1 8120   2.142   0.441  17.237  0.5496  0.7501  0.2614
  543TMC3    O2 8121   2.194   4.654  17.537 -0.0824 -0.6572  0.0094
  544MPD2     C 8122   2.362   4.162  17.543 -0.4164 -0.1379  0.3253
  544MPD2    C1 8123   2.337   4.169  17.406  0.2912  0.6713  0.2185
  544MPD2    C2 8124   2.319   4.288  17.342  0.6013 -0.0488  0.9170
  544MPD2    C3 8125   2.307   4.399  17.421  0.7563 -0.6365  0.5163
  544MPD2    C4 8126   2.331   4.397  17.556  1.2415  0.0421 -0.3279
  544MPD2    C5 8127   2.369   4.278  17.612  0.5388 -0.2995  0.3609
  544MPD2     H 8128   2.292   4.285  17.237  2.3261  1.6140  0.4163
  544MPD2    H1 8129   2.314   4.476  17.628 -2.1657 -0.7129 -0.3047
  544MPD2    H2 8130   2.387   4.072  17.598 -2.2167  0.1749  1.6751
  544MPD2    H3 8131   2.407   4.270  17.713 -0.9219  0.9159  1.0184
  544MPD2     N 8132   2.261   4.515  17.354 -0.1509 -0.2311  0.3567
  544MPD2    H5 8133   2.261   4.508  17.252 -0.1793 -0.7943  0.3981
  544MPD2    N1 8134   2.326   4.048  17.339  0.4819 -0.1974 -0.1300
  544MPD2    H7 8135   2.352   3.965  17.390  1.3430  1.6048  2.3663
  545TMC3    C1 8136   2.321   3.884  17.181  0.0604 -0.0462 -0.2729
  545TMC3    C2 8137   2.373   3.850  17.064  0.0918 -0.4065 -0.4683
  545TMC3    C3 8138   2.370   3.717  17.031 -0.4820 -0.7568  0.5628
  545TMC3    C4 8139   2.278   3.790  17.276 -0.4738  0.6518  0.3453
  545TMC3    C5 8140   2.305   3.656  17.249 -0.4402 -0.1980  0.4481
  545TMC3    C6 8141   2.342   3.619  17.120  0.1715 -0.3301 -0.3521
  545TMC3     C 8142   2.300   4.025  17.210 -0.6279  0.7029 -0.8899
  545TMC3     O 8143   2.308   4.104  17.112 -0.2522 -0.2793  0.4898
  545TMC3     H 8144   2.414   3.923  16.995  0.5843  0.2712  0.5294
  545TMC3    H1 8145   2.223   3.817  17.366 -2.0565 -1.9192  0.1594
  545TMC3    H2 8146   2.346   3.515  17.090 -0.4491 -0.5242  0.2330
  545TMC3    C7 8147   2.247   3.558  17.341 -0.7362  0.1497 -0.1012
  545TMC3    C8 8148   2.451   3.693  16.909 -0.0688 -0.6811 -0.0454
  545TMC3    O1 8149   2.142   3.587  17.398  0.2241 -0.3712  0.0763
  545TMC3    O2 8150   2.448   3.776  16.819 -0.5696 -0.0032  0.1024
  546MPD2     C 8151   3.192   4.373  17.618  0.2280  0.4577 -0.0173
  546MPD2    C1 8152   3.189   4.418  17.492  0.1698  0.3604 -0.5332
  546MPD2    C2 8153   3.255   4.536  17.465  0.2743  0.9978 -0.1123
  546MPD2    C3 8154   3.286   4.627  17.567 -0.2492  0.2867 -0.5331
  546MPD2    C4 8155   3.273   4.587  17.699  0.4947 -0.2112  0.2362
  546MPD2    C5 8156   3.227   4.460  17.717  0.7870  0.3749  0.2870
  546MPD2     H 8157   3.269   4.557  17.360  3.4797 -1.5788 -0.1913
  546MPD2    H1 8158   3.302   4.650   0.010 -0.6356  0.1827  0.3283
  546MPD2    H2 8159   3.140   4.282  17.645  0.3707  0.1154 -0.9145
  546MPD2    H3 8160   3.199   4.435   0.047 -2.0650  2.3628 -0.0086
  546MPD2     N 8161   3.356   0.003  17.545 -0.2823  0.4598  0.2342
  546MPD2    H5 8162   3.364   0.074  17.617  1.2800  1.8093 -1.2563
  546MPD2    N1 8163   3.134   4.332  17.389  0.3532 -0.3236  0.1535
  546MPD2    H7 8164   3.096   4.243  17.420 -1.2109  0.2234 -0.1987
  547TMC3    C1 8165   3.054   4.272  17.175 -0.1768 -0.4918 -0.0295
  547TMC3    C2 8166   2.979   4.303  17.063 -0.0724  0.9274  0.0491
  547TMC3    C3 8167   2.951   4.202  16.977  0.1285  0.3641  0.7843
  547TMC3    C4 8168   3.104   4.146  17.191 -0.7544 -0.3893 -0.1835
  547TMC3    C5 8169   3.080   4.042  17.093  0.0478  0.0531 -0.0546
  547TMC3    C6 8170   2.995   4.071  16.990 -0.3541  0.5467  1.0030
  547TMC3     C 8171   3.097   4.375  17.266  0.4528  0.1956  0.0713
  547TMC3     O 8172   3.081   4.488  17.218 -0.4278  0.3456  0.1178
  547TMC3     H 8173   2.960   4.403  17.026  0.9181  0.2030 -2.4224
  547TMC3    H1 8174   3.167   4.125  17.277 -0.9133  3.7572  0.9710
  547TMC3    H2 8175   2.962   3.991  16.925  1.8560  0.4931 -0.0603
  547TMC3    C7 8176   3.100   3.902  17.134 -0.3592 -0.2063 -0.2717
  547TMC3    C8 8177   2.879   4.234  16.855 -0.5820 -0.1832  0.2291
  547TMC3    O1 8178   3.156   3.888  17.245  0.2628 -0.1985  0.3705
  547TMC3    O2 8179   2.811   4.336  16.856  0.4502 -0.2115 -0.2117
  548MPD2     C 8180   3.335   4.498  13.143  0.3917 -0.0952 -1.2288
  548MPD2    C1 8181   3.261   4.523  13.031 -0.2066  0.4119  0.3888
  548MPD2    C2 8182   3.335   4.560  12.916 -0.1982 -0.1874  0.2680
  548MPD2    C3 8183   3.473   4.553  12.906  0.2935  0.4791 -0.4905
  548MPD2    C4 8184   3.543   4.528  13.021  0.6489 -0.1142  0.0339
  548MPD2    C5 8185   3.472   4.502  13.130  0.5215  0.1670  0.2770
  548MPD2     H 8186   3.281   4.570  12.823  0.6746  0.2014 -0.1993
  548MPD2    H1 8187   3.651   4.523  13.020  0.6660  0.4001 -0.7515
  548MPD2    H2 8188   3.299   4.500  13.245 -0.2967 -0.3238 -1.4646
  548MPD2    H3 8189   3.530   4.493  13.221 -0.3110 -1.7559  0.6362
  548MPD2     N 8190   3.543   4.570  12.779 -0.6559  0.7185 -0.1246
  548MPD2    H5 8191   3.484   4.564  12.696 -1.2253  0.7395  0.2795
  548MPD2    N1 8192   3.123   4.526  13.036  0.4181  0.2257  0.4186
  548MPD2    H7 8193   3.084   4.488  13.121 -0.4677 -1.1209 -0.5992
  549TMC3    C1 8194   2.901   4.553  12.978  0.6313  0.6543 -0.7446
  549TMC3    C2 8195   2.809   4.645  12.929 -0.1247 -0.0490 -0.4740
  549TMC3    C3 8196   2.690   4.655  12.985 -0.7087 -0.4456 -0.1073
  549TMC3    C4 8197   2.863   4.461  13.075  0.4096 -0.1081 -0.7237
  549TMC3    C5 8198   2.732   4.469  13.125 -0.4505  0.1248  0.4340
  549TMC3    C6 8199   2.642   4.564  13.077  0.2333 -0.0780 -0.3090
  549TMC3     C 8200   3.034   4.553  12.928 -0.2400 -0.4620  0.0036
  549TMC3     O 8201   3.047   4.567  12.810  0.6340 -0.3684  0.0886
  549TMC3     H 8202   2.850   4.717  12.859  0.4251 -0.7193 -0.8362
  549TMC3    H1 8203   2.922   4.370  13.080  1.0884  0.3967  0.6479
  549TMC3    H2 8204   2.539   4.569  13.109  0.3257  3.2922 -0.5170
  549TMC3    C7 8205   2.671   4.361  13.204  0.0770  0.0914  0.0820
  549TMC3    C8 8206   2.594   4.741  12.918 -0.2883  0.1468  1.0039
  549TMC3    O1 8207   2.555   4.379  13.233 -0.1934  0.1335  0.4895
  549TMC3    O2 8208   2.475   4.723  12.952  0.0137  0.1162  0.2555
  550TMC3    C1 8209   2.504   2.662  12.429  0.2309 -0.3483  0.0813
  550TMC3    C2 8210   2.520   2.739  12.544  0.2738 -0.4418  0.8851
  550TMC3    C3 8211   2.426   2.832  12.569  0.3270  0.4822 -0.0602
  550TMC3    C4 8212   2.393   2.679  12.345 -0.4486 -0.0697  0.1893
  550TMC3    C5 8213   2.302   2.771  12.382  0.2992  0.1882  0.6262
  550TMC3    C6 8214   2.322   2.860  12.485 -1.1233  0.1135  0.2737
  550TMC3     C 8215   2.622   2.610  12.362  0.1103  0.2574  0.3803
  550TMC3     O 8216   2.723   2.589  12.435  0.0971 -0.1020  1.2995
  550TMC3     H 8217   2.606   2.727  12.609 -0.0317  0.3064  1.4412
  550TMC3    H1 8218   2.381   2.616  12.258  3.0507 -1.6991  0.9024
  550TMC3    H2 8219   2.247   2.934  12.510  1.9308  3.0595  0.8152
  550TMC3    C7 8220   2.183   2.801  12.305  0.4527 -0.1700 -0.0278
  550TMC3    C8 8221   2.423   2.922  12.684 -0.2865  0.0460 -0.0978
  550TMC3    O1 8222   2.099   2.871  12.354 -0.1955  0.3168  0.1313
  550TMC3    O2 8223   2.344   3.013  12.686  0.1473  0.3204 -0.4982
  551TMC3    C1 8224   4.511   0.349  13.347  0.5834  0.0706  0.5568
  551TMC3    C2 8225   4.614   0.297  13.285  0.9004  0.1017 -0.3610
  551TMC3    C3 8226   4.706   0.245  13.370 -0.0787 -0.1587 -0.1006
  551TMC3    C4 8227   4.495   0.361  13.480 -0.0888 -0.0009 -0.3942
  551TMC3    C5 8228   4.586   0.302  13.558  0.3884 -0.5321  0.4839
  551TMC3    C6 8229   4.691   0.238  13.506  0.9093 -0.0379 -0.2102
  551TMC3     C 8230   4.413   0.391  13.255  0.6448 -0.1434  0.4361
  551TMC3     O 8231   4.380   0.320  13.164 -0.2573  0.4518 -0.7982
  551TMC3     H 8232   4.630   0.300  13.178 -3.6464 -1.3335 -1.0581
  551TMC3    H1 8233   4.406   0.413  13.516 -1.3360 -1.2670 -1.6345
  551TMC3    H2 8234   0.030   0.199  13.564  1.4866  1.4306 -0.0542
  551TMC3    C7 8235   4.614   0.350  13.692  0.3099  0.7506  0.3978
  551TMC3    C8 8236   0.104   0.237  13.327  0.3089 -0.2329  0.2273
  551TMC3    O1 8237   4.700   0.287  13.755 -0.4333 -0.3108  0.3408
  551TMC3    O2 8238   0.174   0.147  13.363 -0.0786 -0.1790  0.1854
  552MPD2     C 8239   1.553   2.389  14.285  0.1586 -0.1361 -0.1344
  552MPD2    C1 8240   1.597   2.284  14.357  0.2428 -0.2357  0.6173
  552MPD2    C2 8241   1.695   2.312  14.453 -0.3485 -0.2176 -0.1474
  552MPD2    C3 8242   1.735   2.444  14.478 -0.4013 -0.5178  0.2630
  552MPD2    C4 8243   1.688   2.543  14.400 -0.4307 -0.5270 -0.3997
  552MPD2    C5 8244   1.587   2.518  14.308  0.3429 -0.7206  0.4457
  552MPD2     H 8245   1.739   2.230  14.509 -2.2735 -0.7395  0.5945
  552MPD2    H1 8246   1.712   2.646  14.426 -0.9519 -1.1164  2.4056
  552MPD2    H2 8247   1.480   2.368  14.207 -0.6869  0.1909  0.5756
  552MPD2    H3 8248   1.538   2.597  14.252  3.5727  0.7802 -0.2483
  552MPD2     N 8249   1.827   2.479  14.576 -0.2712  0.5275  0.0282
  552MPD2    H5 8250   1.860   2.575  14.581 -0.6572  0.6603  0.0485
  552MPD2    N1 8251   1.554   2.149  14.356  0.3391 -0.3169 -0.3050
  552MPD2    H7 8252   1.620   2.086  14.400  0.9344  0.1707 -0.5071
  553TMC3    C1 8253   1.426   1.955  14.322  0.4239  0.6092 -0.4219
  553TMC3    C2 8254   1.350   1.888  14.230  0.0646  0.1254  0.1583
  553TMC3    C3 8255   1.350   1.751  14.236  0.9340 -0.4068  0.7266
  553TMC3    C4 8256   1.507   1.890  14.416  0.3757  0.2539 -0.6841
  553TMC3    C5 8257   1.490   1.758  14.425 -0.1823 -0.8515 -0.5015
  553TMC3    C6 8258   1.420   1.684  14.333  0.2972  0.0994 -0.1990
  553TMC3     C 8259   1.438   2.101  14.304  0.3875  0.1281 -0.5117
  553TMC3     O 8260   1.352   2.157  14.238 -0.6821 -0.2814 -0.1919
  553TMC3     H 8261   1.275   1.933  14.165  0.7428  1.2445  0.1487
  553TMC3    H1 8262   1.560   1.955  14.486  1.2787 -1.7550  0.5008
  553TMC3    H2 8263   1.420   1.576  14.341 -2.4338  0.0862 -0.3251
  553TMC3    C7 8264   1.579   1.679  14.502 -0.9219 -0.4061  0.4664
  553TMC3    C8 8265   1.351   1.670  14.119  0.0710 -0.0361  0.1755
  553TMC3    O1 8266   1.548   1.562  14.519  0.3780  0.0950  0.2179
  553TMC3    O2 8267   1.393   1.716  14.013  0.6811 -0.0222 -0.8252
  554TMC3    C1 8268   3.799   2.015  11.347 -0.6255  0.2729 -0.4337
  554TMC3    C2 8269   3.846   1.958  11.229 -0.1515  0.8154  0.2913
  554TMC3    C3 8270   3.814   2.028  11.119  0.5497  0.0389 -0.1680
  554TMC3    C4 8271   3.737   2.137  11.355 -0.3143  0.2834 -0.1891
  554TMC3    C5 8272   3.730   2.207  11.243  0.5212  0.0639  0.0568
  554TMC3    C6 8273   3.768   2.158  11.121 -0.1261  0.6047 -0.2038
  554TMC3     C 8274   3.840   1.957  11.464  0.9616  0.4481 -0.4930
  554TMC3     O 8275   3.888   2.027  11.555 -0.4775 -0.5358  0.5444
  554TMC3     H 8276   3.887   1.857  11.228 -0.4166  0.7305 -2.2065
  554TMC3    H1 8277   3.704   2.169  11.453  1.1668 -2.9813  1.3728
  554TMC3    H2 8278   3.745   2.209  11.028  0.5864 -0.4120 -0.9331
  554TMC3    C7 8279   3.668   2.338  11.230  0.2167  0.1220 -0.1970
  554TMC3    C8 8280   3.800   1.967  10.990  0.1339 -0.6960 -0.9403
  554TMC3    O1 8281   3.567   2.364  11.297 -0.0769  0.8158 -0.2093
  554TMC3    O2 8282   3.803   2.042  10.891  0.1532  0.1419  0.1750
  555TMC3    C1 8283   2.256   1.321  15.306 -0.7961 -0.3228  0.1678
  555TMC3    C2 8284   2.293   1.377  15.422 -0.0990 -0.3441  0.4126
  555TMC3    C3 8285   2.391   1.314  15.493 -0.1880 -0.1950 -0.1115
  555TMC3    C4 8286   2.310   1.205  15.253  0.4513  0.4887  0.6257
  555TMC3    C5 8287   2.408   1.147  15.324 -1.0726 -0.1895 -0.0224
  555TMC3    C6 8288   2.445   1.199  15.447 -0.1622 -0.2586  0.2980
  555TMC3     C 8289   2.160   1.395  15.227  0.1520 -0.1904  0.1841
  555TMC3     O 8290   2.138   1.513  15.253 -0.1072 -0.5864  0.3953
  555TMC3     H 8291   2.235   1.456  15.468  0.6455  0.9067 -0.7749
  555TMC3    H1 8292   2.287   1.167  15.154  1.7143  1.0494  0.1181
  555TMC3    H2 8293   2.531   1.156  15.499  1.3287  0.6298 -1.4128
  555TMC3    C7 8294   2.451   1.009  15.293  0.3641 -0.1507 -0.4002
  555TMC3    C8 8295   2.460   1.404  15.585 -1.0448 -0.2728  0.0346
  555TMC3    O1 8296   2.497   0.940  15.384  0.0871  0.1867  0.1981
  555TMC3    O2 8297   2.411   1.509  15.614 -0.2326  0.1498  0.3672
  556MPD2     C 8298   0.221   2.602  10.862  0.6689  0.0764  0.3662
  556MPD2    C1 8299   0.340   2.569  10.924 -0.6487 -0.0293  0.0778
  556MPD2    C2 8300   0.437   2.512  10.848 -0.3613 -0.1537  0.3301
  556MPD2    C3 8301   0.423   2.492  10.716  0.4601  0.6762  0.3039
  556MPD2    C4 8302   0.312   2.530  10.648 -0.1669 -0.0074  0.3626
  556MPD2    C5 8303   0.205   2.587  10.726  0.4196  0.4946  0.2248
  556MPD2     H 8304   0.533   2.478  10.885  0.1667  1.2187  0.2320
  556MPD2    H1 8305   0.291   2.508  10.544  1.0575  0.8184 -0.0603
  556MPD2    H2 8306   0.142   2.648  10.921  0.5000  0.9176 -0.5074
  556MPD2    H3 8307   0.120   2.630  10.674  0.0516 -2.3416 -1.4692
  556MPD2     N 8308   0.535   2.415  10.657  0.1031 -0.2712  1.0753
  556MPD2    H5 8309   0.612   2.386  10.716  0.2478 -0.2865  0.8794
  556MPD2    N1 8310   0.369   2.594  11.062 -0.4282 -0.1432 -0.5691
  556MPD2    H7 8311   0.459   2.568  11.101 -1.3150  0.0093  1.5885
  557TMC3    C1 8312   0.663   2.290  10.506  0.2515  0.5563  0.3195
  557TMC3    C2 8313   0.689   2.259  10.375 -0.5923  0.5615  0.1023
  557TMC3    C3 8314   0.704   2.127  10.341 -0.5601  0.7028 -0.6482
  557TMC3    C4 8315   0.654   2.186  10.595  0.2501 -0.1086 -0.0806
  557TMC3    C5 8316   0.672   2.057  10.560  0.6883  0.1423  0.0138
  557TMC3    C6 8317   0.693   2.025  10.430 -0.5574  0.1389  0.0205
  557TMC3     C 8318   0.560   2.392  10.521  0.4671  0.8515  0.5586
  557TMC3     O 8319   0.487   2.423  10.426 -0.1878  0.0309  0.1703
  557TMC3     H 8320   0.680   2.346  10.311  1.5339  1.7621  1.4467
  557TMC3    H1 8321   0.635   2.202  10.701 -0.9304  1.3212 -0.5077
  557TMC3    H2 8322   0.716   1.923  10.401  0.5933  0.4395 -0.1356
  557TMC3    C7 8323   0.625   1.961  10.654 -0.1451 -0.2203 -0.3493
  557TMC3    C8 8324   0.697   2.097  10.204  0.5004 -0.2107 -0.2685
  557TMC3    O1 8325   0.705   1.883  10.710 -0.3906  0.4617  0.4575
  557TMC3    O2 8326   0.673   1.980  10.170  0.1931 -0.1788  0.3940
  558TMC3    C1 8327   3.262   0.443  10.478 -0.0100  1.0296  0.5968
  558TMC3    C2 8328   3.190   0.513  10.570 -0.2841 -0.4523  0.1535
  558TMC3    C3 8329   3.074   0.576  10.521 -0.0792  0.3762  0.2859
  558TMC3    C4 8330   3.232   0.437  10.342 -0.4467 -0.3381 -0.1389
  558TMC3    C5 8331   3.116   0.500  10.306 -0.0825 -0.2234 -0.1708
  558TMC3    C6 8332   3.038   0.570  10.391 -0.7025 -0.1792 -0.7063
  558TMC3     C 8333   3.392   0.396  10.513 -0.3191  0.5541  0.8101
  558TMC3     O 8334   3.478   0.359  10.430 -0.1747  0.0752  0.1715
  558TMC3     H 8335   3.212   0.527  10.675  0.3065 -0.3302  0.0147
  558TMC3    H1 8336   3.307   0.387  10.282  0.2963 -0.7819  1.1560
  558TMC3    H2 8337   2.946   0.613  10.355 -0.8190  1.2497  1.2842
  558TMC3    C7 8338   3.094   0.510  10.165 -0.0966 -0.3231  0.3795
  558TMC3    C8 8339   2.983   0.639  10.620 -0.2825  0.2032 -0.5763
  558TMC3    O1 8340   3.199   0.527  10.105  0.2531 -0.2584 -0.0846
  558TMC3    O2 8341   3.029   0.655  10.731  0.0099 -0.6665  0.8847
  559MPD2     C 8342   3.135   1.832  11.216  0.2481 -0.3878  0.3010
  559MPD2    C1 8343   3.126   1.691  11.231  0.1704 -0.7798  0.7906
  559MPD2    C2 8344   3.238   1.609  11.248  0.0505 -0.0314 -0.1068
  559MPD2    C3 8345   3.365   1.665  11.244 -0.1284  0.1714  0.4299
  559MPD2    C4 8346   3.370   1.798  11.220  0.1455 -0.1641  0.5810
  559MPD2    C5 8347   3.260   1.878  11.206 -0.0327 -0.8848 -0.3620
  559MPD2     H 8348   3.234   1.502  11.268 -0.7002 -0.2588 -1.4624
  559MPD2    H1 8349   3.463   1.850  11.203 -0.0593 -0.0451 -0.1606
  559MPD2    H2 8350   3.048   1.897  11.218 -1.0650 -2.1306 -0.1079
  559MPD2    H3 8351   3.266   1.984  11.181 -1.9616 -1.2613 -2.4567
  559MPD2     N 8352   3.478   1.581  11.246 -0.0318  0.5220 -0.2428
  559MPD2    H5 8353   3.462   1.482  11.231 -0.9598  1.0290 -2.6196
  559MPD2    N1 8354   3.000   1.632  11.229  1.0413  0.2300 -0.0851
  559MPD2    H7 8355   2.926   1.701  11.214  1.3690  0.0077 -2.7238
  560TMC3    C1 8356   3.676   1.500  11.234 -0.4687  0.2097  0.3567
  560TMC3    C2 8357   3.620   1.378  11.199  0.5302  0.4357 -0.0155
  560TMC3    C3 8358   3.682   1.259  11.232  0.8622  0.2726 -0.1990
  560TMC3    C4 8359   3.805   1.503  11.276  0.4296  0.1944 -0.0114
  560TMC3    C5 8360   3.859   1.381  11.326  0.2869  0.5276  0.3989
  560TMC3    C6 8361   3.799   1.260  11.304  0.0787 -0.5669  0.6952
  560TMC3     C 8362   3.606   1.618  11.246 -0.5911 -0.1815 -0.1131
  560TMC3     O 8363   3.666   1.724  11.254  0.1705  0.0859 -0.4545
  560TMC3     H 8364   3.519   1.372  11.163  0.1617  1.7020  0.8064
  560TMC3    H1 8365   3.858   1.596  11.293  1.1600 -0.1815 -0.2473
  560TMC3    H2 8366   3.865   1.174  11.300  0.3715 -0.3170  0.1595
  560TMC3    C7 8367   4.000   1.379  11.378  0.4353  0.2120 -0.2231
  560TMC3    C8 8368   3.580   1.159  11.262 -0.3265  0.6882  0.2851
  560TMC3    O1 8369   4.035   1.277  11.442 -0.5077 -0.6537  0.5045
  560TMC3    O2 8370   3.489   1.141  11.181 -0.3135  0.0704  0.0586
  561TMC3    C1 8371   1.264   0.521  11.706  0.0420 -1.0864  0.2159
  561TMC3    C2 8372   1.190   0.402  11.730  0.3057  0.5663 -0.1272
  561TMC3    C3 8373   1.062   0.415  11.736 -0.0963  0.3234  0.1200
  561TMC3    C4 8374   1.216   0.647  11.702  0.4598 -0.5006 -0.4265
  561TMC3    C5 8375   1.079   0.655  11.719  0.1473  0.1949 -0.6143
  561TMC3    C6 8376   1.008   0.539  11.731 -0.0167 -0.1207  0.3727
  561TMC3     C 8377   1.408   0.493  11.710  0.3790  0.2404  0.1852
  561TMC3     O 8378   1.432   0.389  11.769  0.4161 -0.2573  0.4882
  561TMC3     H 8379   1.230   0.302  11.747 -0.4148 -0.1716 -2.7500
  561TMC3    H1 8380   1.284   0.730  11.693 -2.2118  1.8871  1.5119
  561TMC3    H2 8381   0.902   0.552  11.746  0.3176  0.4236  2.3459
  561TMC3    C7 8382   0.987   0.762  11.662 -0.3538 -0.4567 -0.8880
  561TMC3    C8 8383   0.987   0.313  11.813 -0.0246 -0.5580  0.0416
  561TMC3    O1 8384   0.887   0.736  11.602 -0.3261 -0.0622 -0.6333
  561TMC3    O2 8385   1.005   0.194  11.780  0.0328 -0.6711  0.0758
  562TMC3    C1 8386   2.703   1.516  16.524 -0.3581  0.2037 -0.5998
  562TMC3    C2 8387   2.746   1.618  16.442  0.1109  0.1943 -0.5631
  562TMC3    C3 8388   2.675   1.642  16.327 -0.3435 -0.1320 -0.1369
  562TMC3    C4 8389   2.600   1.438  16.486  0.9255 -0.0284 -0.3177
  562TMC3    C5 8390   2.546   1.451  16.361  0.4024 -0.3755  0.1474
  562TMC3    C6 8391   2.580   1.553  16.279  0.7577  0.3733 -0.4321
  562TMC3     C 8392   2.790   1.461  16.627 -0.0816 -0.1137  0.0118
  562TMC3     O 8393   2.911   1.498  16.622 -0.1104 -0.2124 -0.0578
  562TMC3     H 8394   2.834   1.671  16.477 -0.9456  1.2771  0.4805
  562TMC3    H1 8395   2.550   1.368  16.552  0.1299 -0.2586 -1.1702
  562TMC3    H2 8396   2.529   1.564  16.184 -1.0655 -0.4683  0.4553
  562TMC3    C7 8397   2.446   1.360  16.309 -0.2510  1.1709  0.5249
  562TMC3    C8 8398   2.711   1.760  16.250  1.0589 -0.4668 -0.3008
  562TMC3    O1 8399   2.360   1.411  16.238 -0.5318  0.1906 -0.5156
  562TMC3    O2 8400   2.822   1.806  16.261 -0.2661 -0.2993  0.0146
  563MPD2     C 8401   4.636   2.623  15.799 -0.4976  0.0890  0.6199
  563MPD2    C1 8402   4.688   2.717  15.890 -0.1050  0.3716  0.1475
  563MPD2    C2 8403   0.062   2.689  15.966 -0.3917  0.0737 -1.1437
  563MPD2    C3 8404   0.135   2.575  15.938 -0.1653 -0.3197  0.1646
  563MPD2    C4 8405   0.099   2.501  15.827  0.0061 -0.2600  0.3456
  563MPD2    C5 8406   4.720   2.523  15.759  0.2987 -0.8761 -0.0138
  563MPD2     H 8407   0.103   2.760  16.037 -0.2366 -2.0465  0.8967
  563MPD2    H1 8408   0.157   2.416  15.794 -0.3990 -0.9149  1.3106
  563MPD2    H2 8409   4.539   2.623  15.750  0.5104  0.5685 -1.4000
  563MPD2    H3 8410   4.682   2.455  15.683 -2.7280  1.8055 -0.8832
  563MPD2     N 8411   0.239   2.542  16.026 -0.2626 -0.0362 -0.7566
  563MPD2    H5 8412   0.244   2.585  16.117  1.4758 -1.8469  0.0037
  563MPD2    N1 8413   4.597   2.811  15.935 -0.0101  0.1120  0.6307
  563MPD2    H7 8414   4.501   2.816  15.905  0.2780 -1.8718 -0.6097
  564TMC3    C1 8415   4.555   2.892  16.140 -0.4702 -0.6431  0.3530
  564TMC3    C2 8416   4.433   2.833  16.127  0.3497  0.0730  0.2610
  564TMC3    C3 8417   4.382   2.765  16.240 -0.3679  0.1872 -0.5472
  564TMC3    C4 8418   4.633   2.868  16.250 -0.2007 -0.6580  0.6297
  564TMC3    C5 8419   4.588   2.782  16.343 -0.3602 -0.1302 -0.3064
  564TMC3    C6 8420   4.459   2.742  16.352  0.1225  0.0282 -0.0761
  564TMC3     C 8421   4.636   2.909  16.020 -0.4741 -0.3335  0.4910
  564TMC3     O 8422   4.741   2.969  16.025 -0.3721  0.3323  0.0459
  564TMC3     H 8423   4.376   2.862  16.039  1.9250  1.9859 -0.1302
  564TMC3    H1 8424   4.729   2.917  16.256  0.1293 -1.2878  0.4626
  564TMC3    H2 8425   4.432   2.676  16.433 -1.1426  0.2818 -0.2951
  564TMC3    C7 8426   4.678   2.672  16.353  0.0171 -0.3116  0.2473
  564TMC3    C8 8427   4.301   2.652  16.214 -0.2376  0.0870 -0.0093
  564TMC3    O1 8428   0.035   2.675  16.418  0.0975  0.1226 -0.3505
  564TMC3    O2 8429   4.287   2.574  16.307 -0.6266 -0.4115  0.2122
  565TMC3    C1 8430   4.465   4.200  10.091 -0.2973 -0.4307 -0.0491
  565TMC3    C2 8431   4.537   4.121  10.180 -0.2894  0.3889 -0.1941
  565TMC3    C3 8432   4.463   4.047  10.270 -0.5232 -0.1267 -0.0855
  565TMC3    C4 8433   4.324   4.209  10.101  0.2405 -0.0273  0.3114
  565TMC3    C5 8434   4.260   4.124  10.195 -0.2995 -0.0550  0.4473
  565TMC3    C6 8435   4.328   4.045  10.292  0.2102  0.3630  0.5165
  565TMC3     C 8436   4.530   4.267   9.978  0.0838 -0.7720 -0.1695
  565TMC3     O 8437   4.461   4.346   9.916  0.4223  0.0221  0.0858
  565TMC3     H 8438   4.643   4.099  10.183 -0.4230 -0.2676 -0.2050
  565TMC3    H1 8439   4.266   4.274  10.036  0.0568  1.1094  1.6036
  565TMC3    H2 8440   4.278   3.964  10.344 -0.8324  0.8313  0.2422
  565TMC3    C7 8441   4.112   4.110  10.179  0.6256 -0.3210 -0.1334
  565TMC3    C8 8442   4.544   3.965  10.355 -0.5281 -0.0626  0.3156
  565TMC3    O1 8443   4.070   4.136  10.068 -0.3975 -0.3756 -0.3890
  565TMC3    O2 8444   4.661   4.000  10.379  0.3954 -0.0129 -0.6265
  566MPD2     C 8445   2.234   1.118  14.230  0.0506 -0.6357  0.2646
  566MPD2    C1 8446   2.281   1.193  14.124 -0.7871  0.3415 -0.1172
  566MPD2    C2 8447   2.270   1.139  13.995 -0.1193 -0.1553  0.2273
  566MPD2    C3 8448   2.230   1.009  13.979  0.7298  0.5247  1.0160
  566MPD2    C4 8449   2.197   0.932  14.093  0.5812 -0.3815 -0.3651
  566MPD2    C5 8450   2.195   0.988  14.219  0.4679 -0.3036 -0.1113
  566MPD2     H 8451   2.294   1.202  13.910 -2.2731  0.1019 -0.2064
  566MPD2    H1 8452   2.183   0.825  14.081 -0.2522 -0.3203  0.0547
  566MPD2    H2 8453   2.242   1.153  14.332  3.4029 -2.9071  0.7719
  566MPD2    H3 8454   2.164   0.923  14.300 -2.1487  0.9615 -0.0932
  566MPD2     N 8455   2.234   0.953  13.853 -0.5970 -0.1342 -0.2105
  566MPD2    H5 8456   2.211   0.856  13.838  0.5431 -0.4973  0.3416
  566MPD2    N1 8457   2.335   1.320  14.160 -0.1717 -0.2831 -0.5827
  566MPD2    H7 8458   2.364   1.331  14.257 -2.8475 -0.9019  0.2829
  567TMC3    C1 8459   2.446   1.511  14.151  0.1933 -0.2478  0.2312
  567TMC3    C2 8460   2.555   1.549  14.075  0.1303  0.0114 -0.4469
  567TMC3    C3 8461   2.680   1.551  14.133  0.0866  0.0313 -0.0148
  567TMC3    C4 8462   2.475   1.473  14.283 -0.1595 -0.0816 -0.8505
  567TMC3    C5 8463   2.605   1.465  14.337  0.2706 -0.4247 -0.4533
  567TMC3    C6 8464   2.707   1.514  14.264  0.6370  0.2442 -1.0828
  567TMC3     C 8465   2.365   1.422  14.079 -0.8109 -1.1929 -0.7105
  567TMC3     O 8466   2.357   1.431  13.956  0.4281  0.2851  0.0612
  567TMC3     H 8467   2.532   1.581  13.974  0.1125  0.4553 -0.3034
  567TMC3    H1 8468   2.389   1.451  14.345 -0.1137 -1.3032 -1.2295
  567TMC3    H2 8469   2.811   1.511  14.296  0.4093 -2.0300 -0.6010
  567TMC3    C7 8470   2.638   1.338  14.400  0.4116 -0.0756 -0.7982
  567TMC3    C8 8471   2.782   1.571  14.028  0.0205  0.2665  0.5582
  567TMC3    O1 8472   2.745   1.285  14.361 -0.0898  0.5018 -0.4532
  567TMC3    O2 8473   2.753   1.525  13.914 -0.7623 -0.5948 -0.3470
  568MPD2     C 8474   4.431   1.125  16.485 -0.6689 -0.3703  0.0200
  568MPD2    C1 8475   4.448   1.227  16.572 -0.7739 -0.6674  0.0034
  568MPD2    C2 8476   4.469   1.363  16.544  0.3266  0.1634 -0.2751
  568MPD2    C3 8477   4.471   1.400  16.413  0.3406 -0.6307  0.1903
  568MPD2    C4 8478   4.456   1.304  16.312 -0.7571  0.4923 -0.5166
  568MPD2    C5 8479   4.431   1.170  16.351 -0.2062  0.2504 -0.4951
  568MPD2     H 8480   4.475   1.440  16.619 -1.8402  1.6152 -1.6053
  568MPD2    H1 8481   4.444   1.322  16.205 -1.0248 -1.5200 -0.8215
  568MPD2    H2 8482   4.414   1.021  16.509 -1.7831 -0.8679 -2.9629
  568MPD2    H3 8483   4.402   1.103  16.271 -1.6304  0.4512 -0.1523
  568MPD2     N 8484   4.480   1.538  16.382  0.1958 -0.1631 -0.0082
  568MPD2    H5 8485   4.496   1.604  16.457  0.9299  0.3623 -0.6352
  568MPD2    N1 8486   4.453   1.195  16.712 -0.2906 -0.7975 -0.0552
  568MPD2    H7 8487   4.420   1.102  16.738  1.4378 -1.1830  0.7216
  569TMC3    C1 8488   4.519   1.734  16.258 -0.8276 -0.6995 -0.0364
  569TMC3    C2 8489   4.574   1.796  16.373  0.4306  0.1575 -0.0524
  569TMC3    C3 8490   4.575   1.932  16.375 -0.2878  1.1038  0.5950
  569TMC3    C4 8491   4.486   1.805  16.147 -0.6399  0.2692 -0.0027
  569TMC3    C5 8492   4.489   1.947  16.160  0.2648 -0.1194 -0.9877
  569TMC3    C6 8493   4.537   2.012  16.275 -0.3426 -0.1036  0.4378
  569TMC3     C 8494   4.466   1.598  16.260  0.2160 -0.4364 -0.1838
  569TMC3     O 8495   4.432   1.543  16.150 -0.1321 -0.3894 -0.2560
  569TMC3     H 8496   4.585   1.743  16.467 -2.0426 -0.6417 -0.2055
  569TMC3    H1 8497   4.456   1.753  16.057  0.6526  0.1351 -0.3496
  569TMC3    H2 8498   4.556   2.118  16.287  1.1746 -0.2725 -0.3674
  569TMC3    C7 8499   4.425   2.024  16.055 -0.0042 -0.5603  0.0530
  569TMC3    C8 8500   4.561   1.984  16.514 -0.2181 -0.1979 -0.0394
  569TMC3    O1 8501   4.430   1.971  15.943 -0.3884 -0.0630  0.5843
  569TMC3    O2 8502   4.520   1.901  16.591 -0.4551  0.2591 -0.3449
  570TMC3    C1 8503   3.559   0.314  16.210  0.5029  0.2791 -0.4369
  570TMC3    C2 8504   3.600   0.284  16.081 -0.7426  0.5855 -0.1195
  570TMC3    C3 8505   3.669   0.385  16.015 -0.3399 -0.4247  0.2183
  570TMC3    C4 8506   3.555   0.445  16.258 -0.3149  0.6507  0.8581
  570TMC3    C5 8507   3.618   0.541  16.188 -0.1769  1.0175  0.5753
  570TMC3    C6 8508   3.687   0.509  16.075  0.0290 -0.3831 -0.5187
  570TMC3     C 8509   3.491   0.212  16.279 -0.6552 -0.2714  0.4084
  570TMC3     O 8510   3.448   0.119  16.212  0.0396 -0.4362 -0.0045
  570TMC3     H 8511   3.592   0.182  16.046 -1.9436  1.0821 -1.3189
  570TMC3    H1 8512   3.503   0.466  16.351 -2.2130 -0.8598  0.1470
  570TMC3    H2 8513   3.738   0.586  16.018 -0.0420 -0.5638 -0.8248
  570TMC3    C7 8514   3.655   0.658  16.265  0.3186 -0.2811 -0.7482
  570TMC3    C8 8515   3.753   0.356  15.897 -0.2019 -0.8348 -0.5374
  570TMC3    O1 8516   3.662   0.649  16.386  0.7851  0.3351 -0.3989
  570TMC3    O2 8517   3.848   0.429  15.874  0.1157 -0.6490 -0.6013
  571MPD2     C 8518   1.018   3.078   0.151 -0.5263  0.4152  0.4895
  571MPD2    C1 8519   1.095   2.960   0.161 -0.0320  0.3671 -0.1257
  571MPD2    C2 8520   1.218   2.966   0.096  0.2220  0.2232  0.6769
  571MPD2    C3 8521   1.267   3.072   0.026 -0.8052  0.6746  0.2424
  571MPD2    C4 8522   1.186   3.186   0.012  0.3202 -0.1459  0.0764
  571MPD2    C5 8523   1.058   3.185   0.075  0.2690 -0.2330  0.0450
  571MPD2     H 8524   1.285   2.882   0.109 -0.1734 -0.9258 -4.7388
  571MPD2    H1 8525   1.221   3.271  17.727  0.6846 -0.3323  0.0219
  571MPD2    H2 8526   0.921   3.095   0.196 -0.2532 -0.5156  1.4376
  571MPD2    H3 8527   0.991   3.270   0.064  0.5453 -0.2726 -2.0200
  571MPD2     N 8528   1.388   3.070  17.724 -0.0091  0.1969  0.6642
  571MPD2    H5 8529   1.425   3.162  17.702 -1.0567  0.6437  0.7638
  571MPD2    N1 8530   1.048   2.855   0.238 -0.2457  0.3416 -0.3850
  571MPD2    H7 8531   0.951   2.860   0.266 -0.0006  1.0112  0.3155
  572TMC3    C1 8532   1.584   2.971  17.643  0.2922 -0.3720 -0.1672
  572TMC3    C2 8533   1.662   2.876  17.703  0.3848  0.2494  0.5802
  572TMC3    C3 8534   1.792   2.889  17.677 -0.7129 -1.0113 -0.9845
  572TMC3    C4 8535   1.633   3.084  17.577  0.3375  0.3573  0.9092
  572TMC3    C5 8536   1.772   3.082  17.550  0.2696  0.5180  0.1062
  572TMC3    C6 8537   1.857   2.995  17.619 -0.1593  0.0755  0.2655
  572TMC3     C 8538   1.453   2.960  17.698 -0.4806  0.1488 -0.3767
  572TMC3     O 8539   1.415   2.845  17.712  0.7848 -0.9244 -0.2470
  572TMC3     H 8540   1.629   2.777  17.735 -0.2226 -0.7362 -3.1158
  572TMC3    H1 8541   1.563   3.152  17.530 -0.9897 -2.2196 -0.8500
  572TMC3    H2 8542   1.963   2.995  17.596 -0.2364 -1.4734 -0.1193
  572TMC3    C7 8543   1.813   3.160  17.432  0.4581 -0.4317  0.3168
  572TMC3    C8 8544   1.876   2.801  17.743  0.2805 -0.1872 -0.3074
  572TMC3    O1 8545   1.745   3.252  17.403 -0.0590 -0.4471 -0.3118
  572TMC3    O2 8546   1.970   2.775  17.671  0.8239 -0.2620 -0.0856
  573MPD2     C 8547   2.764   2.915   0.645 -0.1255  0.8240  0.0133
  573MPD2    C1 8548   2.800   3.024   0.560  0.3237  0.1936 -0.0439
  573MPD2    C2 8549   2.790   3.001   0.423  0.1457  0.0235  0.3250
  573MPD2    C3 8550   2.737   2.873   0.383 -0.1689  0.3024 -0.6476
  573MPD2    C4 8551   2.689   2.783   0.473 -0.7388 -0.5420 -0.2866
  573MPD2    C5 8552   2.708   2.802   0.608  0.0447  0.2010  0.1091
  573MPD2     H 8553   2.810   3.075   0.346  0.4575  0.1972  0.5716
  573MPD2    H1 8554   2.638   2.695   0.438  1.8368 -2.5246  0.9399
  573MPD2    H2 8555   2.764   2.937   0.751  1.1000 -1.3757  0.4722
  573MPD2    H3 8556   2.679   2.724   0.677  2.6691 -0.1761  0.7989
  573MPD2     N 8557   2.720   2.835   0.247  0.3516  0.5132 -0.3190
  573MPD2    H5 8558   2.675   2.747   0.225 -0.1006  0.6466  0.0550
  573MPD2    N1 8559   2.850   3.145   0.619  0.4854  0.5657 -0.7597
  573MPD2    H7 8560   2.853   3.142   0.721 -2.5506 -0.1208 -0.6667
  574TMC3    C1 8561   2.770   2.849   0.019  0.0840  0.7132 -0.4247
  574TMC3    C2 8562   2.636   2.868  17.755  0.0199 -0.5533  0.4339
  574TMC3    C3 8563   2.615   2.878  17.621 -0.4157  0.6588  0.0170
  574TMC3    C4 8564   2.868   2.847  17.695  0.7406 -0.1698 -0.7384
  574TMC3    C5 8565   2.834   2.850  17.567 -0.2250 -0.6101  0.4466
  574TMC3    C6 8566   2.699   2.855  17.520  0.2597  0.6200  0.4858
  574TMC3     C 8567   2.807   2.885   0.152 -0.0240 -0.7972 -0.0449
  574TMC3     O 8568   2.901   2.963   0.161  0.0943  0.3660  0.7024
  574TMC3     H 8569   2.560   2.891   0.057 -1.6051 -0.1102 -1.3470
  574TMC3    H1 8570   2.970   2.845  17.730  0.3979  2.9819  0.3977
  574TMC3    H2 8571   2.664   2.842  17.417 -0.0468 -0.6180  0.7433
  574TMC3    C7 8572   2.924   2.901  17.467 -0.1234 -0.4570 -0.7253
  574TMC3    C8 8573   2.478   2.903  17.582 -0.7135  0.0968 -0.2840
  574TMC3    O1 8574   2.880   2.896  17.355  0.2715  0.1761  0.1807
  574TMC3    O2 8575   2.393   2.853  17.656  0.3041  0.6450  0.1923
  575TMC3    C1 8576   0.444   3.843  10.925  0.3377  0.0309  0.3950
  575TMC3    C2 8577   0.466   3.722  10.979  0.3884 -0.2736  0.1042
  575TMC3    C3 8578   0.371   3.625  10.973 -0.2257 -0.1174 -0.1554
  575TMC3    C4 8579   0.330   3.863  10.846  0.0899 -0.2442 -0.6447
  575TMC3    C5 8580   0.243   3.760  10.833 -0.3259 -0.0953 -0.4214
  575TMC3    C6 8581   0.258   3.644  10.901 -0.0552  0.0336  0.6317
  575TMC3     C 8582   0.551   3.924  10.896 -0.0144  0.1988 -1.0029
  575TMC3     O 8583   0.649   3.904  10.968  0.2990  0.0231 -0.1598
  575TMC3     H 8584   0.564   3.698  11.017  0.7135 -1.3762 -1.4409
  575TMC3    H1 8585   0.319   3.961  10.801  0.5868  1.2868  2.5582
  575TMC3    H2 8586   0.174   3.576  10.910 -1.4063  1.8947  2.0151
  575TMC3    C7 8587   0.122   3.785  10.755 -1.0900  0.1672 -0.2386
  575TMC3    C8 8588   0.415   3.493  11.017  0.5577 -0.4264 -0.1965
  575TMC3    O1 8589   0.095   3.901  10.726 -0.0091  0.1081 -1.1403
  575TMC3    O2 8590   0.484   3.493  11.118 -0.2867  0.1940 -0.4864
  576MPD2     C 8591   0.051   0.623  12.944  0.0449  0.4653 -0.3098
  576MPD2    C1 8592   0.063   0.696  12.828  0.3281  0.0940  0.9651
  576MPD2    C2 8593   4.729   0.811  12.819 -0.4647  0.1173 -0.8230
  576MPD2    C3 8594   4.648   0.857  12.921  0.3417  0.1558 -0.2343
  576MPD2    C4 8595   4.642   0.783  13.038  0.2669 -0.3171 -0.1253
  576MPD2    C5 8596   4.718   0.668  13.051  1.2999 -0.2022  0.3079
  576MPD2     H 8597   4.736   0.877  12.734  0.0882  0.2394 -0.6790
  576MPD2    H1 8598   4.583   0.831  13.115 -0.4444 -0.1065 -0.8084
  576MPD2    H2 8599   0.108   0.532  12.957 -0.2074  0.2497 -0.6950
  576MPD2    H3 8600   4.728   0.609  13.142 -0.3250 -1.0172 -0.0606
  576MPD2     N 8601   4.593   0.989  12.901  0.1499  0.4671  0.0592
  576MPD2    H5 8602   4.609   1.029  12.809 -3.8281 -0.8573 -1.2189
  576MPD2    N1 8603   0.156   0.670  12.727  0.2320  0.4945 -0.3577
  576MPD2    H7 8604   0.163   0.740  12.654 -1.5695  1.3221  0.2607
  577TMC3    C1 8605   0.323   0.570  12.608 -0.4158 -0.2507 -0.6508
  577TMC3    C2 8606   0.373   0.462  12.541  0.2825  0.7151  0.3381
  577TMC3    C3 8607   0.448   0.485  12.428  0.0886 -0.8833 -0.1732
  577TMC3    C4 8608   0.361   0.700  12.569  0.3885 -0.1236  0.5368
  577TMC3    C5 8609   0.427   0.710  12.447  0.0437 -0.4949  0.2048
  577TMC3    C6 8610   0.466   0.605  12.370  1.0436  0.2809  0.3347
  577TMC3     C 8611   0.225   0.552  12.716 -0.0773 -0.2112 -0.3663
  577TMC3     O 8612   0.211   0.442  12.770  0.2765 -0.4147  1.0123
  577TMC3     H 8613   0.357   0.364  12.584 -1.7854  0.5279 -0.8788
  577TMC3    H1 8614   0.335   0.790  12.623  1.3877 -1.3690  3.1114
  577TMC3    H2 8615   0.523   0.634  12.283 -0.7128 -2.1371 -1.6413
  577TMC3    C7 8616   0.471   0.850  12.408 -0.7108 -0.5211  0.1975
  577TMC3    C8 8617   0.504   0.368  12.358  0.3041  0.2988 -0.2527
  577TMC3    O1 8618   0.459   0.929  12.506 -0.1247  0.4264  0.6997
  577TMC3    O2 8619   0.462   0.257  12.390 -0.4941 -0.2874  0.6572
  578MPD2     C 8620   2.834   0.815   0.680  0.1203  0.7955  0.5910
  578MPD2    C1 8621   2.941   0.759   0.619  0.4470 -0.3195  0.5085
  578MPD2    C2 8622   3.003   0.655   0.684 -0.2951 -0.1017 -0.0911
  578MPD2    C3 8623   2.967   0.615   0.810 -0.1195 -0.7040  0.0112
  578MPD2    C4 8624   2.846   0.662   0.857 -0.0528  0.8949 -0.5534
  578MPD2    C5 8625   2.776   0.754   0.785  0.1238  0.1596 -0.2723
  578MPD2     H 8626   3.077   0.591   0.639  1.9873  0.9236  2.1668
  578MPD2    H1 8627   2.799   0.636   0.951  0.7136  1.7375  0.0650
  578MPD2    H2 8628   2.774   0.896   0.640  2.9544  2.6824  0.1331
  578MPD2    H3 8629   2.691   0.799   0.834 -0.0068 -1.6385  1.1634
  578MPD2     N 8630   3.044   0.526   0.886 -0.0165 -0.0886  0.1225
  578MPD2    H5 8631   3.132   0.484   0.857 -0.2333 -0.8689  0.5904
  578MPD2    N1 8632   2.981   0.807   0.494 -0.1808 -0.4251 -0.2424
  578MPD2    H7 8633   2.932   0.885   0.451  0.6037 -1.1589 -2.4405
  579TMC3    C1 8634   3.089   0.401   1.085 -0.1880 -0.4618  0.1432
  579TMC3    C2 8635   3.148   0.427   1.205  0.3690  1.0071 -0.2754
  579TMC3    C3 8636   3.262   0.358   1.239  0.4186 -0.5419  0.3307
  579TMC3    C4 8637   3.139   0.296   1.013  0.0362 -0.5581 -0.9841
  579TMC3    C5 8638   3.241   0.217   1.065 -0.4315  0.1774 -1.0696
  579TMC3    C6 8639   3.313   0.249   1.171  0.1325  0.1957 -0.2521
  579TMC3     C 8640   3.026   0.511   1.025  0.0264 -0.1014  0.0144
  579TMC3     O 8641   2.969   0.587   1.101 -0.4364  0.3478  0.5546
  579TMC3     H 8642   3.117   0.513   1.264 -1.6903  0.2152 -0.1760
  579TMC3    H1 8643   3.088   0.263   0.923 -1.9798  0.7970 -0.3565
  579TMC3    H2 8644   3.398   0.192   1.207 -0.2461  0.8115  1.6415
  579TMC3    C7 8645   3.286   0.094   1.002  0.4692 -0.5882 -0.4655
  579TMC3    C8 8646   3.314   0.406   1.359 -0.1002 -0.0859 -0.1337
  579TMC3    O1 8647   3.396   0.048   1.026 -0.5018 -0.0195  0.1199
  579TMC3    O2 8648   3.240   0.462   1.433  0.1823  0.5017  0.0418
  580TMC3    C1 8649   2.953   4.449  12.453 -0.4995 -0.0183 -0.0655
  580TMC3    C2 8650   3.058   4.533  12.451  0.1950  1.0424  0.4158
  580TMC3    C3 8651   3.163   4.497  12.527  0.0161  0.1389 -0.4063
  580TMC3    C4 8652   2.949   4.336  12.526  0.5361  0.2524 -0.2019
  580TMC3    C5 8653   3.070   4.296  12.579  0.2455 -0.0744  0.1472
  580TMC3    C6 8654   3.187   4.379  12.582 -0.2762 -0.6260 -0.5775
  580TMC3     C 8655   2.834   4.502  12.389 -0.1880 -0.1057  0.0914
  580TMC3     O 8656   2.844   4.542  12.275  0.6047  0.9501  0.3538
  580TMC3     H 8657   3.048   4.630  12.404 -0.1349  0.4766 -0.6564
  580TMC3    H1 8658   2.863   4.270  12.525  0.4836  0.3272 -0.8039
  580TMC3    H2 8659   3.278   4.344  12.629 -1.0199  0.0796  1.4303
  580TMC3    C7 8660   3.088   4.161  12.614  0.3241  0.2625 -0.2804
  580TMC3    C8 8661   3.278   4.569  12.498 -0.5698 -0.5360  0.4970
  580TMC3    O1 8662   3.172   4.143  12.702  0.1042 -0.2685  0.5992
  580TMC3    O2 8663   3.366   4.582  12.583  0.1641 -0.3862  0.2588
  581MPD2     C 8664   0.932   3.519  15.248  0.1302  0.4159 -0.0440
  581MPD2    C1 8665   0.801   3.561  15.261 -0.2867 -0.5602 -1.0819
  581MPD2    C2 8666   0.726   3.594  15.153  0.2553 -0.2516 -0.3337
  581MPD2    C3 8667   0.786   3.595  15.025  0.6765  0.8572  0.1410
  581MPD2    C4 8668   0.913   3.535  15.013  0.0709 -0.2240  0.7836
  581MPD2    C5 8669   0.982   3.497  15.123 -1.1284  0.1124  0.5737
  581MPD2     H 8670   0.630   3.641  15.168 -0.4474 -1.2064 -1.8090
  581MPD2    H1 8671   0.963   3.520  14.918  0.0585  2.0831  0.4062
  581MPD2    H2 8672   0.988   3.475  15.329  0.1381  3.1656  1.4620
  581MPD2    H3 8673   1.082   3.454  15.115 -0.5916  1.4943 -0.0822
  581MPD2     N 8674   0.715   3.655  14.918 -0.0275 -0.0183 -0.4671
  581MPD2    H5 8675   0.624   3.691  14.946 -1.1024 -1.4063 -2.1969
  581MPD2    N1 8676   0.740   3.569  15.393  0.1176  0.2606 -0.5933
  581MPD2    H7 8677   0.642   3.590  15.407  0.2779  0.8165 -0.2936
  582TMC3    C1 8678   0.722   3.576  15.629  0.5742 -0.2794 -0.6556
  582TMC3    C2 8679   0.759   3.670  15.719 -0.0934 -0.3201  0.6116
  582TMC3    C3 8680   0.666   3.735  15.793  0.2609 -0.0811  0.0949
  582TMC3    C4 8681   0.591   3.537  15.622 -0.4080 -0.1224  0.4214
  582TMC3    C5 8682   0.501   3.611  15.694 -0.5790  0.3442  0.1279
  582TMC3    C6 8683   0.535   3.713  15.774  0.4111  0.0488 -0.5333
  582TMC3     C 8684   0.811   3.567  15.514  0.6322  0.5153  0.0743
  582TMC3     O 8685   0.930   3.576  15.537 -0.1657 -0.1069  0.3373
  582TMC3     H 8686   0.861   3.707  15.712 -0.3319  0.2050 -0.0493
  582TMC3    H1 8687   0.562   3.460  15.552 -1.6000  1.5749 -0.9724
  582TMC3    H2 8688   0.456   3.775  15.814 -1.3111 -2.3509 -0.2354
  582TMC3    C7 8689   0.384   3.635  15.615  0.6139  0.3354 -0.3763
  582TMC3    C8 8690   0.711   3.833  15.881 -0.1752 -0.6152 -0.4991
  582TMC3    O1 8691   0.329   3.532  15.577  0.1171 -0.3565  0.4168
  582TMC3    O2 8692   0.625   3.911  15.924  0.0912  0.5316  0.0210
  583MPD2     C 8693   0.528   1.074  16.613  0.0524  0.4509 -0.1310
  583MPD2    C1 8694   0.608   1.174  16.559 -0.0158 -0.4484 -0.2797
  583MPD2    C2 8695   0.612   1.301  16.617 -0.3273 -0.5530 -0.4992
  583MPD2    C3 8696   0.549   1.325  16.737 -0.3232 -0.4305  0.5750
  583MPD2    C4 8697   0.476   1.225  16.790 -0.1842 -0.0766  0.9950
  583MPD2    C5 8698   0.458   1.103  16.727 -0.6335 -0.6934  0.0307
  583MPD2     H 8699   0.683   1.373  16.577  1.1639 -0.8941  1.5382
  583MPD2    H1 8700   0.430   1.230  16.888  0.7054 -0.8617  1.4501
  583MPD2    H2 8701   0.526   0.975  16.569  0.0525  0.7496 -0.8041
  583MPD2    H3 8702   0.388   1.025  16.754  0.3417 -1.1554  1.2476
  583MPD2     N 8703   0.560   1.441  16.820 -0.9363  1.4627  0.1057
  583MPD2    H5 8704   0.518   1.437  16.912 -2.3609 -0.4602 -0.6242
  583MPD2    N1 8705   0.702   1.153  16.453  0.3938 -0.0019 -0.2769
  583MPD2    H7 8706   0.765   1.228  16.429  1.4600 -0.3771  1.3631
  584TMC3    C1 8707   0.629   1.664  16.886  0.1093  0.0786 -0.7649
  584TMC3    C2 8708   0.690   1.784  16.858 -0.2625 -0.2781  0.1059
  584TMC3    C3 8709   0.733   1.868  16.961 -0.0198 -0.0486 -0.1714
  584TMC3    C4 8710   0.626   1.620  17.018 -0.3832 -0.1698  0.3077
  584TMC3    C5 8711   0.686   1.697  17.113  0.0206  0.1113 -0.5687
  584TMC3    C6 8712   0.727   1.830  17.089  0.3062 -0.1183 -0.7510
  584TMC3     C 8713   0.614   1.562  16.774  0.1785 -0.2432 -0.4516
  584TMC3     O 8714   0.652   1.607  16.670 -0.2940 -0.5838  0.1129
  584TMC3     H 8715   0.697   1.816  16.755  2.7646  0.8109  0.6361
  584TMC3    H1 8716   0.599   1.518  17.044  0.4744 -0.7245 -1.0302
  584TMC3    H2 8717   0.774   1.892  17.164 -3.3388  1.6225  0.0979
  584TMC3    C7 8718   0.681   1.658  17.246 -0.3443 -0.4928  0.0270
  584TMC3    C8 8719   0.804   1.993  16.931  0.0061 -0.4887 -0.3477
  584TMC3    O1 8720   0.694   1.541  17.280 -0.5456  0.9821 -0.5532
  584TMC3    O2 8721   0.839   1.995  16.813  0.0789 -0.5817 -0.4525
  585MPD2     C 8722   4.411   0.125   0.693 -0.3318 -0.1421  0.0509
  585MPD2    C1 8723   4.536   0.075   0.663  0.6449  0.2482 -1.1788
  585MPD2    C2 8724   4.559   0.038   0.528  0.6361  0.2230  0.2241
  585MPD2    C3 8725   4.459   0.057   0.435  0.8933  0.3163  0.5138
  585MPD2    C4 8726   4.337   0.111   0.470 -0.1381 -0.0029  0.0564
  585MPD2    C5 8727   4.317   0.144   0.600  0.1067  1.0199  0.5565
  585MPD2     H 8728   4.654   4.740   0.495  0.2963 -0.6295  0.3339
  585MPD2    H1 8729   4.251   0.127   0.406  0.2437 -0.3098 -0.5335
  585MPD2    H2 8730   4.382   0.154   0.793 -0.9648  0.8072 -0.4075
  585MPD2    H3 8731   4.221   0.183   0.631 -0.0300 -0.8884  2.5482
  585MPD2     N 8732   4.470   0.036   0.290  0.1902  0.1127  0.1022
  585MPD2    H5 8733   4.396   0.068   0.229  0.8175 -0.1764 -0.8174
  585MPD2    N1 8734   4.626   0.068   0.767  0.3856  0.2314 -0.1964
  585MPD2    H7 8735   4.588   0.099   0.855 -0.6366 -2.2375  0.2370
  586TMC3    C1 8736   4.551   4.727   0.069  0.2708  0.1841 -0.2786
  586TMC3    C2 8737   4.641   4.671  17.756  0.4372 -0.3234  0.2628
  586TMC3    C3 8738   4.623   4.672  17.623  0.3227  0.0327 -0.1367
  586TMC3    C4 8739   4.438   0.033   0.022 -0.5243 -0.1150  0.0837
  586TMC3    C5 8740   4.416   0.027  17.660  0.1561 -0.0621  0.0629
  586TMC3    C6 8741   4.508   4.735  17.566  0.2723  0.0083  0.7312
  586TMC3     C 8742   4.576   4.724   0.215  0.9273  0.2772 -0.3665
  586TMC3     O 8743   4.685   4.684   0.255 -0.3193 -0.6962 -0.5486
  586TMC3     H 8744   4.728   4.634   0.038 -0.0349 -2.5523 -0.4810
  586TMC3    H1 8745   4.352   0.044   0.086 -0.1816  1.3374  0.2959
  586TMC3    H2 8746   4.475   4.723  17.463 -1.0089  0.8191  1.0433
  586TMC3    C7 8747   4.280   0.002  17.626 -0.1658 -0.1675  0.8312
  586TMC3    C8 8748   4.717   4.606  17.539  0.6539  0.4914  0.3393
  586TMC3    O1 8749   4.253   4.649  17.558  0.6607  0.2290 -0.5734
  586TMC3    O2 8750   0.060   4.544  17.598 -0.4756  0.4351  0.1156
  587TMC3    C1 8751   2.083   3.785  16.204 -0.1270 -0.2624  0.1362
  587TMC3    C2 8752   2.107   3.881  16.300 -0.0763  0.5874 -1.1470
  587TMC3    C3 8753   2.236   3.925  16.309  0.0461  0.2956  0.0347
  587TMC3    C4 8754   2.181   3.737  16.125  0.3579 -0.2880  0.6839
  587TMC3    C5 8755   2.313   3.781  16.147  0.6618 -0.4806 -0.4686
  587TMC3    C6 8756   2.343   3.869  16.247  0.3058 -0.4645 -0.4467
  587TMC3     C 8757   1.954   3.720  16.177 -0.2508  0.4831  0.3334
  587TMC3     O 8758   1.969   3.603  16.140  0.1418  0.6758  0.9165
  587TMC3     H 8759   2.028   3.927  16.357  2.2349 -0.6537  3.1070
  587TMC3    H1 8760   2.162   3.666  16.045  0.4610  0.2989  0.1426
  587TMC3    H2 8761   2.439   3.916  16.267  0.1969 -1.1316  1.6820
  587TMC3    C7 8762   2.422   3.698  16.102  0.3479 -0.0947 -0.6437
  587TMC3    C8 8763   2.266   3.997  16.430 -0.1206  0.0035 -0.6280
  587TMC3    O1 8764   2.398   3.581  16.063  0.0452  0.4155 -1.1788
  587TMC3    O2 8765   2.372   3.975  16.489 -0.2428  0.7485 -0.2077
  588TMC3    C1 8766   4.423   1.619   9.979  0.6565  0.2798  0.2281
  588TMC3    C2 8767   4.374   1.488   9.980  0.4142 -0.4202  0.8621
  588TMC3    C3 8768   4.467   1.385   9.988 -0.1750 -0.1250 -0.0968
  588TMC3    C4 8769   4.558   1.646   9.994 -0.2475 -0.1407 -0.4620
  588TMC3    C5 8770   4.647   1.537  10.004  0.7941 -0.0088  0.2106
  588TMC3    C6 8771   4.604   1.407   9.989  0.2716  0.4255 -0.2014
  588TMC3     C 8772   4.335   1.729   9.959 -0.7478 -0.0824  0.3951
  588TMC3     O 8773   4.234   1.713   9.890  0.5201 -0.3570 -0.0751
  588TMC3     H 8774   4.267   1.478   9.966  0.1248  0.1996  2.7303
  588TMC3    H1 8775   4.598   1.747   9.993  1.5356 -0.8512  0.4637
  588TMC3    H2 8776   4.676   1.332   9.961 -2.7491 -2.3519 -0.5091
  588TMC3    C7 8777   0.042   1.566   9.990  0.0373  0.3164 -0.2719
  588TMC3    C8 8778   4.407   1.255   9.968  0.5252 -0.0516  0.1655
  588TMC3    O1 8779   0.128   1.486  10.022 -0.0433  0.3772 -0.3827
  588TMC3    O2 8780   4.286   1.247   9.958 -0.5727 -0.7341  0.4795
  589TMC3    C1 8781   3.454   3.863   1.237  0.3934  0.5186 -0.2935
  589TMC3    C2 8782   3.570   3.931   1.234  0.5706  0.6393 -0.2797
  589TMC3    C3 8783   3.689   3.863   1.205  0.3673  0.0708  0.4136
  589TMC3    C4 8784   3.459   3.729   1.217  0.2869  0.4441  0.2166
  589TMC3    C5 8785   3.581   3.661   1.200  0.0461 -0.2700  0.1860
  589TMC3    C6 8786   3.696   3.725   1.208 -0.0293  0.6899 -0.3561
  589TMC3     C 8787   3.320   3.919   1.279 -0.6897 -0.6494 -0.1965
  589TMC3     O 8788   3.230   3.838   1.261 -0.4893  0.2545  0.1153
  589TMC3     H 8789   3.569   4.035   1.203  0.2984  0.7958  0.2560
  589TMC3    H1 8790   3.365   3.676   1.223  0.2782  0.6169  1.6512
  589TMC3    H2 8791   3.793   3.683   1.183  0.3476  0.9854  0.6407
  589TMC3    C7 8792   3.571   3.518   1.172  0.5950 -0.3602  0.8513
  589TMC3    C8 8793   3.804   3.945   1.228 -0.0115 -0.8154  0.7897
  589TMC3    O1 8794   3.469   3.481   1.111  0.2834 -0.0269 -0.2650
  589TMC3    O2 8795   3.792   4.022   1.322 -0.1888 -0.2416 -0.3971
  590MPD2     C 8796   3.350   1.560  16.909  0.1431  0.7866  0.1916
  590MPD2    C1 8797   3.308   1.672  16.853  0.5805 -0.2536 -0.1232
  590MPD2    C2 8798   3.395   1.736  16.767 -0.3761  0.4196 -0.2130
  590MPD2    C3 8799   3.531   1.698  16.752 -0.0254 -0.1447 -0.9447
  590MPD2    C4 8800   3.570   1.584  16.821  0.8183  0.3385  0.2003
  590MPD2    C5 8801   3.475   1.507  16.886 -0.1932 -0.0393 -0.8275
  590MPD2     H 8802   3.362   1.821  16.708  2.4055  0.7549 -1.3150
  590MPD2    H1 8803   3.674   1.556  16.812  0.1972 -1.4086 -1.3498
  590MPD2    H2 8804   3.277   1.496  16.957  0.8395 -0.7330 -0.7686
  590MPD2    H3 8805   3.489   1.409  16.930 -0.3418 -0.3320 -1.4252
  590MPD2     N 8806   3.599   1.773  16.662  0.6995  0.2511  0.5727
  590MPD2    H5 8807   3.552   1.858  16.632  0.5833  0.4152  1.2246
  590MPD2    N1 8808   3.169   1.709  16.846 -0.0402  0.1333  0.3255
  590MPD2    H7 8809   3.145   1.767  16.767  0.0214  0.0574  0.2512
  591TMC3    C1 8810   3.738   1.796  16.468  0.3750 -0.5929  0.1761
  591TMC3    C2 8811   3.832   1.747  16.382  0.7239  0.0619 -0.2610
  591TMC3    C3 8812   3.855   1.820  16.270 -0.3760  0.3576  0.1828
  591TMC3    C4 8813   3.688   1.925  16.455 -0.9673 -1.4259 -0.2104
  591TMC3    C5 8814   3.732   2.001  16.347  0.7693 -0.5821  0.6028
  591TMC3    C6 8815   3.812   1.951  16.250 -0.6288 -0.0794  0.6040
  591TMC3     C 8816   3.712   1.728  16.598 -0.2329 -0.0839  0.4368
  591TMC3     O 8817   3.788   1.632  16.622  0.2375 -0.3334 -0.4569
  591TMC3     H 8818   3.856   1.641  16.384 -0.3744 -0.2017 -1.5899
  591TMC3    H1 8819   3.634   1.974  16.535  0.4094  0.0371 -0.1719
  591TMC3    H2 8820   3.835   2.005  16.160  1.4597  0.2238  1.3312
  591TMC3    C7 8821   3.635   2.099  16.308 -0.2986 -0.2802  0.2524
  591TMC3    C8 8822   3.944   1.756  16.170  0.6302  0.0172 -0.9983
  591TMC3    O1 8823   3.525   2.090  16.359  0.1373 -0.1698  1.1606
  591TMC3    O2 8824   3.992   1.649  16.211  0.1878  0.0184  0.5137
  592MPD2     C 8825   3.885   4.311  11.518 -0.4132 -0.4992  0.1138
  592MPD2    C1 8826   3.868   4.307  11.654 -0.2309  0.8355 -0.9174
  592MPD2    C2 8827   3.782   4.208  11.704  0.2822 -0.5029  0.4754
  592MPD2    C3 8828   3.722   4.116  11.617 -0.3684 -0.1708  0.1905
  592MPD2    C4 8829   3.751   4.124  11.478  0.8553  0.3276  0.4184
  592MPD2    C5 8830   3.836   4.218  11.430 -0.6668 -0.8569 -0.1452
  592MPD2     H 8831   3.766   4.207  11.812  1.3524  1.4716  0.6613
  592MPD2    H1 8832   3.729   4.045  11.407  1.4423  0.1470  0.4395
  592MPD2    H2 8833   3.953   4.384  11.474 -1.5162  0.9789  0.8373
  592MPD2    H3 8834   3.870   4.216  11.327 -1.1967 -3.0567 -0.2672
  592MPD2     N 8835   3.651   4.005  11.675  0.7416  0.0418  0.5046
  592MPD2    H5 8836   3.619   4.015  11.771  0.4588 -1.7111  0.6052
  592MPD2    N1 8837   3.935   4.409  11.725 -0.3650  0.1446  0.0043
  592MPD2    H7 8838   4.008   4.466  11.683 -1.2865  0.9149 -0.5595
  593TMC3    C1 8839   4.030   4.522  11.906  0.6891  1.4097  0.1259
  593TMC3    C2 8840   3.994   4.590  12.018  0.8190  0.3441  0.0298
  593TMC3    C3 8841   4.083   4.659  12.093  0.4705 -0.8100 -0.2641
  593TMC3    C4 8842   4.157   4.509  11.873  0.4533  0.7397  0.1011
  593TMC3    C5 8843   4.248   4.555  11.959 -0.1551  0.1886 -0.5318
  593TMC3    C6 8844   4.219   4.647  12.062 -0.3165  0.5459 -0.5295
  593TMC3     C 8845   3.933   4.427  11.863  0.4123 -0.1595 -0.5668
  593TMC3     O 8846   3.851   4.385  11.945 -0.1486 -0.1248  0.0650
  593TMC3     H 8847   3.887   4.592  12.036  0.5105 -3.7651 -1.3141
  593TMC3    H1 8848   4.195   4.443  11.795  0.8680 -1.7536  2.3936
  593TMC3    H2 8849   4.295   4.677  12.133  1.5515 -0.4183 -2.1012
  593TMC3    C7 8850   4.375   4.579  11.882  0.1869 -0.3462 -0.3504
  593TMC3    C8 8851   4.031   0.038  12.146  0.0682  0.2663  0.3632
  593TMC3    O1 8852   4.373   4.575  11.757 -0.6723 -0.3168  0.1193
  593TMC3    O2 8853   3.927   0.085  12.098 -0.0167 -0.2962  0.1404
  594MPD2     C 8854   2.461   2.513  14.477 -0.9096  0.1767 -0.3582
  594MPD2    C1 8855   2.427   2.589  14.585 -0.1548  0.7017  0.5268
  594MPD2    C2 8856   2.527   2.674  14.635  0.5916 -0.3160  0.4320
  594MPD2    C3 8857   2.653   2.670  14.579  0.3799  0.2200 -0.2843
  594MPD2    C4 8858   2.678   2.591  14.469  0.4190  0.0229 -0.0027
  594MPD2    C5 8859   2.580   2.518  14.415 -0.1275  0.4315  0.4219
  594MPD2     H 8860   2.517   2.722  14.731 -0.2900 -0.8033  0.5791
  594MPD2    H1 8861   2.779   2.582  14.431  1.3688  0.5794  2.3473
  594MPD2    H2 8862   2.386   2.451  14.429 -2.3427  2.8033 -1.5145
  594MPD2    H3 8863   2.601   2.453  14.331 -0.1558  1.5744 -0.4678
  594MPD2     N 8864   2.759   2.744  14.634 -0.4215  0.3423  0.1704
  594MPD2    H5 8865   2.734   2.795  14.719  0.2190 -1.4298  1.4284
  594MPD2    N1 8866   2.305   2.563  14.652  0.1577 -0.1609 -0.2492
  594MPD2    H7 8867   2.234   2.502  14.613  0.0059  0.2036 -0.5410
  595TMC3    C1 8868   3.168   2.924  14.729 -0.0808  0.0060  0.2948
  595TMC3    C2 8869   3.096   2.845  14.647 -0.0240  0.5114 -0.1352
  595TMC3    C3 8870   2.969   2.821  14.682  0.5367 -0.2553 -0.0549
  595TMC3    C4 8871   3.122   2.979  14.845 -0.4851  0.0604  0.0365
  595TMC3    C5 8872   2.989   2.963  14.869 -0.2216 -0.3441  0.4057
  595TMC3    C6 8873   2.916   2.882  14.799  0.7467 -0.2721 -0.6567
  595TMC3     C 8874   3.306   2.961  14.697 -0.0398 -0.9681  0.1480
  595TMC3     O 8875   3.354   3.061  14.741 -0.0122  0.0899 -0.3139
  595TMC3     H 8876   3.135   2.821  14.549 -0.7691 -0.3965 -0.2103
  595TMC3    H1 8877   3.183   3.052  14.897 -1.0132  1.7129 -1.6744
  595TMC3    H2 8878   2.819   2.853  14.836  1.1142 -0.2962  0.2807
  595TMC3    C7 8879   2.915   3.061  14.954 -0.4727 -0.3632 -0.4168
  595TMC3    C8 8880   2.885   2.759  14.584 -0.4798 -0.3583 -0.2285
  595TMC3    O1 8881   2.796   3.058  14.937  0.5278  0.5739 -0.6785
  595TMC3    O2 8882   2.927   2.737  14.467 -0.4235  0.0726  1.3429
  596MPD2     C 8883   1.254   0.824  16.649  0.3287 -0.1607 -0.3141
  596MPD2    C1 8884   1.329   0.912  16.578  0.1969 -0.5884  0.0625
  596MPD2    C2 8885   1.338   0.898  16.441 -0.5034 -0.6719  1.9021
  596MPD2    C3 8886   1.296   0.774  16.390 -0.6696 -0.0862  0.7217
  596MPD2    C4 8887   1.246   0.676  16.469  0.4629 -0.0367  0.6574
  596MPD2    C5 8888   1.213   0.707  16.597 -0.4643 -0.6464 -0.3589
  596MPD2     H 8889   1.379   0.975  16.377 -1.8094 -1.6668 -0.1253
  596MPD2    H1 8890   1.211   0.580  16.434  0.6993  0.6311 -1.3816
  596MPD2    H2 8891   1.240   0.835  16.756  1.0129  0.3978 -0.2792
  596MPD2    H3 8892   1.170   0.632  16.662 -2.9205  0.5975 -0.5607
  596MPD2     N 8893   1.318   0.735  16.249  1.1296  0.3663 -0.4664
  596MPD2    H5 8894   1.265   0.654  16.219  0.8613 -0.6599  2.6878
  596MPD2    N1 8895   1.382   1.039  16.636 -0.2416 -0.5395  0.0354
  596MPD2    H7 8896   1.422   1.099  16.565 -0.5386 -0.2644  0.1032
  597TMC3    C1 8897   1.391   1.226  16.775  0.0143 -0.0978 -0.0335
  597TMC3    C2 8898   1.474   1.286  16.683  0.7803 -0.1344  0.1439
  597TMC3    C3 8899   1.525   1.414  16.705 -0.1717  0.2019  0.3663
  597TMC3    C4 8900   1.338   1.293  16.881 -0.6241  0.3905 -0.4102
  597TMC3    C5 8901   1.369   1.424  16.890  0.3635 -0.0686  0.2221
  597TMC3    C6 8902   1.471   1.478  16.813 -0.8391 -0.0970 -0.3516
  597TMC3     C 8903   1.350   1.090  16.759  0.7185 -0.2924 -0.3592
  597TMC3     O 8904   1.280   1.038  16.843  0.4680  0.0822 -0.0195
  597TMC3     H 8905   1.520   1.228  16.603 -0.8166  0.8612 -1.5011
  597TMC3    H1 8906   1.255   1.253  16.937  0.1793 -0.3621  0.2425
  597TMC3    H2 8907   1.515   1.573  16.840  0.0231 -1.1246  1.8939
  597TMC3    C7 8908   1.299   1.502  17.001 -0.4077  0.1074  0.6197
  597TMC3    C8 8909   1.629   1.481  16.633 -0.9747 -0.5631  0.3854
  597TMC3    O1 8910   1.233   1.433  17.077  0.1835 -0.5284 -0.0590
  597TMC3    O2 8911   1.639   1.601  16.652  0.3083 -0.0592 -0.0370
  598TMC3    C1 8912   4.626   2.120  15.525  0.3588 -0.1936  0.3660
  598TMC3    C2 8913   4.590   1.987  15.509 -0.5833 -0.1789 -0.3933
  598TMC3    C3 8914   4.479   1.970  15.430 -0.4917  0.0007  0.5043
  598TMC3    C4 8915   4.561   2.222  15.465  0.8902 -0.1778 -0.9800
  598TMC3    C5 8916   4.458   2.203  15.384 -0.5912  0.2436  0.2182
  598TMC3    C6 8917   4.415   2.075  15.361  0.2275  0.4122  0.3113
  598TMC3     C 8918   4.740   2.147  15.605 -0.2519  0.2565  0.0563
  598TMC3     O 8919   0.052   2.255  15.600 -0.2145 -0.0527 -0.1276
  598TMC3     H 8920   4.644   1.900  15.544  2.6150  2.6483  1.7824
  598TMC3    H1 8921   4.582   2.323  15.498 -0.8810  0.2156 -1.0233
  598TMC3    H2 8922   4.325   2.057  15.304  0.9429  0.8206 -0.9438
  598TMC3    C7 8923   4.448   2.286  15.273  0.2594 -0.6756 -0.5159
  598TMC3    C8 8924   4.418   1.830  15.423 -0.0683 -0.5057 -0.2658
  598TMC3    O1 8925   4.377   2.241  15.185 -0.5529  0.2531  0.5496
  598TMC3    O2 8926   4.476   1.755  15.495  0.0486  0.1508 -0.1027
  599MPD2     C 8927   4.344   4.421  15.785  0.0401 -0.1470  0.2054
  599MPD2    C1 8928   4.439   4.465  15.876 -0.2690 -0.0692 -0.2239
  599MPD2    C2 8929   4.397   4.552  15.978 -0.4965  0.0612  0.0022
  599MPD2    C3 8930   4.263   4.600  15.979 -0.7526  0.0266 -0.5825
  599MPD2    C4 8931   4.168   4.560  15.883  0.0574  0.5283  0.4631
  599MPD2    C5 8932   4.215   4.471  15.790 -1.0196 -0.1691  0.3302
  599MPD2     H 8933   4.465   4.573  16.060 -2.3105 -0.5193  1.6492
  599MPD2    H1 8934   4.062   4.584  15.885 -0.5656 -2.2402  0.5716
  599MPD2    H2 8935   4.372   4.368  15.695 -1.6136 -1.3005  0.3610
  599MPD2    H3 8936   4.139   4.445  15.718  1.8556  0.4819 -2.9597
  599MPD2     N 8937   4.202   4.666  16.087  0.2460  0.1830  0.5257
  599MPD2    H5 8938   4.102   4.680  16.078  0.1384  0.3312  1.9923
  599MPD2    N1 8939   4.562   4.404  15.869 -0.1687 -1.0161  1.2633
  599MPD2    H7 8940   4.569   4.326  15.805  0.7224  1.1481 -1.2394
  600TMC3    C1 8941   4.174   0.033  16.296 -0.1263  0.1984 -0.5140
  600TMC3    C2 8942   4.050   4.719  16.314  0.9322 -0.2146 -0.1026
  600TMC3    C3 8943   3.960   0.017  16.418 -0.0513  0.9074  0.4643
  600TMC3    C4 8944   4.224   0.122  16.385 -0.2934 -0.1150  0.0124
  600TMC3    C5 8945   4.137   0.163  16.481  0.3022  0.6815 -0.1813
  600TMC3    C6 8946   4.008   0.120  16.488  0.0281  0.5888  1.1101
  600TMC3     C 8947   4.266   4.726  16.191  0.0910  0.1650  1.0695
  600TMC3     O 8948   4.387   0.011  16.196 -0.1664  0.0367 -0.1462
  600TMC3     H 8949   4.013   4.630  16.265  0.6232  1.1106 -2.3121
  600TMC3    H1 8950   4.322   0.163  16.362  0.0860 -1.1503 -0.2302
  600TMC3    H2 8951   3.947   0.175  16.559 -0.2639  0.4117  0.9948
  600TMC3    C7 8952   4.167   0.290  16.545  0.1136  0.0424  0.1866
  600TMC3    C8 8953   3.874   4.672  16.489  0.1630  0.6143  0.1663
  600TMC3    O1 8954   4.071   0.367  16.542  0.0568  0.0471 -0.3465
  600TMC3    O2 8955   3.904   4.637  16.603  0.0886  0.0125  0.8417
  601MPD2     C 8956   2.126   3.279  17.042  0.5423 -0.1791 -0.4475
  601MPD2    C1 8957   2.029   3.352  17.106 -0.1413  0.1446 -0.2333
  601MPD2    C2 8958   1.966   3.300  17.220  0.4820 -0.0471  0.0736
  601MPD2    C3 8959   1.999   3.172  17.262  0.2723 -0.0277  0.4439
  601MPD2    C4 8960   2.092   3.095  17.194 -0.0689  0.2373  0.1930
  601MPD2    C5 8961   2.162   3.155  17.090 -0.0781  0.4922  0.6190
  601MPD2     H 8962   1.884   3.363  17.254 -0.1557 -0.8140 -0.0284
  601MPD2    H1 8963   2.106   2.996  17.234 -0.1288 -0.0593 -0.5207
  601MPD2    H2 8964   2.183   3.319  16.959  0.1187  1.2156 -0.0668
  601MPD2    H3 8965   2.233   3.101  17.028 -0.6266 -0.7374  1.0585
  601MPD2     N 8966   1.923   3.110  17.372  0.2428  0.8491  0.9749
  601MPD2    H5 8967   1.949   3.013  17.391  2.0191  1.0422 -0.4673
  601MPD2    N1 8968   1.993   3.481  17.065  0.5016  0.0988  0.0423
  601MPD2    H7 8969   1.926   3.533  17.121  0.3267  0.4920 -0.5428
  602TMC3    C1 8970   2.010   3.685  16.946 -0.3177 -0.1395 -0.2202
  602TMC3    C2 8971   2.007   3.752  17.063  0.4084  0.5571 -0.0126
  602TMC3    C3 8972   1.994   3.890  17.062 -0.2405  0.5937  0.4788
  602TMC3    C4 8973   2.014   3.754  16.825 -0.4494 -0.7362  0.6294
  602TMC3    C5 8974   1.999   3.893  16.827  0.0743  0.1911  0.2522
  602TMC3    C6 8975   1.991   3.969  16.946 -0.0986 -0.2576 -0.0555
  602TMC3     C 8976   2.033   3.539  16.947 -0.3890 -0.0191  0.2826
  602TMC3     O 8977   2.074   3.486  16.844 -0.3716  0.6598 -0.2103
  602TMC3     H 8978   2.000   3.697  17.156  1.8240 -0.2836 -0.3978
  602TMC3    H1 8979   2.038   3.699  16.735  1.3169 -0.7790  1.1311
  602TMC3    H2 8980   1.994   4.077  16.947  1.6654 -0.3060  0.0551
  602TMC3    C7 8981   1.950   3.952  16.705  0.5115 -0.2729  0.3226
  602TMC3    C8 8982   1.913   3.927  17.179 -0.1477 -0.3271  0.2746
  602TMC3    O1 8983   1.976   3.891  16.603  0.3601  0.1945 -0.3399
  602TMC3    O2 8984   1.932   3.871  17.285 -0.0682 -0.2422 -0.0750
  603TMC3    C1 8985   0.344   3.335  11.416 -0.2301 -0.0990  0.2868
  603TMC3    C2 8986   0.439   3.344  11.518  0.4205  0.1550  0.0108
  603TMC3    C3 8987   0.468   3.469  11.573 -0.2267  0.1182 -0.7343
  603TMC3    C4 8988   0.283   3.450  11.366  0.1450 -0.3797 -0.0405
  603TMC3    C5 8989   0.333   3.567  11.405 -0.4230  0.3623  1.2269
  603TMC3    C6 8990   0.412   3.581  11.518 -0.1930 -0.3752  0.1970
  603TMC3     C 8991   0.279   3.205  11.408  0.2037 -0.3144 -0.2868
  603TMC3     O 8992   0.324   3.113  11.475 -0.2183  0.1523 -0.3168
  603TMC3     H 8993   0.479   3.259  11.573 -2.0552  0.3576  2.1084
  603TMC3    H1 8994   0.221   3.436  11.278 -1.7172  2.4387  0.8470
  603TMC3    H2 8995   0.476   3.668  11.521 -1.1414  0.3337 -0.2303
  603TMC3    C7 8996   0.292   3.684  11.324 -0.0782 -0.6084 -0.4369
  603TMC3    C8 8997   0.459   3.460  11.715  0.4610 -0.4759  0.4790
  603TMC3    O1 8998   0.371   3.775  11.314  0.1399  0.4504 -0.7774
  603TMC3    O2 8999   0.463   3.349  11.766 -0.0442  0.4058  0.0357
  604MPD2     C 9000   0.999   2.082  16.529 -0.1965 -0.4586  0.0983
  604MPD2    C1 9001   0.907   2.048  16.446  0.7148  0.4884 -0.2529
  604MPD2    C2 9002   0.917   2.072  16.304 -0.0666  0.5161 -0.7467
  604MPD2    C3 9003   1.027   2.133  16.258  0.0777 -0.1534  0.2835
  604MPD2    C4 9004   1.127   2.171  16.346  0.3678 -0.3030 -0.6311
  604MPD2    C5 9005   1.104   2.154  16.479  0.3669 -0.2163 -0.0331
  604MPD2     H 9006   0.833   2.055  16.238  1.2771 -0.1336 -2.2726
  604MPD2    H1 9007   1.220   2.219  16.320  0.8573 -0.0300  1.7146
  604MPD2    H2 9008   0.991   2.056  16.634 -0.2550  1.1862  0.5094
  604MPD2    H3 9009   1.172   2.201  16.550 -1.8175  0.5348  1.5412
  604MPD2     N 9010   1.046   2.157  16.119 -1.0398  0.1818 -0.2695
  604MPD2    H5 9011   0.970   2.118  16.065 -1.9186  2.3712 -0.5868
  604MPD2    N1 9012   0.782   2.027  16.511  0.0590 -1.0247  0.1977
  604MPD2    H7 9013   0.780   2.026  16.612 -1.6625 -2.8411  0.1436
  605TMC3    C1 9014   0.555   2.063  16.540  0.2865  0.2420  0.2429
  605TMC3    C2 9015   0.596   2.130  16.652  0.1528  0.4742  0.0039
  605TMC3    C3 9016   0.494   2.201  16.715  0.5946  0.0194  0.1102
  605TMC3    C4 9017   0.431   2.083  16.483 -0.1331 -0.4628  0.1474
  605TMC3    C5 9018   0.330   2.153  16.549  0.0071  0.0100 -0.4361
  605TMC3    C6 9019   0.362   2.204  16.672 -0.2462  0.6902 -0.0189
  605TMC3     C 9020   0.658   2.021  16.446  0.0371 -0.4206 -0.0570
  605TMC3     O 9021   0.625   2.022  16.328 -0.7873 -0.0081 -0.7541
  605TMC3     H 9022   0.694   2.133  16.698  0.4633 -1.2108 -0.5152
  605TMC3    H1 9023   0.404   2.035  16.389 -1.0255  0.2289  0.0528
  605TMC3    H2 9024   0.297   2.276  16.720 -2.8677 -1.3208 -0.5397
  605TMC3    C7 9025   0.260   2.244  16.467 -0.4933  0.0045 -0.2249
  605TMC3    C8 9026   0.525   2.286  16.830 -0.0519  0.4546 -0.9219
  605TMC3    O1 9027   0.256   2.355  16.517 -0.2363  0.1030 -0.3731
  605TMC3    O2 9028   0.434   2.307  16.909  0.3654  0.0275 -0.4976
  606TMC3    C1 9029   1.308   1.436  17.624 -0.3763 -0.0067 -0.0231
  606TMC3    C2 9030   1.388   1.395  17.729 -0.0108 -0.6934  0.7502
  606TMC3    C3 9031   1.408   1.263  17.751  0.8126 -0.5520  0.0861
  606TMC3    C4 9032   1.261   1.346  17.531 -0.0954 -0.3061 -0.4625
  606TMC3    C5 9033   1.291   1.215  17.546  0.1555  0.2600 -0.1056
  606TMC3    C6 9034   1.360   1.169  17.657 -0.8172  0.0650  0.8391
  606TMC3     C 9035   1.298   1.577  17.587  0.6338  0.5865  0.5616
  606TMC3     O 9036   1.257   1.602  17.472  0.1269  0.1390 -0.0308
  606TMC3     H 9037   1.460   1.463   0.001  1.8365 -1.7354 -0.6711
  606TMC3    H1 9038   1.213   1.388  17.443  0.9899  1.1099 -0.3831
  606TMC3    H2 9039   1.368   1.067  17.693 -0.4817 -0.2763 -0.2115
  606TMC3    C7 9040   1.300   1.137  17.430 -0.1519 -0.7867 -0.1958
  606TMC3    C8 9041   1.500   1.219   0.083  0.6064 -0.1862 -0.1991
  606TMC3    O1 9042   1.246   1.193  17.335  0.3216 -0.0197 -0.2627
  606TMC3    O2 9043   1.525   1.099   0.078  0.2822 -0.3617 -0.1122
  607MPD2     C 9044   3.821   3.786  11.915  0.2487 -0.2083 -0.8231
  607MPD2    C1 9045   3.843   3.902  11.985 -0.0066 -0.3212  0.7027
  607MPD2    C2 9046   3.799   3.914  12.115 -0.2463  0.2570 -0.7536
  607MPD2    C3 9047   3.738   3.807  12.181  0.0871 -0.1364  0.0905
  607MPD2    C4 9048   3.713   3.694  12.112 -0.0893  0.5745 -0.0664
  607MPD2    C5 9049   3.747   3.686  11.980  0.3610 -0.0241  0.2060
  607MPD2     H 9050   3.820   4.004  12.171 -0.7522 -0.0136 -0.1266
  607MPD2    H1 9051   3.665   3.607  12.157  0.7221  0.0064 -0.3001
  607MPD2    H2 9052   3.850   3.765  11.813 -1.4330 -0.1791 -1.3103
  607MPD2    H3 9053   3.718   3.598  11.924  1.3954  0.7506 -1.5696
  607MPD2     N 9054   3.717   3.824  12.321  0.2732 -0.5357 -0.1384
  607MPD2    H5 9055   3.737   3.912  12.367  0.4438 -2.0437  2.6809
  607MPD2    N1 9056   3.929   4.005  11.931 -0.9456  0.6504 -0.6705
  607MPD2    H7 9057   3.954   4.074  12.002 -1.4983  1.6015 -1.3949
  608TMC3    C1 9058   4.112   4.097  11.822  0.1760  0.9995 -0.3434
  608TMC3    C2 9059   4.171   4.123  11.942 -0.1498  0.4169 -0.1753
  608TMC3    C3 9060   4.292   4.192  11.949 -0.3203 -0.2580 -0.3290
  608TMC3    C4 9061   4.161   4.149  11.711 -0.2409  0.0538 -0.1257
  608TMC3    C5 9062   4.287   4.208  11.720  0.0883 -0.5535 -0.1679
  608TMC3    C6 9063   4.360   4.223  11.834 -0.0083  0.2539 -0.6961
  608TMC3     C 9064   4.007   3.997  11.814 -0.2930 -0.0766  0.6335
  608TMC3     O 9065   3.994   3.946  11.704 -0.0176  0.1919  0.1079
  608TMC3     H 9066   4.137   4.069  12.030 -0.9713 -0.0124 -0.7561
  608TMC3    H1 9067   4.117   4.136  11.613  1.7761 -0.1764 -1.0192
  608TMC3    H2 9068   4.451   4.282  11.838 -0.6934  1.2324  0.5796
  608TMC3    C7 9069   4.355   4.244  11.598  0.5088  0.6058 -0.1482
  608TMC3    C8 9070   4.355   4.198  12.081 -0.5509 -0.1858  0.0132
  608TMC3    O1 9071   4.277   4.264  11.501  0.1261  0.2016 -0.4367
  608TMC3    O2 9072   4.475   4.228  12.089  0.0292  0.2255 -0.5794
  609TMC3    C1 9073   2.680   3.358   9.336  0.2068 -0.0366  0.4828
  609TMC3    C2 9074   2.620   3.437   9.241 -0.3826 -0.9592  0.4810
  609TMC3    C3 9075   2.699   3.473   9.141  0.0404  0.5879  0.1887
  609TMC3    C4 9076   2.803   3.297   9.320 -1.0319  0.4748 -0.8420
  609TMC3    C5 9077   2.865   3.330   9.204 -0.3208  0.0993  0.2258
  609TMC3    C6 9078   2.811   3.413   9.108  0.1852  0.1923 -0.2967
  609TMC3     C 9079   2.607   3.332   9.455  0.2546 -0.2141  0.1427
  609TMC3     O 9080   2.661   3.263   9.539 -0.0408 -0.2587 -0.5906
  609TMC3     H 9081   2.530   3.496   9.253 -0.9411 -2.0223  1.4632
  609TMC3    H1 9082   2.851   3.247   9.403 -3.0511  1.2199  0.7769
  609TMC3    H2 9083   2.871   3.429   9.020 -2.1185  0.4741 -1.7948
  609TMC3    C7 9084   2.965   3.240   9.161  0.4029 -0.1559 -0.4314
  609TMC3    C8 9085   2.640   3.539   9.028 -0.2956  0.1674 -0.1461
  609TMC3    O1 9086   3.038   3.198   9.251  0.4085 -0.2622 -0.3095
  609TMC3    O2 9087   2.519   3.544   9.020 -0.0821  0.0515  0.1190
  610TMC3    C1 9088   4.319   3.456  12.894 -0.5118  0.4885  0.5283
  610TMC3    C2 9089   4.412   3.549  12.853 -0.5166 -0.5783 -0.3968
  610TMC3    C3 9090   4.544   3.509  12.851  0.6091  0.6678 -0.4538
  610TMC3    C4 9091   4.352   3.323  12.917  0.2195 -0.5529  0.0564
  610TMC3    C5 9092   4.491   3.295  12.913  0.2179 -0.4033  0.6825
  610TMC3    C6 9093   4.589   3.387  12.888 -0.3616 -0.1419  0.0067
  610TMC3     C 9094   4.188   3.495  12.951  0.0157  0.0789  0.3657
  610TMC3     O 9095   4.124   3.406  13.001 -0.8484 -0.1066  0.2544
  610TMC3     H 9096   4.379   3.645  12.817  0.3573  0.5584  1.8070
  610TMC3    H1 9097   4.282   3.248  12.950  1.3991 -1.1695  1.1904
  610TMC3    H2 9098   4.690   3.348  12.888  0.4742  1.9696  1.1891
  610TMC3    C7 9099   4.543   3.168  12.950 -0.0548  0.1315  0.2978
  610TMC3    C8 9100   4.640   3.599  12.782  0.1178  0.1435 -0.3169
  610TMC3    O1 9101   4.661   3.154  12.972  0.4347 -0.6841  0.9130
  610TMC3    O2 9102   0.001   3.612  12.834 -0.0446 -0.3217  0.8195
  611MPD2     C 9103   3.518   3.971  11.066 -0.5758  0.3997 -0.3983
  611MPD2    C1 9104   3.533   3.945  10.931 -0.6729  0.1287  0.7337
  611MPD2    C2 9105   3.663   3.931  10.891 -0.1822 -0.0865 -0.2156
  611MPD2    C3 9106   3.769   3.931  10.980 -0.6029  0.3361  0.2128
  611MPD2    C4 9107   3.749   3.959  11.113 -0.5954  0.1978 -0.9427
  611MPD2    C5 9108   3.620   3.978  11.147  0.0692 -0.4535 -0.4493
  611MPD2     H 9109   3.678   3.901  10.788  2.2452  0.6731 -0.0787
  611MPD2    H1 9110   3.827   3.974  11.186 -1.7505 -2.6168  0.8470
  611MPD2    H2 9111   3.425   4.003  11.111 -0.3212 -0.7215  0.9091
  611MPD2    H3 9112   3.597   4.001  11.251  0.4086  1.0598 -0.7097
  611MPD2     N 9113   3.903   3.904  10.947 -0.3754 -0.2543  0.0070
  611MPD2    H5 9114   3.973   3.916  11.020  1.9207 -2.2694 -1.9042
  611MPD2    N1 9115   3.411   3.931  10.850  0.2814 -0.8152  0.0432
  611MPD2    H7 9116   3.324   3.950  10.900  0.5092  2.0836 -0.6737
  612TMC3    C1 9117   4.087   3.794  10.839 -0.1238  0.6007 -0.4693
  612TMC3    C2 9118   4.184   3.863  10.903 -0.0624 -0.2841  0.3244
  612TMC3    C3 9119   4.301   3.801  10.924  0.2869 -0.1043 -0.3092
  612TMC3    C4 9120   4.103   3.666  10.785 -0.2264  0.4183  0.4702
  612TMC3    C5 9121   4.220   3.612  10.807  0.0928 -0.3776  0.5830
  612TMC3    C6 9122   4.323   3.674  10.880 -0.0695  0.2723 -0.8295
  612TMC3     C 9123   3.946   3.836  10.833 -0.5003  0.7454 -0.3579
  612TMC3     O 9124   3.887   3.801  10.729 -0.0767  0.6291  0.4541
  612TMC3     H 9125   4.158   3.962  10.938  1.6135  1.1274 -2.4364
  612TMC3    H1 9126   4.020   3.616  10.737  1.7203 -0.9743 -1.4298
  612TMC3    H2 9127   4.416   3.620  10.892 -1.9460 -2.2475  2.2585
  612TMC3    C7 9128   4.250   3.481  10.758 -0.2305 -0.4603  0.4277
  612TMC3    C8 9129   4.410   3.881  10.983 -0.5246 -0.1914  0.2357
  612TMC3    O1 9130   4.339   3.421  10.812 -0.2636 -0.6613 -0.4356
  612TMC3    O2 9131   4.400   4.001  10.971  0.0943  0.1847  0.2071
  613MPD2     C 9132   3.020   1.004  16.571 -0.1531  0.9524  0.2502
  613MPD2    C1 9133   3.039   0.940  16.454 -0.0686 -0.0952  0.1763
  613MPD2    C2 9134   2.968   0.824  16.426  0.0524  0.6496 -0.9844
  613MPD2    C3 9135   2.874   0.780  16.517 -0.5350  0.0597 -0.5993
  613MPD2    C4 9136   2.852   0.847  16.639 -0.1089  0.0098  0.0507
  613MPD2    C5 9137   2.919   0.968  16.656  0.1998 -0.0656 -0.0825
  613MPD2     H 9138   2.990   0.767  16.336  0.4839  1.0282 -1.1180
  613MPD2    H1 9139   2.772   0.820  16.707 -2.1791 -1.9803 -3.1673
  613MPD2    H2 9140   3.085   1.086  16.595 -1.6023  2.3191 -0.4688
  613MPD2    H3 9141   2.889   1.036  16.735 -1.8070 -2.9154  1.6486
  613MPD2     N 9142   2.789   0.670  16.503 -0.3430  0.1503 -0.4865
  613MPD2    H5 9143   2.733   0.653  16.586  0.9417  1.6423  0.6728
  613MPD2    N1 9144   3.132   0.995  16.358 -0.0908  0.2562  0.2705
  613MPD2    H7 9145   3.176   1.080  16.390  0.5831 -0.0160  0.0728
  614TMC3    C1 9146   3.251   1.017  16.158  0.4017  0.1046 -0.5629
  614TMC3    C2 9147   3.282   0.939  16.050  0.2483  0.0715 -0.9165
  614TMC3    C3 9148   3.229   0.978  15.932  0.5237  0.2812  0.4832
  614TMC3    C4 9149   3.184   1.135  16.150  0.0460 -0.6690  0.4022
  614TMC3    C5 9150   3.133   1.169  16.029 -0.4016  0.4670  0.0117
  614TMC3    C6 9151   3.143   1.084  15.924  0.4047  0.2079 -0.2375
  614TMC3     C 9152   3.184   0.933  16.247  0.0081  0.0063 -0.1630
  614TMC3     O 9153   3.154   0.825  16.198  0.1028 -0.2478 -0.0307
  614TMC3     H 9154   3.341   0.848  16.058  0.1040 -0.1309 -2.1457
  614TMC3    H1 9155   3.172   1.199  16.237 -0.0073 -0.8413  0.5211
  614TMC3    H2 9156   3.098   1.093  15.826  1.0416 -0.2166 -0.5741
  614TMC3    C7 9157   3.027   1.265  16.032 -0.9558  0.1012 -0.2121
  614TMC3    C8 9158   3.193   0.869  15.842 -0.0283  0.2677  0.3705
  614TMC3    O1 9159   3.017   1.336  16.131 -0.5362 -0.0818 -0.3601
  614TMC3    O2 9160   3.189   0.886  15.720  0.1951 -0.7307  0.1281
  615MPD2     C 9161   2.238   2.180  16.672  0.6999  0.0681  0.5126
  615MPD2    C1 9162   2.285   2.305  16.622  0.6061  0.1170 -0.7738
  615MPD2    C2 9163   2.235   2.353  16.506  0.7097 -0.2448  0.5606
  615MPD2    C3 9164   2.145   2.276  16.434 -0.3229  0.9039 -0.9859
  615MPD2    C4 9165   2.106   2.150  16.480  0.0846 -0.3423  0.2805
  615MPD2    C5 9166   2.139   2.120  16.602  0.0020  0.5575  0.5310
  615MPD2     H 9167   2.278   2.444  16.465  1.1183 -1.0163 -0.7277
  615MPD2    H1 9168   2.030   2.091  16.429 -0.8634  1.4281 -0.3802
  615MPD2    H2 9169   2.287   2.126  16.752  0.7563  2.1760  1.8904
  615MPD2    H3 9170   2.113   2.019  16.632  2.8072 -0.0597  0.9107
  615MPD2     N 9171   2.099   2.345  16.321  0.0389  0.4047  0.1041
  615MPD2    H5 9172   2.125   2.443  16.314 -0.6249  0.7343  2.1697
  615MPD2    N1 9173   2.398   2.366  16.679 -0.8399 -0.1906 -0.4668
  615MPD2    H7 9174   2.423   2.455  16.636 -1.1524 -0.2514 -0.7713
  616TMC3    C1 9175   2.589   2.399  16.801 -0.1528 -0.8126  0.2427
  616TMC3    C2 9176   2.626   2.492  16.713  0.3562 -0.6891 -0.0138
  616TMC3    C3 9177   2.746   2.556  16.740 -0.3654 -0.0884 -0.4773
  616TMC3    C4 9178   2.660   2.369  16.915  0.3367  1.4628 -0.3193
  616TMC3    C5 9179   2.777   2.437  16.933 -0.0260 -0.0870  0.2118
  616TMC3    C6 9180   2.818   2.540  16.853 -0.4619  0.2249 -0.4384
  616TMC3     C 9181   2.472   2.322  16.782  0.3545  0.0626  0.5779
  616TMC3     O 9182   2.442   2.243  16.873 -0.4688 -0.3193  0.4750
  616TMC3     H 9183   2.586   2.498  16.612  0.7714 -0.1078 -0.1433
  616TMC3    H1 9184   2.635   2.285  16.978  0.5441  2.2621  0.8174
  616TMC3    H2 9185   2.895   2.612  16.878  0.0843 -0.9809  1.3983
  616TMC3    C7 9186   2.856   2.372  17.030  0.4496  0.1162  0.7623
  616TMC3    C8 9187   2.751   2.686  16.670  0.0093 -0.2520 -0.1233
  616TMC3    O1 9188   2.811   2.306  17.127 -0.0619  0.1908 -0.0548
  616TMC3    O2 9189   2.643   2.724  16.633  0.4657 -0.0483 -0.1007
  617MPD2     C 9190   0.538   0.367  13.918  0.0087 -0.1900  0.4195
  617MPD2    C1 9191   0.564   0.239  13.971 -0.2958 -0.2776 -0.9326
  617MPD2    C2 9192   0.456   0.154  13.999  0.3874 -0.0195 -0.4749
  617MPD2    C3 9193   0.326   0.193  13.975  0.4136 -0.6347  0.6059
  617MPD2    C4 9194   0.302   0.308  13.903  0.0742 -0.3159  0.4075
  617MPD2    C5 9195   0.404   0.402  13.893 -0.1568 -0.3199  0.5934
  617MPD2     H 9196   0.469   0.058  14.047  0.5205 -0.6852 -1.8534
  617MPD2    H1 9197   0.202   0.347  13.886  0.0007  0.2016  2.0499
  617MPD2    H2 9198   0.618   0.440  13.913  1.6355 -1.9151  1.0349
  617MPD2    H3 9199   0.384   0.507  13.873  0.9417 -0.5297 -1.6156
  617MPD2     N 9200   0.221   0.112  14.021 -0.2295 -0.5828 -0.3586
  617MPD2    H5 9201   0.130   0.154  14.004  0.1939  0.6037  0.2364
  617MPD2    N1 9202   0.699   0.212  14.007  0.1100 -0.0910 -0.1022
  617MPD2    H7 9203   0.766   0.289  14.007 -1.6905  1.4830  0.0490
  618TMC3    C1 9204   0.875   0.089  14.097 -0.1596  0.4417 -0.0106
  618TMC3    C2 9205   0.958   4.737  14.055  0.1280  0.0724 -0.3858
  618TMC3    C3 9206   1.095   0.018  14.075 -0.3244 -0.3819  0.1151
  618TMC3    C4 9207   0.904   0.200  14.163 -0.2484 -0.3083  0.3881
  618TMC3    C5 9208   1.036   0.208  14.195 -0.2648 -0.4792  0.4912
  618TMC3    C6 9209   1.137   0.130  14.150  0.6277 -0.9923  0.0996
  618TMC3     C 9210   0.741   0.089  14.040  0.0247  0.0349  0.1831
  618TMC3     O 9211   0.694   4.724  14.013 -0.4111 -0.6533  0.6267
  618TMC3     H 9212   0.915   4.654  14.001  0.7718 -0.2298 -0.4330
  618TMC3    H1 9213   0.826   0.264  14.202 -0.1659 -0.9942  1.6919
  618TMC3    H2 9214   1.242   0.148  14.172 -0.4422  2.6906  2.1487
  618TMC3    C7 9215   1.060   0.321  14.297 -0.2584  0.1466  0.3859
  618TMC3    C8 9216   1.181   4.690  13.984 -0.1266 -0.1970  0.1368
  618TMC3    O1 9217   0.959   0.342  14.367  0.0396 -0.3976 -0.4452
  618TMC3    O2 9218   1.138   4.588  13.931 -0.3620 -0.3120 -0.6447
  619MPD2     C 9219   1.766   1.184  14.410 -0.8699 -0.3124  0.6689
  619MPD2    C1 9220   1.704   1.127  14.299 -0.0121  0.5782 -0.6415
  619MPD2    C2 9221   1.580   1.065  14.312  0.3136 -0.5975 -0.1950
  619MPD2    C3 9222   1.509   1.092  14.427  0.8458  0.2233  0.1544
  619MPD2    C4 9223   1.558   1.166  14.529 -0.7627  0.0950 -0.0927
  619MPD2    C5 9224   1.687   1.207  14.522  0.6065 -1.0270  0.9791
  619MPD2     H 9225   1.541   1.004  14.231  2.1210 -0.9287 -0.8253
  619MPD2    H1 9226   1.516   1.187  14.627  1.1723  1.5750  0.4195
  619MPD2    H2 9227   1.871   1.209  14.401 -0.9989 -0.1730 -0.4598
  619MPD2    H3 9228   1.721   1.262  14.609 -2.8816  1.9399  0.4659
  619MPD2     N 9229   1.372   1.049  14.452 -0.2827 -0.7141 -0.1086
  619MPD2    H5 9230   1.316   1.096  14.522 -0.1832 -0.3138 -0.2987
  619MPD2    N1 9231   1.771   1.123  14.169 -0.1801  0.2180 -0.6236
  619MPD2    H7 9232   1.705   1.081  14.104 -0.7859  1.1222 -0.5863
  620TMC3    C1 9233   1.907   1.190  13.987  0.4825  0.6249 -1.3302
  620TMC3    C2 9234   1.827   1.100  13.919  0.0287  0.5217  0.6341
  620TMC3    C3 9235   1.750   1.145  13.815  0.5916  0.1332  0.5400
  620TMC3    C4 9236   1.924   1.316  13.938  0.3531  0.0253  0.2700
  620TMC3    C5 9237   1.854   1.359  13.826  0.4162  0.6020 -0.6818
  620TMC3    C6 9238   1.772   1.271  13.764  0.0249 -0.2166  1.0495
  620TMC3     C 9239   1.886   1.190  14.133 -0.5532 -0.3189 -0.4267
  620TMC3     O 9240   1.944   1.274  14.198 -0.2928  0.1411  0.0874
  620TMC3     H 9241   1.825   1.000  13.960  0.0841  0.5511  0.7088
  620TMC3    H1 9242   1.960   1.391  14.008 -2.6008 -1.5226  3.4875
  620TMC3    H2 9243   1.724   1.310  13.675  0.1215 -0.7136  0.7826
  620TMC3    C7 9244   1.795   1.492  13.824  0.0438  1.2341  0.4011
  620TMC3    C8 9245   1.612   1.131  13.866  0.5146 -0.3648  0.5275
  620TMC3    O1 9246   1.678   1.492  13.799 -0.5240  0.2329 -0.3933
  620TMC3    O2 9247   1.601   1.047  13.952 -0.2977  0.9943  0.3182
  621MPD2     C 9248   2.635   2.231   9.481  0.0041  0.5590 -0.2246
  621MPD2    C1 9249   2.638   2.199   9.616  0.0861  0.3546  0.7196
  621MPD2    C2 9250   2.713   2.283   9.701 -0.3210  0.2687 -0.0769
  621MPD2    C3 9251   2.762   2.399   9.650  0.3961  0.5161 -0.1245
  621MPD2    C4 9252   2.751   2.429   9.512 -0.3817  0.0184  0.6588
  621MPD2    C5 9253   2.689   2.345   9.424 -0.2139  0.6111 -0.3780
  621MPD2     H 9254   2.711   2.260   9.807  0.8254 -0.6733 -0.2615
  621MPD2    H1 9255   2.781   2.528   9.479  0.7220 -1.3055 -2.2603
  621MPD2    H2 9256   2.584   2.168   9.410  0.2514 -0.9434  0.9439
  621MPD2    H3 9257   2.700   2.359   9.317  1.1855  0.6548 -0.2311
  621MPD2     N 9258   2.832   2.485   9.738 -0.0622 -0.0012  0.0858
  621MPD2    H5 9259   2.862   2.447   9.826  1.2524 -0.0279 -0.3715
  621MPD2    N1 9260   2.581   2.075   9.669  0.0701  0.3547  0.1449
  621MPD2    H7 9261   2.597   2.066   9.769  1.2874  0.5833 -0.0197
  622TMC3    C1 9262   2.474   1.864   9.671  0.0016 -0.1175  0.2198
  622TMC3    C2 9263   2.517   1.854   9.801 -0.2811  0.3662 -0.3702
  622TMC3    C3 9264   2.439   1.780   9.886  0.2295 -0.6543  1.0806
  622TMC3    C4 9265   2.360   1.809   9.637  0.3219 -0.0454  0.0906
  622TMC3    C5 9266   2.276   1.741   9.724 -0.5046 -0.6169  0.2420
  622TMC3    C6 9267   2.311   1.736   9.855  0.4333  0.1219  0.2809
  622TMC3     C 9268   2.519   1.977   9.593  0.0793 -0.4266 -0.8548
  622TMC3     O 9269   2.482   1.987   9.478 -0.2094 -0.5800  0.3382
  622TMC3     H 9270   2.604   1.907   9.836  0.5413 -0.7926 -0.6660
  622TMC3    H1 9271   2.327   1.820   9.534  0.2976  0.2141  0.1271
  622TMC3    H2 9272   2.266   1.671   9.929  1.9284 -0.7222  0.4589
  622TMC3    C7 9273   2.133   1.720   9.715  0.4172  0.2030  0.4731
  622TMC3    C8 9274   2.454   1.827  10.020 -0.0886 -0.4505  0.2618
  622TMC3    O1 9275   2.073   1.686   9.815  0.4981 -0.2135 -0.4827
  622TMC3    O2 9276   2.563   1.825  10.071  0.0816 -0.0603 -0.4103
  623MPD2     C 9277   1.053   2.555  16.111  0.2606 -0.0248  0.6276
  623MPD2    C1 9278   0.991   2.506  16.225  0.3676 -0.1529  0.6650
  623MPD2    C2 9279   1.054   2.520  16.348 -0.3621 -0.2612 -0.1391
  623MPD2    C3 9280   1.181   2.583  16.356 -0.3877 -0.0484 -0.3865
  623MPD2    C4 9281   1.242   2.630  16.245 -0.3582  0.5464 -0.2974
  623MPD2    C5 9282   1.177   2.621  16.128 -0.0557  0.2633 -0.1908
  623MPD2     H 9283   1.000   2.488  16.437 -0.1161  0.0112  0.1113
  623MPD2    H1 9284   1.341   2.674  16.247 -0.2231  0.2352 -0.1834
  623MPD2    H2 9285   1.020   2.550  16.008  1.7376  0.7976  0.1064
  623MPD2    H3 9286   1.235   2.653  16.042  0.3215  0.9633  0.3274
  623MPD2     N 9287   1.233   2.599  16.485 -0.5764  0.2492 -0.4332
  623MPD2    H5 9288   1.170   2.583  16.563  0.1500  2.1425  0.5331
  623MPD2    N1 9289   0.867   2.433  16.211 -0.0464 -0.6084  0.7387
  623MPD2    H7 9290   0.829   2.400  16.299 -1.2879 -2.6379 -0.5601
  624TMC3    C1 9291   1.443   2.586  16.859 -0.6520 -0.1195 -0.1155
  624TMC3    C2 9292   1.323   2.608  16.922 -0.1152 -0.4789 -0.4858
  624TMC3    C3 9293   1.223   2.662  16.843  0.0668  0.1625  0.2346
  624TMC3    C4 9294   1.473   2.624  16.731  0.0435  0.5055 -0.7522
  624TMC3    C5 9295   1.360   2.659  16.660  0.3157 -0.2517  0.4163
  624TMC3    C6 9296   1.245   2.705  16.712  0.1057 -0.6263  0.6003
  624TMC3     C 9297   1.538   2.503  16.930 -0.0586  0.1164 -0.4197
  624TMC3     O 9298   1.500   2.436  17.025  0.7292  0.1309 -0.3465
  624TMC3     H 9299   1.305   2.583  17.026 -0.5680  0.7971 -0.2510
  624TMC3    H1 9300   1.559   2.591  16.674 -0.3208  1.6455 -1.9457
  624TMC3    H2 9301   1.156   2.740  16.662  0.1122 -0.1522  0.9261
  624TMC3    C7 9302   1.353   2.654  16.522 -0.1642 -0.3304 -0.1700
  624TMC3    C8 9303   1.092   2.605  16.844 -0.0502 -0.1728 -0.0219
  624TMC3    O1 9304   1.440   2.702  16.446  0.5929  0.0494  0.2023
  624TMC3    O2 9305   1.060   2.562  16.733  0.0754 -0.1684 -0.0757
  625MPD2     C 9306   0.713   3.364   0.711  0.3812  0.3596  0.2464
  625MPD2    C1 9307   0.745   3.480   0.637 -0.7134 -0.4870 -0.2731
  625MPD2    C2 9308   0.880   3.499   0.631  0.1735  0.2919 -0.2316
  625MPD2    C3 9309   0.975   3.420   0.694 -0.3702  0.5187 -0.7277
  625MPD2    C4 9310   0.936   3.302   0.764 -0.5617  0.1361 -0.0128
  625MPD2    C5 9311   0.802   3.279   0.766 -0.1472  0.2597  0.8029
  625MPD2     H 9312   0.924   3.584   0.581  0.3316 -0.3607 -1.1917
  625MPD2    H1 9313   1.007   3.230   0.803 -0.7133 -0.4166 -0.7529
  625MPD2    H2 9314   0.610   3.342   0.735  1.5117 -3.2752  1.8683
  625MPD2    H3 9315   0.772   3.189   0.819  0.2532 -0.1580  0.3162
  625MPD2     N 9316   1.109   3.452   0.675 -0.1564  0.0897  0.1700
  625MPD2    H5 9317   1.126   3.534   0.617 -3.6382  0.9547  0.3689
  625MPD2    N1 9318   0.649   3.576   0.599 -0.3964 -0.0390 -0.0057
  625MPD2    H7 9319   0.684   3.651   0.540 -1.4979 -1.4036 -2.3850
  626TMC3    C1 9320   0.455   3.695   0.575 -0.3696  0.4531 -0.7243
  626TMC3    C2 9321   0.494   3.741   0.450  0.2069 -0.0561 -0.0564
  626TMC3    C3 9322   0.463   3.874   0.416  0.3441  0.6621 -0.0868
  626TMC3    C4 9323   0.391   3.777   0.662 -0.0288 -0.1504  0.4245
  626TMC3    C5 9324   0.355   3.903   0.625  0.0972  0.4897 -0.1981
  626TMC3    C6 9325   0.404   3.954   0.511  0.2172  0.2103  0.3030
  626TMC3     C 9326   0.516   3.577   0.627  0.3166 -0.1010  0.2885
  626TMC3     O 9327   0.457   3.519   0.719 -0.0745  0.1847 -0.2946
  626TMC3     H 9328   0.550   3.670   0.391  4.1171  2.7253  0.3063
  626TMC3    H1 9329   0.366   3.737   0.760  0.6239 -2.0418 -0.1641
  626TMC3    H2 9330   0.386   4.058   0.483 -1.7791  0.2557  1.6875
  626TMC3    C7 9331   0.360   3.992   0.739 -0.0105  0.3200  0.1900
  626TMC3    C8 9332   0.510   3.932   0.292 -0.2497 -0.6254 -0.1876
  626TMC3    O1 9333   0.422   3.943   0.836 -0.1635 -0.5065 -0.6022
  626TMC3    O2 9334   0.482   4.047   0.272 -0.6268 -0.0823 -0.2586
  627MPD2     C 9335   0.344   3.599  14.179 -0.3622 -0.6751  0.6294
  627MPD2    C1 9336   0.302   3.620  14.310  0.3855 -0.0425 -0.4477
  627MPD2    C2 9337   0.187   3.558  14.357  0.7077 -0.2915  0.1641
  627MPD2    C3 9338   0.125   3.470  14.265  0.0871  0.1559  0.3560
  627MPD2    C4 9339   0.180   3.436  14.142  0.0040 -0.0815 -0.4282
  627MPD2    C5 9340   0.289   3.501  14.106 -0.2424 -0.7494  0.3158
  627MPD2     H 9341   0.153   3.559  14.460 -1.1004  1.0546 -0.4475
  627MPD2    H1 9342   0.145   3.358  14.075  1.6881 -0.2199 -1.1395
  627MPD2    H2 9343   0.425   3.653  14.132 -1.9900 -0.3809 -1.8098
  627MPD2    H3 9344   0.334   3.479  14.010  0.6690  0.1770  0.5290
  627MPD2     N 9345   0.007   3.405  14.314  0.6248 -0.2417  0.3044
  627MPD2    H5 9346   4.717   3.459  14.393  0.1200  0.7388 -0.5774
  627MPD2    N1 9347   0.364   3.701  14.406  0.3202 -0.2465 -0.4834
  627MPD2    H7 9348   0.310   3.711  14.491 -0.4854 -0.4867 -0.9711
  628TMC3    C1 9349   0.525   3.786  14.532  0.2944  0.3794  0.6505
  628TMC3    C2 9350   0.640   3.732  14.590  0.9779  0.2612 -0.1017
  628TMC3    C3 9351   0.661   3.755  14.722  0.7223  0.0843  0.0834
  628TMC3    C4 9352   0.450   3.878  14.597  0.3059  0.3792  0.0874
  628TMC3    C5 9353   0.485   3.916  14.721 -0.5267  0.4886  0.2084
  628TMC3    C6 9354   0.585   3.849  14.788  0.2393  1.1960 -0.2778
  628TMC3     C 9355   0.493   3.738  14.403  0.5071 -0.1331 -0.5936
  628TMC3     O 9356   0.583   3.698  14.334 -0.0502 -0.4651 -0.4906
  628TMC3     H 9357   0.693   3.656  14.535 -0.4230 -0.3916 -0.5606
  628TMC3    H1 9358   0.367   3.917  14.540 -1.1948 -4.3786 -0.9919
  628TMC3    H2 9359   0.597   3.875  14.892  0.3199  1.1917 -0.2862
  628TMC3    C7 9360   0.453   4.044  14.762 -0.3424  0.2998  0.0997
  628TMC3    C8 9361   0.765   3.676  14.788  0.2196  0.0229  0.1290
  628TMC3    O1 9362   0.497   4.073  14.872  0.6101  0.1809 -0.2581
  628TMC3    O2 9363   0.867   3.644  14.733 -0.3250  0.9592 -0.3093
  629MPD2     C 9364   2.986   3.108  16.526 -0.5006  0.7193  0.9396
  629MPD2    C1 9365   3.084   3.016  16.545  0.0175 -0.1237  0.1427
  629MPD2    C2 9366   3.049   2.890  16.588  0.1715  0.5386  0.0554
  629MPD2    C3 9367   2.914   2.863  16.610  0.6125  0.0240  0.2637
  629MPD2    C4 9368   2.817   2.954  16.584 -0.5928 -0.2401 -0.1382
  629MPD2    C5 9369   2.851   3.078  16.543  0.6364 -0.1590  0.1405
  629MPD2     H 9370   3.119   2.814  16.619 -0.3476 -0.4368 -1.1429
  629MPD2    H1 9371   2.711   2.939  16.606 -0.5581  0.4280  0.4478
  629MPD2    H2 9372   3.014   3.207  16.491 -1.8309  1.0667  0.8439
  629MPD2    H3 9373   2.780   3.156  16.518 -0.8287 -1.5734 -0.1391
  629MPD2     N 9374   2.877   2.735  16.661 -0.0208  0.3413  0.3808
  629MPD2    H5 9375   2.956   2.674  16.684 -1.5472 -1.3971  1.0114
  629MPD2    N1 9376   3.218   3.061  16.514 -0.2647  0.3184  0.6855
  629MPD2    H7 9377   3.247   3.156  16.495 -2.0585  0.7451 -0.0111
  630TMC3    C1 9378   3.456   3.050  16.515 -0.1531 -1.3093 -0.0275
  630TMC3    C2 9379   3.464   3.173  16.452  0.3585 -0.6579 -0.2944
  630TMC3    C3 9380   3.576   3.248  16.493  0.2419  0.3271  0.8962
  630TMC3    C4 9381   3.553   3.001  16.597  0.3014 -0.1985 -0.5914
  630TMC3    C5 9382   3.657   3.083  16.634  0.1616  1.0265  0.1065
  630TMC3    C6 9383   3.681   3.200  16.580 -0.3449 -0.1827  0.5094
  630TMC3     C 9384   3.328   2.981  16.526  0.1097 -0.0488 -0.0933
  630TMC3     O 9385   3.335   2.862  16.550 -0.0984 -0.1920 -0.3249
  630TMC3     H 9386   3.400   3.200  16.369  1.6267  0.4607 -0.9058
  630TMC3    H1 9387   3.522   2.915  16.656  1.4218 -0.1422  0.0778
  630TMC3    H2 9388   3.759   3.264  16.619  1.1248 -0.6095 -1.7379
  630TMC3    C7 9389   3.750   3.020  16.721  0.1491  0.3290  0.7759
  630TMC3    C8 9390   3.601   3.379  16.438 -0.7134 -0.1758 -0.5393
  630TMC3    O1 9391   3.709   2.925  16.781  0.3675 -0.5668 -1.0301
  630TMC3    O2 9392   3.705   3.436  16.465  0.5428  0.3775  0.0830
  631MPD2     C 9393   1.296   2.695  15.714  0.1187  0.2551 -0.5896
  631MPD2    C1 9394   1.402   2.784  15.723  0.1097  0.3532 -0.0193
  631MPD2    C2 9395   1.522   2.745  15.772 -0.7407  0.1719 -0.1038
  631MPD2    C3 9396   1.537   2.615  15.814 -0.0980  0.8939  0.3482
  631MPD2    C4 9397   1.426   2.525  15.812 -0.4126  0.0804  0.5521
  631MPD2    C5 9398   1.309   2.570  15.762 -0.6444  1.0344 -0.0502
  631MPD2     H 9399   1.612   2.805  15.776  0.5264 -1.6836 -0.6163
  631MPD2    H1 9400   1.437   2.418  15.825 -2.2179 -0.1208  0.5007
  631MPD2    H2 9401   1.196   2.721  15.684  0.1410  0.1773 -0.7365
  631MPD2    H3 9402   1.217   2.513  15.767 -0.7098  1.2235  0.8779
  631MPD2     N 9403   1.664   2.578  15.866 -0.2693  0.2392 -0.0457
  631MPD2    H5 9404   1.735   2.650  15.870  0.6018 -0.6105 -0.1352
  631MPD2    N1 9405   1.370   2.914  15.678 -0.6482  0.3909 -0.3697
  631MPD2    H7 9406   1.271   2.932  15.662 -0.4061  2.0632  0.0088
  632TMC3    C1 9407   1.380   3.142  15.625  0.2328 -0.2863  0.1446
  632TMC3    C2 9408   1.249   3.160  15.659  0.2475 -0.5562  0.5140
  632TMC3    C3 9409   1.180   3.249  15.593  0.5418  0.1564  0.0304
  632TMC3    C4 9410   1.447   3.210  15.527  0.8102  0.2859  0.9017
  632TMC3    C5 9411   1.368   3.288  15.445 -0.1350  0.1926 -0.6392
  632TMC3    C6 9412   1.232   3.308  15.476 -0.5253 -0.1831 -0.0520
  632TMC3     C 9413   1.454   3.023  15.660 -0.2912  0.3386 -0.1912
  632TMC3     O 9414   1.578   3.010  15.666 -0.1993  0.1256 -0.1974
  632TMC3     H 9415   1.222   3.125  15.758  1.5352 -0.9278  0.7358
  632TMC3    H1 9416   1.546   3.179  15.497 -0.2952 -0.5201 -1.9307
  632TMC3    H2 9417   1.184   3.381  15.411 -0.1788  0.5657  0.5403
  632TMC3    C7 9418   1.425   3.340  15.316 -0.0832  0.3703 -0.2310
  632TMC3    C8 9419   1.034   3.262  15.620  0.1202  0.5774  0.1168
  632TMC3    O1 9420   1.349   3.389  15.229 -0.1220  0.3793  0.2266
  632TMC3    O2 9421   0.999   3.246  15.737 -0.1542 -0.4171  0.1490
  633MPD2     C 9422   1.029   0.858  17.352 -0.4657 -0.2120 -0.1526
  633MPD2    C1 9423   1.046   0.779  17.239 -0.2780 -0.1726  0.0068
  633MPD2    C2 9424   1.086   0.648  17.261  0.3178  0.3352  0.2647
  633MPD2    C3 9425   1.120   0.607  17.388  0.5886 -0.3183 -0.3413
  633MPD2    C4 9426   1.117   0.694  17.490 -0.0084 -1.0445 -0.6048
  633MPD2    C5 9427   1.078   0.819  17.472 -0.6667  0.8949  0.1374
  633MPD2     H 9428   1.099   0.584  17.175 -1.2221 -0.9968  1.0109
  633MPD2    H1 9429   1.160   0.662  17.584  1.0261 -0.7176 -0.9673
  633MPD2    H2 9430   1.000   0.961  17.367 -0.4174 -0.1534 -0.4613
  633MPD2    H3 9431   1.068   0.892  17.552  0.4526 -0.2554  1.3191
  633MPD2     N 9432   1.168   0.476  17.416 -0.4176 -0.3651 -0.7596
  633MPD2    H5 9433   1.197   0.454  17.510  2.1370  0.2478 -1.4234
  633MPD2    N1 9434   1.015   0.827  17.108 -0.8278  0.2898  0.1066
  633MPD2    H7 9435   1.038   0.766  17.030 -0.3011 -0.5117  0.8983
  634TMC3    C1 9436   0.958   0.971  16.935 -1.1531  0.1342  0.3470
  634TMC3    C2 9437   0.903   0.875  16.861  0.1272  0.6475  0.7377
  634TMC3    C3 9438   0.895   0.891  16.730  1.0658  0.2106  0.4529
  634TMC3    C4 9439   1.007   1.086  16.882  0.2885  0.0690  0.0768
  634TMC3    C5 9440   0.985   1.109  16.749 -0.2676  0.3242 -1.1912
  634TMC3    C6 9441   0.932   1.010  16.670  0.5053  0.4101 -0.1326
  634TMC3     C 9442   0.974   0.955  17.082 -0.5425  0.4576  0.6374
  634TMC3     O 9443   0.932   1.049  17.149 -0.2978 -0.3159  0.3672
  634TMC3     H 9444   0.866   0.783  16.907 -1.4665  1.5134  1.1798
  634TMC3    H1 9445   1.040   1.164  16.950 -1.2978  0.9449 -0.1636
  634TMC3    H2 9446   0.922   1.017  16.562 -1.0205  1.3303  0.0668
  634TMC3    C7 9447   1.017   1.240  16.695  0.5162  0.2857  0.3690
  634TMC3    C8 9448   0.807   0.797  16.661 -0.3673 -0.3352  0.1846
  634TMC3    O1 9449   1.046   1.254  16.575 -0.0496  0.7251 -0.3687
  634TMC3    O2 9450   0.714   0.752  16.730 -0.4561 -0.3912  0.1526
  635TMC3    C1 9451   1.059   2.638   0.352  0.2900  0.5575 -0.1820
  635TMC3    C2 9452   1.129   2.523   0.371 -0.3610  0.3770 -0.2385
  635TMC3    C3 9453   1.097   2.451   0.480 -0.3297 -0.0933  0.5147
  635TMC3    C4 9454   0.937   2.658   0.408 -0.5970  0.3648  0.2762
  635TMC3    C5 9455   0.886   2.568   0.498  0.0831 -0.0944  0.3020
  635TMC3    C6 9456   0.966   2.460   0.527  0.1939 -1.3485 -0.2030
  635TMC3     C 9457   1.124   2.737   0.263 -0.2883 -0.2320 -0.1865
  635TMC3     O 9458   1.239   2.712   0.221  0.5611  0.5731 -0.2560
  635TMC3     H 9459   1.226   2.523   0.324 -1.2683 -1.6248 -2.0914
  635TMC3    H1 9460   0.885   2.752   0.392  1.4262  1.4973  0.4662
  635TMC3    H2 9461   0.938   2.389   0.604  0.3883 -0.6793  0.4798
  635TMC3    C7 9462   0.795   2.625   0.591  0.1552 -0.2752  0.7032
  635TMC3    C8 9463   1.182   2.354   0.541  0.8411 -0.1969  0.0730
  635TMC3    O1 9464   0.838   2.728   0.649 -0.3586  0.3277  0.1267
  635TMC3    O2 9465   1.132   2.277   0.623 -0.4082  0.2977 -0.6059
  636MPD2     C 9466   2.253   1.137  16.264  0.2238  0.3039  0.7169
  636MPD2    C1 9467   2.379   1.127  16.318 -0.4252  0.5026  0.0812
  636MPD2    C2 9468   2.420   1.002  16.351 -0.5606 -0.0309  0.4320
  636MPD2    C3 9469   2.348   0.889  16.310 -0.1970  0.2476 -0.4299
  636MPD2    C4 9470   2.232   0.905  16.249 -0.1676  1.0369  0.6975
  636MPD2    C5 9471   2.179   1.028  16.240  0.8432  0.3468  0.9675
  636MPD2     H 9472   2.521   0.996  16.390 -1.3237 -2.1809  2.0859
  636MPD2    H1 9473   2.167   0.826  16.215  1.6268 -0.0354 -0.2202
  636MPD2    H2 9474   2.214   1.230  16.224 -2.5829 -0.7319  1.0062
  636MPD2    H3 9475   2.081   1.021  16.193  1.8846 -0.1931 -1.1367
  636MPD2     N 9476   2.405   0.764  16.327 -0.0542 -0.3299 -0.1118
  636MPD2    H5 9477   2.497   0.759  16.370 -0.4002 -1.5922  0.4672
  636MPD2    N1 9478   2.468   1.236  16.343 -0.4540  0.2191  0.8788
  636MPD2    H7 9479   2.558   1.213  16.383  0.5387 -0.6767 -1.9000
  637TMC3    C1 9480   2.468   0.553  16.296  0.2036  0.0770 -0.4646
  637TMC3    C2 9481   2.563   0.567  16.393 -0.2212  0.3449  0.2782
  637TMC3    C3 9482   2.679   0.499  16.381  0.3367 -0.0253  0.2227
  637TMC3    C4 9483   2.481   0.470  16.188  0.0661 -0.2003  0.1381
  637TMC3    C5 9484   2.606   0.399  16.181 -0.3688  0.0874  0.1567
  637TMC3    C6 9485   2.700   0.407  16.281 -0.0065  0.1232 -0.1994
  637TMC3     C 9486   2.364   0.645  16.278 -0.0141  0.2936 -0.2457
  637TMC3     O 9487   2.264   0.615  16.206  0.7517 -0.3441 -0.2316
  637TMC3     H 9488   2.556   0.638  16.475 -0.4970 -0.5512  1.0445
  637TMC3    H1 9489   2.411   0.477  16.106 -1.7792 -0.4727  1.7011
  637TMC3    H2 9490   2.801   0.370  16.265  0.2769  0.4316  0.9252
  637TMC3    C7 9491   2.661   0.407  16.049  0.9956 -0.2631 -0.6788
  637TMC3    C8 9492   2.785   0.590  16.385  0.2669  0.3818 -0.1839
  637TMC3    O1 9493   2.593   0.382  15.949  0.1633  0.0228  0.2463
  637TMC3    O2 9494   2.869   0.587  16.294  0.0996  0.5273 -0.3498
  638MPD2     C 9495   2.116   4.617  14.958 -0.6216 -0.8220  0.6372
  638MPD2    C1 9496   2.148   4.498  14.901 -0.7910 -0.8105  0.1797
  638MPD2    C2 9497   2.132   4.386  14.992 -0.8764 -0.0847 -0.6193
  638MPD2    C3 9498   2.084   4.398  15.119  0.7869  0.1806  1.0417
  638MPD2    C4 9499   2.060   4.521  15.173  0.5652  0.2804 -0.0154
  638MPD2    C5 9500   2.075   4.630  15.090 -0.3542 -0.0455 -0.5392
  638MPD2     H 9501   2.153   4.285  14.961 -0.5039  0.0078 -0.6710
  638MPD2    H1 9502   2.036   4.541  15.277 -1.0428 -0.1514 -0.3041
  638MPD2    H2 9503   2.121   4.704  14.894  0.6423 -1.1816  0.2506
  638MPD2    H3 9504   2.051   4.728  15.130 -1.1121  0.6490 -2.6837
  638MPD2     N 9505   2.056   4.286  15.198 -0.3177  0.2483  0.7498
  638MPD2    H5 9506   2.094   4.194  15.175 -1.8996 -0.4373  0.8440
  638MPD2    N1 9507   2.175   4.467  14.762  0.1211 -0.3434  0.6474
  638MPD2    H7 9508   2.203   4.372  14.741  0.3280 -1.0707  4.2709
  639TMC3    C1 9509   1.995   4.141  15.339 -0.1741  1.1047  0.5825
  639TMC3    C2 9510   1.936   4.061  15.246 -0.6891  0.5026 -0.1360
  639TMC3    C3 9511   1.989   3.934  15.229 -0.4561 -0.7938 -1.1721
  639TMC3    C4 9512   2.108   4.104  15.398  1.0193 -0.1726 -1.0414
  639TMC3    C5 9513   2.171   3.990  15.359  0.2628 -0.7634 -0.1993
  639TMC3    C6 9514   2.115   3.899  15.274 -0.4676  0.4982 -0.2087
  639TMC3     C 9515   1.986   4.277  15.312  0.0861  0.2685  0.0341
  639TMC3     O 9516   1.903   4.354  15.357  0.3080 -0.0864 -0.1138
  639TMC3     H 9517   1.855   4.101  15.187 -0.4856 -0.5374 -1.1136
  639TMC3    H1 9518   2.157   4.171  15.468  0.9878  1.0215 -2.1816
  639TMC3    H2 9519   2.157   3.799  15.262  0.0562  0.6287  0.5601
  639TMC3    C7 9520   2.294   3.961  15.414 -0.2896  0.0428  0.2758
  639TMC3    C8 9521   1.941   3.849  15.121 -0.4550  0.3908  0.1027
  639TMC3    O1 9522   2.315   3.979  15.532 -0.6799  0.2148  0.4458
  639TMC3    O2 9523   2.020   3.827  15.030 -0.9590  0.3244  0.0989
  640MPD2     C 9524   2.922   3.391  10.376  0.4240 -0.1985  0.2255
  640MPD2    C1 9525   2.907   3.503  10.296  0.5496 -0.4585 -0.0408
  640MPD2    C2 9526   2.822   3.606  10.339  0.2110 -0.2791 -0.3976
  640MPD2    C3 9527   2.764   3.597  10.462 -0.7630  0.0301 -0.2978
  640MPD2    C4 9528   2.778   3.489  10.544 -0.1267  0.8389 -0.1121
  640MPD2    C5 9529   2.860   3.392  10.497  0.2582  0.2517 -0.9308
  640MPD2     H 9530   2.798   3.690  10.275  2.0692  0.3431 -0.2781
  640MPD2    H1 9531   2.736   3.478  10.644  1.1837  2.0969  0.5774
  640MPD2    H2 9532   2.986   3.307  10.354 -1.3886 -2.1624  2.4618
  640MPD2    H3 9533   2.866   3.298  10.551 -0.3493  0.1516 -1.0447
  640MPD2     N 9534   2.679   3.699  10.509  0.1024 -0.5621  0.0647
  640MPD2    H5 9535   2.628   3.681  10.595 -0.0889 -1.4768 -0.2436
  640MPD2    N1 9536   2.976   3.504  10.172  0.2958 -0.2401  0.3650
  640MPD2    H7 9537   3.027   3.417  10.159 -0.1691 -0.6423  1.2582
  641TMC3    C1 9538   2.998   3.538   9.943 -0.5445 -0.0288  0.2727
  641TMC3    C2 9539   3.096   3.443   9.927 -0.0171  0.2556  0.4420
  641TMC3    C3 9540   3.093   3.386   9.802 -0.1162  0.0445  0.3252
  641TMC3    C4 9541   2.924   3.592   9.840  0.5331 -0.3504 -0.2006
  641TMC3    C5 9542   2.921   3.529   9.719 -0.0017  0.0946 -0.2391
  641TMC3    C6 9543   3.016   3.431   9.700  0.0768  0.5302  0.2730
  641TMC3     C 9544   2.946   3.584  10.071  0.2048  0.1430 -0.3978
  641TMC3     O 9545   2.878   3.685  10.069 -0.3730  0.0629 -0.1373
  641TMC3     H 9546   3.172   3.426  10.002  1.9834 -0.3501 -1.7128
  641TMC3    H1 9547   2.843   3.663   9.854  0.4690 -0.6035  0.7219
  641TMC3    H2 9548   3.010   3.375   9.607  1.5571  1.9994 -0.6938
  641TMC3    C7 9549   2.851   3.576   9.601 -0.6202 -0.5415 -0.0409
  641TMC3    C8 9550   3.200   3.292   9.769  0.0283 -0.0877 -0.4916
  641TMC3    O1 9551   2.902   3.553   9.492 -0.6510  0.2659 -0.1260
  641TMC3    O2 9552   3.206   3.273   9.648 -0.5007  0.4644 -0.2219
  642TMC3    C1 9553   3.710   4.511  12.630 -0.1775  0.3215  0.3871
  642TMC3    C2 9554   3.837   4.537  12.581 -0.4766  0.6917 -0.0093
  642TMC3    C3 9555   3.861   4.500  12.453 -0.6143  0.5584  0.1250
  642TMC3    C4 9556   3.617   4.438  12.565  0.2715  0.0161 -0.1426
  642TMC3    C5 9557   3.643   4.413  12.434 -0.5501 -0.3065  0.0285
  642TMC3    C6 9558   3.760   4.441  12.376  0.3774  0.0928 -0.9123
  642TMC3     C 9559   3.677   4.568  12.761 -0.4790 -0.2006  0.9342
  642TMC3     O 9560   3.758   4.616  12.843 -0.6102 -0.1905 -0.0789
  642TMC3     H 9561   3.908   4.589  12.644  0.8569 -0.5758 -0.4847
  642TMC3    H1 9562   3.526   4.397  12.609 -0.6508  1.9438 -0.2323
  642TMC3    H2 9563   3.782   4.421  12.272 -1.2809 -1.3578 -0.9826
  642TMC3    C7 9564   3.573   4.310  12.366 -1.0559  0.7678 -0.1146
  642TMC3    C8 9565   3.992   4.493  12.395  0.7964 -0.1690  0.1699
  642TMC3    O1 9566   3.582   4.318  12.244 -0.2630  0.1075 -0.1448
  642TMC3    O2 9567   4.014   4.413  12.304 -0.6382  0.1790  0.2402
  643TMC3    C1 9568   2.931   3.420  17.668 -0.5414 -0.0431 -0.0025
  643TMC3    C2 9569   2.804   3.416  17.614 -0.1429 -0.5260 -0.1335
  643TMC3    C3 9570   2.787   3.355  17.488  0.4337 -0.1644 -0.5356
  643TMC3    C4 9571   3.041   3.373  17.596 -0.6813 -0.2082  0.2152
  643TMC3    C5 9572   3.023   3.331  17.470  0.1773 -0.6486 -0.8222
  643TMC3    C6 9573   2.896   3.309  17.422  0.1079 -0.0631 -0.4085
  643TMC3     C 9574   2.948   3.520   0.009  0.3072 -0.4763  0.0070
  643TMC3     O 9575   2.861   3.606   0.015  0.0570 -0.2696  0.1940
  643TMC3     H 9576   2.725   3.469  17.665  1.4077  1.9014 -0.2523
  643TMC3    H1 9577   3.137   3.408  17.630 -1.4398  1.8167  0.2804
  643TMC3    H2 9578   2.881   3.267  17.323 -1.7016 -1.2358  0.3707
  643TMC3    C7 9579   3.094   3.419  17.370 -0.4982  0.4169  0.4724
  643TMC3    C8 9580   2.713   3.441  17.401 -0.1571 -0.0883 -0.0796
  643TMC3    O1 9581   3.143   3.524  17.413  0.3003 -0.3137  0.5339
  643TMC3    O2 9582   2.658   3.406  17.302  0.5799  0.1210 -0.1681
  644MPD2     C 9583   2.625   4.178   9.245  0.2661 -0.1778 -0.3745
  644MPD2    C1 9584   2.692   4.173   9.366  0.5175  0.2383 -0.0741
  644MPD2    C2 9585   2.652   4.260   9.466 -0.8589  0.1643  0.0084
  644MPD2    C3 9586   2.546   4.350   9.450 -0.3209 -0.1006 -0.2785
  644MPD2    C4 9587   2.481   4.344   9.332  0.0120 -0.1887 -0.1269
  644MPD2    C5 9588   2.515   4.258   9.226 -0.3815  0.4745 -0.0326
  644MPD2     H 9589   2.703   4.260   9.562  1.7751 -0.3568 -1.3705
  644MPD2    H1 9590   2.389   4.399   9.317 -0.0695  0.3437  2.3196
  644MPD2    H2 9591   2.644   4.108   9.164  0.6557 -0.0744 -0.3717
  644MPD2    H3 9592   2.456   4.254   9.135  0.4527  0.4054 -0.5708
  644MPD2     N 9593   2.514   4.448   9.547  0.2886 -0.4036 -0.0018
  644MPD2    H5 9594   2.579   4.442   9.624 -1.4990  0.5268  1.5660
  644MPD2    N1 9595   2.792   4.071   9.375 -0.7270 -0.6538  0.8507
  644MPD2    H7 9596   2.784   3.997   9.306  3.5971  1.3589 -1.8422
  645TMC3    C1 9597   2.438   4.653   9.637 -0.0484 -0.5465  0.1563
  645TMC3    C2 9598   2.436   0.040   9.593  0.1245 -0.8061 -0.5210
  645TMC3    C3 9599   2.478   0.142   9.669 -0.0008 -0.2160  0.3436
  645TMC3    C4 9600   2.486   4.622   9.759 -0.6437 -0.1897 -0.8833
  645TMC3    C5 9601   2.517   4.728   9.839  0.2306  0.5903  0.1635
  645TMC3    C6 9602   2.505   0.118   9.801  0.7539  0.2099 -0.0797
  645TMC3     C 9603   2.416   4.546   9.543 -0.1543  0.1474  0.7628
  645TMC3     O 9604   2.335   4.574   9.451 -0.2182  0.3365 -0.0791
  645TMC3     H 9605   2.403   0.056   9.491 -1.0630 -0.0188 -0.0145
  645TMC3    H1 9606   2.496   4.520   9.795  0.5234  0.4681  0.6112
  645TMC3    H2 9607   2.528   0.191   9.878  0.5936  0.9942 -0.7769
  645TMC3    C7 9608   2.567   4.696   9.968  0.3250 -0.2591  0.7215
  645TMC3    C8 9609   2.485   0.272   9.602 -0.4745  0.2635  0.6060
  645TMC3    O1 9610   2.528   4.590  10.010 -0.0857 -0.3554 -0.1463
  645TMC3    O2 9611   2.576   0.352   9.638 -0.3090 -0.0030  0.5639
  646MPD2     C 9612   2.438   3.056  14.703 -0.5122  0.5062 -0.0360
  646MPD2    C1 9613   2.370   3.128  14.800  0.7122 -0.4798 -0.0832
  646MPD2    C2 9614   2.274   3.226  14.766 -0.1038  0.1496 -0.3838
  646MPD2    C3 9615   2.247   3.243  14.635 -0.9616  0.1653 -0.3758
  646MPD2    C4 9616   2.316   3.180  14.535  0.2060 -0.0833 -0.1968
  646MPD2    C5 9617   2.417   3.090  14.571  0.3806  0.0536 -0.4541
  646MPD2     H 9618   2.216   3.276  14.843  1.1969  0.1890  0.5752
  646MPD2    H1 9619   2.292   3.191  14.430  0.6756 -2.6338 -0.5649
  646MPD2    H2 9620   2.505   2.977  14.735 -1.6068 -0.8652 -1.1589
  646MPD2    H3 9621   2.459   3.024  14.496 -0.2290 -1.6304  0.6961
  646MPD2     N 9622   2.147   3.335  14.600  0.3812 -0.5729  0.1982
  646MPD2    H5 9623   2.086   3.366  14.674 -0.2491  0.9750 -0.9669
  646MPD2    N1 9624   2.405   3.092  14.931  0.2907 -0.1891  0.7058
  646MPD2    H7 9625   2.484   3.028  14.936  2.5392  2.4124 -1.9029
  647TMC3    C1 9626   2.418   3.088  15.176  0.3982 -0.9459  0.0300
  647TMC3    C2 9627   2.368   3.127  15.294  0.5375 -0.0982 -0.0519
  647TMC3    C3 9628   2.431   3.090  15.410 -0.1837  0.2240  0.1490
  647TMC3    C4 9629   2.545   3.035  15.168 -0.3796 -0.2859  0.0453
  647TMC3    C5 9630   2.612   3.010  15.288  0.4094  0.4139  0.1911
  647TMC3    C6 9631   2.556   3.037  15.414  0.0976 -0.6712 -0.1899
  647TMC3     C 9632   2.345   3.124  15.054 -0.3667  0.4964  0.0826
  647TMC3     O 9633   2.243   3.192  15.063  0.1420  0.1171 -0.6668
  647TMC3     H 9634   2.271   3.174  15.301 -0.1190 -1.1629 -2.1027
  647TMC3    H1 9635   2.574   2.995  15.072 -0.4892  1.1201 -0.5689
  647TMC3    H2 9636   2.612   3.013  15.504 -0.4031 -0.7115  0.1139
  647TMC3    C7 9637   2.728   2.927  15.295 -0.7729  0.1196  0.1074
  647TMC3    C8 9638   2.388   3.142  15.541 -0.8267  0.1524  0.0115
  647TMC3    O1 9639   2.798   2.953  15.394 -0.0041 -0.0851 -0.1575
  647TMC3    O2 9640   2.326   3.251  15.542 -0.3459 -0.1880 -0.1622
  648TMC3    C1 9641   1.372   0.806  16.033  0.5265  0.2404  0.2943
  648TMC3    C2 9642   1.349   0.694  15.955  1.3828 -0.8703 -0.0453
  648TMC3    C3 9643   1.352   0.709  15.817  0.5667 -0.2234  0.1091
  648TMC3    C4 9644   1.401   0.930  15.976 -0.1868  0.2958  0.1396
  648TMC3    C5 9645   1.408   0.932  15.839  0.2919  0.1510  0.4185
  648TMC3    C6 9646   1.383   0.828  15.757  0.0236 -0.7679  0.2531
  648TMC3     C 9647   1.413   0.805  16.171  0.1457 -0.2289 -0.8857
  648TMC3     O 9648   1.502   0.881  16.206  0.2035 -0.3222  0.1422
  648TMC3     H 9649   1.319   0.597  15.993 -1.7999 -0.9755 -2.7842
  648TMC3    H1 9650   1.422   1.018  16.036 -0.8754 -0.4497  1.4731
  648TMC3    H2 9651   1.388   0.834  15.649 -0.3459  0.9003  0.3316
  648TMC3    C7 9652   1.426   1.062  15.775  0.3140 -0.0045  0.2176
  648TMC3    C8 9653   1.358   0.592  15.735 -0.1639 -0.1404  0.0846
  648TMC3    O1 9654   1.485   1.065  15.665  0.1518  0.2661 -0.1541
  648TMC3    O2 9655   1.259   0.516  15.744 -0.1199 -0.0102 -0.0867
  649TMC3    C1 9656   0.141   1.298  13.111  0.4239 -0.0745 -0.2015
  649TMC3    C2 9657   0.265   1.241  13.114 -0.4587 -0.0866  1.0858
  649TMC3    C3 9658   0.290   1.161  13.220  0.4555  0.3615 -0.3401
  649TMC3    C4 9659   0.047   1.272  13.204  0.4737  0.2434  0.0089
  649TMC3    C5 9660   0.069   1.184  13.303  0.3337 -0.3243  0.1769
  649TMC3    C6 9661   0.193   1.125  13.308  0.7821 -0.4433 -0.8343
  649TMC3     C 9662   0.133   1.441  13.063  0.4097  0.8459 -0.1849
  649TMC3     O 9663   0.061   1.526  13.118 -0.6784  0.3695  0.3045
  649TMC3     H 9664   0.345   1.273  13.048 -3.0616 -0.7604 -2.3802
  649TMC3    H1 9665   4.700   1.331  13.202  0.0201 -0.5340 -1.9391
  649TMC3    H2 9666   0.201   1.047  13.383  0.3253 -0.2753 -0.6135
  649TMC3    C7 9667   4.716   1.164  13.410 -0.0603  0.6347  0.7061
  649TMC3    C8 9668   0.427   1.118  13.236  0.2643  0.5891  0.4492
  649TMC3    O1 9669   4.605   1.205  13.381  0.4301  0.5640 -0.9529
  649TMC3    O2 9670   0.507   1.156  13.152 -0.2576  0.3335 -0.0556
  650TMC3    C1 9671   3.149   3.494  13.221 -0.2662  0.4453 -0.0805
  650TMC3    C2 9672   3.146   3.622  13.272  0.0559 -0.1445 -0.7011
  650TMC3    C3 9673   3.108   3.727  13.194 -0.2250  0.0665  0.5182
  650TMC3    C4 9674   3.137   3.480  13.085 -0.2985 -0.5270  0.5580
  650TMC3    C5 9675   3.099   3.589  13.008  0.3211  0.0005 -0.0830
  650TMC3    C6 9676   3.086   3.715  13.063 -0.1193  0.4944 -0.3458
  650TMC3     C 9677   3.189   3.393  13.311  0.4395  0.9528 -0.7001
  650TMC3     O 9678   3.192   3.430  13.426 -0.2693 -0.4442 -0.3293
  650TMC3     H 9679   3.161   3.656  13.374  2.8414 -0.6453 -0.9520
  650TMC3    H1 9680   3.155   3.385  13.035 -0.7813  0.9060 -2.3076
  650TMC3    H2 9681   3.048   3.796  13.003  0.7873  0.5624 -0.8372
  650TMC3    C7 9682   3.092   3.566  12.865 -0.4701  0.2520  0.4759
  650TMC3    C8 9683   3.052   3.847  13.257 -0.1645  0.0276  0.3005
  650TMC3    O1 9684   3.039   3.460  12.826  0.0900 -0.1294 -0.4053
  650TMC3    O2 9685   3.074   3.952  13.199  0.3533  0.3821  0.2574
  651MPD2     C 9686   2.100   1.056  11.468 -0.3383  0.2333  0.0686
  651MPD2    C1 9687   2.071   1.181  11.410 -0.9290  0.0469  0.0930
  651MPD2    C2 9688   2.171   1.256  11.361  0.5274  0.8094  0.5657
  651MPD2    C3 9689   2.305   1.203  11.357 -0.1099 -0.6339  0.2597
  651MPD2    C4 9690   2.332   1.080  11.413  0.6336 -0.0403  0.3087
  651MPD2    C5 9691   2.232   1.008  11.461  0.7080  1.0824  0.3865
  651MPD2     H 9692   2.150   1.350  11.311 -1.0464 -0.5992 -1.4637
  651MPD2    H1 9693   2.434   1.048  11.432  1.3266 -0.2208 -3.5834
  651MPD2    H2 9694   2.016   1.000  11.508 -0.9046  2.6556  2.3414
  651MPD2    H3 9695   2.259   0.916  11.512 -1.5861  0.7764  1.0088
  651MPD2     N 9696   2.399   1.289  11.305  0.5898 -0.1303 -0.1447
  651MPD2    H5 9697   2.361   1.373  11.263 -2.0645 -1.2982 -0.0278
  651MPD2    N1 9698   1.943   1.231  11.390 -0.0530 -0.6478 -0.5452
  651MPD2    H7 9699   1.945   1.325  11.351 -2.3399 -0.1144  0.6614
  652TMC3    C1 9700   2.825   1.476  11.204 -0.0533 -0.0773  0.2067
  652TMC3    C2 9701   2.756   1.380  11.269 -0.1870  0.2021  0.3458
  652TMC3    C3 9702   2.621   1.368  11.237  0.2041  0.4124  0.1766
  652TMC3    C4 9703   2.763   1.558  11.111 -0.4180 -0.1718  0.9226
  652TMC3    C5 9704   2.630   1.544  11.091  0.1530  0.5793 -0.5593
  652TMC3    C6 9705   2.555   1.452  11.149 -0.4366 -0.6213  0.4160
  652TMC3     C 9706   2.967   1.497  11.242 -0.3093  0.0271 -0.0420
  652TMC3     O 9707   3.026   1.412  11.305  0.2087 -0.8657  0.0928
  652TMC3     H 9708   2.803   1.320  11.347  1.4354  1.2700  0.1936
  652TMC3    H1 9709   2.831   1.621  11.056 -0.3882 -2.7333 -2.0230
  652TMC3    H2 9710   2.457   1.430  11.109  0.0021 -0.2472 -0.8482
  652TMC3    C7 9711   2.570   1.623  10.985 -0.3062  0.8011  0.1510
  652TMC3    C8 9712   2.540   1.270  11.311  0.4156 -0.8806  0.0705
  652TMC3    O1 9713   2.471   1.578  10.927  0.1735  0.6764  0.4379
  652TMC3    O2 9714   2.606   1.182  11.360  0.6305 -0.8309  0.1607
  653MPD2     C 9715   1.066   1.183   0.047  0.4432 -0.6999  0.2942
  653MPD2    C1 9716   0.984   1.247  17.732  0.3870 -0.4609  0.3048
  653MPD2    C2 9717   0.895   1.171  17.660  0.0839 -0.2312  0.2380
  653MPD2    C3 9718   0.877   1.038  17.683  0.6191  0.0341 -0.1335
  653MPD2    C4 9719   0.966   0.973  17.765 -0.0880  0.1708  0.0563
  653MPD2    C5 9720   1.058   1.050   0.065 -0.4543 -0.4583  0.0222
  653MPD2     H 9721   0.824   1.221  17.596 -1.8015 -1.2541  1.5498
  653MPD2    H1 9722   0.949   0.866   0.005  1.2955  0.2507  2.9219
  653MPD2    H2 9723   1.138   1.232   0.111 -1.2011  1.3097  0.5927
  653MPD2    H3 9724   1.119   1.005   0.143 -0.3421 -1.4154 -0.6137
  653MPD2     N 9725   0.783   0.965  17.607 -0.3612 -0.1181 -0.2474
  653MPD2    H5 9726   0.735   1.010  17.530  0.9575  0.4447 -0.7419
  653MPD2    N1 9727   0.983   1.381  17.700 -0.0382  0.2313  0.0913
  653MPD2    H7 9728   0.917   1.411  17.629 -0.8142 -0.0361  0.6942
  654TMC3    C1 9729   0.620   0.806  17.540  0.3616 -0.1463 -0.0304
  654TMC3    C2 9730   0.526   0.908  17.526 -0.3730  0.4229 -0.3044
  654TMC3    C3 9731   0.410   0.873  17.467 -0.1784 -0.2737 -0.2284
  654TMC3    C4 9732   0.601   0.678  17.510 -0.1672  0.9097 -0.1408
  654TMC3    C5 9733   0.488   0.650  17.442  0.1807 -0.4441 -0.1196
  654TMC3    C6 9734   0.394   0.748  17.418 -0.4474  0.0043 -0.6758
  654TMC3     C 9735   0.735   0.835  17.626 -0.4397  0.6709  0.3831
  654TMC3     O 9736   0.781   0.744  17.693 -0.5617  0.0749 -0.0171
  654TMC3     H 9737   0.547   1.003  17.573  0.2127 -0.2260  0.7363
  654TMC3    H1 9738   0.678   0.604  17.528 -0.0241  0.8930 -0.8305
  654TMC3    H2 9739   0.304   0.723  17.363 -1.0709 -0.3915  0.5123
  654TMC3    C7 9740   0.431   0.516  17.427  0.2283  0.0892 -0.5654
  654TMC3    C8 9741   0.303   0.970  17.443 -0.2701 -0.1409  0.4525
  654TMC3    O1 9742   0.308   0.511  17.416  0.3241 -0.0517  0.0100
  654TMC3    O2 9743   0.183   0.933  17.442  0.2335 -0.4664 -0.0170
  655MPD2     C 9744   2.231   0.957  15.737  0.2167  0.4986 -0.3403
  655MPD2    C1 9745   2.150   1.047  15.664 -0.3804 -0.3984 -0.4275
  655MPD2    C2 9746   2.119   1.026  15.526  0.2605  0.1465 -0.0238
  655MPD2    C3 9747   2.159   0.904  15.471 -0.1740 -0.0339  0.8158
  655MPD2    C4 9748   2.232   0.816  15.542  0.2197  0.2200 -0.1054
  655MPD2    C5 9749   2.263   0.838  15.675 -0.0632  0.1895  0.1452
  655MPD2     H 9750   2.054   1.099  15.479  1.2201  0.1040 -1.4175
  655MPD2    H1 9751   2.270   0.724  15.499 -1.5407 -0.8765  0.6831
  655MPD2    H2 9752   2.258   0.974  15.840  0.1194 -3.3966  0.3534
  655MPD2    H3 9753   2.321   0.765  15.731 -0.2029 -0.6949 -0.8659
  655MPD2     N 9754   2.140   0.866  15.337 -0.1196 -0.2506 -0.4228
  655MPD2    H5 9755   2.159   0.769  15.312  2.0572  0.9678 -3.3483
  655MPD2    N1 9756   2.093   1.156  15.729  0.0161  0.1137  0.3062
  655MPD2    H7 9757   2.048   1.226  15.671  0.0856 -0.8344 -0.8946
  656TMC3    C1 9758   1.985   1.269  15.903 -0.2331  0.0465  0.1333
  656TMC3    C2 9759   1.880   1.251  15.989  0.1468 -0.2351 -0.0490
  656TMC3    C3 9760   1.771   1.329  15.977  0.4446  0.7695  0.3298
  656TMC3    C4 9761   1.985   1.369  15.808  0.4417 -0.3480 -0.0637
  656TMC3    C5 9762   1.877   1.458  15.818  0.5143 -0.2303  0.4761
  656TMC3    C6 9763   1.768   1.436  15.898 -0.2772 -0.5097  0.1069
  656TMC3     C 9764   2.064   1.150  15.861 -0.1358 -0.0495 -0.1685
  656TMC3     O 9765   2.074   1.056  15.940  0.2710 -0.1246  0.0586
  656TMC3     H 9766   1.886   1.170  16.060 -0.8681  0.3813  0.7376
  656TMC3    H1 9767   2.074   1.383  15.749  0.6625  0.5008  0.4624
  656TMC3    H2 9768   1.671   1.476  15.873 -0.9520 -0.3781  2.9966
  656TMC3    C7 9769   1.877   1.571  15.728  0.4369  0.0663  0.0458
  656TMC3    C8 9770   1.665   1.295  16.069  0.0516 -0.5704  0.7233
  656TMC3    O1 9771   1.964   1.581  15.640 -0.6001 -0.2079  0.2046
  656TMC3    O2 9772   1.652   1.176  16.098  0.1933 -0.2170 -0.1344
  657TMC3    C1 9773   0.916   0.237  14.889 -0.0395 -0.0951 -0.0766
  657TMC3    C2 9774   0.883   0.233  15.021 -0.0867 -0.2784 -0.1796
  657TMC3    C3 9775   0.771   0.303  15.067 -0.1571 -0.5230 -0.2364
  657TMC3    C4 9776   0.835   0.306  14.801 -0.4529  0.4239 -0.0204
  657TMC3    C5 9777   0.719   0.357  14.846 -0.4317  0.2908  0.0480
  657TMC3    C6 9778   0.683   0.355  14.978 -0.2581 -0.2481 -0.0551
  657TMC3     C 9779   1.022   0.166  14.832  0.2065  0.4603  0.6568
  657TMC3     O 9780   1.073   0.213  14.728  0.6369  0.2890  0.6698
  657TMC3     H 9781   0.951   0.198  15.097 -2.3926 -1.3389  1.3952
  657TMC3    H1 9782   0.873   0.321  14.700 -2.3271  0.4865 -0.7066
  657TMC3    H2 9783   0.584   0.386  15.013  0.1695  1.1908 -0.1109
  657TMC3    C7 9784   0.626   0.433  14.761 -0.1974  0.7056 -0.7710
  657TMC3    C8 9785   0.762   0.336  15.205 -0.0837  0.1810  0.1052
  657TMC3    O1 9786   0.542   0.499  14.821  0.4470  0.5700  0.4651
  657TMC3    O2 9787   0.800   0.245  15.279  0.0663  0.0933  0.1738
  658MPD2     C 9788   2.495   0.892  14.596  0.3779  0.4099  0.2680
  658MPD2    C1 9789   2.403   0.986  14.632 -0.0647  0.3613  0.1460
  658MPD2    C2 9790   2.416   1.118  14.595  0.0760  0.3591 -0.0641
  658MPD2    C3 9791   2.525   1.158  14.522  0.0292 -0.1425 -0.2613
  658MPD2    C4 9792   2.611   1.063  14.478 -0.1438 -0.3617  0.0267
  658MPD2    C5 9793   2.595   0.937  14.519 -0.7513 -0.2158  0.3976
  658MPD2     H 9794   2.348   1.199  14.619 -2.8277 -1.8270 -0.9762
  658MPD2    H1 9795   2.688   1.082  14.404  1.0555  2.2998  1.9777
  658MPD2    H2 9796   2.500   0.788  14.624  0.3942  0.2817 -0.1984
  658MPD2    H3 9797   2.676   0.872  14.488 -0.3917  0.8112 -0.8327
  658MPD2     N 9798   2.529   1.290  14.472  0.2456 -0.1135  0.2804
  658MPD2    H5 9799   2.457   1.353  14.504 -0.5060 -0.7313 -0.2135
  658MPD2    N1 9800   2.302   0.927  14.713  0.2907  0.1337 -0.6016
  658MPD2    H7 9801   2.305   0.826  14.710 -0.3727  0.1995 -3.6139
  659TMC3    C1 9802   2.133   0.917  14.875 -1.3025 -0.0680  0.0327
  659TMC3    C2 9803   2.111   0.973  15.000  0.0041 -0.4060 -0.7114
  659TMC3    C3 9804   2.081   0.887  15.104 -0.2195 -0.0679  0.4126
  659TMC3    C4 9805   2.122   0.785  14.846 -0.4235 -0.3519  0.4767
  659TMC3    C5 9806   2.085   0.707  14.953  0.2737  0.6905 -0.4136
  659TMC3    C6 9807   2.074   0.752  15.081 -0.2430 -0.0449  0.1211
  659TMC3     C 9808   2.200   0.999  14.775  0.6866 -0.5284 -0.4882
  659TMC3     O 9809   2.193   1.121  14.786 -0.2162 -0.2332  0.0726
  659TMC3     H 9810   2.127   1.079  15.017  0.2160 -0.7186  0.9823
  659TMC3    H1 9811   2.121   0.759  14.741  0.9658  0.0104  0.3768
  659TMC3    H2 9812   2.042   0.688  15.163  0.2785 -2.9308 -1.9214
  659TMC3    C7 9813   2.001   0.590  14.932  0.7894 -0.1552 -0.5797
  659TMC3    C8 9814   2.085   0.947  15.240  0.2567  0.4614 -0.1474
  659TMC3    O1 9815   1.970   0.521  15.030 -0.0396  0.0130 -0.4746
  659TMC3    O2 9816   2.031   1.055  15.250  0.2607 -0.4841  0.7143
  660MPD2     C 9817   0.074   0.158  12.931 -0.3954  0.2370  1.0172
  660MPD2    C1 9818   4.702   0.182  12.857  0.1431  0.3763  0.5775
  660MPD2    C2 9819   4.594   0.096  12.867  0.4696  0.6683 -0.0290
  660MPD2    C3 9820   4.604   4.727  12.943 -0.2629  0.5188 -0.4197
  660MPD2    C4 9821   4.724   4.695  13.006  0.4800  0.1639 -0.4395
  660MPD2    C5 9822   0.084   0.039  13.000 -0.4512 -0.4809 -0.1902
  660MPD2     H 9823   4.502   0.111  12.811 -1.5651 -0.3741  3.0114
  660MPD2    H1 9824   4.732   4.603  13.063  2.2622 -0.0072 -0.9896
  660MPD2    H2 9825   0.152   0.233  12.936  1.2783 -1.4044 -0.3215
  660MPD2    H3 9826   0.173   0.022  13.059  0.2948 -0.3887 -1.2997
  660MPD2     N 9827   4.488   4.649  12.964 -0.5568  0.0155 -0.3068
  660MPD2    H5 9828   4.513   4.561  13.009  0.2038  1.0898  1.3702
  660MPD2    N1 9829   4.684   0.311  12.787  0.0271  0.4331 -0.1648
  660MPD2    H7 9830   0.023   0.369  12.778 -0.8906  1.9463  1.1272
  661TMC3    C1 9831   4.604   0.481  12.634  0.5904 -0.0381 -0.2219
  661TMC3    C2 9832   4.709   0.480  12.545  0.5590  0.3339  0.1976
  661TMC3    C3 9833   4.705   0.576  12.449  0.6069  0.2732  0.1488
  661TMC3    C4 9834   4.488   0.556  12.615 -0.3203  0.0108  0.2797
  661TMC3    C5 9835   4.486   0.644  12.511 -0.5556  0.2284 -0.6059
  661TMC3    C6 9836   4.601   0.661  12.434 -0.3216 -0.6766  0.0294
  661TMC3     C 9837   4.582   0.361  12.714 -0.2205  0.0884 -0.5620
  661TMC3     O 9838   4.465   0.328  12.718  0.5247 -0.1486  0.8871
  661TMC3     H 9839   0.054   0.422  12.565  0.4518  0.0843 -0.0660
  661TMC3    H1 9840   4.395   0.554  12.671  0.3248 -0.3204  1.3309
  661TMC3    H2 9841   4.593   0.720  12.344  0.3530 -0.9606 -0.2122
  661TMC3    C7 9842   4.373   0.622  12.425  0.0682  0.7658  0.4785
  661TMC3    C8 9843   0.063   0.577  12.341 -0.1581 -0.3327  0.1071
  661TMC3    O1 9844   4.334   0.714  12.353 -0.6555  0.1834  0.7929
  661TMC3    O2 9845   0.109   0.684  12.305  0.2592 -0.2128 -0.2480
  662MPD2     C 9846   0.208   4.581  17.085 -0.5448  0.4663 -0.2401
  662MPD2    C1 9847   0.218   4.489  17.189 -0.3390  0.0551 -0.5289
  662MPD2    C2 9848   0.133   4.513  17.299  0.4465  0.5845  0.1406
  662MPD2    C3 9849   0.052   4.624  17.302  0.1128  0.0052 -0.5684
  662MPD2    C4 9850   0.053   4.706  17.205  0.8022 -0.5152 -0.5717
  662MPD2    C5 9851   0.127   4.686  17.092  0.1723 -0.5503  0.1639
  662MPD2     H 9852   0.124   4.442  17.381 -1.3592 -1.1223 -1.5349
  662MPD2    H1 9853   4.740   0.054  17.205  2.1522  0.3178  1.5501
  662MPD2    H2 9854   0.259   4.573  16.990  0.8728 -0.5603  0.6007
  662MPD2    H3 9855   0.114   0.001  17.002  1.2347 -2.4373 -1.2172
  662MPD2     N 9856   4.706   4.656  17.409  0.2088 -0.0611  0.1812
  662MPD2    H5 9857   4.642   4.734  17.402 -0.3501 -0.3513  2.2228
  662MPD2    N1 9858   0.302   4.379  17.184 -0.3567  0.4265  0.6863
  662MPD2    H7 9859   0.307   4.323  17.269 -1.2009 -1.4209 -0.5003
  663TMC3    C1 9860   0.481   4.243  17.114  0.0233  0.3121  0.5580
  663TMC3    C2 9861   0.474   4.175  17.236  0.2666  0.4532 -0.2007
  663TMC3    C3 9862   0.575   4.091  17.276  0.1047 -0.2381  0.6893
  663TMC3    C4 9863   0.582   4.206  17.034  0.5893 -0.1687  0.1114
  663TMC3    C5 9864   0.683   4.122  17.071  0.9721  0.0968  0.5218
  663TMC3    C6 9865   0.688   4.078  17.201 -0.0308 -0.3395  0.3392
  663TMC3     C 9866   0.378   4.338  17.079  0.2452  0.0461  0.0949
  663TMC3     O 9867   0.386   4.374  16.961  0.6237 -0.3728  0.1084
  663TMC3     H 9868   0.420   4.223  17.316 -1.3865 -1.2194 -0.3096
  663TMC3    H1 9869   0.588   4.240  16.931 -1.1935 -1.2490 -0.3408
  663TMC3    H2 9870   0.767   4.008  17.226 -0.7634 -0.6992  1.5953
  663TMC3    C7 9871   0.695   4.030  16.960 -0.3786 -0.2366  0.5673
  663TMC3    C8 9872   0.516   3.954  17.280 -0.5829  0.3539  0.0233
  663TMC3    O1 9873   0.724   4.061  16.846 -0.0549  0.3237  0.3167
  663TMC3    O2 9874   0.594   3.861  17.261  0.4108  0.3097  0.2430
  664MPD2     C 9875   3.243   2.592  17.351 -0.2301 -0.4815 -0.0753
  664MPD2    C1 9876   3.303   2.671  17.447  0.1219  0.1317  0.3824
  664MPD2    C2 9877   3.262   2.668  17.576 -0.4211 -0.0068 -0.2832
  664MPD2    C3 9878   3.154   2.590  17.617 -0.2458  0.5895  0.8598
  664MPD2    C4 9879   3.085   2.526  17.517  0.3943 -0.7782 -0.0230
  664MPD2    C5 9880   3.133   2.531  17.385 -0.2255 -0.3692  0.4868
  664MPD2     H 9881   3.321   2.723  17.648 -1.8322  2.7805 -1.2896
  664MPD2    H1 9882   2.996   2.467  17.533  0.0506 -0.1228  0.4761
  664MPD2    H2 9883   3.273   2.578  17.248 -1.5414 -0.8882 -0.3966
  664MPD2    H3 9884   3.084   2.469  17.311  1.2139 -1.6566  0.6169
  664MPD2     N 9885   3.121   2.590  17.755 -0.5792 -0.3967 -0.4966
  664MPD2    H5 9886   3.190   2.638   0.040 -2.3323 -0.0781  1.3645
  664MPD2    N1 9887   3.433   2.737  17.417 -0.4929  0.4383 -0.2124
  664MPD2    H7 9888   3.475   2.798  17.487 -0.9389  0.3809  0.1106
  665TMC3    C1 9889   3.002   2.562   0.182 -0.0990 -0.4592  0.3530
  665TMC3    C2 9890   2.934   2.476   0.268 -0.0321  0.5491 -0.1151
  665TMC3    C3 9891   2.945   2.503   0.401 -0.5457  0.3071 -0.0999
  665TMC3    C4 9892   3.073   2.676   0.233 -0.0545 -0.5319  0.2378
  665TMC3    C5 9893   3.056   2.704   0.370  0.0036 -0.3417 -0.2542
  665TMC3    C6 9894   2.989   2.620   0.456  0.7339  0.3340  0.5430
  665TMC3     C 9895   3.012   2.526   0.044 -0.5769 -0.0108 -0.5579
  665TMC3     O 9896   2.934   2.449  17.764  0.0761  0.6047 -0.7532
  665TMC3     H 9897   2.884   2.394   0.219  1.4528 -1.4781  1.7874
  665TMC3    H1 9898   3.124   2.744   0.166 -4.2108  2.2194 -0.1521
  665TMC3    H2 9899   2.983   2.643   0.561 -2.7404  1.7608  0.0152
  665TMC3    C7 9900   3.119   2.831   0.417  0.4258 -0.0533  0.1644
  665TMC3    C8 9901   2.828   2.456   0.464  0.8177  0.3930 -0.0448
  665TMC3    O1 9902   3.197   2.888   0.341 -0.0791  0.1693 -1.0635
  665TMC3    O2 9903   2.733   2.441   0.391  0.2594  0.4486 -0.1721
  666TMC3    C1 9904   2.976   2.661   9.795  0.0810 -0.1182  0.4203
  666TMC3    C2 9905   3.048   2.572   9.861 -0.7756 -0.3716 -0.4207
  666TMC3    C3 9906   3.139   2.627   9.956  0.1765  0.9018  0.0513
  666TMC3    C4 9907   2.975   2.796   9.816 -0.0834  0.0833  1.1692
  666TMC3    C5 9908   3.046   2.842   9.929  0.0187 -0.3150  0.6603
  666TMC3    C6 9909   3.119   2.754  10.002  0.0030 -0.2770  0.7769
  666TMC3     C 9910   2.867   2.617   9.709  0.4661 -0.1822 -0.2117
  666TMC3     O 9911   2.831   2.691   9.623 -0.0197  0.8018  0.6687
  666TMC3     H 9912   3.057   2.470   9.826 -2.7159 -1.5032  2.3179
  666TMC3    H1 9913   2.923   2.867   9.752 -1.1036 -2.1323 -0.4512
  666TMC3    H2 9914   3.150   2.780  10.102  0.0097 -0.7396  0.8961
  666TMC3    C7 9915   2.983   2.942  10.006 -0.1427  0.0244  0.2092
  666TMC3    C8 9916   3.215   2.535  10.042  0.4342  0.4092 -0.0911
  666TMC3    O1 9917   3.003   2.942  10.125 -0.7304 -0.0756 -0.0559
  666TMC3    O2 9918   3.182   2.420  10.044 -0.0155  0.8374  0.8736
  667MPD2     C 9919   4.058   2.118  14.789 -0.1229  0.0180 -0.3922
  667MPD2    C1 9920   4.021   2.155  14.910 -1.0281 -0.5500  0.3607
  667MPD2    C2 9921   3.939   2.080  14.990 -0.7922 -0.0974  0.3433
  667MPD2    C3 9922   3.901   1.950  14.951 -0.2206  0.3885 -0.7137
  667MPD2    C4 9923   3.940   1.917  14.823 -0.4983 -0.7394 -0.3011
  667MPD2    C5 9924   4.009   2.001  14.741 -0.6613  0.4878  0.3233
  667MPD2     H 9925   3.907   2.118  15.086 -1.4291  1.4781 -0.4891
  667MPD2    H1 9926   3.931   1.815  14.787  1.3826 -1.7821  2.1875
  667MPD2    H2 9927   4.120   2.181  14.726 -0.2967  0.7803  0.2051
  667MPD2    H3 9928   4.042   1.975  14.641  1.0316 -0.4548  1.1170
  667MPD2     N 9929   3.842   1.859  15.038  0.2703  0.0714 -0.2769
  667MPD2    H5 9930   3.850   1.761  15.011 -1.6767  0.3137 -1.7730
  667MPD2    N1 9931   4.053   2.279  14.966  0.0572  0.3655  0.5540
  667MPD2    H7 9932   3.997   2.309  15.045 -2.1209 -1.0139 -0.4587
  668TMC3    C1 9933   4.149   2.476  15.045 -0.4861  0.8864 -0.2768
  668TMC3    C2 9934   4.219   2.590  15.012 -0.4854  0.3982 -0.2959
  668TMC3    C3 9935   4.261   2.675  15.111  0.2595 -0.2354  1.0353
  668TMC3    C4 9936   4.131   2.436  15.177  0.1023 -0.4437 -0.2342
  668TMC3    C5 9937   4.172   2.526  15.272  0.1356  0.3951 -0.0728
  668TMC3    C6 9938   4.238   2.646  15.240 -0.3197  0.5333  0.0783
  668TMC3     C 9939   4.146   2.380  14.936  0.3473  0.3392 -0.8117
  668TMC3     O 9940   4.215   2.401  14.833  0.1482 -1.0383  0.2376
  668TMC3     H 9941   4.249   2.609  14.910 -0.1710 -2.7746 -0.7734
  668TMC3    H1 9942   4.103   2.334  15.202 -0.3258 -0.6809 -1.7080
  668TMC3    H2 9943   4.280   2.710  15.317 -0.1258  1.6442 -0.9455
  668TMC3    C7 9944   4.137   2.503  15.410 -0.4380  0.4807  0.0015
  668TMC3    C8 9945   4.349   2.788  15.093  0.3811  0.6423 -0.0982
  668TMC3    O1 9946   4.220   2.551  15.489 -0.5597 -0.1372 -0.5400
  668TMC3    O2 9947   4.390   2.847  15.195 -0.4887 -0.7428 -0.2262
  669TMC3    C1 9948   1.996   2.496  14.994 -0.3123  0.1390 -0.0754
  669TMC3    C2 9949   1.905   2.446  14.909 -0.5426 -0.0220 -0.0868
  669TMC3    C3 9950   1.933   2.479  14.778 -0.3247  0.4173 -0.3802
  669TMC3    C4 9951   2.114   2.558  14.957  0.0329  0.2905  1.0367
  669TMC3    C5 9952   2.135   2.575  14.825  0.2888 -0.4499  0.2848
  669TMC3    C6 9953   2.046   2.533  14.731  1.3378  0.3871  0.1032
  669TMC3     C 9954   1.966   2.483  15.139 -0.0626 -0.8685 -0.1842
  669TMC3     O 9955   1.910   2.382  15.173  0.2583 -0.3083  0.0077
  669TMC3     H 9956   1.818   2.391  14.943  0.3869 -2.3727 -1.5167
  669TMC3    H1 9957   2.191   2.574  15.031  0.3904  3.4570 -0.0153
  669TMC3    H2 9958   2.060   2.567  14.629  4.2289 -1.4159 -0.0887
  669TMC3    C7 9959   2.272   2.604  14.783 -0.2374 -0.0919 -0.5435
  669TMC3    C8 9960   1.858   2.406  14.683  0.5547 -0.7212 -0.0336
  669TMC3    O1 9961   2.342   2.647  14.874 -0.2187  0.1804  0.0492
  669TMC3    O2 9962   1.813   2.301  14.721 -0.3746 -0.3642  0.3544
  670MPD2     C 9963   0.643   0.231  13.489 -0.2986 -0.4651  0.2999
  670MPD2    C1 9964   0.731   0.143  13.553 -0.0377  0.6723 -0.8566
  670MPD2    C2 9965   0.674   0.048  13.644 -0.4560 -0.3604 -0.1090
  670MPD2    C3 9966   0.538   0.046  13.668  0.0951 -0.1929  0.0291
  670MPD2    C4 9967   0.450   0.127  13.597 -0.2317 -0.1081  0.3752
  670MPD2    C5 9968   0.507   0.229  13.513  0.4008 -0.4550  0.6096
  670MPD2     H 9969   0.741   4.728  13.699  0.7455  0.8537 -0.1618
  670MPD2    H1 9970   0.344   0.116  13.617 -0.0768  0.3011  1.4397
  670MPD2    H2 9971   0.676   0.304  13.416  1.1369 -3.0831 -1.6531
  670MPD2    H3 9972   0.442   0.302  13.467 -0.0419 -0.6249  0.9682
  670MPD2     N 9973   0.493   4.697  13.771 -0.0789  0.5792 -0.0126
  670MPD2    H5 9974   0.566   4.656  13.828 -1.2073  1.1933  1.9093
  670MPD2    N1 9975   0.869   0.148  13.529  0.5974  0.0977 -0.1357
  670MPD2    H7 9976   0.918   0.082  13.589 -2.4749 -1.5482  0.5640
  671TMC3    C1 9977   0.365   4.527  13.874  0.2335  0.5062 -0.0932
  671TMC3    C2 9978   0.476   4.501  13.948 -0.3938  0.4362 -0.6082
  671TMC3    C3 9979   0.470   4.421  14.057  0.0692  0.4950 -0.1651
  671TMC3    C4 9980   0.244   4.488  13.923 -0.3531  0.0823  0.6649
  671TMC3    C5 9981   0.240   4.403  14.031  0.2852 -0.6931 -0.4021
  671TMC3    C6 9982   0.349   4.375  14.110  0.9229  0.0776 -0.1795
  671TMC3     C 9983   0.368   4.640  13.782  0.7651 -1.0596 -0.1130
  671TMC3     O 9984   0.267   4.671  13.718  0.4105 -0.2750  0.0243
  671TMC3     H 9985   0.572   4.507  13.897  1.5218 -1.4013  2.8092
  671TMC3    H1 9986   0.153   4.514  13.871 -0.0075 -3.9757 -2.0258
  671TMC3    H2 9987   0.343   4.304  14.191  0.7472  0.3979  0.0892
  671TMC3    C7 9988   0.165   4.291  13.996 -0.3040 -0.1607  0.6666
  671TMC3    C8 9989   0.597   4.396  14.136 -0.1434 -0.3398 -0.3958
  671TMC3    O1 9990   0.148   4.277  13.877 -0.0439 -0.5587  0.7201
  671TMC3    O2 9991   0.696   4.393  14.068 -0.0390  0.4505 -0.5512
  672MPD2     C 9992   1.328   0.659   0.027 -0.6217 -0.0240 -0.1774
  672MPD2    C1 9993   1.215   0.676   0.101  0.0065 -0.1604  0.6619
  672MPD2    C2 9994   1.215   0.776   0.197 -0.6162  0.1801  0.5320
  672MPD2    C3 9995   1.320   0.858   0.223  0.2729  0.0004  0.2885
  672MPD2    C4 9996   1.434   0.837   0.148 -0.1887  0.5200  0.7758
  672MPD2    C5 9997   1.433   0.745   0.046 -0.2196 -0.1092 -0.3853
  672MPD2     H 9998   1.122   0.787   0.252 -0.3206  1.4944  0.7566
  672MPD2    H1 9999   1.527   0.881   0.183  0.4436 -0.2146  0.0186
  672MPD2    H210000   1.343   0.578  17.729  1.3821  1.1330 -1.1075
  672MPD2    H310001   1.523   0.734  17.758  0.0482 -1.6442  0.2890
  672MPD2     N10002   1.330   0.948   0.336  0.2684 -0.0430 -0.8895
  672MPD2    H510003   1.418   0.993   0.361  1.2457 -1.2630 -2.1354
  672MPD2    N110004   1.105   0.587   0.086 -0.1703 -0.0716 -0.5278
  672MPD2    H710005   1.030   0.593   0.154 -0.3689  1.4437 -0.8671
  673TMC3    C110006   0.995   0.383   0.046  0.3738  0.1165 -0.1923
  673TMC3    C210007   1.032   0.258   0.075 -0.1459  0.4772  0.1110
  673TMC3    C310008   0.939   0.162   0.091 -0.8284  0.0230 -0.8057
  673TMC3    C410009   0.864   0.425   0.044  0.6982  0.4179  0.3807
  673TMC3    C510010   0.764   0.323   0.060 -0.0266  0.4430 -0.6917
  673TMC3    C610011   0.803   0.196   0.095 -0.1601  0.9468 -0.4405
  673TMC3     C10012   1.107   0.469   0.013 -0.1386 -0.0023  0.1471
  673TMC3     O10013   1.190   0.420  17.709 -0.3442 -0.1369  0.0512
  673TMC3     H10014   1.137   0.231   0.066 -0.5428 -1.1970  0.4873
  673TMC3    H110015   0.844   0.531   0.031  0.1891  0.5254  1.9778
  673TMC3    H210016   0.732   0.126   0.136  2.6630 -0.4002  2.1472
  673TMC3    C710017   0.622   0.351   0.086  0.6345  0.1212 -0.1052
  673TMC3    C810018   0.963   0.033   0.151  0.2258  0.8049 -0.0476
  673TMC3    O110019   0.547   0.265   0.123 -0.5474 -0.7247  0.1007
  673TMC3    O210020   0.873   4.691   0.161 -0.0217  0.3537 -0.3260
  674MPD2     C10021   0.527   4.287   0.490  1.3206  0.3711 -0.4133
  674MPD2    C110022   0.402   4.341   0.469  0.1618  0.1404  0.5873
  674MPD2    C210023   0.347   4.423   0.563  0.2767  0.5351 -0.6562
  674MPD2    C310024   0.416   4.452   0.681  0.3671 -0.0346  0.4312
  674MPD2    C410025   0.537   4.395   0.707 -0.4836  0.4280 -0.6336
  674MPD2    C510026   0.592   4.310   0.609  0.0082  0.6908  0.2703
  674MPD2     H10027   0.247   4.465   0.558 -0.2125 -0.5754 -0.2863
  674MPD2    H110028   0.587   4.381   0.802 -2.3621  0.3589  0.3487
  674MPD2    H210029   0.588   4.231   0.420  1.5792  1.0710 -0.7490
  674MPD2    H310030   0.691   4.270   0.629 -0.1076  1.2236  1.8624
  674MPD2     N10031   0.350   4.531   0.769  0.2856  0.0475  0.3809
  674MPD2    H510032   0.268   4.583   0.741  0.4565  0.6208  0.9559
  674MPD2    N110033   0.330   4.295   0.356  0.2866 -0.5472  0.0011
  674MPD2    H710034   0.378   4.238   0.288 -0.9818 -0.8974 -0.6090
  675TMC3    C110035   0.176   4.291   0.191 -0.0794  0.3038  0.6296
  675TMC3    C210036   0.086   4.360   0.116 -0.1450 -0.1602  0.5577
  675TMC3    C310037   0.032   4.301   0.008 -0.5560 -0.3885 -0.0737
  675TMC3    C410038   0.199   4.158   0.163  0.7817  0.5594 -0.0677
  675TMC3    C510039   0.137   4.105   0.052  0.1808 -0.1195  0.7947
  675TMC3    C610040   0.071   4.176  17.732 -0.4448  0.2165  0.2049
  675TMC3     C10041   0.214   4.347   0.314 -0.7684  0.3410 -0.1779
  675TMC3     O10042   0.140   4.437   0.356  0.1433  1.0319  0.0404
  675TMC3     H10043   0.046   4.455   0.149  0.3701  0.3973 -0.4314
  675TMC3    H110044   0.229   4.093   0.246 -0.6325  1.0271  0.8068
  675TMC3    H210045   0.014   4.129  17.652 -1.0515 -1.5539  1.6971
  675TMC3    C710046   0.204   3.984  17.771  0.2965  0.6536  0.3454
  675TMC3    C810047   4.631   4.322  17.766  0.5645 -0.0350  0.7217
  675TMC3    O110048   0.242   4.002  17.657  0.5717 -0.0084  0.2677
  675TMC3    O210049   4.571   4.309  17.662 -0.2580  0.0649 -0.3663
  676MPD2     C10050   3.317   3.576  10.997  0.4381 -0.5536  0.1034
  676MPD2    C110051   3.227   3.487  11.045 -0.5981 -1.0784 -0.8154
  676MPD2    C210052   3.237   3.355  10.993 -0.5906  0.4026  0.2175
  676MPD2    C310053   3.360   3.315  10.935 -0.0474 -0.2759 -0.2764
  676MPD2    C410054   3.456   3.407  10.907 -0.3783  0.1731 -0.0668
  676MPD2    C510055   3.431   3.542  10.929  0.4500 -0.0432  0.9690
  676MPD2     H10056   3.159   3.280  10.999 -0.7803  0.4276 -1.7346
  676MPD2    H110057   3.553   3.377  10.869 -1.1223 -2.2670 -0.0093
  676MPD2    H210058   3.319   3.677  11.035 -1.7780 -1.1375  1.7879
  676MPD2    H310059   3.510   3.615  10.917  0.7442 -0.5359 -0.1590
  676MPD2     N10060   3.388   3.186  10.897  0.0890 -0.3830  0.8355
  676MPD2    H510061   3.479   3.161  10.858 -0.4490 -1.2007  0.0966
  676MPD2    N110062   3.120   3.518  11.125 -0.2992  0.5424  0.0889
  676MPD2    H710063   3.052   3.443  11.133  1.4447 -1.1062 -0.7965
  677TMC3    C110064   2.960   3.624  11.269  0.5769 -0.1980 -1.1925
  677TMC3    C210065   2.907   3.498  11.286 -0.4222  0.1983  0.3639
  677TMC3    C310066   2.846   3.465  11.408 -0.7077 -0.1513  0.3913
  677TMC3    C410067   2.962   3.713  11.377 -0.0370 -0.3196  0.5682
  677TMC3    C510068   2.906   3.672  11.496  0.4068 -0.4111  0.2077
  677TMC3    C610069   2.841   3.553  11.519  0.3337 -0.3779 -0.7383
  677TMC3     C10070   3.082   3.639  11.185  0.9790  0.5200  0.7772
  677TMC3     O10071   3.126   3.752  11.167 -0.1697 -0.4966 -0.1918
  677TMC3     H10072   2.896   3.426  11.206 -1.4136  0.7620 -0.0007
  677TMC3    H110073   3.003   3.813  11.368  0.9466 -0.6506  1.3298
  677TMC3    H210074   2.781   3.532  11.607  2.0143  0.1295  0.5235
  677TMC3    C710075   2.932   3.748  11.617  0.8287 -0.2381 -0.3542
  677TMC3    C810076   2.824   3.326  11.435  0.0246  0.6837  0.0338
  677TMC3    O110077   2.882   3.708  11.722 -0.2259 -0.3408 -0.1170
  677TMC3    O210078   2.706   3.298  11.458  0.3530  0.4167  0.7849
  678MPD2     C10079   4.310   3.933   1.274  0.3276 -0.1469  0.0856
  678MPD2    C110080   4.274   3.862   1.168  0.3931  0.0514 -0.3167
  678MPD2    C210081   4.147   3.878   1.125  0.1809  0.0010 -0.0982
  678MPD2    C310082   4.051   3.942   1.196 -0.1214 -0.1111 -0.5852
  678MPD2    C410083   4.087   4.013   1.304  0.7433  0.4950  0.8190
  678MPD2    C510084   4.218   4.008   1.352  0.1655 -0.6782  0.4675
  678MPD2     H10085   4.105   3.817   1.046  0.9667  0.3485 -0.7853
  678MPD2    H110086   4.003   4.046   1.364  0.0688  0.2396  0.0316
  678MPD2    H210087   4.411   3.918   1.311 -1.0427 -1.4480  3.2630
  678MPD2    H310088   4.235   4.075   1.436  0.4190 -1.4282  1.0138
  678MPD2     N10089   3.914   3.903   1.161  0.6156  0.3294 -1.0915
  678MPD2    H510090   3.900   3.827   1.095 -0.3584  0.5768 -1.1791
  678MPD2    N110091   4.360   3.775   1.095 -0.4218  0.1095  0.5160
  678MPD2    H710092   4.334   3.755   0.999 -0.4321  0.0105  0.5397
  679TMC3    C110093   4.708   3.448   1.066  0.4626  0.2492  1.3364
  679TMC3    C210094   4.634   3.543   1.144  0.3689  0.2188  0.0603
  679TMC3    C310095   4.555   3.626   1.071 -0.6157  0.6735  0.0280
  679TMC3    C410096   4.701   3.453   0.930  0.0194  0.4060 -0.1711
  679TMC3    C510097   4.625   3.551   0.866 -0.9398  0.6119 -0.0338
  679TMC3    C610098   4.548   3.637   0.938 -0.5224 -0.9141  0.2159
  679TMC3     C10099   0.006   3.310   1.104  0.3594 -0.0311 -0.5149
  679TMC3     O10100   0.036   3.228   1.018 -0.0407 -0.6959  0.0635
  679TMC3     H10101   4.637   3.533   1.252  0.6702 -1.4026 -0.0916
  679TMC3    H110102   0.004   3.381   0.865 -1.6477 -0.4177 -0.4662
  679TMC3    H210103   4.495   3.718   0.890  0.1912 -0.2704  0.5216
  679TMC3    C710104   4.625   3.581   0.723  0.1290  0.0475 -0.6711
  679TMC3    C810105   4.471   3.716   1.156 -0.3392 -0.3893  0.1575
  679TMC3    O110106   4.522   3.630   0.675 -0.0461  0.1607  0.2597
  679TMC3    O210107   4.469   3.702   1.276  0.2970  0.2872 -0.6261
  680MPD2     C10108   0.002   1.809  13.936  0.6330 -0.1029  0.5911
  680MPD2    C110109   0.057   1.781  14.057 -0.5503  0.4426  0.2650
  680MPD2    C210110   0.132   1.882  14.114  0.2387  0.3064  0.8209
  680MPD2    C310111   0.150   2.001  14.050  0.4023 -0.4103  0.0810
  680MPD2    C410112   0.098   2.020  13.927 -0.1672 -0.3340 -0.0695
  680MPD2    C510113   0.020   1.924  13.872 -0.5355  0.1894 -0.0161
  680MPD2     H10114   0.189   1.861  14.204  0.4743 -1.0651  0.3540
  680MPD2    H110115   0.108   2.109  13.865  0.1043  0.3814  1.0010
  680MPD2    H210116   4.678   1.738  13.889 -0.4531  1.5917 -0.4071
  680MPD2    H310117   4.714   1.947  13.779  0.1219  0.6996 -0.2394
  680MPD2     N10118   0.220   2.108  14.111  0.2269  0.2388 -0.4423
  680MPD2    H510119   0.264   2.181  14.057 -0.7674  1.6704  0.6773
  680MPD2    N110120   0.055   1.650  14.113  0.2804  0.6729  0.1842
  680MPD2    H710121   0.020   1.577  14.052 -0.3301  2.2695 -1.3907
  681TMC3    C110122   0.065   1.478  14.277 -0.3474  0.0224  0.0375
  681TMC3    C210123   0.063   1.447  14.412 -0.1030  1.0917 -0.7307
  681TMC3    C310124   0.021   1.328  14.456  0.1807 -0.1127  0.4497
  681TMC3    C410125   0.020   1.389  14.182 -0.5125 -0.2159 -0.2951
  681TMC3    C510126   4.732   1.265  14.229 -0.0894  0.3831 -0.5635
  681TMC3    C610127   4.725   1.233  14.364 -0.0104  0.4787  1.1217
  681TMC3     C10128   0.075   1.622  14.246 -0.2913 -0.2053  0.2980
  681TMC3     O10129   0.096   1.700  14.339 -0.1060 -0.1318 -0.8033
  681TMC3     H10130   0.113   1.518  14.475  1.1711 -0.8759  0.4741
  681TMC3    H110131   0.012   1.404  14.075 -0.4999  2.6931  0.1098
  681TMC3    H210132   4.706   1.135  14.406  2.9087 -0.4765  0.2368
  681TMC3    C710133   4.667   1.173  14.141 -0.0460  0.4361 -0.4004
  681TMC3    C810134   0.041   1.284  14.591  0.5951 -0.8700  0.0718
  681TMC3    O110135   4.566   1.117  14.184  0.6286  0.4639 -0.6478
  681TMC3    O210136   0.026   1.165  14.615 -0.4462  0.4055 -0.5678
  682MPD2     C10137   2.392   3.747  10.912  0.8435  0.5360 -0.2916
  682MPD2    C110138   2.325   3.625  10.928  0.3046  0.0302 -0.5506
  682MPD2    C210139   2.232   3.611  11.033 -0.5176 -0.0925  0.4949
  682MPD2    C310140   2.198   3.717  11.111  0.0192  0.0368  0.0153
  682MPD2    C410141   2.261   3.837  11.084  0.3818  0.1965  0.4109
  682MPD2    C510142   2.361   3.855  10.989 -0.0654  0.4427 -0.2821
  682MPD2     H10143   2.196   3.512  11.060  0.7387  0.0716  2.7584
  682MPD2    H110144   2.218   3.923  11.135 -0.2174  1.0015 -1.4517
  682MPD2    H210145   2.470   3.767  10.840  1.8841  0.1503  0.7417
  682MPD2    H310146   2.404   3.955  10.984 -1.3121  0.9972  0.0571
  682MPD2     N10147   2.110   3.711  11.219  0.6246 -0.0994  0.4307
  682MPD2    H510148   2.101   3.799  11.268 -0.3010 -0.1260  0.3138
  682MPD2    N110149   2.356   3.513  10.849 -0.0526 -0.3886  0.2514
  682MPD2    H710150   2.298   3.434  10.875 -0.7379 -0.4274 -1.4082
  683TMC3    C110151   1.990   3.610  11.593 -0.0067  0.6351  0.0762
  683TMC3    C210152   1.918   3.494  11.602 -0.3449  0.0509 -0.3946
  683TMC3    C310153   1.843   3.454  11.498 -0.1928  0.1566 -0.3271
  683TMC3    C410154   2.006   3.686  11.477  0.0057  0.5801 -0.2413
  683TMC3    C510155   1.945   3.625  11.365 -0.4074 -0.2900 -0.3100
  683TMC3    C610156   1.854   3.517  11.378  0.0157  0.4436 -0.0035
  683TMC3     C10157   2.069   3.657  11.706  0.8080 -0.4568 -0.0439
  683TMC3     O10158   2.108   3.773  11.696  0.1642 -0.5198 -0.2331
  683TMC3     H10159   1.904   3.445  11.698  2.6957 -0.1100 -0.0549
  683TMC3    H110160   2.079   3.765  11.469 -1.5119  2.0594  0.6122
  683TMC3    H210161   1.808   3.472  11.290 -1.3708  2.9174 -0.5430
  683TMC3    C710162   2.034   3.605  11.252  0.3309  0.3368  0.3235
  683TMC3    C810163   1.820   3.311  11.479 -0.0458 -0.8433 -0.0589
  683TMC3    O110164   2.026   3.495  11.197  0.5115  0.2155  0.8965
  683TMC3    O210165   1.706   3.275  11.454 -0.0762  0.0682 -0.3219
  684MPD2     C10166   0.588   2.639  16.642  0.0253 -0.5250 -0.2874
  684MPD2    C110167   0.522   2.675  16.521  0.2292  0.6117 -0.0169
  684MPD2    C210168   0.522   2.805  16.479 -0.0357 -0.0115  0.1651
  684MPD2    C310169   0.592   2.902  16.555 -0.3229 -0.6023  0.9298
  684MPD2    C410170   0.673   2.862  16.665 -0.6343  0.2123 -0.0912
  684MPD2    C510171   0.667   2.729  16.705  0.1149  0.2572 -0.3271
  684MPD2     H10172   0.472   2.819  16.384  0.9140 -2.6575 -0.7156
  684MPD2    H110173   0.738   2.929  16.719  1.9132 -2.7599  0.5234
  684MPD2    H210174   0.591   2.537  16.680  0.3756 -0.7795 -0.9936
  684MPD2    H310175   0.732   2.710  16.790 -1.7864 -1.1867  0.7892
  684MPD2     N10176   0.609   3.035  16.518 -0.1133 -0.0426 -0.0078
  684MPD2    H510177   0.675   3.089  16.573 -0.8508  0.2694  0.5709
  684MPD2    N110178   0.474   2.578  16.435 -0.0386  0.7634 -0.3617
  684MPD2    H710179   0.421   2.606  16.353  2.9636 -0.2432 -2.6543
  685TMC3    C110180   0.514   2.392  16.307 -0.1654 -0.3301 -0.0890
  685TMC3    C210181   0.418   2.444  16.227  0.2546  0.4552 -0.3701
  685TMC3    C310182   0.439   2.438  16.097  0.1916  0.0243 -0.3491
  685TMC3    C410183   0.638   2.345  16.260  0.2434  0.2249 -0.5468
  685TMC3    C510184   0.663   2.355  16.127 -0.7056  0.0467 -0.3183
  685TMC3    C610185   0.560   2.401  16.048 -0.1552  0.4495  0.0449
  685TMC3     C10186   0.530   2.451  16.431 -0.0954  0.2143 -0.4085
  685TMC3     O10187   0.622   2.398  16.496 -0.6211 -0.2598 -0.0023
  685TMC3     H10188   0.325   2.471  16.275  1.3349 -0.7589  2.4001
  685TMC3    H110189   0.715   2.299  16.320  0.9565  0.4817 -1.2772
  685TMC3    H210190   0.584   2.426  15.945  2.3500  2.2640  1.0655
  685TMC3    C710191   0.799   2.401  16.093 -0.3788  0.4250  0.3274
  685TMC3    C810192   0.335   2.447  15.994  0.6912  0.0983 -0.5097
  685TMC3    O110193   0.827   2.431  15.978  0.2063 -0.1331 -0.0392
  685TMC3    O210194   0.361   2.410  15.879 -0.0693  0.2833 -0.0357
  686MPD2     C10195   2.172   3.109  16.305 -0.0594  0.0227 -0.1736
  686MPD2    C110196   2.058   3.091  16.229 -0.2591  0.2043  0.4858
  686MPD2    C210197   2.051   2.976  16.148  0.8114 -0.3704 -0.2033
  686MPD2    C310198   2.152   2.880  16.138  0.0940  0.7897  0.5501
  686MPD2    C410199   2.270   2.909  16.200 -0.4150 -1.1957  1.0751
  686MPD2    C510200   2.276   3.022  16.282  0.7502  0.2616 -0.3564
  686MPD2     H10201   1.966   2.956  16.084  0.5982 -1.4278  0.3986
  686MPD2    H110202   2.353   2.840  16.197 -0.1486 -0.6980 -2.5319
  686MPD2    H210203   2.184   3.191  16.376  0.3054 -0.6158  0.5006
  686MPD2    H310204   2.368   3.043  16.334  0.2947 -0.1367  0.6198
  686MPD2     N10205   2.139   2.756  16.070  0.1822 -0.2617  0.4799
  686MPD2    H510206   2.213   2.686  16.079  1.0461  0.5203 -0.5266
  686MPD2    N110207   1.954   3.183  16.251 -0.2803  0.5323  0.1597
  686MPD2    H710208   1.989   3.264  16.301 -1.4133 -0.0757  1.8993
  687TMC3    C110209   2.021   2.578  15.996 -0.9957  0.0419  0.1018
  687TMC3    C210210   1.911   2.551  15.921  0.3358  0.7111  0.2858
  687TMC3    C310211   1.832   2.448  15.952 -0.3046 -0.5211 -0.6045
  687TMC3    C410212   2.056   2.494  16.100  0.5657  0.4231 -0.1387
  687TMC3    C510213   1.964   2.392  16.135 -0.0528  0.1723 -0.7703
  687TMC3    C610214   1.856   2.363  16.057 -0.1539 -0.8519  0.6394
  687TMC3     C10215   2.022   2.716  16.008  0.5643 -0.3981 -0.1363
  687TMC3     O10216   1.926   2.774  15.960  0.1479 -0.0685  0.1298
  687TMC3     H10217   1.900   2.595  15.823  2.3756 -0.5109 -0.4823
  687TMC3    H110218   2.146   2.518  16.154  0.6215 -2.0534  0.8138
  687TMC3    H210219   1.786   2.297  16.107 -0.9607 -1.4056 -1.2141
  687TMC3    C710220   2.012   2.294  16.228 -0.0575 -0.9988 -0.5928
  687TMC3    C810221   1.693   2.454  15.921 -0.5472  0.1581 -0.5109
  687TMC3    O110222   1.949   2.191  16.223 -0.5066  0.2692 -0.7486
  687TMC3    O210223   1.620   2.357  15.925 -0.3283  0.0919 -0.3772
  688MPD2     C10224   1.135   1.926  17.253  0.5658  0.2444  0.8129
  688MPD2    C110225   1.101   1.795  17.276 -0.2558 -0.2164 -0.1113
  688MPD2    C210226   1.158   1.696  17.200 -0.5357  0.0070 -0.3742
  688MPD2    C310227   1.248   1.724  17.098 -0.1776  0.1266 -0.3826
  688MPD2    C410228   1.284   1.852  17.083  0.2588 -0.0354  0.5709
  688MPD2    C510229   1.228   1.945  17.153  0.0252  0.4696  0.0208
  688MPD2     H10230   1.129   1.594  17.220 -0.7658 -0.0547 -1.0055
  688MPD2    H110231   1.357   1.883  17.009 -1.2644 -0.7959 -1.2474
  688MPD2    H210232   1.093   2.017  17.295  0.1162  0.1174  0.6278
  688MPD2    H310233   1.239   2.047  17.118  0.2507  0.4170 -0.0602
  688MPD2     N10234   1.309   1.636  17.001 -0.1503 -0.1720 -0.4492
  688MPD2    H510235   1.369   1.677  16.930 -1.0695  1.2585 -0.3878
  688MPD2    N110236   1.017   1.759  17.382 -0.3239  0.5480  0.0568
  688MPD2    H710237   1.018   1.661  17.411  1.1194  0.7935  0.8289
  689TMC3    C110238   0.937   1.782  17.605 -0.6013  0.0802  0.4408
  689TMC3    C210239   0.879   1.855  17.708 -0.3043  0.0534 -0.2905
  689TMC3    C310240   0.862   1.798   0.064  0.8272  0.3110  0.4148
  689TMC3    C410241   0.965   1.648  17.619  0.8853 -0.1150  0.6488
  689TMC3    C510242   0.978   1.615  17.754  0.5488  0.3206 -0.1694
  689TMC3    C610243   0.928   1.684   0.090 -0.2201 -0.0487  0.2509
  689TMC3     C10244   0.953   1.841  17.470  0.6254  0.4128  0.3128
  689TMC3     O10245   0.927   1.960  17.461 -0.6440 -0.0219 -0.1769
  689TMC3     H10246   0.844   1.956  17.687 -0.1517  0.2309  0.3195
  689TMC3    H110247   1.008   1.581  17.545  2.5057  2.1168 -0.4369
  689TMC3    H210248   0.917   1.634   0.185 -1.5298  1.2661  0.7879
  689TMC3    C710249   1.031   1.483   0.010  0.7374  0.0929 -0.8717
  689TMC3    C810250   0.791   1.844   0.181 -0.2146  0.0802 -0.3095
  689TMC3    O110251   1.090   1.468   0.118  0.3007  0.0087  0.4314
  689TMC3    O210252   0.833   1.814   0.289 -0.2081 -0.1236  0.7258
  690MPD2     C10253   3.763   3.833  15.755 -0.6620 -0.2132 -0.2225
  690MPD2    C110254   3.721   3.714  15.698  0.0255  0.3989  0.4090
  690MPD2    C210255   3.812   3.653  15.613 -0.3201 -0.4325 -0.0777
  690MPD2    C310256   3.926   3.713  15.565 -0.5783  0.7573  0.5522
  690MPD2    C410257   3.963   3.834  15.619 -0.2366 -0.1550 -0.2017
  690MPD2    C510258   3.889   3.885  15.717 -0.2435 -0.2232 -0.1992
  690MPD2     H10259   3.783   3.556  15.574 -0.1206  0.3404 -2.1402
  690MPD2    H110260   4.059   3.883  15.603  0.7455 -1.4339  1.7686
  690MPD2    H210261   3.710   3.892  15.829  1.7357  0.8431  0.6687
  690MPD2    H310262   3.938   3.971  15.762  2.3996 -0.6210 -2.3513
  690MPD2     N10263   3.992   3.649  15.458  0.5586 -0.1099 -0.2393
  690MPD2    H510264   3.944   3.569  15.418 -1.2520  1.4372 -1.1802
  690MPD2    N110265   3.609   3.642  15.742  0.7099 -0.3669 -0.0450
  690MPD2    H710266   3.590   3.547  15.711  0.7255  0.0266 -1.2500
  691TMC3    C110267   3.420   3.588  15.866  0.1291 -0.7523  0.0315
  691TMC3    C210268   3.287   3.604  15.851 -0.0718 -0.0704  1.0200
  691TMC3    C310269   3.206   3.499  15.891  0.6411 -0.2109 -0.3955
  691TMC3    C410270   3.486   3.485  15.923 -0.2682  0.3896  0.4963
  691TMC3    C510271   3.400   3.384  15.963  0.1212  0.1413 -0.4053
  691TMC3    C610272   3.262   3.385  15.936 -0.7402  0.2965 -0.0261
  691TMC3     C10273   3.508   3.691  15.820  0.1084  0.0633  0.3746
  691TMC3     O10274   3.464   3.806  15.808  0.0473  0.0884  0.0503
  691TMC3     H10275   3.238   3.692  15.811  0.6779 -1.0051 -1.9963
  691TMC3    H110276   3.591   3.492  15.949  0.3999  1.3230 -2.3967
  691TMC3    H210277   3.207   3.292  15.938  0.9584 -0.6643  1.4964
  691TMC3    C710278   3.465   3.272  16.030  0.5643 -0.0001  0.3126
  691TMC3    C810279   3.088   3.478  15.811  0.3611  0.1951 -0.5521
  691TMC3    O110280   3.588   3.261  16.027  0.0785  0.1559  0.8186
  691TMC3    O210281   3.084   3.367  15.758  0.2427  0.4374 -0.4232
  692TMC3    C110282   0.029   4.343  15.963  0.1824 -0.1357 -0.1663
  692TMC3    C210283   0.134   4.395  16.015  0.6135  0.4639 -0.2723
  692TMC3    C310284   0.237   4.301  16.050  0.0168 -0.9934 -0.4512
  692TMC3    C410285   0.002   4.211  15.951 -0.0476 -0.0278  0.1960
  692TMC3    C510286   0.103   4.130  15.982  0.5543 -0.2889  0.0412
  692TMC3    C610287   0.209   4.169  16.047 -0.5046 -0.1271 -0.1483
  692TMC3     C10288   4.671   4.436  15.951  0.6476 -0.3013  0.1759
  692TMC3     O10289   4.678   4.544  16.018  0.1067 -0.4204 -0.1037
  692TMC3     H10290   0.147   4.503  16.005 -2.3034  0.6228 -2.6048
  692TMC3    H110291   4.649   4.173  15.922 -0.1639 -0.4418  1.1011
  692TMC3    H210292   0.296   4.106  16.065 -1.7326 -1.9015 -0.5349
  692TMC3    C710293   0.080   3.989  15.953 -0.6774  0.5131  0.1763
  692TMC3    C810294   0.293   4.349  16.169 -0.3518  0.3947 -0.2025
  692TMC3    O110295   4.738   3.963  15.872 -0.8608  0.2593  0.2197
  692TMC3    O210296   0.357   4.453  16.147  0.2441 -0.0201 -0.5264
  693MPD2     C10297   4.420   3.014  10.888 -0.2190 -0.2270 -0.4586
  693MPD2    C110298   4.415   2.894  10.819  0.6935  0.0073 -0.4189
  693MPD2    C210299   4.499   2.792  10.851 -0.3322  0.6465 -0.0787
  693MPD2    C310300   4.590   2.806  10.952  0.1777  0.0770  0.3782
  693MPD2    C410301   4.604   2.931  11.015 -0.1929  0.5377  0.3075
  693MPD2    C510302   4.521   3.030  10.976 -0.2157 -0.1076 -0.5572
  693MPD2     H10303   4.497   2.698  10.795  0.2968  0.4558  0.2260
  693MPD2    H110304   4.672   2.961  11.094  2.5227  1.4570 -2.3753
  693MPD2    H210305   4.359   3.096  10.853 -2.2444 -1.6114 -0.1913
  693MPD2    H310306   4.539   3.125  11.024 -0.9901 -0.8656  1.2214
  693MPD2     N10307   4.658   2.693  11.011 -0.6591  0.3420  0.6275
  693MPD2    H510308   4.708   2.699  11.099 -1.3616 -0.2032  1.0664
  693MPD2    N110309   4.305   2.879  10.723 -1.2070  0.3009 -0.4398
  693MPD2    H710310   4.233   2.949  10.740  0.1409  1.4774  0.4288
  694TMC3    C110311   4.145   2.804  10.573 -0.2993  0.0433  0.2317
  694TMC3    C210312   4.111   2.799  10.439 -0.2142 -0.5098  0.2282
  694TMC3    C310313   3.988   2.842  10.396 -0.0109 -1.0267  0.3072
  694TMC3    C410314   4.042   2.807  10.668  0.8626  0.0468 -0.3643
  694TMC3    C510315   3.916   2.839  10.625 -1.0495  0.0194  0.0818
  694TMC3    C610316   3.892   2.868  10.489  0.2096  0.5580 -0.4850
  694TMC3     C10317   4.281   2.786  10.624 -0.8286  0.1991  0.7586
  694TMC3     O10318   4.352   2.700  10.573 -0.0857  0.2308  0.4051
  694TMC3     H10319   4.194   2.784  10.371  0.0830 -0.6453  0.6213
  694TMC3    H110320   4.060   2.793  10.774 -0.3149  0.4882 -0.1088
  694TMC3    H210321   3.795   2.881  10.443 -1.2391  1.1646  2.7522
  694TMC3    C710322   3.811   2.833  10.719  0.9644  0.2362  0.4896
  694TMC3    C810323   3.941   2.807  10.264 -0.4525  0.3509 -0.1279
  694TMC3    O110324   3.711   2.905  10.702  1.1136  0.1772  0.2427
  694TMC3    O210325   3.917   2.902  10.186  0.2234 -0.1742 -0.1488
  695MPD2     C10326   0.713   3.805  13.486 -0.3588  0.3134 -0.5137
  695MPD2    C110327   0.637   3.819  13.603 -0.1840  0.8072 -0.4149
  695MPD2    C210328   0.500   3.843  13.601  0.3204 -0.4980  0.3675
  695MPD2    C310329   0.435   3.852  13.481 -0.3722  0.1091 -0.5739
  695MPD2    C410330   0.506   3.834  13.366 -0.3654 -0.7174 -0.2041
  695MPD2    C510331   0.641   3.812  13.367 -0.8979  0.3971  0.2893
  695MPD2     H10332   0.446   3.850  13.694 -2.2285  1.5694 -1.2421
  695MPD2    H110333   0.462   3.834  13.267 -0.6450  0.1884 -0.0774
  695MPD2    H210334   0.821   3.790  13.484 -0.4411 -0.5470  1.8487
  695MPD2    H310335   0.699   3.808  13.276 -0.9587  0.9472  0.2242
  695MPD2     N10336   0.295   3.873  13.485  0.6137  0.5247  0.4299
  695MPD2    H510337   0.257   3.894  13.577 -1.5915  0.4210 -0.4488
  695MPD2    N110338   0.698   3.813  13.734 -0.2553  0.4652 -0.1343
  695MPD2    H710339   0.642   3.844  13.812 -2.2226  0.7044 -1.6381
  696TMC3    C110340   0.071   3.889  13.410  0.3409  0.0553 -0.5998
  696TMC3    C210341   0.017   3.831  13.527 -0.7185 -0.0739 -0.9555
  696TMC3    C310342   4.647   3.881  13.575 -1.2223 -0.1715  0.9552
  696TMC3    C410343   0.000   3.976  13.332 -0.4858 -0.3693  0.4738
  696TMC3    C510344   4.621   4.016  13.380  0.0623  0.5608 -0.9596
  696TMC3    C610345   4.572   3.969  13.499 -0.1318 -0.0536 -0.0871
  696TMC3     C10346   0.210   3.866  13.374 -0.0638 -0.0557  0.6235
  696TMC3     O10347   0.234   3.873  13.253  0.2446 -0.0844 -0.0308
  696TMC3     H10348   0.066   3.751  13.582  0.2181 -0.3713 -2.2104
  696TMC3    H110349   0.044   4.034  13.251 -2.9158  0.9080  0.0718
  696TMC3    H210350   4.474   4.000  13.531 -0.7018 -0.2608 -1.6603
  696TMC3    C710351   4.604   4.159  13.377  0.1846 -0.4149 -0.1291
  696TMC3    C810352   4.643   3.933  13.707 -0.5544 -0.6581 -0.5342
  696TMC3    O110353   4.641   4.212  13.275  0.4582 -0.0780  0.0806
  696TMC3    O210354   4.583   4.044  13.719  0.0737 -0.8202 -0.4882
  697MPD2     C10355   4.567   0.870  15.567  0.0020  0.1541  0.2514
  697MPD2    C110356   4.506   0.845  15.447  0.4617  0.0651 -0.8047
  697MPD2    C210357   4.464   0.949  15.369  0.3296 -0.1712 -0.0328
  697MPD2    C310358   4.501   1.080  15.398 -1.0761  0.6085 -0.3583
  697MPD2    C410359   4.557   1.104  15.521 -0.0023 -0.2916  0.7308
  697MPD2    C510360   4.578   1.000  15.606  0.6328  0.0655 -0.2813
  697MPD2     H10361   4.401   0.927  15.284 -0.1913 -0.7894  0.5164
  697MPD2    H110362   4.578   1.206  15.551 -1.0953 -0.2581  1.4033
  697MPD2    H210363   4.582   0.791  15.640 -0.1045 -1.8811 -1.9454
  697MPD2    H310364   4.612   1.029  15.705 -1.3119  1.2534  0.0422
  697MPD2     N10365   4.487   1.178  15.293 -0.1300 -0.7219 -0.0227
  697MPD2    H510366   4.417   1.148  15.225  1.8757 -0.3596 -2.2158
  697MPD2    N110367   4.457   0.712  15.423  0.0127  0.0163  0.2372
  697MPD2    H710368   4.457   0.641  15.495  1.7678  0.8986  1.1026
  698TMC3    C110369   4.510   1.379  15.165  0.3116 -0.1504 -0.2560
  698TMC3    C210370   4.535   1.516  15.165 -0.9191 -0.1336  0.3298
  698TMC3    C310371   4.525   1.561  15.032 -0.3931 -0.4120  0.0795
  698TMC3    C410372   4.458   1.300  15.058 -0.2561  0.0526  0.4445
  698TMC3    C510373   4.457   1.360  14.932  0.1464  0.0189 -0.2822
  698TMC3    C610374   4.494   1.487  14.919 -0.2385  0.9728 -0.2127
  698TMC3     C10375   4.540   1.306  15.290  0.5320  0.5724  0.3497
  698TMC3     O10376   4.609   1.365  15.370 -0.3224  0.0052  0.3288
  698TMC3     H10377   4.543   1.572  15.257  1.7670  0.2717 -0.1674
  698TMC3    H110378   4.440   1.194  15.068  2.0782 -0.3445  0.3996
  698TMC3    H210379   4.489   1.528  14.819  1.4413 -0.1582 -0.7728
  698TMC3    C710380   4.429   1.291  14.813  0.0008 -0.5154 -0.6256
  698TMC3    C810381   4.557   1.700  15.014  0.1441 -0.4775 -0.1970
  698TMC3    O110382   4.421   1.350  14.703  0.1250 -0.6161  0.2377
  698TMC3    O210383   4.512   1.751  14.914 -0.1307 -0.8009 -0.9639
  699TMC3    C110384   4.269   4.563  12.942  0.5003 -0.0259 -0.8170
  699TMC3    C210385   4.324   4.456  12.878  0.0185 -0.9002 -0.6678
  699TMC3    C310386   4.227   4.361  12.853 -0.8369 -0.1465  0.4806
  699TMC3    C410387   4.137   4.591  12.966 -0.0963 -0.5265  0.1987
  699TMC3    C510388   4.048   4.496  12.932 -0.1049  0.7255  1.4014
  699TMC3    C610389   4.090   4.378  12.874  0.1827 -0.3642 -0.4009
  699TMC3     C10390   4.357   4.679  12.930  1.0883 -0.1525 -1.0034
  699TMC3     O10391   4.298   0.040  12.932  0.6355  0.0730 -0.1326
  699TMC3     H10392   4.430   4.437  12.869  0.4357  0.9844  0.2485
  699TMC3    H110393   4.092   4.684  13.000 -0.4443 -0.5819 -0.1137
  699TMC3    H210394   4.022   4.306  12.829 -1.2247  1.4915 -1.2803
  699TMC3    C710395   3.952   4.471  13.033 -0.1278  0.6610 -0.2842
  699TMC3    C810396   4.268   4.225  12.839  0.0897 -0.0456  0.1919
  699TMC3    O110397   3.980   4.525  13.140 -0.2549 -0.0329  0.2707
  699TMC3    O210398   4.177   4.143  12.859  0.3055 -0.5510 -0.4595
  700TMC3    C110399   3.721   2.226  17.119 -0.2631  0.5119 -0.0184
  700TMC3    C210400   3.762   2.093  17.118 -0.3101 -0.1151 -0.6263
  700TMC3    C310401   3.864   2.052  17.200 -0.0697  0.0097  0.1036
  700TMC3    C410402   3.785   2.311  17.202  0.2887  0.5678 -0.1907
  700TMC3    C510403   3.886   2.272  17.278 -0.0143  0.6563  0.5938
  700TMC3    C610404   3.925   2.144  17.284 -0.9370 -0.0498 -0.5168
  700TMC3     C10405   3.672   2.277  16.991  0.1833  0.7279  0.1003
  700TMC3     O10406   3.598   2.202  16.926 -0.1458 -0.0407 -0.2937
  700TMC3     H10407   3.715   2.023  17.050 -0.2730  0.5339 -1.3186
  700TMC3    H110408   3.739   2.409  17.208 -2.0910 -0.6277  1.0285
  700TMC3    H210409   4.007   2.115  17.349 -2.3815 -1.0418  0.8352
  700TMC3    C710410   3.920   2.353  17.390 -0.5467  0.6018 -0.1672
  700TMC3    C810411   3.933   1.926  17.181  0.2868 -0.3707 -0.1325
  700TMC3    O110412   4.033   2.338  17.432  0.0381 -0.1808 -0.5571
  700TMC3    O210413   4.054   1.922  17.183 -0.3645 -0.4125 -0.0445
  701TMC3    C110414   3.737   0.600  15.533 -0.3788 -0.2530  0.5823
  701TMC3    C210415   3.725   0.621  15.393 -0.4609  0.4798  0.3893
  701TMC3    C310416   3.830   0.675  15.325  0.2781  0.3255 -0.5162
  701TMC3    C410417   3.851   0.635  15.597  0.5727  0.0544  0.7497
  701TMC3    C510418   3.954   0.677  15.518 -0.9616  0.4758 -0.6343
  701TMC3    C610419   3.947   0.706  15.384 -0.0995  1.0558  0.5553
  701TMC3     C10420   3.629   0.552  15.614 -0.3239  1.2430 -0.1476
  701TMC3     O10421   3.633   0.592  15.729  0.5696  0.2222 -0.1659
  701TMC3     H10422   3.632   0.595  15.346  0.2211  0.3748 -0.8978
  701TMC3    H110423   3.854   0.628  15.705  1.3546  3.7056  0.9535
  701TMC3    H210424   4.027   0.758  15.332 -0.7606  1.0318 -0.4890
  701TMC3    C710425   4.066   0.736  15.589  0.0596  0.1662  0.1519
  701TMC3    C810426   3.813   0.699  15.178  0.1142 -0.0496 -0.0810
  701TMC3    O110427   4.117   0.834  15.540  0.2387 -0.1242  0.0958
  701TMC3    O210428   3.896   0.768  15.119 -0.0305 -0.2346  0.9371
  702MPD2     C10429   3.432   3.248  10.274 -0.4140 -0.3221 -0.3231
  702MPD2    C110430   3.350   3.246  10.386  0.0301  0.3100  0.5124
  702MPD2    C210431   3.282   3.360  10.425  0.4854  1.5245  0.7487
  702MPD2    C310432   3.289   3.475  10.351 -0.1219 -0.2383 -0.2679
  702MPD2    C410433   3.351   3.472  10.225  0.6079 -0.3127  0.4145
  702MPD2    C510434   3.421   3.354  10.187  0.7102 -0.2487  0.0645
  702MPD2     H10435   3.218   3.350  10.512  0.4424 -1.3330  0.3701
  702MPD2    H110436   3.350   3.551  10.151  2.6867 -2.4314 -1.8428
  702MPD2    H210437   3.490   3.166  10.232 -0.1657  0.9494 -2.4273
  702MPD2    H310438   3.479   3.360  10.096 -0.9563  0.1560 -0.9813
  702MPD2     N10439   3.218   3.589  10.404 -0.3901  0.2408  0.7334
  702MPD2    H510440   3.166   3.577  10.491  0.9744 -3.7450  0.9995
  702MPD2    N110441   3.338   3.128  10.473 -0.4422 -0.2503  0.3397
  702MPD2    H710442   3.278   3.133  10.555 -0.0824  0.6262  0.5506
  703TMC3    C110443   3.178   3.795  10.464  0.2991 -0.3904  0.5265
  703TMC3    C210444   3.086   3.723  10.541  0.2098 -0.2630 -0.0316
  703TMC3    C310445   3.092   3.731  10.678 -0.6006 -0.1502 -0.2901
  703TMC3    C410446   3.277   3.865  10.525 -1.2205  1.2868 -0.2134
  703TMC3    C510447   3.275   3.870  10.661  0.7916 -0.4348  0.1322
  703TMC3    C610448   3.179   3.815  10.745 -0.2737  0.0708  0.0337
  703TMC3     C10449   3.234   3.714  10.362 -0.4856 -0.7587  0.4337
  703TMC3     O10450   3.317   3.756  10.282 -0.1755  0.0510 -0.5415
  703TMC3     H10451   3.004   3.667  10.498  0.0558  0.3452 -0.5441
  703TMC3    H110452   3.352   3.905  10.458  0.0160  1.3499  1.1999
  703TMC3    H210453   3.182   3.807  10.853 -0.0078  1.2740  0.1142
  703TMC3    C710454   3.407   3.901  10.715 -0.1472 -0.9997  0.3834
  703TMC3    C810455   3.071   3.603  10.731  0.0593 -0.2478 -0.4146
  703TMC3    O110456   3.491   3.911  10.626 -0.0853  0.0737 -0.3397
  703TMC3    O210457   3.114   3.508  10.670  0.6427 -0.6875  0.0453
  704TMC3    C110458   1.237   1.247  12.385  0.0601  0.4516  0.1064
  704TMC3    C210459   1.288   1.197  12.270  0.0688  0.6590  0.5627
  704TMC3    C310460   1.399   1.115  12.273 -0.7798  0.6572  0.0463
  704TMC3    C410461   1.295   1.209  12.510 -0.3688  0.1686 -0.3077
  704TMC3    C510462   1.404   1.126  12.507 -0.5112 -0.2486  0.4060
  704TMC3    C610463   1.459   1.076  12.390 -0.5515 -0.1622 -0.0494
  704TMC3     C10464   1.110   1.318  12.386 -0.0872  0.9388 -1.1717
  704TMC3     O10465   1.067   1.333  12.499  0.5585 -0.4122 -0.4901
  704TMC3     H10466   1.251   1.220  12.171  0.9282 -1.8618 -0.3472
  704TMC3    H110467   1.256   1.237  12.607  1.9506 -0.1242  0.7167
  704TMC3    H210468   1.541   1.006  12.389 -0.7289 -0.3869  0.7354
  704TMC3    C710469   1.462   1.069  12.630  0.0822  0.0738  0.1640
  704TMC3    C810470   1.384   0.998  12.195  0.0116 -0.1591 -0.0479
  704TMC3    O110471   1.391   1.044  12.730 -0.0129 -0.0533 -0.0971
  704TMC3    O210472   1.272   0.945  12.189 -0.0305  0.3981  0.0854
  705MPD2     C10473   0.275   3.997  16.881 -0.7123 -0.0944 -0.2251
  705MPD2    C110474   0.250   4.124  16.829  0.2025 -0.3326 -0.3779
  705MPD2    C210475   0.159   4.202  16.882 -0.3373 -0.3004 -0.0009
  705MPD2    C310476   0.088   4.162  16.992  0.3829 -0.4379 -0.8913
  705MPD2    C410477   0.128   4.045  17.056 -1.0575 -0.7001 -0.6199
  705MPD2    C510478   0.209   3.957  16.992 -0.4306 -0.1573 -0.0944
  705MPD2     H10479   0.145   4.298  16.832  2.5886  0.7557  1.2088
  705MPD2    H110480   0.078   4.005  17.143  1.0577 -0.6609  0.6161
  705MPD2    H210481   0.338   3.919  16.839 -0.7886  0.9297 -2.2051
  705MPD2    H310482   0.234   3.870  17.052  1.4678  0.4189 -0.0527
  705MPD2     N10483   4.727   4.233  17.054 -0.1630  0.4788  0.8131
  705MPD2    H510484   4.685   4.198  17.140 -0.8409  0.9873  0.6787
  705MPD2    N110485   0.325   4.177  16.725  0.6604 -0.3660 -0.3989
  705MPD2    H710486   0.317   4.277  16.710 -0.0630 -0.5236 -1.0557
  706TMC3    C110487   0.733   4.173  16.519  0.7613 -0.3302  0.1606
  706TMC3    C210488   0.758   4.303  16.546 -0.8308  0.6270  0.6579
  706TMC3    C310489   0.656   4.381  16.592 -0.2251  0.0479  0.3227
  706TMC3    C410490   0.618   4.107  16.541  0.3447 -0.3969  0.4597
  706TMC3    C510491   0.520   4.185  16.597 -0.9699 -0.3239 -0.5172
  706TMC3    C610492   0.533   4.323  16.620  0.3541  0.8832  0.2956
  706TMC3     C10493   0.843   4.100  16.458 -0.6684  0.0893 -0.4819
  706TMC3     O10494   0.959   4.105  16.503  0.0192  0.1376  0.2053
  706TMC3     H10495   0.854   4.338  16.511  0.9253 -4.0913  0.7611
  706TMC3    H110496   0.610   4.003  16.510  1.6962 -0.5263  0.5541
  706TMC3    H210497   0.458   4.372  16.681 -1.6258  1.0529 -2.2817
  706TMC3    C710498   0.419   4.108  16.664 -0.6077  0.2178  0.6635
  706TMC3    C810499   0.649   4.500  16.510 -0.3538 -0.2436 -0.2312
  706TMC3    O110500   0.425   3.992  16.636  0.5611 -0.3113 -0.5480
  706TMC3    O210501   0.692   4.486  16.395 -0.1820  0.6880 -0.2504
  707TMC3    C110502   2.123   3.543   0.067 -0.2271  0.1003  0.1756
  707TMC3    C210503   2.053   3.423   0.054 -0.2384 -0.8313  0.7207
  707TMC3    C310504   1.915   3.446   0.044 -0.1904  0.1969 -0.2977
  707TMC3    C410505   2.063   3.665   0.078  0.3919 -0.2497 -0.5182
  707TMC3    C510506   1.930   3.674   0.064  0.7914 -0.3205 -0.1016
  707TMC3    C610507   1.855   3.567   0.045 -0.1220 -0.0163 -0.0928
  707TMC3     C10508   2.268   3.540   0.092  0.4294 -0.2888 -0.8335
  707TMC3     O10509   2.319   3.640   0.139  0.7517  0.4795  0.6574
  707TMC3     H10510   2.091   3.322   0.043  0.4596 -0.5279  0.3642
  707TMC3    H110511   2.128   3.750   0.097 -1.4793  0.8271  1.0029
  707TMC3    H210512   1.747   3.577   0.054 -0.0673  0.6271 -0.1897
  707TMC3    C710513   1.862   3.797   0.041 -0.0597 -0.4008  0.3835
  707TMC3    C810514   1.821   3.337   0.082  0.4220  0.5488  0.0388
  707TMC3    O110515   1.742   3.799   0.051  0.0276  0.0035  0.5258
  707TMC3    O210516   1.702   3.365   0.064  0.0791  0.0771  0.6721
  708MPD2     C10517   3.295   1.947  14.423  0.3715 -0.0693  0.3477
  708MPD2    C110518   3.388   2.048  14.400 -0.1651  0.0448 -0.2111
  708MPD2    C210519   3.475   2.072  14.505 -0.3188  0.5037  0.6621
  708MPD2    C310520   3.474   2.005  14.627  0.2045  0.1406  0.1441
  708MPD2    C410521   3.374   1.908  14.649 -0.4225  0.5322 -0.2981
  708MPD2    C510522   3.288   1.885  14.546  0.3491  0.6014 -0.0594
  708MPD2     H10523   3.546   2.154  14.493 -1.0317  0.9657 -0.4388
  708MPD2    H110524   3.362   1.859  14.745 -0.7453 -2.5217 -1.9218
  708MPD2    H210525   3.223   1.926  14.344  0.8186  1.1541 -0.3730
  708MPD2    H310526   3.210   1.812  14.563  0.0555  1.0041  0.3113
  708MPD2     N10527   3.544   2.052  14.739  0.3933  0.0536 -0.0008
  708MPD2    H510528   3.514   2.022  14.831 -0.0199  1.4184  0.3063
  708MPD2    N110529   3.381   2.133  14.286  0.2568 -0.5481  0.3054
  708MPD2    H710530   3.308   2.109  14.220  0.7507  0.1788 -0.4932
  709TMC3    C110531   3.397   2.339  14.171  0.2745  0.7575  0.3463
  709TMC3    C210532   3.300   2.282  14.085 -0.1312 -0.1169  0.5584
  709TMC3    C310533   3.183   2.347  14.072 -0.4930  1.0990  0.4748
  709TMC3    C410534   3.365   2.448  14.246  0.3565 -0.2233  0.4715
  709TMC3    C510535   3.236   2.486  14.253  0.1959  0.0555 -0.6401
  709TMC3    C610536   3.140   2.429  14.164 -0.4471 -0.1569  0.2223
  709TMC3     C10537   3.464   2.238  14.248  0.7300  0.2024  0.5483
  709TMC3     O10538   3.572   2.276  14.296 -0.0761 -0.5907  0.2082
  709TMC3     H10539   3.332   2.200  14.022  0.4041  0.0674  0.5849
  709TMC3    H110540   3.433   2.487  14.320  1.5440 -0.8418 -0.2926
  709TMC3    H210541   3.037   2.463  14.165 -0.9088 -1.6459  2.3382
  709TMC3    C710542   3.188   2.540  14.379 -0.1214 -0.4626  0.2948
  709TMC3    C810543   3.088   2.300  13.974  0.0023  0.0761  0.2573
  709TMC3    O110544   3.270   2.607  14.438  0.1219 -0.5637  0.4977
  709TMC3    O210545   2.971   2.310  14.005  0.3421  0.1895  0.6921
  710TMC3    C110546   4.408   3.990  17.759  0.3640 -1.1479 -0.0441
  710TMC3    C210547   4.486   3.984  17.648 -0.1290 -0.0672 -0.2361
  710TMC3    C310548   4.583   3.891  17.652  0.3889  0.2682 -0.7362
  710TMC3    C410549   4.421   3.905   0.091  0.3470 -0.0251 -0.5930
  710TMC3    C510550   4.521   3.815   0.086  0.4313 -0.9299  0.4701
  710TMC3    C610551   4.612   3.806  17.757 -0.7824  0.2114 -0.4556
  710TMC3     C10552   4.294   4.077  17.745  0.1003 -0.7295 -0.6476
  710TMC3     O10553   4.277   4.113  17.629 -0.0538 -0.5309  0.3900
  710TMC3     H10554   4.472   4.043  17.558  0.1260 -0.7589 -0.7274
  710TMC3    H110555   4.366   3.916   0.183 -1.0552  0.8887 -1.5435
  710TMC3    H210556   4.708   3.755  17.758 -1.4446 -0.9565  2.1597
  710TMC3    C710557   4.566   3.757   0.215  0.0921  0.0213 -0.3075
  710TMC3    C810558   4.671   3.888  17.539 -0.0392 -0.0713  0.6819
  710TMC3    O110559   4.518   3.794   0.322 -0.1003  0.5492  0.4202
  710TMC3    O210560   4.671   3.985  17.466  0.4138 -0.3363  0.6366
  711TMC3    C110561   4.243   4.314  14.979  0.9838  0.3864  0.5469
  711TMC3    C210562   4.311   4.292  15.097  0.5569 -0.2483 -0.5374
  711TMC3    C310563   4.358   4.391  15.173 -0.0938  0.0094  0.2539
  711TMC3    C410564   4.211   4.438  14.945 -0.3086 -0.5189 -0.1490
  711TMC3    C510565   4.261   4.542  15.016  0.2780  0.7470  0.7145
  711TMC3    C610566   4.335   4.524  15.137 -0.9660  0.0745 -0.1736
  711TMC3     C10567   4.307   4.248  14.869  0.5922  0.2440  0.2443
  711TMC3     O10568   4.252   4.256  14.756  0.2927 -0.0423 -0.0285
  711TMC3     H10569   4.313   4.191  15.136 -0.8523  0.0007  0.1493
  711TMC3    H110570   4.187   4.457  14.841  0.2584  2.9083  0.3320
  711TMC3    H210571   4.380   4.607  15.191  0.3532 -0.1969 -0.8534
  711TMC3    C710572   4.256   4.675  14.948 -0.1381  0.0761 -0.5022
  711TMC3    C810573   4.488   4.354  15.235  0.1800 -0.7146  0.1035
  711TMC3    O110574   4.161   0.008  14.983 -0.8066 -0.1776 -0.8858
  711TMC3    O210575   4.550   4.266  15.176 -0.6328  0.2279  0.5283
  712MPD2     C10576   1.270   0.716  13.690  0.1423  0.6717  0.2592
  712MPD2    C110577   1.136   0.696  13.728  0.9360  0.8832  0.7145
  712MPD2    C210578   1.093   0.716  13.858  0.3289  0.0492 -0.4092
  712MPD2    C310579   1.178   0.767  13.951  0.5205 -0.4421  0.0243
  712MPD2    C410580   1.309   0.782  13.920 -0.1028  0.0168 -0.1999
  712MPD2    C510581   1.355   0.765  13.792 -0.2310 -0.1454  0.5247
  712MPD2     H10582   0.988   0.694  13.873  0.3281 -0.2287 -0.8429
  712MPD2    H110583   1.386   0.809  13.992  0.6774  0.8058 -1.3325
  712MPD2    H210584   1.292   0.711  13.584  0.6687  0.5621  0.3759
  712MPD2    H310585   1.458   0.789  13.766 -0.9830  2.0724 -0.3889
  712MPD2     N10586   1.141   0.801  14.083 -0.2796 -0.1759 -0.6359
  712MPD2    H510587   1.220   0.833  14.139 -0.5507  1.3976 -1.1345
  712MPD2    N110588   1.043   0.657  13.625  0.0680 -0.5414  0.1390
  712MPD2    H710589   1.072   0.676  13.530 -0.2358 -0.4870  0.0600
  713TMC3    C110590   1.008   0.871  14.255 -0.1063 -0.4268  0.0910
  713TMC3    C210591   1.114   0.840  14.344  0.2106 -0.4549  0.1888
  713TMC3    C310592   1.163   0.940  14.417  0.2569  0.6594 -0.5082
  713TMC3    C410593   0.936   0.989  14.263 -1.1827  0.2123 -0.3061
  713TMC3    C510594   0.992   1.086  14.339 -0.2958  0.0662 -1.0708
  713TMC3    C610595   1.102   1.062  14.410  0.3274  0.1442  0.1722
  713TMC3     C10596   1.011   0.806  14.123  0.4668  0.2903  0.0821
  713TMC3     O10597   0.912   0.811  14.048  0.1339  0.0844  0.1484
  713TMC3     H10598   1.155   0.740  14.350  0.6187 -0.3437 -0.8130
  713TMC3    H110599   0.841   1.001  14.212 -0.8510 -1.3235 -1.2681
  713TMC3    H210600   1.164   1.141  14.452  0.2056  0.6232 -0.5482
  713TMC3    C710601   0.939   1.216  14.336 -0.1238  0.9207  0.2190
  713TMC3    C810602   1.303   0.950  14.382 -0.0360 -0.0408 -0.3403
  713TMC3    O110603   1.001   1.286  14.411 -0.6057 -0.2596  0.0930
  713TMC3    O210604   1.336   0.893  14.276 -0.1812  1.0292 -0.1876
  714MPD2     C10605   2.661   4.732   0.760  0.6832 -0.3651  0.4934
  714MPD2    C110606   2.663   4.592   0.780 -1.3334  0.3749 -0.0535
  714MPD2    C210607   2.564   4.508   0.725 -0.7401  0.2598 -0.8361
  714MPD2    C310608   2.464   4.568   0.655  0.0226  0.2439 -0.2630
  714MPD2    C410609   2.468   4.703   0.626 -0.0104 -0.2430  0.7681
  714MPD2    C510610   2.560   0.039   0.684  0.0132  0.6524  0.2011
  714MPD2     H10611   2.561   4.403   0.750  1.4198  0.9074  2.1830
  714MPD2    H110612   2.386   0.007   0.574  0.8103  0.3637  0.0343
  714MPD2    H210613   2.711   0.057   0.827  0.2096 -1.0982  1.6073
  714MPD2    H310614   2.548   0.146   0.674  0.6526  0.8157  1.1910
  714MPD2     N10615   2.358   4.482   0.619  1.3280  0.3129 -0.3893
  714MPD2    H510616   2.351   4.395   0.670  0.2805  0.0368 -1.0002
  714MPD2    N110617   2.767   4.542   0.870  0.6811 -0.3806 -0.0335
  714MPD2    H710618   2.823   4.610   0.921  2.6044 -0.9313 -1.4248
  715TMC3    C110619   2.944   4.397   0.940  0.4462  0.4855 -0.3297
  715TMC3    C210620   3.021   4.284   0.915 -0.4570  0.5438 -0.0843
  715TMC3    C310621   3.142   4.271   0.974 -0.6467  0.3602 -0.2564
  715TMC3    C410622   2.991   4.489   1.031  0.0499  0.8386  0.4524
  715TMC3    C510623   3.110   4.463   1.092 -0.4719 -0.8410 -0.0766
  715TMC3    C610624   3.189   4.354   1.065 -0.0814 -0.2336 -0.2208
  715TMC3     C10625   2.820   4.418   0.865 -0.9378 -1.2038  0.0508
  715TMC3     O10626   2.775   4.323   0.805 -0.3284  0.2704 -0.0241
  715TMC3     H10627   2.994   4.205   0.846  0.0234  0.9399 -0.7288
  715TMC3    H110628   2.938   4.583   1.046  0.3286  1.1707 -0.6058
  715TMC3    H210629   3.264   4.327   1.138 -0.0320 -2.0575 -0.9483
  715TMC3    C710630   3.169   4.555   1.191  0.1695  0.1647 -0.7535
  715TMC3    C810631   3.223   4.151   0.942 -0.0357  0.6421  0.3610
  715TMC3    O110632   3.289   4.545   1.214 -0.1426  0.3518 -0.9414
  715TMC3    O210633   3.173   4.050   0.898 -0.2477 -0.3931 -0.0671
  716MPD2     C10634   3.379   3.033   9.959 -0.0847 -0.1445  1.7292
  716MPD2    C110635   3.334   3.102   9.852 -0.5163 -0.2634  0.6221
  716MPD2    C210636   3.369   3.061   9.725  0.5366  0.4187  0.5966
  716MPD2    C310637   3.459   2.951   9.711 -0.0516 -0.5246  0.2370
  716MPD2    C410638   3.511   2.890   9.827  0.1637  0.2221  0.0533
  716MPD2    C510639   3.459   2.926   9.949 -0.8065  0.3724  0.3946
  716MPD2     H10640   3.338   3.104   9.630 -0.3371 -0.5962  0.4250
  716MPD2    H110641   3.588   2.814   9.829 -0.0331 -0.0084 -1.3053
  716MPD2    H210642   3.344   3.070  10.054  0.9479  1.1098  1.6269
  716MPD2    H310643   3.493   2.886  10.044  0.4948 -0.6096 -0.4729
  716MPD2     N10644   3.507   2.912   9.581 -0.3729  0.5694 -0.2994
  716MPD2    H510645   3.452   2.958   9.510 -0.9005 -0.7074 -0.7139
  716MPD2    N110646   3.237   3.208   9.873 -0.0319 -0.0661  0.0210
  716MPD2    H710647   3.223   3.234   9.970 -0.3822 -1.3082  0.3134
  717TMC3    C110648   3.554   2.754   9.414 -0.9357 -0.0159 -0.8855
  717TMC3    C210649   3.508   2.843   9.318  0.5538 -0.6491 -0.3843
  717TMC3    C310650   3.455   2.803   9.199  0.2685  0.0048  0.7053
  717TMC3    C410651   3.547   2.623   9.383  0.5545  0.5495 -0.2376
  717TMC3    C510652   3.506   2.587   9.258  0.1062 -0.7820 -1.0217
  717TMC3    C610653   3.452   2.670   9.157 -0.2628 -0.1534  0.2201
  717TMC3     C10654   3.573   2.798   9.555 -0.1121 -0.5981 -0.2431
  717TMC3     O10655   3.627   2.717   9.628 -0.7419 -0.3119 -0.2244
  717TMC3     H10656   3.527   2.948   9.336 -2.5165 -0.0190 -0.7919
  717TMC3    H110657   3.581   2.553   9.458 -1.1824 -1.8154 -1.6587
  717TMC3    H210658   3.422   2.629   9.061  2.6049  1.5080 -1.3768
  717TMC3    C710659   3.484   2.446   9.243 -0.0678 -0.4543  0.3525
  717TMC3    C810660   3.381   2.906   9.126 -0.1291  0.0873  0.4654
  717TMC3    O110661   3.397   2.418   9.159 -0.3855  0.0238  0.1938
  717TMC3    O210662   3.371   3.010   9.191  0.1392  0.2869 -0.3964
  718MPD2     C10663   2.862   1.967  12.855  0.8183  0.0104 -0.5484
  718MPD2    C110664   2.757   2.004  12.785  0.3527 -1.1462  0.8229
  718MPD2    C210665   2.660   1.912  12.757  0.0524 -0.0952 -0.0905
  718MPD2    C310666   2.665   1.784  12.792 -0.3926 -0.0286 -0.1059
  718MPD2    C410667   2.777   1.744  12.870 -0.7653  0.5941  0.6504
  718MPD2    C510668   2.870   1.839  12.897  0.3007  1.1539  0.0619
  718MPD2     H10669   2.576   1.942  12.696  0.1459  1.8661  0.7535
  718MPD2    H110670   2.788   1.650  12.922  0.7981  2.3886  3.5306
  718MPD2    H210671   2.938   2.035  12.892  0.8056 -0.7386  0.8885
  718MPD2    H310672   2.959   1.808  12.951 -0.0089  1.6296  0.8454
  718MPD2     N10673   2.563   1.697  12.753  0.8361  0.6669 -0.2040
  718MPD2    H510674   2.487   1.738  12.700 -0.0141  0.4593  0.8438
  718MPD2    N110675   2.746   2.140  12.752  0.3591  0.1123 -0.7119
  718MPD2    H710676   2.828   2.197  12.768  0.3347 -0.2258  0.5924
  719TMC3    C110677   2.712   2.270  12.559  0.2465 -1.0692  0.2441
  719TMC3    C210678   2.642   2.238  12.440 -0.4058  0.7763  0.3032
  719TMC3    C310679   2.715   2.222  12.327 -0.8504  0.0549 -0.6370
  719TMC3    C410680   2.843   2.298  12.560 -0.1787  0.0027 -0.4200
  719TMC3    C510681   2.916   2.266  12.443 -0.0309 -0.6792 -0.1497
  719TMC3    C610682   2.851   2.227  12.330 -0.5738 -0.8937 -0.8849
  719TMC3     C10683   2.652   2.195  12.667  0.5441  0.5204  0.1515
  719TMC3     O10684   2.529   2.172  12.656  0.0779 -0.0499 -0.1002
  719TMC3     H10685   2.535   2.220  12.435 -0.0538 -0.7323 -1.6505
  719TMC3    H110686   2.887   2.347  12.646 -2.2345 -0.3613  0.8587
  719TMC3    H210687   2.914   2.204  12.245  1.1257 -0.4195  0.2399
  719TMC3    C710688   3.060   2.294  12.441  0.4273  0.6067  0.1617
  719TMC3    C810689   2.664   2.100  12.268  0.5582 -0.4833 -0.2558
  719TMC3    O110690   3.118   2.323  12.337 -0.0394  0.2620 -0.2979
  719TMC3    O210691   2.731   2.005  12.307  0.1151 -0.0598 -0.1451
  720MPD2     C10692   0.883   3.106  14.254  0.4587 -0.4675 -0.6231
  720MPD2    C110693   0.972   3.051  14.163  0.5976 -0.5059 -0.7221
  720MPD2    C210694   1.094   3.010  14.209  0.8175  0.6578 -0.3011
  720MPD2    C310695   1.136   3.023  14.344 -0.2114 -0.2071 -0.4787
  720MPD2    C410696   1.035   3.069  14.427 -1.1203  0.5863  0.0091
  720MPD2    C510697   0.917   3.110  14.388  1.2872  0.1588 -0.0359
  720MPD2     H10698   1.158   2.978  14.127  1.5343 -1.0841  0.9295
  720MPD2    H110699   1.055   3.089  14.532 -0.3685  0.4726 -0.1102
  720MPD2    H210700   0.792   3.153  14.217 -0.0731  1.4196  3.0399
  720MPD2    H310701   0.843   3.149  14.456  2.0378 -0.0708  0.9273
  720MPD2     N10702   1.274   3.000  14.380 -0.3966 -0.3479  0.3207
  720MPD2    H510703   1.341   2.984  14.307  0.4413  0.3634  0.9406
  720MPD2    N110704   0.944   3.030  14.025 -0.1808  0.2084  0.0996
  720MPD2    H710705   1.005   2.967  13.974  1.4722  1.7290  0.1862
  721TMC3    C110706   1.474   3.008  14.517 -0.0547 -0.3978  0.3416
  721TMC3    C210707   1.508   3.081  14.629 -0.5532 -0.1692 -0.0094
  721TMC3    C310708   1.629   3.133  14.630 -0.2242  0.0737  0.1882
  721TMC3    C410709   1.547   3.006  14.403  0.3005  0.3005 -0.6996
  721TMC3    C510710   1.663   3.081  14.406  0.5346  0.0953  0.3741
  721TMC3    C610711   1.704   3.147  14.519 -0.4848 -0.3997  0.5394
  721TMC3     C10712   1.327   2.998  14.509 -0.3797  0.3576 -0.0384
  721TMC3     O10713   1.259   2.993  14.612 -0.0099  0.5213 -0.1379
  721TMC3     H10714   1.457   3.077  14.725 -0.0798 -0.5407  0.2257
  721TMC3    H110715   1.503   2.947  14.324 -0.2572  0.0501 -0.1924
  721TMC3    H210716   1.801   3.191  14.538 -0.5622  1.0640 -2.3448
  721TMC3    C710717   1.777   3.039  14.325 -0.3869 -0.2199  0.2826
  721TMC3    C810718   1.703   3.162  14.745 -0.2751  0.6450 -0.2437
  721TMC3    O110719   1.867   3.122  14.340 -0.9215 -0.8854  0.3139
  721TMC3    O210720   1.826   3.140  14.745  0.0547  0.3123  0.0231
  722MPD2     C10721   4.591   1.460  13.720 -0.2040 -0.1219 -0.0782
  722MPD2    C110722   4.656   1.557  13.643  0.5969  0.4911  0.1615
  722MPD2    C210723   4.574   1.618  13.547  0.0540  0.8010  0.3583
  722MPD2    C310724   4.446   1.589  13.524  0.5948 -0.3667  1.2655
  722MPD2    C410725   4.383   1.505  13.606 -0.5366  1.0112 -0.0546
  722MPD2    C510726   4.455   1.431  13.699  0.1179 -0.2127  0.6209
  722MPD2     H10727   4.624   1.690  13.483  2.9223 -0.8342  0.7556
  722MPD2    H110728   4.277   1.484  13.599 -0.6850  2.4159 -1.8558
  722MPD2    H210729   4.643   1.395  13.789  0.8958  0.0346 -0.7755
  722MPD2    H310730   4.393   1.363  13.756 -3.0344  2.4104  0.3475
  722MPD2     N10731   4.385   1.672  13.431 -0.6327  0.6334 -0.0002
  722MPD2    H510732   4.438   1.747  13.386  1.4656 -0.0978  1.2507
  722MPD2    N110733   0.051   1.591  13.657 -0.0496 -0.0959 -0.1722
  722MPD2    H710734   0.095   1.651  13.588  2.4547  0.8913  2.2974
  723TMC3    C110735   4.221   1.779  13.308  0.4179 -0.4466 -0.0935
  723TMC3    C210736   4.311   1.843  13.229  1.2412  0.2409 -0.6337
  723TMC3    C310737   4.284   1.957  13.172  0.3176 -0.2659 -0.1780
  723TMC3    C410738   4.096   1.837  13.328 -0.1372  0.6317  0.8484
  723TMC3    C510739   4.058   1.946  13.257  0.7716 -0.5301  0.0234
  723TMC3    C610740   4.159   2.006  13.175  0.0899 -0.9123 -0.2714
  723TMC3     C10741   4.255   1.669  13.389  0.1115  0.7805  0.3167
  723TMC3     O10742   4.169   1.599  13.434  0.1303 -0.7201 -0.4676
  723TMC3     H10743   4.405   1.796  13.201  0.9390 -0.4634 -0.4565
  723TMC3    H110744   4.031   1.783  13.396 -1.2676  0.7068 -0.1695
  723TMC3    H210745   4.125   2.083  13.106 -0.3292 -0.4143  0.4920
  723TMC3    C710746   3.919   1.988  13.259 -0.2091  0.1187  0.9313
  723TMC3    C810747   4.352   1.981  13.051 -0.4328 -0.0825 -0.4686
  723TMC3    O110748   3.835   1.897  13.274  0.2912 -0.4932 -0.1574
  723TMC3    O210749   4.473   2.003  13.066 -0.0038  0.7029 -0.5335
  724TMC3    C110750   4.710   4.537  10.171  0.3472  0.0474  0.1298
  724TMC3    C210751   4.677   4.656  10.118  0.1567  0.5924 -0.2030
  724TMC3    C310752   0.018   4.705  10.019 -0.0955  0.7396  0.9798
  724TMC3    C410753   0.079   4.461  10.133  0.8112 -0.3196  0.1306
  724TMC3    C510754   0.167   4.523  10.043 -0.4335  0.2749  0.4612
  724TMC3    C610755   0.137   4.638   9.977 -0.1788  0.4750  0.1631
  724TMC3     C10756   4.611   4.478  10.261 -0.4929  0.4842 -0.1068
  724TMC3     O10757   4.648   4.383  10.328 -0.4046  0.4535 -0.1256
  724TMC3     H10758   4.626   4.727  10.183  1.2269  0.5727  0.6470
  724TMC3    H110759   0.097   4.361  10.171  0.7535 -0.8679 -1.2902
  724TMC3    H210760   0.214   4.692   9.923 -1.2559  1.4082 -0.4247
  724TMC3    C710761   0.311   4.493  10.040 -0.1818 -0.3512  0.0122
  724TMC3    C810762   4.742   0.100   9.979 -0.0952 -0.0824 -0.1833
  724TMC3    O110763   0.368   4.527   9.938  0.0640  0.7628 -0.4111
  724TMC3    O210764   4.629   0.143   9.990 -0.3246  0.1226 -0.2128
  725TMC3    C110765   2.294   3.686  13.133  0.1953  0.2823  0.0489
  725TMC3    C210766   2.265   3.777  13.032 -0.3116 -0.1054  0.0708
  725TMC3    C310767   2.310   3.739  12.905  0.6097 -0.4267  0.0827
  725TMC3    C410768   2.351   3.561  13.108  0.4878  0.1074  0.3527
  725TMC3    C510769   2.394   3.539  12.975  0.0858 -0.2909  0.3657
  725TMC3    C610770   2.377   3.630  12.869 -0.1610  0.0040 -0.6359
  725TMC3     C10771   2.265   3.726  13.264  0.6153  0.1047 -0.4249
  725TMC3     O10772   2.231   3.840  13.273  0.3733 -0.3439 -0.1929
  725TMC3     H10773   2.243   3.882  13.047  0.8062  0.3025 -1.1801
  725TMC3    H110774   2.376   3.500  13.194  0.1591 -0.0888  0.3106
  725TMC3    H210775   2.414   3.613  12.769  2.1011 -2.0092  0.5580
  725TMC3    C710776   2.423   3.401  12.932 -0.7077  0.4117  0.4554
  725TMC3    C810777   2.287   3.841  12.796  0.7465 -0.1097 -0.0217
  725TMC3    O110778   2.440   3.388  12.810  0.5640  0.4411  0.5531
  725TMC3    O210779   2.312   3.961  12.818 -0.3115 -0.1290 -0.1408
  726MPD2     C10780   4.394   0.264  10.322 -0.0036 -0.3305 -0.7079
  726MPD2    C110781   4.268   0.329  10.326 -0.4249  0.1751 -0.1869
  726MPD2    C210782   4.163   0.261  10.373  0.0333 -0.2452 -0.9783
  726MPD2    C310783   4.168   0.128  10.413 -0.3422 -0.2881 -0.0240
  726MPD2    C410784   4.295   0.065  10.416 -0.2714  0.0836  0.8210
  726MPD2    C510785   4.398   0.134  10.366 -0.0370 -0.6252 -0.1202
  726MPD2     H10786   4.067   0.310  10.372  1.1044  1.8733 -0.0549
  726MPD2    H110787   4.304   4.705  10.449  0.0101  0.2049  1.1330
  726MPD2    H210788   4.482   0.308  10.277  0.2711 -0.8911 -0.7181
  726MPD2    H310789   4.493   0.081  10.362 -0.7734 -1.7034 -3.0312
  726MPD2     N10790   4.057   0.074  10.474 -0.7600  0.4916 -0.7938
  726MPD2    H510791   4.077   4.729  10.521 -0.1777  0.8826 -0.3048
  726MPD2    N110792   4.244   0.460  10.281  0.6295  0.0916  0.3587
  726MPD2    H710793   4.149   0.496  10.291  0.9100  0.6218  1.0545
  727TMC3    C110794   4.270   0.675  10.206 -0.0946  0.3554 -0.4459
  727TMC3    C210795   4.343   0.788  10.232  0.6692  0.3265  0.0810
  727TMC3    C310796   4.279   0.907  10.240  0.6758 -0.9704  0.1396
  727TMC3    C410797   4.135   0.681  10.192  0.0474  0.2983  0.1198
  727TMC3    C510798   4.076   0.808  10.187  0.0871 -0.0111  0.1967
  727TMC3    C610799   4.146   0.920  10.212 -0.3020 -0.1423 -0.3533
  727TMC3     C10800   4.330   0.547  10.225 -0.0297  0.6577  0.3633
  727TMC3     O10801   4.451   0.539  10.223  0.3698  0.1013 -0.4547
  727TMC3     H10802   4.449   0.767  10.244  0.4599 -0.2417  0.9419
  727TMC3    H110803   4.073   0.593  10.180  1.1727 -0.3381 -1.0350
  727TMC3    H210804   4.100   1.017  10.223 -2.4853 -1.1494 -0.4621
  727TMC3    C710805   3.928   0.817  10.181 -0.4245  0.0786  0.3970
  727TMC3    C810806   4.363   1.019  10.279  0.1570  0.3987  0.0051
  727TMC3    O110807   3.863   0.714  10.211 -0.9059  0.0631  0.1334
  727TMC3    O210808   4.480   1.003  10.312  0.5020 -0.0751 -0.8070
  728TMC3    C110809   4.158   3.593  15.305  0.1009 -0.1800 -0.2777
  728TMC3    C210810   4.297   3.589  15.289  0.1283 -0.2693  0.6083
  728TMC3    C310811   4.344   3.544  15.162 -0.4760  0.5258  1.2990
  728TMC3    C410812   4.064   3.563  15.205 -0.0200  0.0901 -0.9218
  728TMC3    C510813   4.125   3.546  15.082 -0.0228  0.3735 -0.0713
  728TMC3    C610814   4.259   3.521  15.055 -0.2658 -0.2778 -0.0603
  728TMC3     C10815   4.122   3.663  15.425  0.4700 -0.0863  0.1400
  728TMC3     O10816   4.198   3.727  15.500 -0.4134  0.2735 -0.3222
  728TMC3     H10817   4.368   3.604  15.370 -0.1812 -2.6897  1.3118
  728TMC3    H110818   3.958   3.587  15.209  0.0878  0.7125 -1.8452
  728TMC3    H210819   4.298   3.480  14.963 -1.6432 -0.8772 -0.3736
  728TMC3    C710820   4.034   3.531  14.969  0.2899 -0.4241 -0.4845
  728TMC3    C810821   4.492   3.546  15.136 -0.5240  0.3056  0.2202
  728TMC3    O110822   3.915   3.532  15.002  0.3918 -0.2638  0.1699
  728TMC3    O210823   4.575   3.575  15.218  0.0642 -0.1040 -0.4437
  729MPD2     C10824   1.015   4.649  16.714  0.0297  0.3923 -0.4603
  729MPD2    C110825   1.116   0.003  16.702  0.0702 -0.6037 -0.3629
  729MPD2    C210826   1.192   0.035  16.812  0.2449  0.2557 -0.3613
  729MPD2    C310827   1.170   4.718  16.934 -0.7439  0.2496 -0.1052
  729MPD2    C410828   1.071   4.619  16.945 -0.1248  0.4712  0.4830
  729MPD2    C510829   1.001   4.587  16.834 -0.3159  0.0102 -0.1496
  729MPD2     H10830   1.273   0.106  16.801 -0.8720  2.0424  3.0560
  729MPD2    H110831   1.052   4.573  17.041 -1.1141 -2.0222 -0.8899
  729MPD2    H210832   0.961   4.609  16.629  0.2380 -4.2492  1.6266
  729MPD2    H310833   0.933   4.503  16.838 -1.7726  1.1108 -2.2620
  729MPD2     N10834   1.236   0.014  17.049  0.1189 -0.0602  0.3544
  729MPD2    H510835   1.181   0.000  17.133  0.8081 -0.3598  0.7641
  729MPD2    N110836   1.140   0.053  16.567 -0.2947 -0.2268  0.0997
  729MPD2    H710837   1.067   0.036  16.499  0.9115  2.3457 -1.8588
  730TMC3    C110838   1.357   0.166  17.185  0.3451  0.3351 -0.3997
  730TMC3    C210839   1.476   0.238  17.206  0.3759 -0.2757  0.4044
  730TMC3    C310840   1.479   0.321  17.310 -0.2589 -0.4623 -0.6578
  730TMC3    C410841   1.250   0.176  17.263  0.6712  0.2343  0.2878
  730TMC3    C510842   1.260   0.266  17.369 -0.4692 -0.1225  0.6861
  730TMC3    C610843   1.382   0.328  17.406 -0.9950 -0.5013  0.1404
  730TMC3     C10844   1.343   0.101  17.054 -0.0610 -0.1226  0.6047
  730TMC3     O10845   1.422   0.145  16.970 -0.1611 -0.4413  0.0254
  730TMC3     H10846   1.565   0.230  17.145 -0.6003 -0.9213 -0.9285
  730TMC3    H110847   1.161   0.117  17.247  2.0585 -1.4601 -1.1217
  730TMC3    H210848   1.399   0.392  17.492  0.2950 -0.9930  0.2575
  730TMC3    C710849   1.160   0.366  17.333  0.2053 -0.1871 -0.3563
  730TMC3    C810850   1.499   0.445  17.239  0.5112 -0.4624  0.4404
  730TMC3    O110851   1.086   0.340  17.236  0.5136  0.3678 -0.0511
  730TMC3    O210852   1.493   0.432  17.115  0.5663 -0.0623  0.6238
  731MPD2     C10853   1.645   2.400  12.407  0.0173 -0.7464  0.0484
  731MPD2    C110854   1.526   2.463  12.420  0.5834 -0.0673 -0.5927
  731MPD2    C210855   1.449   2.433  12.530 -0.0309  0.1686  0.3494
  731MPD2    C310856   1.494   2.347  12.630 -0.3150 -0.7968 -1.0460
  731MPD2    C410857   1.616   2.304  12.623 -0.1895 -0.8659  0.2228
  731MPD2    C510858   1.695   2.339  12.518 -0.6850  0.6381 -0.5089
  731MPD2     H10859   1.345   2.460  12.534 -0.0174  0.1119  1.1125
  731MPD2    H110860   1.660   2.246  12.703  2.5485  2.3490  1.0733
  731MPD2    H210861   1.714   2.402  12.324 -0.8116  0.0122 -0.6125
  731MPD2    H310862   1.791   2.288  12.519 -0.4588  1.1445  2.4456
  731MPD2     N10863   1.404   2.313  12.719 -0.1663 -0.1136  0.4550
  731MPD2    H510864   1.313   2.356  12.709  0.1286  0.9303  2.1680
  731MPD2    N110865   1.482   2.549  12.310  0.2326  0.8078  0.1163
  731MPD2    H710866   1.538   2.555  12.226 -0.5126  3.1760 -0.2068
  732TMC3    C110867   1.364   2.733  12.222 -0.2263 -0.0698 -0.3652
  732TMC3    C210868   1.251   2.758  12.152  0.1743  0.6934 -0.1785
  732TMC3    C310869   1.261   2.818  12.033  0.5616 -0.5810  0.4109
  732TMC3    C410870   1.486   2.773  12.180  0.3274 -0.6151  0.0632
  732TMC3    C510871   1.497   2.837  12.052  0.7632 -0.5749  0.7441
  732TMC3    C610872   1.382   2.865  11.980 -0.5223 -0.1381 -0.4372
  732TMC3     C10873   1.366   2.617  12.304  0.5383  0.4013  0.5029
  732TMC3     O10874   1.267   2.601  12.374 -0.4511  0.0362 -0.7564
  732TMC3     H10875   1.156   2.723  12.189  1.6810 -2.2019  0.9833
  732TMC3    H110876   1.569   2.764  12.249  0.3424  1.4654  0.3091
  732TMC3    H210877   1.388   2.900  11.878  1.3844  0.1624 -0.2189
  732TMC3    C710878   1.625   2.853  11.983  0.3614 -0.3693  0.6768
  732TMC3    C810879   1.171   2.772  11.928  0.1118 -0.3497 -0.4967
  732TMC3    O110880   1.614   2.880  11.865 -0.1028  0.0269  0.1422
  732TMC3    O210881   1.215   2.783  11.810 -0.6307 -0.1704 -0.3143
  733TMC3    C110882   2.238   1.410  12.718  0.2771 -0.0100 -0.1995
  733TMC3    C210883   2.361   1.438  12.774 -0.5892  0.3268 -0.2222
  733TMC3    C310884   2.449   1.508  12.700 -0.2528 -0.2273 -0.3676
  733TMC3    C410885   2.202   1.450  12.586  0.0263 -0.6479  0.0417
  733TMC3    C510886   2.301   1.511  12.517 -0.4646 -0.2993 -0.1109
  733TMC3    C610887   2.418   1.546  12.573  0.8902 -0.3645  0.6410
  733TMC3     C10888   2.139   1.345  12.790  0.1119  0.2086  0.3743
  733TMC3     O10889   2.026   1.382  12.763  0.2951  0.1171 -0.1214
  733TMC3     H10890   2.383   1.414  12.878 -1.1299  2.0751  0.2928
  733TMC3    H110891   2.097   1.455  12.563  1.0495 -0.0699 -4.6257
  733TMC3    H210892   2.506   1.591  12.527  0.4301 -1.3518 -1.1806
  733TMC3    C710893   2.260   1.593  12.406 -0.0005  0.1296  0.0606
  733TMC3    C810894   2.569   1.558  12.767  0.8088  0.3781  0.5439
  733TMC3    O110895   2.142   1.581  12.377  0.5621  0.0284  0.0783
  733TMC3    O210896   2.669   1.490  12.785 -0.1085 -0.7376 -0.0141
  734MPD2     C10897   4.313   4.051  12.562  0.1846  0.4408  0.1416
  734MPD2    C110898   4.185   4.058  12.510 -0.1874  0.2951 -0.2208
  734MPD2    C210899   4.171   4.116  12.381  0.2923  0.3969  0.0230
  734MPD2    C310900   4.280   4.154  12.310 -0.1473 -0.5995  0.2768
  734MPD2    C410901   4.409   4.149  12.361 -0.0749 -0.6358  0.3550
  734MPD2    C510902   4.424   4.104  12.492  0.3800 -0.1455  0.4053
  734MPD2     H10903   4.075   4.128  12.331  1.3112 -0.9940 -2.2601
  734MPD2    H110904   4.498   4.168  12.302  0.3184 -0.3973  1.0249
  734MPD2    H210905   4.339   4.003  12.656  0.2923 -1.8854 -1.0637
  734MPD2    H310906   4.526   4.098  12.528  0.2718 -0.4205  0.6663
  734MPD2     N10907   4.259   4.186  12.178  0.3026 -0.1873 -0.9959
  734MPD2    H510908   4.160   4.201  12.163  0.6131  2.2928 -0.6424
  734MPD2    N110909   4.076   4.008  12.588  0.7842  0.4460 -0.1045
  734MPD2    H710910   4.099   3.966  12.678 -0.1346 -0.3008 -0.2192
  735TMC3    C110911   3.859   3.917  12.628  0.6946  0.1643  0.2789
  735TMC3    C210912   3.755   3.888  12.556 -0.0701 -0.0138  0.3567
  735TMC3    C310913   3.710   3.761  12.539  0.3942 -0.2216 -0.5933
  735TMC3    C410914   3.923   3.818  12.692  0.0952  0.5714  0.0352
  735TMC3    C510915   3.890   3.685  12.671 -0.4212 -0.3829  0.8035
  735TMC3    C610916   3.778   3.662  12.608  0.0695 -0.1048 -0.4183
  735TMC3     C10917   3.940   4.012  12.557 -0.4614  0.2566  0.4829
  735TMC3     O10918   3.885   4.064  12.460 -0.0358 -0.2201  0.1189
  735TMC3     H10919   3.699   3.969  12.510  0.7438 -0.3664 -1.2629
  735TMC3    H110920   4.009   3.835  12.756  0.9743 -1.7045 -0.5081
  735TMC3    H210921   3.753   3.559  12.584 -0.8161  0.7727 -3.2810
  735TMC3    C710922   3.994   3.586  12.656 -0.2766  0.2099  0.1863
  735TMC3    C810923   3.680   3.721  12.413 -0.3318  0.3193 -0.1703
  735TMC3    O110924   4.102   3.635  12.636 -0.0956  0.2901  0.2930
  735TMC3    O210925   3.657   3.604  12.398 -0.0810 -1.4841 -0.4309
  736MPD2     C10926   3.998   3.242  12.738 -0.1306 -0.3205  0.6341
  736MPD2    C110927   4.048   3.351  12.677  0.3715 -0.0845  0.4098
  736MPD2    C210928   4.164   3.347  12.600  0.4219  0.5139 -0.2674
  736MPD2    C310929   4.245   3.233  12.599  0.5822 -1.0932  0.9224
  736MPD2    C410930   4.191   3.120  12.663 -0.2239  0.2109 -0.6086
  736MPD2    C510931   4.073   3.130  12.729  0.0980  0.4582 -0.2479
  736MPD2     H10932   4.192   3.429  12.536 -0.7186  1.2714  0.2094
  736MPD2    H110933   4.239   3.023  12.668 -0.8288  0.0108  1.0738
  736MPD2    H210934   3.905   3.241  12.792 -0.2337  0.6207  0.4717
  736MPD2    H310935   4.034   3.040  12.775 -1.5061  1.9674  1.3473
  736MPD2     N10936   4.379   3.224  12.545  0.0443 -0.0505 -0.3430
  736MPD2    H510937   4.420   3.132  12.533 -1.0757 -0.7973  1.4486
  736MPD2    N110938   3.956   3.458  12.673 -0.1999 -0.8967 -0.3226
  736MPD2    H710939   3.859   3.446  12.701 -0.6112 -2.2548 -2.4209
  737TMC3    C110940   4.555   3.296  12.421  0.2113  0.3443 -0.6408
  737TMC3    C210941   4.661   3.378  12.417  0.0099  0.2470  0.9224
  737TMC3    C310942   0.026   3.350  12.338  0.2470  0.9825 -0.7590
  737TMC3    C410943   4.556   3.180  12.352 -0.1883 -0.1579 -0.4834
  737TMC3    C510944   4.672   3.146  12.285  0.6595  0.7491  0.1143
  737TMC3    C610945   0.029   3.236  12.269  0.1271 -0.8040 -0.3234
  737TMC3     C10946   4.445   3.330  12.507 -0.1906 -0.0150  0.0001
  737TMC3     O10947   4.437   3.449  12.537  0.6778  0.0494  0.5032
  737TMC3     H10948   4.662   3.462  12.485 -1.9027  1.3826 -0.4542
  737TMC3    H110949   4.467   3.118  12.348 -0.6996  0.7757 -4.0944
  737TMC3    H210950   0.123   3.201  12.227 -0.1647 -0.5164 -1.2286
  737TMC3    C710951   4.673   3.008  12.238 -0.4229 -0.1918 -0.0401
  737TMC3    C810952   0.117   3.462  12.310  0.1422  0.3677  0.9631
  737TMC3    O110953   4.596   2.933  12.291 -0.2347 -0.2727 -0.1314
  737TMC3    O210954   0.131   3.552  12.393 -0.0510  0.5708  0.2727
  738MPD2     C10955   4.625   1.982  15.018  1.0094 -0.0112 -0.2415
  738MPD2    C110956   4.670   1.896  15.112 -0.2389 -0.2410 -0.3579
  738MPD2    C210957   0.006   1.944  15.210  0.1704 -0.6853 -0.7724
  738MPD2    C310958   0.051   2.070  15.218  0.2945  0.2034 -0.5766
  738MPD2    C410959   0.003   2.157  15.120  0.2401 -0.4279  0.0079
  738MPD2    C510960   4.664   2.109  15.019 -0.0611  0.0626  0.2023
  738MPD2     H10961   0.033   1.874  15.288 -2.7450 -2.9792 -1.7999
  738MPD2    H110962   0.057   2.251  15.111  2.3927 -1.8338 -1.5498
  738MPD2    H210963   4.560   1.963  14.933 -1.4789  0.5672  1.5185
  738MPD2    H310964   4.634   2.166  14.931 -2.9649 -1.1159  0.4260
  738MPD2     N10965   0.157   2.117  15.297  0.4277 -0.3441  0.3947
  738MPD2    H510966   0.179   2.216  15.289 -1.9022  0.1585  0.0268
  738MPD2    N110967   4.629   1.761  15.116 -0.0962 -0.2203 -0.6783
  738MPD2    H710968   4.669   1.705  15.190  1.2527  0.5117 -0.8570
  739TMC3    C110969   0.365   2.099  15.398  0.2880  0.4685 -0.3187
  739TMC3    C210970   0.393   2.200  15.309  0.0349 -0.0813 -0.1167
  739TMC3    C310971   0.518   2.212  15.259 -0.4823  0.0123  0.8427
  739TMC3    C410972   0.468   2.032  15.451  0.0102 -0.0665  0.3927
  739TMC3    C510973   0.597   2.047  15.393  0.4767 -0.4760  0.4433
  739TMC3    C610974   0.621   2.128  15.285 -0.3421 -0.8462 -0.2248
  739TMC3     C10975   0.233   2.039  15.383  0.8997 -0.0676 -1.1185
  739TMC3     O10976   0.213   1.920  15.416  0.6208 -0.1204  0.6440
  739TMC3     H10977   0.326   2.284  15.291  1.8405  0.9678 -2.0220
  739TMC3    H110978   0.458   1.956  15.528  1.7312  0.2808  0.9668
  739TMC3    H210979   0.714   2.133  15.229 -1.1475  3.1969 -1.1484
  739TMC3    C710980   0.700   1.970  15.455 -0.0838  0.4311  0.0055
  739TMC3    C810981   0.519   2.293  15.142 -0.1628  0.5958  0.1444
  739TMC3    O110982   0.667   1.860  15.508 -0.4562  0.0339  0.4177
  739TMC3    O210983   0.418   2.275  15.073 -0.1256 -0.4960 -0.4945
  740TMC3    C110984   1.011   3.428  14.514 -0.0419 -0.5374  0.4659
  740TMC3    C210985   1.048   3.376  14.637 -0.1662  0.1075 -0.6715
  740TMC3    C310986   1.182   3.331  14.652  0.0849  0.6716 -1.0088
  740TMC3    C410987   1.096   3.429  14.404 -0.0086  0.6982  0.5855
  740TMC3    C510988   1.222   3.386  14.420 -0.4856  1.4431 -0.2576
  740TMC3    C610989   1.267   3.347  14.545 -0.0314 -0.7091 -0.6774
  740TMC3     C10990   0.870   3.431  14.469 -0.1280 -0.0308 -0.1252
  740TMC3     O10991   0.842   3.463  14.354 -0.1567 -0.3233  0.4105
  740TMC3     H10992   0.999   3.398  14.731  0.9711 -1.1927  0.2242
  740TMC3    H110993   1.065   3.482  14.314  0.9499  1.4177  0.6816
  740TMC3    H210994   1.370   3.317  14.557  0.3202  1.1216  0.8963
  740TMC3    C710995   1.302   3.334  14.307  0.1030  0.9702  0.4042
  740TMC3    C810996   1.235   3.297  14.786  0.1446 -0.4728  0.0909
  740TMC3    O110997   1.404   3.272  14.334  0.3355  0.6222  0.4790
  740TMC3    O210998   1.361   3.291  14.799 -0.4175  0.1424  0.1286
  741TMC3    C110999   4.262   2.963  13.278 -0.1707 -0.3984  0.6991
  741TMC3    C211000   4.321   2.854  13.345  0.4555  0.5977 -0.3287
  741TMC3    C311001   4.446   2.882  13.392  0.5554 -1.1099 -0.0126
  741TMC3    C411002   4.321   3.084  13.260 -0.2642 -0.3952  0.1875
  741TMC3    C511003   4.448   3.101  13.305  0.7900 -0.5543 -0.2768
  741TMC3    C611004   4.510   2.996  13.366 -0.1210  0.1922 -0.5674
  741TMC3     C11005   4.143   2.953  13.204  0.2244 -0.8336 -0.0167
  741TMC3     O11006   4.081   3.054  13.177 -0.5319 -0.4314 -0.2635
  741TMC3     H11007   4.274   2.758  13.359 -2.5299  2.1063  0.0810
  741TMC3    H111008   4.275   3.166  13.206  0.2428  0.3558  0.8951
  741TMC3    H211009   4.609   3.008  13.408  0.5436 -1.0419 -1.7832
  741TMC3    C711010   4.525   3.224  13.276 -0.4169  0.6461  0.6376
  741TMC3    C811011   4.503   2.776  13.460  0.1567  0.0603 -0.2069
  741TMC3    O111012   4.468   3.306  13.207 -0.4448  0.0804  0.3955
  741TMC3    O211013   4.449   2.669  13.468  0.0173 -0.1627  0.2207
  742TMC3    C111014   0.484   1.134  15.297 -0.5473  0.6827 -0.6124
  742TMC3    C211015   0.396   1.084  15.210 -0.4165  0.1891 -0.2652
  742TMC3    C311016   0.445   1.010  15.107 -0.4980 -0.7105  0.9661
  742TMC3    C411017   0.615   1.094  15.296 -0.8828 -0.3566 -0.3777
  742TMC3    C511018   0.660   1.014  15.199 -0.3022 -0.5544  0.2483
  742TMC3    C611019   0.579   0.978  15.097 -0.6994  0.2044 -0.5199
  742TMC3     C11020   0.444   1.234  15.398 -0.5028  0.2211 -0.2275
  742TMC3     O11021   0.342   1.300  15.380  0.8176  0.2980 -0.3076
  742TMC3     H11022   0.296   1.127  15.220 -0.8426 -0.5687 -1.3429
  742TMC3    H111023   0.680   1.125  15.377  1.6094  0.1947 -2.5655
  742TMC3    H211024   0.625   0.911  15.025  2.2241  1.7796 -0.1501
  742TMC3    C711025   0.785   0.936  15.209 -0.0659  0.1273 -0.2331
  742TMC3    C811026   0.362   0.921  15.030 -0.8016 -0.8208 -0.3783
  742TMC3    O111027   0.826   0.887  15.102 -0.0345 -0.1597  0.2686
  742TMC3    O211028   0.413   0.823  14.972  0.2910  0.6037 -0.0874
  743MPD2     C11029   1.862   3.016   1.146  0.2787 -0.6847  0.1623
  743MPD2    C111030   1.957   2.914   1.132  0.8206  0.0929  0.0175
  743MPD2    C211031   2.057   2.905   1.221  0.3649 -0.4644  0.0386
  743MPD2    C311032   2.083   2.999   1.321 -0.0599  0.3450 -0.2759
  743MPD2    C411033   1.978   3.091   1.344  0.4460 -0.3048 -0.0426
  743MPD2    C511034   1.871   3.105   1.253 -0.0935  0.0994  0.5144
  743MPD2     H11035   2.138   2.836   1.199  1.9560  1.3438  0.3133
  743MPD2    H111036   1.982   3.177   1.410  0.7654  0.5925 -1.2380
  743MPD2    H211037   1.783   3.019   1.072 -0.3597  1.5875  0.9420
  743MPD2    H311038   1.787   3.173   1.263 -0.0447  0.0719  1.0641
  743MPD2     N11039   2.205   2.993   1.399  0.2708  0.1265  0.6514
  743MPD2    H511040   2.262   2.915   1.369  0.0267  0.5754 -1.0215
  743MPD2    N111041   1.960   2.850   1.009 -0.3245 -0.2998  0.6029
  743MPD2    H711042   1.893   2.893   0.947  0.9813  0.4478 -0.3033
  744TMC3    C111043   2.059   2.716   0.830  0.5342  0.2423  0.1648
  744TMC3    C211044   2.010   2.795   0.728  0.5155  0.5491  0.3449
  744TMC3    C311045   2.068   2.789   0.601 -0.1009  0.1023  0.2147
  744TMC3    C411046   2.157   2.623   0.799  0.4852 -1.1162 -0.7106
  744TMC3    C511047   2.212   2.613   0.675  0.2265  0.4517  0.2837
  744TMC3    C611048   2.172   2.703   0.577 -0.1938 -0.6390 -0.9604
  744TMC3     C11049   2.046   2.747   0.973  0.2727  0.2748 -0.0269
  744TMC3     O11050   2.114   2.673   1.044 -0.5656 -0.3932  0.7226
  744TMC3     H11051   1.928   2.860   0.754 -0.9941 -1.9400  1.8687
  744TMC3    H111052   2.207   2.562   0.874 -0.5063 -3.0030 -1.5609
  744TMC3    H211053   2.224   2.713   0.483 -2.7453  0.6691 -2.2322
  744TMC3    C711054   2.317   2.518   0.641  0.1692  0.9228  0.5204
  744TMC3    C811055   2.021   2.884   0.491  0.2053 -0.1708 -0.0683
  744TMC3    O111056   2.363   2.517   0.526 -0.1948  0.1231  0.0134
  744TMC3    O211057   2.114   2.941   0.433 -0.3444 -0.0313 -0.3074
  745TMC3    C111058   0.839   0.579  13.524 -0.1926  0.2161 -0.3901
  745TMC3    C211059   0.701   0.561  13.558  0.3443  0.7848 -0.0535
  745TMC3    C311060   0.610   0.605  13.469 -0.2448 -0.0072 -0.6403
  745TMC3    C411061   0.881   0.637  13.404  0.0807  0.1163  0.0108
  745TMC3    C511062   0.772   0.668  13.318 -0.3089  0.2136 -0.1223
  745TMC3    C611063   0.640   0.664  13.353 -0.6115  0.7624 -0.1365
  745TMC3     C11064   0.920   0.598  13.647 -0.1238 -0.6843  0.2015
  745TMC3     O11065   0.871   0.558  13.749 -0.3832  0.0031 -0.5461
  745TMC3     H11066   0.665   0.531  13.655 -0.4860 -0.9260 -0.8871
  745TMC3    H111067   0.984   0.625  13.372  0.0442 -0.3735  0.0741
  745TMC3    H211068   0.559   0.684  13.284  0.4742 -0.6390 -1.8302
  745TMC3    C711069   0.799   0.698  13.186 -0.2788 -0.1328 -0.5687
  745TMC3    C811070   0.484   0.648  13.526 -0.6495 -0.1740  0.0417
  745TMC3    O111071   0.712   0.671  13.105  0.0277  0.1621 -0.4579
  745TMC3    O211072   0.403   0.682  13.441  0.4698  0.3374 -0.2264
  746TMC3    C111073   3.336   2.979  10.796  0.6767 -0.6751  0.4120
  746TMC3    C211074   3.405   3.017  10.681 -0.1109 -0.4492 -0.2463
  746TMC3    C311075   3.402   2.933  10.577 -0.8517  0.3074  0.4143
  746TMC3    C411076   3.254   2.868  10.798 -0.0344 -0.1628 -0.0996
  746TMC3    C511077   3.256   2.786  10.687  0.0444 -1.0548  0.1856
  746TMC3    C611078   3.331   2.821  10.578  0.0493 -0.2309 -0.0199
  746TMC3     C11079   3.300   3.080  10.897 -0.3380 -0.3295 -0.5226
  746TMC3     O11080   3.188   3.065  10.944  0.2823  0.4575 -0.1653
  746TMC3     H11081   3.481   3.094  10.679  2.0080 -2.4842  0.8053
  746TMC3    H111082   3.201   2.840  10.888 -1.4685  1.2793 -0.4859
  746TMC3    H211083   3.341   2.754  10.493  1.6791  0.0173 -0.0295
  746TMC3    C711084   3.206   2.656  10.701 -0.2947  1.1271  0.1707
  746TMC3    C811085   3.402   3.009  10.452 -0.2768 -0.3213 -0.6759
  746TMC3    O111086   3.195   2.613  10.812  0.9348  0.5258 -0.3767
  746TMC3    O211087   3.468   2.975  10.356  0.1146  0.1614  0.0117
  747TMC3    C111088   0.325   2.668  11.278 -0.3329 -0.3342 -0.3123
  747TMC3    C211089   0.235   2.655  11.383  0.7681 -0.3056 -0.6988
  747TMC3    C311090   0.268   2.714  11.501 -0.9357 -0.0019  0.4261
  747TMC3    C411091   0.449   2.727  11.291  0.7858  0.3600  0.3313
  747TMC3    C511092   0.477   2.779  11.419  0.5351 -0.2755 -0.3180
  747TMC3    C611093   0.389   2.774  11.522 -0.2929 -0.4289  0.3990
  747TMC3     C11094   0.274   2.632  11.155  0.0371  0.3457 -0.1442
  747TMC3     O11095   0.158   2.658  11.135 -0.0973 -0.1010  0.2688
  747TMC3     H11096   0.145   2.597  11.365  1.5920 -1.7861 -0.0968
  747TMC3    H111097   0.514   2.728  11.204  0.8443  0.2305  0.3746
  747TMC3    H211098   0.412   2.829  11.612  1.8894  0.0989 -0.4648
  747TMC3    C711099   0.611   2.829  11.443  0.0231  0.2129 -0.1844
  747TMC3    C811100   0.175   2.697  11.613  0.3726  0.4086 -0.5949
  747TMC3    O111101   0.620   2.900  11.543 -0.6151 -0.1060  0.2396
  747TMC3    O211102   0.089   2.612  11.581  0.4929 -0.1600  0.3099
  748MPD2     C11103   2.010   4.459   1.638  0.6428  0.4091 -0.1460
  748MPD2    C111104   2.005   4.321   1.646  0.0898  0.1433  0.7212
  748MPD2    C211105   2.020   4.250   1.529  0.3950 -0.4744  0.9113
  748MPD2    C311106   2.051   4.312   1.410  0.2712 -0.1464 -0.5511
  748MPD2    C411107   2.063   4.447   1.408 -0.4375 -0.0232 -0.2600
  748MPD2    C511108   2.041   4.519   1.517  0.3482  0.0900  0.4306
  748MPD2     H11109   2.010   4.142   1.536 -2.1004 -0.3005 -0.0993
  748MPD2    H111110   2.086   4.495   1.313 -2.9281  0.4898 -0.5891
  748MPD2    H211111   1.990   4.508   1.732 -1.2709  0.5812 -0.6450
  748MPD2    H311112   2.038   4.627   1.502  0.0977 -0.4464 -3.4593
  748MPD2     N11113   2.063   4.231   1.301  0.0167  0.0536 -0.5414
  748MPD2    H511114   2.046   4.132   1.317 -3.6870  1.0610  1.7226
  748MPD2    N111115   1.961   4.273   1.775 -0.1995 -0.0338  0.3807
  748MPD2    H711116   1.957   4.334   1.856  1.9790  1.2738 -0.4990
  749TMC3    C111117   2.171   4.152   1.098  0.5991  0.2930  1.3363
  749TMC3    C211118   2.137   4.025   1.137 -0.1056  0.6541 -0.2185
  749TMC3    C311119   2.199   3.919   1.066  0.1610  0.1960  0.1012
  749TMC3    C411120   2.266   4.172   1.000  0.1981 -0.0534  0.5004
  749TMC3    C511121   2.318   4.067   0.927 -1.3328  0.1715 -0.7586
  749TMC3    C611122   2.282   3.940   0.962 -0.8657 -0.0497  0.7491
  749TMC3     C11123   2.133   4.264   1.187  0.0405 -0.1446 -0.6090
  749TMC3     O11124   2.185   4.369   1.161  0.3231  0.3321  0.4003
  749TMC3     H11125   2.060   4.000   1.210  2.1600 -1.8526  1.2926
  749TMC3    H111126   2.299   4.274   0.985 -2.5590  1.0334  1.7916
  749TMC3    H211127   2.314   3.865   0.890 -1.6461  1.3823 -1.0979
  749TMC3    C711128   2.390   4.104   0.801 -0.3867 -0.3499 -0.2265
  749TMC3    C811129   2.173   3.783   1.100 -0.3284 -0.0131 -0.0280
  749TMC3    O111130   2.383   4.222   0.772  0.1879 -0.6504  0.0991
  749TMC3    O211131   2.085   3.757   1.185  0.1446  1.0398  0.4825
  750MPD2     C11132   2.925   0.322  11.536  0.6433  0.1937 -0.6598
  750MPD2    C111133   2.847   0.221  11.584 -0.1440  0.9807 -0.0326
  750MPD2    C211134   2.873   0.090  11.548 -0.3867  0.4958 -0.1815
  750MPD2    C311135   2.977   0.064  11.458  0.8386 -0.4068 -0.0271
  750MPD2    C411136   3.042   0.168  11.394  0.5918  0.1697 -0.6953
  750MPD2    C511137   3.015   0.292  11.439  0.3047  0.0392  0.6554
  750MPD2     H11138   2.814   0.009  11.590 -1.9372  1.2355 -0.9510
  750MPD2    H111139   3.119   0.167  11.318  0.5793  1.0399 -0.7165
  750MPD2    H211140   2.911   0.427  11.559  1.1469  0.3808 -1.2245
  750MPD2    H311141   3.072   0.376  11.400 -1.9342  1.6036  0.7443
  750MPD2     N11142   3.013   4.677  11.417  0.0155  0.4308  0.0788
  750MPD2    H511143   3.090   4.675  11.350  0.1203 -0.9233  0.2509
  750MPD2    N111144   2.755   0.254  11.689  0.2458  0.0472  0.0435
  750MPD2    H711145   2.748   0.352  11.712 -1.0200 -0.0302  0.0083
  751TMC3    C111146   2.994   4.436  11.381  0.0555  0.3224  0.6384
  751TMC3    C211147   2.974   4.322  11.456  0.3140 -0.9297 -1.0601
  751TMC3    C311148   2.940   4.214  11.377 -0.8430 -0.2119  0.2633
  751TMC3    C411149   3.011   4.445  11.246  0.0848 -0.4742 -0.3035
  751TMC3    C511150   3.005   4.324  11.181 -0.3959 -0.1573 -0.4507
  751TMC3    C611151   2.955   4.210  11.242  0.7590 -0.7164 -0.3580
  751TMC3     C11152   2.958   4.558  11.461 -0.0909  1.0009 -0.4583
  751TMC3     O11153   2.878   4.543  11.555 -0.1103 -0.7966 -0.3848
  751TMC3     H11154   2.951   4.333  11.561  1.6596 -1.0300 -0.7638
  751TMC3    H111155   3.057   4.530  11.197  0.9192  0.2821  1.8090
  751TMC3    H211156   2.936   4.122  11.182 -1.0077 -0.3623 -0.3306
  751TMC3    C711157   3.045   4.323  11.038 -0.2452  0.4904  0.0732
  751TMC3    C811158   2.848   4.106  11.431 -0.0009  0.1005  0.3128
  751TMC3    O111159   3.138   4.392  11.000 -0.0629  0.3795  0.0035
  751TMC3    O211160   2.793   4.027  11.361 -0.1252 -0.5134  0.9069
  752TMC3    C111161   1.770   0.706  16.970 -0.9521  0.0627  0.1873
  752TMC3    C211162   1.770   0.575  17.002  0.0398  0.6893 -0.1101
  752TMC3    C311163   1.813   0.543  17.132  0.1712 -0.1311 -0.1539
  752TMC3    C411164   1.796   0.808  17.057 -0.0121  0.3312  0.2357
  752TMC3    C511165   1.824   0.776  17.188 -0.2335 -0.2829  0.3337
  752TMC3    C611166   1.836   0.643  17.223  0.3463 -0.0755 -0.3198
  752TMC3     C11167   1.743   0.751  16.832 -0.8216 -0.8169 -0.3825
  752TMC3     O11168   1.784   0.861  16.796  0.0063 -0.1996 -0.5134
  752TMC3     H11169   1.759   0.494  16.930 -2.1350  0.7998  0.1160
  752TMC3    H111170   1.791   0.910  17.020 -1.2147 -0.2348 -1.1654
  752TMC3    H211171   1.874   0.618  17.322  1.0308  2.5024  0.0469
  752TMC3    C711172   1.811   0.882  17.286  0.1238  0.7895 -0.4799
  752TMC3    C811173   1.826   0.399  17.164  0.0874  0.0745  0.4845
  752TMC3    O111174   1.876   0.869  17.388  0.4921 -0.5672  0.2222
  752TMC3    O211175   1.819   0.320  17.071  0.2197 -0.0099  0.1714
  753TMC3    C111176   3.841   0.767  13.078  0.2194  0.7505  0.3741
  753TMC3    C211177   3.918   0.712  13.181 -0.1909 -0.3538 -0.0420
  753TMC3    C311178   3.917   0.574  13.203  0.1909 -0.1211 -0.2402
  753TMC3    C411179   3.775   0.685  12.994  0.1870 -0.1566  0.5544
  753TMC3    C511180   3.784   0.551  13.017  0.2883  0.1677  0.0915
  753TMC3    C611181   3.845   0.495  13.123 -0.7924 -0.8394 -0.4605
  753TMC3     C11182   3.847   0.913  13.038 -0.3104  0.4358 -0.1253
  753TMC3     O11183   3.810   0.942  12.923  0.6740  0.1903 -0.0551
  753TMC3     H11184   3.998   0.769  13.226  0.3966 -0.9038 -0.3904
  753TMC3    H111185   3.723   0.727  12.909  3.1770  0.6059 -0.8838
  753TMC3    H211186   3.822   0.391  13.144 -0.3226 -0.9966 -0.7384
  753TMC3    C711187   3.719   0.462  12.924 -0.2707  0.8373  0.4761
  753TMC3    C811188   3.963   0.507  13.320 -0.6001  0.7263  0.2223
  753TMC3    O111189   3.752   0.347  12.929  0.6853 -0.2792  0.4593
  753TMC3    O211190   3.972   0.384  13.312 -0.0790  0.5927 -0.2802
  754MPD2     C11191   3.262   4.313  13.623  0.4530  0.1851  1.0765
  754MPD2    C111192   3.195   4.196  13.601 -0.3239  0.6690 -0.4190
  754MPD2    C211193   3.056   4.196  13.604  0.2101  0.7670 -0.6988
  754MPD2    C311194   2.992   4.309  13.643  0.2796  0.2459 -0.0573
  754MPD2    C411195   3.062   4.427  13.655 -0.3658 -0.2730  0.0558
  754MPD2    C511196   3.193   4.422  13.651 -0.1816  0.9442  0.5207
  754MPD2     H11197   2.996   4.111  13.576  0.9411 -0.5564  1.7292
  754MPD2    H111198   3.011   4.517  13.687 -0.5964 -1.0239  1.8538
  754MPD2    H211199   3.370   4.315  13.620  0.5291 -3.0505  1.1217
  754MPD2    H311200   3.254   4.512  13.658  0.9513  0.0421  2.1374
  754MPD2     N11201   2.853   4.323  13.657  0.5008  0.2683  0.3078
  754MPD2    H511202   2.810   4.413  13.673 -2.6329 -1.1008 -0.3842
  754MPD2    N111203   3.270   4.087  13.568 -0.1828 -0.3982 -0.0021
  754MPD2    H711204   3.368   4.104  13.548 -0.6333  1.4399 -0.6023
  755MPD2     C11205   2.376   0.264  13.750 -0.2508 -0.2333  0.0838
  755MPD2    C111206   2.271   0.184  13.716  0.3155  0.4123 -0.6844
  755MPD2    C211207   2.292   0.047  13.706  0.5228 -0.6367 -0.7595
  755MPD2    C311208   2.420   4.739  13.726  0.3954 -0.2794  0.0830
  755MPD2    C411209   2.522   0.083  13.770 -0.4803  0.4884 -0.4777
  755MPD2    C511210   2.504   0.213  13.778  0.2003  0.2702  0.2225
  755MPD2     H11211   2.212   4.726  13.674  1.8528 -1.7421 -1.8582
  755MPD2    H111212   2.620   0.047  13.797 -0.0093  1.1867 -1.2734
  755MPD2    H211213   2.367   0.371  13.742  2.0313  0.0762  1.7132
  755MPD2    H311214   2.587   0.277  13.805 -1.2950  2.3064  0.0122
  755MPD2     N11215   2.459   4.606  13.688  0.3360 -0.2843 -0.1375
  755MPD2    H511216   2.555   4.575  13.702 -0.3294 -1.2240  2.2838
  755MPD2    N111217   2.142   0.240  13.675 -0.3552  0.6730 -0.4839
  755MPD2    H711218   2.080   0.170  13.636 -0.3927 -0.2398  1.2384
  756MPD2     C11219   3.011   0.634   9.909  0.3949 -0.2277 -0.0754
  756MPD2    C111220   2.921   0.573  10.001 -0.3095 -0.0290  0.0172
  756MPD2    C211221   2.789   0.561   9.961 -0.2727  0.6932  0.1922
  756MPD2    C311222   2.739   0.636   9.859  0.5436  0.1069  0.6728
  756MPD2    C411223   2.826   0.702   9.775 -0.8963  0.7817  0.7989
  756MPD2    C511224   2.962   0.695   9.794 -0.0956  0.0857 -0.4961
  756MPD2     H11225   2.723   0.502  10.023  1.7730 -0.0434  1.6798
  756MPD2    H111226   2.792   0.737   9.678  0.0791  0.4835  0.3499
  756MPD2    H211227   3.119   0.635   9.919  0.3830 -2.4377  0.3005
  756MPD2    H311228   3.030   0.736   9.719  0.7351  1.5896  1.0818
  756MPD2     N11229   2.600   0.629   9.837 -0.4542 -0.0750 -0.1851
  756MPD2    H511230   2.550   0.565   9.898 -0.1692 -0.1679 -0.0510
  756MPD2    N111231   2.960   0.528  10.128  0.4149 -0.4979  0.1679
  756MPD2    H711232   2.890   0.496  10.194  1.1549  1.0189  1.6742
  757MPD2     C11233   2.079   4.702   9.963 -0.3893 -0.3996 -0.5968
  757MPD2    C111234   2.164   0.032  10.038 -0.4648  0.3066  0.0336
  757MPD2    C211235   2.196   0.159  10.000  0.4071 -0.0930  0.4592
  757MPD2    C311236   2.131   0.222   9.896 -0.5200  0.3618 -0.0532
  757MPD2    C411237   2.042   0.147   9.818  1.5663 -0.5295  0.0389
  757MPD2    C511238   2.016   0.019   9.858  0.2060 -0.3235  0.0926
  757MPD2     H11239   2.267   0.208  10.065  0.5591  0.3398 -0.0340
  757MPD2    H111240   1.993   0.182   9.728  0.1429 -1.8517  0.2985
  757MPD2    H211241   2.059   4.598   9.984  2.6339 -1.1909 -1.6424
  757MPD2    H311242   1.947   4.702   9.801  2.5679 -1.8175 -1.1498
  757MPD2     N11243   2.178   0.351   9.873  0.2342 -0.0320  0.3426
  757MPD2    H511244   2.248   0.394   9.933  1.8165 -0.7067 -1.0134
  757MPD2    N111245   2.207   4.708  10.157 -0.1956  0.5216 -0.0278
  757MPD2    H711246   2.182   4.610  10.169  0.0018  0.8280  2.9014
  758MPD2     C11247   2.686   4.438  15.673 -0.0490 -0.2467 -0.0894
  758MPD2    C111248   2.704   4.355  15.775  0.0596  0.4133 -0.2210
  758MPD2    C211249   2.615   4.357  15.885 -0.2425 -0.0706  0.0462
  758MPD2    C311250   2.514   4.449  15.893 -0.2064  0.4603  0.3896
  758MPD2    C411251   2.504   4.538  15.789  0.1129 -0.2598  0.3579
  758MPD2    C511252   2.589   4.534  15.682 -0.2495 -0.0601  0.0216
  758MPD2     H11253   2.621   4.285  15.966 -1.4884 -0.6296 -0.3654
  758MPD2    H111254   2.427   4.614  15.791 -1.0390 -1.4074  0.4660
  758MPD2    H211255   2.758   4.438  15.592  0.8502 -0.9576  0.7031
  758MPD2    H311256   2.573   4.602  15.600  0.6685  1.4999  1.1479
  758MPD2     N11257   2.425   4.454  16.001  0.1492  0.1823  0.5333
  758MPD2    H511258   2.351   4.523  16.001 -0.7015 -0.7296  0.1770
  758MPD2    N111259   2.801   4.251  15.769 -0.2790  0.5667  0.1810
  758MPD2    H711260   2.859   4.248  15.686  0.4572  1.5845  0.6553
  759MPD2     C11261   1.877   2.676  10.693 -0.0356  0.3966 -0.1917
  759MPD2    C111262   1.924   2.617  10.575  0.0928  0.5079 -0.0364
  759MPD2    C211263   2.028   2.676  10.503  0.3432 -0.8112 -0.7858
  759MPD2    C311264   2.071   2.803  10.540 -0.2709  0.7432 -0.3209
  759MPD2    C411265   2.019   2.866  10.653 -0.6269  0.3045 -0.6590
  759MPD2    C511266   1.928   2.798  10.731  0.1313 -0.2601 -0.4212
  759MPD2     H11267   2.057   2.625  10.412 -2.5025 -1.6021 -1.2412
  759MPD2    H111268   2.060   2.960  10.688  1.8473 -2.2509  3.1905
  759MPD2    H211269   1.795   2.631  10.748 -0.7686  2.1745  0.1657
  759MPD2    H311270   1.882   2.850  10.815  2.4943 -0.4201  0.9756
  759MPD2     N11271   2.162   2.865  10.450  0.1177 -0.4290  0.2788
  759MPD2    H511272   2.218   2.801  10.394  0.0438  1.3051 -1.7770
  759MPD2    N111273   1.872   2.495  10.531  0.0162 -0.2295  0.2827
  759MPD2    H711274   1.920   2.448  10.455 -0.5209 -0.8349  0.3190
  760MPD2     C11275   1.392   3.868  12.674 -0.6248  0.1726 -0.5157
  760MPD2    C111276   1.390   3.936  12.557 -0.3474  0.6300  0.4717
  760MPD2    C211277   1.446   3.887  12.446 -0.6210  0.8945  0.0610
  760MPD2    C311278   1.508   3.760  12.453 -0.0412  0.2438 -0.4707
  760MPD2    C411279   1.513   3.697  12.571 -0.4078 -0.5067  0.6181
  760MPD2    C511280   1.458   3.751  12.680  0.9268 -0.1421  0.0610
  760MPD2     H11281   1.435   3.944  12.354  1.6941 -0.8144 -1.2857
  760MPD2    H111282   1.568   3.604  12.586  0.2821 -0.2159 -0.0559
  760MPD2    H211283   1.367   3.913  12.770  1.9947  2.0299 -0.6991
  760MPD2    H311284   1.490   3.714  12.777 -2.2639 -3.2967 -0.0893
  760MPD2     N11285   1.570   3.704  12.339 -0.3562 -0.2154  1.3246
  760MPD2    H511286   1.623   3.620  12.357 -1.6414 -1.5958 -1.3871
  760MPD2    N111287   1.336   4.067  12.539 -0.1886 -0.3689  0.1191
  760MPD2    H711288   1.340   4.102  12.444 -0.8384  1.3609  0.7418
  761MPD2     C11289   2.540   3.941  11.806 -0.0367 -0.5180 -0.2945
  761MPD2    C111290   2.541   3.915  11.675 -0.0999  0.6395 -0.8569
  761MPD2    C211291   2.636   3.967  11.588  1.0509  0.7294  0.0309
  761MPD2    C311292   2.724   4.062  11.644 -0.2403  0.0249  0.6516
  761MPD2    C411293   2.715   4.093  11.777 -0.1735 -0.5236 -0.2755
  761MPD2    C511294   2.621   4.036  11.856  0.5663  0.2910 -0.0680
  761MPD2     H11295   2.644   3.930  11.486 -3.0303  0.6651 -0.2648
  761MPD2    H111296   2.772   4.172  11.824 -0.6564  0.9001 -2.0718
  761MPD2    H211297   2.453   3.903  11.857 -0.5127 -1.9006 -2.1154
  761MPD2    H311298   2.615   4.066  11.961 -2.5732 -2.3706  0.5085
  761MPD2     N11299   2.829   4.125  11.561 -0.1271  0.2090 -0.0221
  761MPD2    H511300   2.896   4.197  11.587 -1.0491  1.2810 -0.6060
  761MPD2    N111301   2.462   3.812  11.630  0.0517  0.2861  0.1180
  761MPD2    H711302   2.450   3.729  11.687 -0.6923  1.0003  1.0136
  762MPD2     C11303   2.731   3.278  10.980 -0.0898  0.1663 -0.4695
  762MPD2    C111304   2.703   3.411  11.012 -0.1030  0.5635  0.8733
  762MPD2    C211305   2.783   3.514  10.953  0.3398 -0.6602  0.5573
  762MPD2    C311306   2.889   3.495  10.873  0.1263 -0.6760  0.1276
  762MPD2    C411307   2.916   3.362  10.839  0.3429 -0.5430 -0.3569
  762MPD2    C511308   2.841   3.259  10.894  0.0386 -0.1266  0.3706
  762MPD2     H11309   2.756   3.616  10.978  0.1194 -0.1578 -1.7829
  762MPD2    H111310   3.001   3.329  10.781  0.4091 -1.9393  0.5435
  762MPD2    H211311   2.681   3.190  11.017  0.6394 -0.3047 -0.6092
  762MPD2    H311312   2.860   3.155  10.870 -0.5849  0.2728 -1.9341
  762MPD2     N11313   2.967   3.609  10.824  1.0616 -0.4582 -0.5234
  762MPD2    H511314   2.951   3.702  10.863  0.7017 -1.0043  0.6231
  762MPD2    N111315   2.591   3.431  11.100 -0.3724 -0.4675 -0.0755
  762MPD2    H711316   2.539   3.348  11.127 -1.4077  0.0467 -0.4924
  763MPD2     C11317   4.082   4.193  15.901  0.2420  0.2601 -0.5372
  763MPD2    C111318   4.214   4.147  15.933  0.0820  0.3140 -0.4848
  763MPD2    C211319   4.251   4.162  16.063  0.2657 -0.1268  0.5018
  763MPD2    C311320   4.174   4.241  16.151  0.7086  0.0197 -0.2006
  763MPD2    C411321   4.050   4.283  16.114  0.5067  0.1099  0.3842
  763MPD2    C511322   4.005   4.265  15.985  0.4417  0.2761  0.2690
  763MPD2     H11323   4.343   4.112  16.091 -0.7114 -2.0423  0.3083
  763MPD2    H111324   3.979   4.333  16.179 -0.3649 -1.1051  0.3635
  763MPD2    H211325   4.038   4.173  15.804 -0.2493 -1.3011  0.0062
  763MPD2    H311326   3.912   4.313  15.954  0.7583  0.5447 -0.2506
  763MPD2     N11327   4.227   4.265  16.281  0.3814 -0.0227  0.2412
  763MPD2    H511328   4.314   4.216  16.299 -0.3687 -1.8990 -1.2230
  763MPD2    N111329   4.290   4.067  15.848 -0.3579 -0.2759 -0.2080
  763MPD2    H711330   4.374   4.023  15.884 -1.2851 -1.1593  0.8419
  764MPD2     C11331   2.443   1.006  17.698 -0.0782  0.2174  0.5555
  764MPD2    C111332   2.312   1.030  17.699 -0.5763 -0.0348  0.5190
  764MPD2    C211333   2.227   1.011   0.034  0.5355 -0.8820  0.1681
  764MPD2    C311334   2.287   0.951   0.147  0.0503 -0.6654  1.0658
  764MPD2    C411335   2.419   0.924   0.150  0.0633 -0.1808 -0.0621
  764MPD2    C511336   2.495   0.951   0.037 -0.1109 -0.7140 -0.5128
  764MPD2     H11337   2.119   1.009   0.027  0.4800  0.9846  0.2977
  764MPD2    H111338   2.472   0.878   0.232  1.0623  0.5957 -0.2735
  764MPD2    H211339   2.509   1.023  17.614  1.9463  0.1181  2.1390
  764MPD2    H311340   2.600   0.926   0.043 -0.0840 -0.7212 -0.9564
  764MPD2     N11341   2.203   0.920   0.265  0.0552  0.0362 -0.2975
  764MPD2    H511342   2.109   0.956   0.275  0.5220  0.6621  1.7762
  764MPD2    N111343   2.252   1.076  17.581  0.0001  0.2580  0.7465
  764MPD2    H711344   2.315   1.078  17.502  0.3574 -0.4792  1.0190
  765MPD2     C11345   2.595   3.519  15.668 -0.4107 -0.5811 -0.1984
  765MPD2    C111346   2.635   3.638  15.724 -0.0481  0.4055 -0.0193
  765MPD2    C211347   2.757   3.656  15.779 -0.3433  0.0275  0.1565
  765MPD2    C311348   2.853   3.554  15.767 -0.1588 -0.4081  0.7274
  765MPD2    C411349   2.826   3.448  15.681  0.1581 -0.5706  0.2045
  765MPD2    C511350   2.695   3.428  15.656  0.2604 -0.0354  0.1460
  765MPD2     H11351   2.795   3.747  15.824  1.0072 -0.4859  0.0611
  765MPD2    H111352   2.896   3.370  15.652  1.3036 -0.0090  1.4293
  765MPD2    H211353   2.494   3.484  15.654  0.4984 -3.0891 -0.5354
  765MPD2    H311354   2.665   3.334  15.610 -3.2869  2.0396 -1.7435
  765MPD2     N11355   2.985   3.565  15.819 -0.6898  0.4012  0.3892
  765MPD2    H511356   2.989   3.647  15.879  0.8925  0.4694  0.1741
  765MPD2    N111357   2.529   3.726  15.750  0.0570 -0.0617  0.6359
  765MPD2    H711358   2.437   3.688  15.730  0.9187 -2.4918  1.3475
  766MPD2     C11359   1.858   3.723  15.634 -0.2386  0.3872  0.0877
  766MPD2    C111360   1.994   3.732  15.608 -0.7343 -0.6628 -0.0940
  766MPD2    C211361   2.045   3.675  15.496 -0.5942  0.1450 -0.7628
  766MPD2    C311362   1.967   3.617  15.396  0.3456 -0.4219  0.3364
  766MPD2    C411363   1.828   3.619  15.417  0.6084 -0.4034 -0.0846
  766MPD2    C511364   1.781   3.673  15.530  0.2319  1.1728  0.7623
  766MPD2     H11365   2.153   3.683  15.485 -0.4305  0.4006  0.9477
  766MPD2    H111366   1.760   3.577  15.343 -1.0489 -0.6180  1.5698
  766MPD2    H211367   1.814   3.744  15.731  1.8285  0.2128  1.0615
  766MPD2    H311368   1.676   3.665  15.558  0.2565 -0.2548  0.4255
  766MPD2     N11369   2.030   3.546  15.295  0.2990  0.2422 -0.2816
  766MPD2    H511370   1.970   3.510  15.222  2.2190 -0.4427 -1.4967
  766MPD2    N111371   2.092   3.794  15.689 -0.0637 -0.1565  0.6261
  766MPD2    H711372   2.188   3.802  15.660 -0.4764  1.8718 -0.1840
  767MPD2     C11373   1.604   3.700  15.091 -0.1198 -0.0237  0.4830
  767MPD2    C111374   1.735   3.730  15.059  0.0490 -0.3591 -0.0580
  767MPD2    C211375   1.790   3.684  14.944 -0.6662  0.1848 -0.0887
  767MPD2    C311376   1.709   3.595  14.865 -0.2400 -0.5507 -0.0677
  767MPD2    C411377   1.578   3.565  14.896  0.2060  0.3643  0.3186
  767MPD2    C511378   1.534   3.611  15.016 -0.4039  0.3889 -0.2308
  767MPD2     H11379   1.891   3.706  14.910 -0.2431 -0.1102  0.9927
  767MPD2    H111380   1.511   3.502  14.839 -1.5155  0.9750  1.6900
  767MPD2    H211381   1.564   3.737  15.185  1.9284 -0.6286  1.5916
  767MPD2    H311382   1.440   3.573  15.054  0.6698 -0.8209  1.2284
  767MPD2     N11383   1.763   3.562  14.737  0.0809 -0.7787 -0.0270
  767MPD2    H511384   1.862   3.580  14.729  0.2383 -0.6421  2.2298
  767MPD2    N111385   1.808   3.816  15.141  0.2924  0.3677 -0.2068
  767MPD2    H711386   1.764   3.852  15.225 -0.9455  0.4840 -0.9097
  768MPD2     C11387   2.809   2.048  11.470  0.3303  0.9933 -0.2847
  768MPD2    C111388   2.871   2.109  11.365  0.0748 -0.8198 -0.1901
  768MPD2    C211389   3.009   2.132  11.377  0.2850 -0.3808  0.1682
  768MPD2    C311390   3.086   2.081  11.482  0.6734  0.3262  0.1310
  768MPD2    C411391   3.019   2.013  11.586  0.1671 -0.0110  0.1229
  768MPD2    C511392   2.876   2.008  11.582 -0.2038 -0.4478 -0.3276
  768MPD2     H11393   3.065   2.186  11.301  2.4546 -0.9521  1.3657
  768MPD2    H111394   3.074   1.978  11.673  1.0257 -0.2635 -0.5217
  768MPD2    H211395   2.701   2.047  11.480  0.4107 -2.5243  0.1279
  768MPD2    H311396   2.828   1.967  11.670  2.4728 -3.0842 -0.0873
  768MPD2     N11397   3.226   2.103  11.481 -0.4069  0.2539 -0.2235
  768MPD2    H511398   3.254   2.165  11.406  1.2828 -0.9173 -0.5754
  768MPD2    N111399   2.806   2.151  11.252 -0.0785  0.5345  0.2732
  768MPD2    H711400   2.857   2.188  11.173  2.0566  0.1536  1.4755
  769MPD2     C11401   3.613   0.540  14.720  1.0463  0.1753 -0.2855
  769MPD2    C111402   3.586   0.448  14.819 -0.7943 -0.4159  0.5348
  769MPD2    C211403   3.614   0.474  14.952 -0.3751 -0.6298 -0.5617
  769MPD2    C311404   3.677   0.593  14.989  0.3888 -0.1847 -0.7320
  769MPD2    C411405   3.708   0.681  14.889  0.3904 -0.6220 -0.4968
  769MPD2    C511406   3.673   0.660  14.757 -0.4326  0.0682 -0.0703
  769MPD2     H11407   3.595   0.407  15.035 -0.2072  0.2460  0.1822
  769MPD2    H111408   3.769   0.768  14.910  1.0899 -1.0710 -0.6469
  769MPD2    H211409   3.582   0.524  14.618 -1.9665 -0.0422  0.6782
  769MPD2    H311410   3.707   0.728  14.680  1.1999 -1.5447 -0.7478
  769MPD2     N11411   3.721   0.606  15.125  0.0609  0.5979  0.6364
  769MPD2    H511412   3.696   0.533  15.191  1.1503 -0.5808 -0.2587
  769MPD2    N111413   3.525   0.325  14.783 -0.7486  0.5034  0.3953
  769MPD2    H711414   3.496   0.305  14.688  1.2365 -0.3704 -0.0253
  770MPD2     C11415   3.448   4.020  14.634 -0.6367  0.2919  0.0214
  770MPD2    C111416   3.328   4.051  14.686 -0.1451 -0.5498  0.3148
  770MPD2    C211417   3.294   4.185  14.721 -0.3001 -0.2662 -0.2868
  770MPD2    C311418   3.379   4.287  14.687 -0.8217 -0.4821  0.2882
  770MPD2    C411419   3.502   4.256  14.628  0.0248  0.1332  0.0593
  770MPD2    C511420   3.537   4.129  14.604  0.5895  0.0052  0.6431
  770MPD2     H11421   3.202   4.201  14.776  0.8169 -1.8670  2.0073
  770MPD2    H111422   3.574   4.333  14.605 -0.5028 -0.1962 -2.7650
  770MPD2    H211423   3.486   3.919  14.619  1.1817  0.9328  0.4062
  770MPD2    H311424   3.638   4.112  14.568  0.5672  2.4187 -0.5992
  770MPD2     N11425   3.344   4.423  14.719 -0.6175 -0.9279  0.1033
  770MPD2    H511426   3.250   4.438  14.753 -0.2012  0.1278  0.7886
  770MPD2    N111427   3.260   3.943  14.730  0.1601 -0.5619 -0.3744
  770MPD2    H711428   3.322   3.864  14.741 -0.5055 -0.8112  1.5018
  771MPD2     C11429   4.335   3.175  13.658 -0.5420 -0.0364 -0.5254
  771MPD2    C111430   4.262   3.260  13.577  0.6225 -0.4089  0.2549
  771MPD2    C211431   4.149   3.211  13.516  0.3617 -0.2646  0.0864
  771MPD2    C311432   4.097   3.084  13.540  0.1046  0.3689  0.3850
  771MPD2    C411433   4.168   3.004  13.630  0.1794 -0.0016 -0.4025
  771MPD2    C511434   4.288   3.054  13.687 -0.0329  0.1248  0.5776
  771MPD2     H11435   4.089   3.264  13.443 -0.9276 -0.4714  0.9813
  771MPD2    H111436   4.137   2.902  13.650 -0.4066  0.3001  0.2520
  771MPD2    H211437   4.436   3.201  13.688 -0.8133 -0.9173  1.1624
  771MPD2    H311438   4.338   2.984  13.754 -1.3841 -1.3072  0.0871
  771MPD2     N11439   3.990   3.042  13.468 -0.3710  0.3662 -0.1309
  771MPD2    H511440   3.953   3.104  13.396 -1.6579 -1.2047 -0.8205
  771MPD2    N111441   4.311   3.380  13.536  0.8508 -0.0114 -0.1032
  771MPD2    H711442   4.263   3.415  13.454  4.3051 -1.0966 -2.6340
  772MPD2     C11443   3.804   3.748  13.589 -0.1620 -0.3621  0.1333
  772MPD2    C111444   3.880   3.630  13.583 -0.4130 -0.2419 -0.6290
  772MPD2    C211445   3.816   3.510  13.616 -0.4464  0.3141  0.2220
  772MPD2    C311446   3.684   3.512  13.652 -0.0603 -0.5463 -0.8298
  772MPD2    C411447   3.605   3.627  13.659  0.1592  0.0948 -0.1469
  772MPD2    C511448   3.669   3.742  13.625 -0.0325  0.0561 -0.4004
  772MPD2     H11449   3.875   3.419  13.614 -4.0892 -2.0525  1.2584
  772MPD2    H111450   3.499   3.629  13.684  0.1832 -0.4266 -0.0159
  772MPD2    H211451   3.847   3.847  13.588  1.5136 -1.0712  0.9816
  772MPD2    H311452   3.615   3.836  13.628 -0.0729 -0.0136  1.3220
  772MPD2     N11453   3.618   3.390  13.684 -0.0453 -0.4922 -0.3721
  772MPD2    H511454   3.520   3.399  13.709  0.8261 -2.2199  3.8048
  772MPD2    N111455   4.020   3.629  13.553 -0.1207  0.0535 -0.0801
  772MPD2    H711456   4.069   3.542  13.535 -3.1671 -1.4466 -1.1589
  773MPD2     C11457   3.039   4.309   0.230 -0.5677 -0.0878 -0.7803
  773MPD2    C111458   3.030   4.212   0.130  0.1534 -0.6366 -0.4969
  773MPD2    C211459   3.118   4.105   0.137  0.3402  0.3935  0.2018
  773MPD2    C311460   3.197   4.087   0.247  0.0992 -0.3615 -0.2886
  773MPD2    C411461   3.197   4.181   0.347  0.3955  0.3233 -0.2245
  773MPD2    C511462   3.131   4.297   0.328  0.8438  0.5752  0.1279
  773MPD2     H11463   3.114   4.036   0.054  1.1688 -2.0792  2.2049
  773MPD2    H111464   3.268   4.172   0.428 -2.6493 -2.0180  2.1530
  773MPD2    H211465   2.998   4.408   0.213 -1.1727  0.0389  1.5420
  773MPD2    H311466   3.151   4.383   0.391 -0.0421 -0.5499  1.9348
  773MPD2     N11467   3.269   3.967   0.251  0.4783 -0.6434 -0.1033
  773MPD2    H511468   3.276   3.918   0.162 -0.1562  0.3962 -0.7147
  773MPD2    N111469   2.947   4.225   0.019 -0.4625  0.1005 -0.0073
  773MPD2    H711470   2.951   4.167  17.708 -0.9568 -1.9046  1.3660
  774MPD2     C11471   2.530   3.263  13.683 -0.5185 -0.4673  0.9208
  774MPD2    C111472   2.586   3.295  13.809 -0.2419 -0.5399  0.0880
  774MPD2    C211473   2.676   3.400  13.823 -0.4133 -0.0927 -0.8746
  774MPD2    C311474   2.714   3.467  13.704 -0.6209  0.2277 -0.3727
  774MPD2    C411475   2.658   3.435  13.580  0.1400  1.3008  0.5581
  774MPD2    C511476   2.566   3.329  13.570 -0.5923  0.1897 -0.1144
  774MPD2     H11477   2.721   3.426  13.918  1.5927  0.2786 -1.9330
  774MPD2    H111478   2.684   3.483  13.486  1.9140  2.1624  1.4908
  774MPD2    H211479   2.451   3.191  13.669 -0.5785  0.0600 -1.3879
  774MPD2    H311480   2.525   3.300  13.474 -0.5289 -1.3817  0.3306
  774MPD2     N11481   2.816   3.564  13.719 -0.0266 -0.2031 -0.1130
  774MPD2    H511482   2.834   3.584  13.817  0.5746  1.6951 -0.5896
  774MPD2    N111483   2.540   3.217  13.920 -0.3715 -0.2682  0.1844
  774MPD2    H711484   2.477   3.145  13.887 -0.5127  0.3920 -0.9901
  775MPD2     C11485   3.681   0.116  15.622 -0.0078  0.5367  0.5992
  775MPD2    C111486   3.750   0.211  15.695  0.5917  0.2702  0.4989
  775MPD2    C211487   3.868   0.256  15.635  0.2797  0.0753  0.3813
  775MPD2    C311488   3.915   0.218  15.511 -0.2817  0.2932  0.0717
  775MPD2    C411489   3.844   0.119  15.451 -0.2502  0.1977  0.3703
  775MPD2    C511490   3.725   0.077  15.500 -0.2207 -0.8600 -0.0346
  775MPD2     H11491   3.923   0.331  15.690  2.5151  0.4898 -2.3857
  775MPD2    H111492   3.885   0.076  15.361  0.0916  0.6846  0.2939
  775MPD2    H211493   3.578   0.087  15.641  0.0130  0.1056  0.0408
  775MPD2    H311494   3.677   4.739  15.447  1.0960 -1.6821  0.0474
  775MPD2     N11495   4.042   0.246  15.462 -0.2291 -0.0650 -0.0783
  775MPD2    H511496   4.068   0.200  15.375  1.2645 -2.0598  1.4251
  775MPD2    N111497   3.694   0.256  15.818  0.0320  0.5363  0.0616
  775MPD2    H711498   3.613   0.206  15.854  1.2596 -2.8840 -1.9031
  776MPD2     C11499   2.117   0.689  11.936 -0.2159 -0.2455  0.9119
  776MPD2    C111500   2.253   0.701  11.928 -0.3451 -0.4617 -0.9525
  776MPD2    C211501   2.297   0.835  11.894  0.0536  0.2134 -0.4349
  776MPD2    C311502   2.216   0.937  11.842  0.3459 -0.2631 -0.4320
  776MPD2    C411503   2.082   0.910  11.838  0.4888  0.4324  0.3416
  776MPD2    C511504   2.031   0.789  11.887  0.0303  0.5097 -0.7228
  776MPD2     H11505   2.403   0.853  11.896 -0.0008  0.0879  3.1044
  776MPD2    H111506   2.005   0.977  11.801 -1.2585 -2.8588 -2.0066
  776MPD2    H211507   2.077   0.592  11.964  0.1118 -1.3854 -2.5422
  776MPD2    H311508   1.925   0.768  11.896 -0.4299  2.4065 -1.8349
  776MPD2     N11509   2.259   1.062  11.799  0.2017 -0.1678  0.1312
  776MPD2    H511510   2.191   1.125  11.758  0.0420  0.0947  0.7953
  776MPD2    N111511   2.334   0.590  11.960 -0.8217  0.5032 -0.9062
  776MPD2    H711512   2.285   0.504  11.982 -1.0404  0.9809  0.5258
  777MPD2     C11513   3.274   3.147   0.812  0.4047  0.0028 -0.1471
  777MPD2    C111514   3.146   3.105   0.831  0.1292 -0.1045 -0.4048
  777MPD2    C211515   3.087   3.009   0.744  0.4060  0.2330 -0.2144
  777MPD2    C311516   3.154   2.967   0.627 -0.7485  0.0429  0.2377
  777MPD2    C411517   3.277   3.027   0.600 -0.1145 -0.8376  0.2251
  777MPD2    C511518   3.339   3.105   0.699  0.5203  0.1610 -0.3656
  777MPD2     H11519   2.995   2.960   0.776  0.7629  0.4047  1.0958
  777MPD2    H111520   3.337   2.999   0.514 -1.7151 -2.8802 -0.2257
  777MPD2    H211521   3.333   3.217   0.870  3.1156 -1.8889 -0.6660
  777MPD2    H311522   3.442   3.135   0.683 -0.5941  2.8204 -2.4482
  777MPD2     N11523   3.098   2.857   0.558 -0.6504  0.2801 -0.4551
  777MPD2    H511524   3.034   2.792   0.602  1.3662 -2.3366 -1.3623
  777MPD2    N111525   3.083   3.138   0.959 -0.5515 -0.4289  0.2777
  777MPD2    H711526   3.144   3.185   1.024 -1.2798 -0.3745  0.9216
  778MPD2     C11527   4.524   3.011  14.999 -0.7425  0.7910 -0.1116
  778MPD2    C111528   4.489   2.902  14.924 -0.2009  0.2561 -0.1449
  778MPD2    C211529   4.540   2.896  14.795 -0.2258  0.0176 -0.3279
  778MPD2    C311530   4.630   2.985  14.744 -0.2135  0.2505  0.0289
  778MPD2    C411531   4.665   3.098  14.819 -0.8648 -0.1303 -0.6996
  778MPD2    C511532   4.601   3.110  14.938 -0.2390  0.0117  0.7193
  778MPD2     H11533   4.512   2.813  14.731  0.5103 -1.4735  1.2861
  778MPD2    H111534   4.741   3.171  14.794 -0.0439  0.2918  3.0272
  778MPD2    H211535   4.491   3.024  15.102 -1.2965  1.0214 -0.3167
  778MPD2    H311536   4.634   3.191  15.002 -2.3421  0.7573  0.8783
  778MPD2     N11537   4.708   2.939  14.632 -0.3085 -0.5521  1.0567
  778MPD2    H511538   4.692   2.843  14.604  0.6920 -0.9248  1.7678
  778MPD2    N111539   4.403   2.800  14.964 -0.3043 -0.2722  0.1410
  778MPD2    H711540   4.369   2.733  14.895  0.1559  0.2453 -0.5909
  779MPD2     C11541   4.007   1.531  13.799 -0.1879 -0.2003  0.3302
  779MPD2    C111542   4.111   1.509  13.889  0.4994 -0.0326  0.0350
  779MPD2    C211543   4.198   1.610  13.920  0.0348  0.4564  0.1991
  779MPD2    C311544   4.182   1.736  13.853 -0.0626  0.0590  1.0112
  779MPD2    C411545   4.082   1.761  13.761  0.5993  0.4191  0.1862
  779MPD2    C511546   4.001   1.653  13.738  0.2618  0.0394 -0.4099
  779MPD2     H11547   4.291   1.599  13.974 -0.5167 -0.0907  1.0410
  779MPD2    H111548   4.066   1.850  13.700  0.0769 -1.1998 -2.0439
  779MPD2    H211549   3.951   1.452  13.750  1.3770  0.3212 -2.2915
  779MPD2    H311550   3.932   1.656  13.655 -0.9116 -0.4097  0.5565
  779MPD2     N11551   4.265   1.835  13.899  0.0610  0.3964 -0.0722
  779MPD2    H511552   4.315   1.818  13.986  0.5566  0.6382 -0.3057
  779MPD2    N111553   4.125   1.371  13.934  0.0438  0.1355  0.3997
  779MPD2    H711554   4.053   1.304  13.911  0.9789 -0.7570  0.0586
  780MPD2     C11555   3.645   2.281   0.799 -0.2528  0.3154  0.0737
  780MPD2    C111556   3.590   2.196   0.710  0.5720  0.2265  0.0215
  780MPD2    C211557   3.604   2.235   0.575  0.3939  0.4162 -0.7583
  780MPD2    C311558   3.676   2.343   0.534 -0.0120 -0.4493 -0.0820
  780MPD2    C411559   3.721   2.429   0.634 -0.6148  0.5617  0.2131
  780MPD2    C511560   3.711   2.390   0.765  0.2858  0.2270 -0.2194
  780MPD2     H11561   3.573   2.166   0.497  1.2322  0.8799 -1.4891
  780MPD2    H111562   3.770   2.526   0.628  0.0382  0.1155 -1.6836
  780MPD2    H211563   3.619   2.277   0.905 -0.9175  0.0118 -0.0995
  780MPD2    H311564   3.748   2.456   0.843 -1.9652  0.0027  1.0421
  780MPD2     N11565   3.697   2.365   0.394  0.1274  0.0574 -0.4442
  780MPD2    H511566   3.654   2.297   0.332 -0.0608  1.1142 -1.4737
  780MPD2    N111567   3.508   2.092   0.752 -0.1184 -0.2720 -0.2920
  780MPD2    H711568   3.516   2.061   0.848  0.4105 -0.1963 -0.3135
  781MPD2     C11569   0.754   3.523  11.977  0.1700 -0.3118  0.8375
  781MPD2    C111570   0.841   3.478  12.073 -0.4163  0.2514  0.4988
  781MPD2    C211571   0.960   3.406  12.034 -0.1480 -0.2674  0.0508
  781MPD2    C311572   0.988   3.390  11.900 -0.5030  0.8163 -0.1738
  781MPD2    C411573   0.899   3.447  11.808  0.0433 -0.6373  0.1193
  781MPD2    C511574   0.785   3.505  11.848  0.3664  0.2026 -0.1950
  781MPD2     H11575   1.018   3.369  12.118  0.1124 -0.0948 -0.0544
  781MPD2    H111576   0.921   3.439  11.702  0.4060  0.3473  0.1283
  781MPD2    H211577   0.661   3.574  12.000  0.0941 -0.4234  0.7755
  781MPD2    H311578   0.717   3.551  11.777 -2.4780 -2.1406  1.0183
  781MPD2     N11579   1.089   3.313  11.842  0.1106 -0.1046 -0.3180
  781MPD2    H511580   1.080   3.291  11.743 -0.5197 -0.5133 -0.1740
  781MPD2    N111581   0.811   3.479  12.211 -0.2162 -0.8194 -0.2753
  781MPD2    H711582   0.867   3.424  12.275 -1.3459 -0.2109  1.2234
  782MPD2     C11583   3.267   4.542  10.090  0.5625 -0.1514 -0.1444
  782MPD2    C111584   3.396   4.505  10.089 -0.5382 -0.4075 -0.6693
  782MPD2    C211585   3.471   4.563  10.189  0.3072  0.1796 -0.1733
  782MPD2    C311586   3.413   4.642  10.289  0.9383 -0.9569 -0.2616
  782MPD2    C411587   3.278   4.659  10.304  0.4065  0.3040  0.2524
  782MPD2    C511588   3.207   4.612  10.196 -0.1056  0.3271  0.2174
  782MPD2     H11589   3.579   4.553  10.197  0.1106  0.4145  2.8783
  782MPD2    H111590   3.229   4.698  10.393  0.0589  1.0642 -0.2714
  782MPD2    H211591   3.198   4.507  10.014  1.7146 -0.4168 -1.0748
  782MPD2    H311592   3.100   4.629  10.199 -0.2551 -1.0667  2.3343
  782MPD2     N11593   3.506   4.696  10.378  0.0953  0.0470 -0.3044
  782MPD2    H511594   3.604   4.696  10.351 -0.1694  0.6780 -1.3030
  782MPD2    N111595   3.450   4.407  10.004 -0.1261 -0.4117  0.2581
  782MPD2    H711596   3.405   4.402   9.913  2.4813  0.6267 -1.0617
  783MPD2     C11597   2.902   4.091  10.790 -0.1349 -0.6334 -0.7193
  783MPD2    C111598   2.993   4.189  10.839 -0.0415 -0.0184 -1.1167
  783MPD2    C211599   3.100   4.223  10.760  0.5859  0.3853 -0.3439
  783MPD2    C311600   3.108   4.178  10.627 -0.0690 -0.0891 -0.9242
  783MPD2    C411601   3.014   4.092  10.580  1.0401 -0.3594 -0.1989
  783MPD2    C511602   2.914   4.052  10.660 -1.0665  0.5599  0.7130
  783MPD2     H11603   3.175   4.294  10.794 -0.3662  1.4236 -0.4033
  783MPD2    H111604   3.023   4.059  10.478  2.0008  0.9230 -0.5354
  783MPD2    H211605   2.818   4.059  10.850  1.5901 -3.4322  0.1913
  783MPD2    H311606   2.842   3.978  10.629  1.1147  0.5930 -4.3470
  783MPD2     N11607   3.224   4.219  10.549 -0.1816  0.4058 -0.3761
  783MPD2    H511608   3.293   4.286  10.582 -1.8420  1.6061  0.6769
  783MPD2    N111609   2.965   4.236  10.970 -0.2380 -0.4673  0.1165
  783MPD2    H711610   2.881   4.203  11.017 -1.1011 -1.3392 -2.0292
  784MPD2     C11611   1.202   4.584   0.580 -0.1479 -0.4777  0.3161
  784MPD2    C111612   1.269   4.699   0.538 -0.5977 -0.1743  0.2248
  784MPD2    C211613   1.225   0.015   0.420  0.2409 -0.2844 -0.0679
  784MPD2    C311614   1.118   4.719   0.344  0.6048  0.0270  0.1837
  784MPD2    C411615   1.065   4.595   0.380  0.3131 -0.1904 -0.3215
  784MPD2    C511616   1.106   4.534   0.496 -0.1913  0.0888  0.5741
  784MPD2     H11617   1.285   0.099   0.386 -1.4055  1.0913  0.4283
  784MPD2    H111618   0.976   4.555   0.333 -0.5731  1.9433 -0.4427
  784MPD2    H211619   1.237   4.525   0.664  1.3684  2.2977  1.6240
  784MPD2    H311620   1.065   4.437   0.520  0.5149 -0.2600  0.3805
  784MPD2     N11621   1.079   0.048   0.230  0.1443  0.3762  0.0554
  784MPD2    H511622   1.133   0.133   0.220  1.0574 -0.0487  1.3998
  784MPD2    N111623   1.386   0.012   0.593  0.6405  0.3740 -0.5580
  784MPD2    H711624   1.429   0.083   0.535  1.2291  0.4520 -0.0251
  785MPD2     C11625   1.466   3.121  11.280  0.2993 -0.2635 -0.9685
  785MPD2    C111626   1.363   3.191  11.338 -0.1798 -0.0775 -0.0949
  785MPD2    C211627   1.230   3.171  11.301  0.3078  0.1287  0.4213
  785MPD2    C311628   1.197   3.080  11.212  0.3246 -0.2939 -0.1444
  785MPD2    C411629   1.296   2.989  11.167  0.9761  0.1577 -0.2215
  785MPD2    C511630   1.434   3.017  11.197 -0.1606 -0.4581  0.1192
  785MPD2     H11631   1.149   3.231  11.341 -0.4613  0.3401 -1.4746
  785MPD2    H111632   1.282   2.905  11.101 -0.2913  0.3145 -0.1604
  785MPD2    H211633   1.569   3.140  11.311  0.0716  1.8741 -1.4868
  785MPD2    H311634   1.507   2.943  11.167  0.4034  0.0369  0.2653
  785MPD2     N11635   1.063   3.079  11.166 -0.0086  0.2963 -0.6872
  785MPD2    H511636   1.004   3.148  11.212  1.0561 -0.0951  1.2822
  785MPD2    N111637   1.406   3.289  11.427  0.0885 -0.4691 -0.2540
  785MPD2    H711638   1.503   3.316  11.435  0.3522 -1.3783 -0.4580
  786MPD2     C11639   4.644   0.780  14.847  0.4372 -0.3507  0.2200
  786MPD2    C111640   0.027   0.724  14.836 -0.8697 -0.2423  0.1354
  786MPD2    C211641   0.132   0.774  14.899  0.3335 -0.7659  0.0256
  786MPD2    C311642   0.123   0.881  14.988 -0.0167  0.1748 -0.5995
  786MPD2    C411643   4.738   0.928  15.018  0.8228  0.5471  0.4832
  786MPD2    C511644   4.627   0.875  14.948  0.0684  0.3179  0.3565
  786MPD2     H11645   0.229   0.732  14.875  1.2386  0.7822  1.0092
  786MPD2    H111646   4.730   0.993  15.104  0.4310 -0.2278  1.0341
  786MPD2    H211647   4.554   0.729  14.816  2.1008 -1.3245 -3.0681
  786MPD2    H311648   4.529   0.919  14.961 -0.4221 -0.2127 -1.5409
  786MPD2     N11649   0.227   0.945  15.052 -0.6061 -0.6430 -0.2599
  786MPD2    H511650   0.209   1.016  15.123 -0.3524 -1.7287  0.8930
  786MPD2    N111651   0.046   0.609  14.749 -0.2428  0.2013 -0.6167
  786MPD2    H711652   0.139   0.571  14.762 -0.0558  0.4741 -1.1916
  787MPD2     C11653   0.427   0.110  14.891  0.5426  0.4373 -0.0423
  787MPD2    C111654   0.422   0.106  14.752 -0.1563 -0.5070 -0.3450
  787MPD2    C211655   0.513   0.029  14.686  0.5512  0.0291 -0.2535
  787MPD2    C311656   0.602   4.692  14.760 -0.1271  1.0089  0.3383
  787MPD2    C411657   0.608   4.709  14.898  1.1946 -0.2520  0.6675
  787MPD2    C511658   0.518   0.039  14.963 -0.0170 -0.1746  0.4479
  787MPD2     H11659   0.521   0.020  14.579  0.8755 -1.1021 -0.1401
  787MPD2    H111660   0.686   4.662  14.958 -0.9230 -0.9217  2.9031
  787MPD2    H211661   0.358   0.175  14.943 -1.7223 -1.3009 -0.8672
  787MPD2    H311662   0.533   0.057  15.069  0.3311 -2.2008  0.7440
  787MPD2     N11663   0.698   4.608  14.692  0.4229  0.0245 -0.2499
  787MPD2    H511664   0.710   4.621  14.592  1.3568  0.1546 -0.1241
  787MPD2    N111665   0.324   0.197  14.695 -0.3893 -0.1113  0.4264
  787MPD2    H711666   0.283   0.277  14.741 -0.6271 -1.4005  2.4488
  788MPD2     C11667   1.527   4.150   0.917 -0.3163  0.4207  0.1059
  788MPD2    C111668   1.467   4.080   0.817 -0.1411 -0.6241  0.1409
  788MPD2    C211669   1.443   4.142   0.700  0.3592 -0.1427 -0.5440
  788MPD2    C311670   1.481   4.270   0.672 -0.8126 -0.5735 -0.0114
  788MPD2    C411671   1.536   4.345   0.775 -0.6614 -0.5318 -0.1475
  788MPD2    C511672   1.560   4.284   0.901 -0.4264 -0.1880  0.5582
  788MPD2     H11673   1.407   4.081   0.618 -1.0247 -0.9301  0.6610
  788MPD2    H111674   1.556   4.452   0.767 -1.1050 -0.4170  0.3003
  788MPD2    H211675   1.543   4.103   1.013 -1.0496  0.6337  0.3306
  788MPD2    H311676   1.621   4.333   0.976 -1.3382  1.6100  0.1127
  788MPD2     N11677   1.442   4.343   0.556  0.5559 -0.3495 -0.0418
  788MPD2    H511678   1.466   4.442   0.550  1.8152 -0.7457 -1.3653
  788MPD2    N111679   1.449   3.940   0.831  0.2297  0.3334 -0.4875
  788MPD2    H711680   1.479   3.905   0.922  0.3789  1.7300 -0.0084
  789MPD2     C11681   2.261   4.165  16.681  0.1018  0.6080  0.1437
  789MPD2    C111682   2.171   4.173  16.573 -0.3009  0.0769 -0.6674
  789MPD2    C211683   2.080   4.272  16.574  0.3621  0.0240 -0.2462
  789MPD2    C311684   2.065   4.363  16.683 -0.1759 -0.4099  0.0061
  789MPD2    C411685   2.149   4.339  16.791  0.7813  0.3199  0.8825
  789MPD2    C511686   2.237   4.238  16.796  0.9100 -0.1820 -1.1569
  789MPD2     H11687   2.002   4.264  16.498  0.6793 -1.3674 -0.4170
  789MPD2    H111688   2.138   4.397  16.882 -0.5079  0.7474  0.4644
  789MPD2    H211689   2.341   4.093  16.693  0.3215  0.8668  0.2427
  789MPD2    H311690   2.293   4.219  16.887  0.2330 -0.5239 -0.8075
  789MPD2     N11691   1.967   4.468  16.691  0.5632 -0.7247  0.0616
  789MPD2    H511692   1.965   4.526  16.774 -0.7026  1.9107 -1.7882
  789MPD2    N111693   2.176   4.090  16.462  0.2708  0.3711 -0.3821
  789MPD2    H711694   2.104   4.107  16.393 -0.6106  1.4060  0.7931
  790MPD2     C11695   3.683   0.723  13.495 -0.5326  0.1326  0.2569
  790MPD2    C111696   3.605   0.630  13.435  0.8142  0.6159 -0.3176
  790MPD2    C211697   3.548   0.665  13.306 -0.0516  0.3067  0.0051
  790MPD2    C311698   3.553   0.794  13.262 -1.0607  0.4470 -0.2394
  790MPD2    C411699   3.640   0.882  13.323  0.4870 -0.0684 -0.3521
  790MPD2    C511700   3.708   0.841  13.434 -0.3171 -0.5898 -0.5602
  790MPD2     H11701   3.485   0.600  13.247 -1.6610  1.3250  0.5865
  790MPD2    H111702   3.681   0.971  13.276 -1.1704  0.5906 -0.5325
  790MPD2    H211703   3.720   0.698  13.593 -0.5356 -0.7951  0.0243
  790MPD2    H311704   3.780   0.905  13.483  0.3320 -0.9063 -1.0947
  790MPD2     N11705   3.479   0.832  13.147  0.2292 -0.5187  0.4498
  790MPD2    H511706   3.424   0.753  13.114 -0.0922  0.7552 -2.0613
  790MPD2    N111707   3.581   0.512  13.500  0.9521 -0.4692  0.1036
  790MPD2    H711708   3.636   0.487  13.582 -0.3874 -0.6021  0.9706
  791MPD2     C11709   2.773   0.691  12.735  0.2531  0.8244 -0.0502
  791MPD2    C111710   2.848   0.693  12.849 -0.3132  0.2036 -0.0694
  791MPD2    C211711   2.806   0.610  12.955  0.0739  0.4381  0.5599
  791MPD2    C311712   2.710   0.515  12.940 -0.0414  0.2805  0.9017
  791MPD2    C411713   2.636   0.521  12.820 -0.2999 -0.1953 -0.2920
  791MPD2    C511714   2.664   0.611  12.724  0.1959 -0.0612  0.3007
  791MPD2     H11715   2.844   0.618  13.056  2.3322 -0.8519 -0.1905
  791MPD2    H111716   2.555   0.453  12.799  1.2816 -2.4105  0.6974
  791MPD2    H211717   2.798   0.769  12.664  0.5231 -0.0160 -0.8819
  791MPD2    H311718   2.607   0.599  12.632  1.7674 -0.8932 -0.5574
  791MPD2     N11719   2.684   0.421  13.047  0.4817 -0.1833 -0.3265
  791MPD2    H511720   2.744   0.424  13.129  0.5123 -1.9393 -0.2748
  791MPD2    N111721   2.966   0.766  12.846  0.2521  0.1792 -0.6446
  791MPD2    H711722   2.974   0.843  12.781 -1.2470 -0.0430 -1.0870
  792MPD2     C11723   3.520   1.016  11.599  0.5566 -0.8692 -0.3472
  792MPD2    C111724   3.493   1.056  11.470  0.0464  0.3748  0.1501
  792MPD2    C211725   3.358   1.076  11.433  0.3078 -0.3227  0.3078
  792MPD2    C311726   3.252   1.043  11.516 -0.4347  0.4334 -0.4864
  792MPD2    C411727   3.286   0.995  11.643 -0.0064 -0.1753  0.3793
  792MPD2    C511728   3.420   0.981  11.682  1.1382  0.5184 -0.8025
  792MPD2     H11729   3.333   1.117  11.336  2.2073 -0.8417 -0.3901
  792MPD2    H111730   3.211   0.965  11.715 -0.2543  1.6231  0.8667
  792MPD2    H211731   3.618   1.004  11.645  1.3074 -2.2648 -2.3037
  792MPD2    H311732   3.437   0.952  11.784  1.5907 -1.6741 -1.5080
  792MPD2     N11733   3.116   1.045  11.476 -0.0281  0.0356  0.5193
  792MPD2    H511734   3.056   1.035  11.558 -1.4742  0.1512 -0.5213
  792MPD2    N111735   3.600   1.110  11.392 -0.7099 -0.4099 -0.9055
  792MPD2    H711736   3.692   1.123  11.430 -0.6441 -0.9558 -0.8780
  793MPD2     C11737   2.637   0.724  10.596 -0.3993  0.0658 -0.5543
  793MPD2    C111738   2.761   0.735  10.645  0.0044 -0.1949  0.0492
  793MPD2    C211739   2.787   0.816  10.757  0.2824  0.3648 -1.0401
  793MPD2    C311740   2.679   0.873  10.822  0.3036 -0.5031 -0.2031
  793MPD2    C411741   2.555   0.857  10.777 -0.8776 -0.2177 -0.7474
  793MPD2    C511742   2.533   0.781  10.663  0.3080  0.7699 -0.3609
  793MPD2     H11743   2.886   0.834  10.797 -0.9386  0.8290  1.7579
  793MPD2    H111744   2.471   0.902  10.829 -0.4952 -1.5953  1.0671
  793MPD2    H211745   2.611   0.664  10.509  0.4528 -0.2464 -0.5936
  793MPD2    H311746   2.428   0.773  10.637 -0.3271  3.3864  1.3397
  793MPD2     N11747   2.688   0.929  10.952  0.3120 -0.1930 -0.0494
  793MPD2    H511748   2.607   0.913  11.010  0.3840 -1.4560 -0.2869
  793MPD2    N111749   2.859   0.666  10.575  0.3047  0.4290  0.4167
  793MPD2    H711750   2.833   0.625  10.486 -1.3434  2.8947 -0.2496
  794MPD2     C11751   2.524   0.137  17.451  0.4013 -1.1545  0.4515
  794MPD2    C111752   2.529   0.043  17.343  0.4033 -0.4304  0.2392
  794MPD2    C211753   2.513   0.084  17.216  0.3652  0.0692 -0.7219
  794MPD2    C311754   2.484   0.223  17.195  0.1809  0.1858 -0.1897
  794MPD2    C411755   2.492   0.315  17.298 -0.1387  0.0784  0.4298
  794MPD2    C511756   2.512   0.277  17.429  0.6351  0.2453 -0.3521
  794MPD2     H11757   2.512   0.012  17.134  1.2179 -2.1337  1.2145
  794MPD2    H111758   2.460   0.418  17.285  0.0102 -0.4105 -3.8232
  794MPD2    H211759   2.547   0.116  17.555 -1.4244 -3.0991  0.4644
  794MPD2    H311760   2.540   0.355  17.499  2.9332  0.0844 -1.0989
  794MPD2     N11761   2.437   0.279  17.072  0.1287 -0.5584  0.8991
  794MPD2    H511762   2.399   0.373  17.069  1.1856 -0.1709  0.0086
  794MPD2    N111763   2.575   4.652  17.365  0.6325  0.2226 -0.1998
  794MPD2    H711764   2.602   4.602  17.281  0.0865 -0.7429  0.1957
  795MPD2     C11765   0.671   1.623  14.191 -0.2420  0.1121  0.5250
  795MPD2    C111766   0.656   1.525  14.099 -0.5675  0.4318  0.4644
  795MPD2    C211767   0.710   1.403  14.125  0.7120  0.8573  0.2547
  795MPD2    C311768   0.772   1.377  14.248  0.7838  0.3901 -0.0358
  795MPD2    C411769   0.781   1.470  14.347  0.4618  0.3885 -0.0770
  795MPD2    C511770   0.727   1.593  14.315 -0.2497  1.5054  0.3108
  795MPD2     H11771   0.690   1.322  14.056 -1.0555  0.7060  0.9417
  795MPD2    H111772   0.828   1.446  14.442 -0.6998 -3.2601 -0.4595
  795MPD2    H211773   0.649   1.726  14.164  2.3968  0.3356 -0.8008
  795MPD2    H311774   0.733   1.675  14.387 -1.5416 -0.2700  2.4366
  795MPD2     N11775   0.835   1.247  14.251 -0.3344  0.3944  0.3986
  795MPD2    H511776   0.806   1.181  14.179 -3.1494  1.4495  0.5407
  795MPD2    N111777   0.587   1.556  13.978 -0.0041 -0.1810  0.2971
  795MPD2    H711778   0.556   1.478  13.920  0.5425  0.2812 -0.6019
  796MPD2     C11779   0.254   3.489  15.924 -0.5700  0.3465  0.0895
  796MPD2    C111780   0.323   3.557  16.023  0.0676  0.1906  0.1472
  796MPD2    C211781   0.285   3.684  16.054 -0.4331  0.5262  0.3002
  796MPD2    C311782   0.197   3.759  15.971  0.1459 -0.3061 -0.2322
  796MPD2    C411783   0.129   3.689  15.877 -0.1453  0.6126 -0.2032
  796MPD2    C511784   0.155   3.563  15.850  0.0236 -0.4621 -0.3017
  796MPD2     H11785   0.321   3.721  16.149  3.4443 -0.3582 -0.7993
  796MPD2    H111786   0.058   3.740  15.814 -0.9164 -0.7659 -0.4512
  796MPD2    H211787   0.255   3.381  15.914 -1.7197  0.1739  1.8238
  796MPD2    H311788   0.093   3.518  15.774 -1.5635  3.1998 -1.1650
  796MPD2     N11789   0.175   3.900  16.001  0.5658  0.5071 -0.1950
  796MPD2    H511790   0.226   3.938  16.080 -2.3719  2.0241  0.9673
  796MPD2    N111791   0.421   3.480  16.089 -0.2366 -0.1368 -0.5775
  796MPD2    H711792   0.446   3.385  16.064 -1.7210 -1.0240  1.3177
  797MPD2     C11793   1.795   4.080  16.503 -0.0739 -0.0047  0.3179
  797MPD2    C111794   1.786   4.106  16.634  0.3768  0.2507  0.5394
  797MPD2    C211795   1.683   4.181  16.683 -0.4135 -0.2398 -0.8242
  797MPD2    C311796   1.574   4.206  16.604 -0.0459 -1.0024 -0.2101
  797MPD2    C411797   1.571   4.168  16.470 -0.0675 -0.1829  0.5456
  797MPD2    C511798   1.692   4.117  16.422 -0.9689 -0.6908 -0.4697
  797MPD2     H11799   1.686   4.205  16.788  2.2067  0.8862 -1.1658
  797MPD2    H111800   1.490   4.184  16.399 -0.2691  0.4228  0.9142
  797MPD2    H211801   1.880   4.039  16.450 -0.5286  0.0092 -0.4167
  797MPD2    H311802   1.701   4.105  16.314  0.4465 -1.6270 -0.2304
  797MPD2     N11803   1.451   4.242  16.653 -0.2502 -0.2601 -0.2033
  797MPD2    H511804   1.376   4.259  16.586 -0.3152 -1.2092 -0.3707
  797MPD2    N111805   1.873   4.063  16.733 -0.0781  0.0747  0.7764
  797MPD2    H711806   1.859   4.099  16.827 -0.5334  0.3582  0.5964
  798MPD2     C11807   1.440   4.068  17.322 -0.9826 -0.1799 -0.1578
  798MPD2    C111808   1.461   4.107  17.194  0.5011 -0.0234 -0.0491
  798MPD2    C211809   1.586   4.086  17.141  0.0117  0.0643 -0.7434
  798MPD2    C311810   1.685   4.019  17.210  0.4004  0.4102 -0.5117
  798MPD2    C411811   1.658   3.971  17.338  0.1318 -1.1147  0.2621
  798MPD2    C511812   1.534   4.003  17.394  0.1768 -0.4212  0.7793
  798MPD2     H11813   1.613   4.124  17.043  3.6681 -1.3373 -0.3028
  798MPD2    H111814   1.729   3.915  17.399 -1.4156 -1.4247  1.7642
  798MPD2    H211815   1.344   4.080  17.371  1.0147  2.4952  3.0688
  798MPD2    H311816   1.509   3.985  17.498  0.5955 -1.8816  0.6271
  798MPD2     N11817   1.805   4.002  17.135 -0.0363 -0.3872 -0.0169
  798MPD2    H511818   1.807   4.051  17.046 -0.9943  2.0660  1.3184
  798MPD2    N111819   1.378   4.176  17.114  0.2592  0.0321 -0.2199
  798MPD2    H711820   1.410   4.199  17.020  0.7855 -0.1301 -0.0782
  799MPD2     C11821   0.399   4.339  14.780 -0.9575  0.6327  0.0259
  799MPD2    C111822   0.354   4.257  14.675  0.5868 -0.2878  0.2891
  799MPD2    C211823   0.269   4.308  14.578 -0.3056 -0.0318  0.0130
  799MPD2    C311824   0.226   4.442  14.580 -0.9698 -0.0665  0.3636
  799MPD2    C411825   0.255   4.515  14.692 -0.0914  0.1548  0.7551
  799MPD2    C511826   0.341   4.465  14.785  0.1218 -0.0623 -0.4442
  799MPD2     H11827   0.249   4.241  14.495 -0.7218 -0.6917  0.6560
  799MPD2    H111828   0.224   4.618  14.701 -0.3310  0.1210  0.3098
  799MPD2    H211829   0.462   4.306  14.861  0.0418  1.0749 -0.5624
  799MPD2    H311830   0.356   4.524  14.875 -0.3717  0.3278 -0.6185
  799MPD2     N11831   0.146   4.505  14.477 -0.0269  0.0248 -0.6876
  799MPD2    H511832   0.118   4.603  14.483  0.7332  0.2688 -1.1281
  799MPD2    N111833   0.394   4.123  14.663 -0.2255  0.3704 -0.3518
  799MPD2    H711834   0.383   4.084  14.569  1.8230 -1.1852  0.0635
  800MPD2     C11835   0.219   0.844  13.930 -0.1070  0.2119 -0.9056
  800MPD2    C111836   0.348   0.823  13.968 -0.8044 -0.3627 -0.0101
  800MPD2    C211837   0.437   0.768  13.880  0.3028  0.3601 -0.7510
  800MPD2    C311838   0.400   0.741  13.748  0.7938  0.2639 -0.0082
  800MPD2    C411839   0.273   0.762  13.710  0.6812  0.3613 -0.4912
  800MPD2    C511840   0.181   0.803  13.805  0.6970 -0.0536  0.2720
  800MPD2     H11841   0.539   0.761  13.916 -1.4106 -0.5985  3.8767
  800MPD2    H111842   0.235   0.739  13.611 -2.4746  1.2591  0.5262
  800MPD2    H211843   0.139   0.889  13.988 -1.1172 -0.7282 -1.5649
  800MPD2    H311844   0.078   0.828  13.782  0.1244 -2.7324 -0.0672
  800MPD2     N11845   0.491   0.680  13.663 -0.3005 -0.4095  0.5013
  800MPD2    H511846   0.584   0.667  13.702 -1.1047 -1.9944  1.8908
  800MPD2    N111847   0.395   0.863  14.097  0.5689 -0.0020  0.5235
  800MPD2    H711848   0.491   0.846  14.125  0.7634 -0.6749 -0.5382
  801MPD2     C11849   0.365   1.670  14.456  0.3152  0.2424 -0.0366
  801MPD2    C111850   0.408   1.568  14.538  0.8013 -0.2983  0.7072
  801MPD2    C211851   0.430   1.592  14.667  0.3153  0.2557  0.1461
  801MPD2    C311852   0.418   1.720  14.718 -1.0163  1.0110 -0.0918
  801MPD2    C411853   0.382   1.821  14.635  0.1830  0.2573  0.4709
  801MPD2    C511854   0.352   1.793  14.503 -0.3579  0.3026  0.3376
  801MPD2     H11855   0.464   1.514  14.733  1.7357  0.9157  0.1843
  801MPD2    H111856   0.398   1.921  14.672 -1.3444  0.9419 -0.7131
  801MPD2    H211857   0.373   1.654  14.349 -2.2924 -0.6866 -0.0992
  801MPD2    H311858   0.330   1.877  14.437  0.5669 -1.0307 -1.6633
  801MPD2     N11859   0.455   1.764  14.850 -0.2810 -0.1964  0.3170
  801MPD2    H511860   0.439   1.861  14.871  0.6850  0.1410 -0.4859
  801MPD2    N111861   0.436   1.437  14.486 -0.0700  0.1149 -0.3893
  801MPD2    H711862   0.469   1.375  14.559 -0.6508  1.3655  0.9521
  802MPD2     C11863   0.377   3.088   0.556  0.2650  0.0763  0.7071
  802MPD2    C111864   0.294   3.010   0.487  0.7017 -0.3097  0.5313
  802MPD2    C211865   0.350   2.934   0.390 -0.5978 -0.4323  0.1444
  802MPD2    C311866   0.487   2.946   0.356  0.3179 -0.2159  0.1810
  802MPD2    C411867   0.570   3.019   0.434 -0.1807  0.0770  0.0071
  802MPD2    C511868   0.510   3.099   0.531  0.0182 -0.6226 -0.1328
  802MPD2     H11869   0.284   2.868   0.334 -0.4047 -0.7293  0.2641
  802MPD2    H111870   0.676   3.027   0.411 -0.4021  0.3075 -0.9379
  802MPD2    H211871   0.336   3.166   0.619  0.8635  0.4521  0.6302
  802MPD2    H311872   0.565   3.170   0.591  0.2178 -0.5915 -0.3498
  802MPD2     N11873   0.524   2.861   0.244 -0.0576 -0.5379 -0.4379
  802MPD2    H511874   0.455   2.803   0.196  0.1077 -0.1420 -1.1626
  802MPD2    N111875   0.157   2.987   0.509 -0.0138  0.0547  0.8633
  802MPD2    H711876   0.111   2.933   0.437 -0.6705  0.0244  1.3034
  803MPD2     C11877   0.998   0.067  12.621  0.5924 -0.1683 -0.0956
  803MPD2    C111878   1.095   0.145  12.581 -0.1689  0.8199  0.5359
  803MPD2    C211879   1.187   0.193  12.673  0.1470  0.5963 -0.3433
  803MPD2    C311880   1.187   0.166  12.807  0.6330  0.0988 -0.0042
  803MPD2    C411881   1.084   0.087  12.849 -0.3889 -0.1631  0.3446
  803MPD2    C511882   0.987   0.048  12.758 -1.2246 -0.5676 -0.2607
  803MPD2     H11883   1.269   0.249  12.628 -0.5578 -0.4448 -2.9178
  803MPD2    H111884   1.077   0.061  12.954  1.1132  0.2302  0.5421
  803MPD2    H211885   0.941   0.017  12.543 -0.6648 -1.2009  1.4793
  803MPD2    H311886   0.912   4.718  12.784 -1.3953  0.5420  2.3988
  803MPD2     N11887   1.276   0.210  12.902 -0.8644  0.2664 -0.2436
  803MPD2    H511888   1.262   0.171  12.995 -0.4754 -0.5302 -0.5209
  803MPD2    N111889   1.118   0.178  12.447  0.0755 -0.8855  0.2344
  803MPD2    H711890   1.200   0.231  12.418 -1.8855  0.7578 -2.2562
  804MPD2     C11891   1.041   2.173  16.958  0.3997  0.4348  0.0168
  804MPD2    C111892   0.939   2.163  17.046 -0.5271 -0.5575 -0.0997
  804MPD2    C211893   0.944   2.239  17.160  0.7787 -0.2154  0.2717
  804MPD2    C311894   1.048   2.327  17.186 -0.2614 -0.1618  0.3758
  804MPD2    C411895   1.150   2.339  17.088  0.3305  0.5490 -0.0694
  804MPD2    C511896   1.144   2.261  16.974  0.7240  0.5890  0.1966
  804MPD2     H11897   0.856   2.235  17.224 -0.3830  0.3352 -1.2803
  804MPD2    H111898   1.235   2.404  17.103  1.1677 -0.3465 -0.9342
  804MPD2    H211899   1.042   2.115  16.866 -1.8413  1.7510 -0.8537
  804MPD2    H311900   1.225   2.256  16.902  0.6466  1.2699  0.0613
  804MPD2     N11901   1.033   2.406  17.304  0.2878  0.1371  0.0038
  804MPD2    H511902   0.965   2.378  17.374 -0.2387 -1.4856 -1.1686
  804MPD2    N111903   0.827   2.080  17.033  0.1653  0.1898  0.4628
  804MPD2    H711904   0.768   2.082  17.115  0.8030 -0.4144  0.9354
  805MPD2     C11905   4.729   4.321  15.407 -0.2303  0.0145  0.6141
  805MPD2    C111906   4.638   4.427  15.416  0.5092 -0.0352  0.3696
  805MPD2    C211907   4.672   4.529  15.504 -0.1619  0.7145  0.4630
  805MPD2    C311908   0.041   4.517  15.592  1.1168 -0.5358  0.6838
  805MPD2    C411909   0.122   4.407  15.578 -0.2734 -0.2080  0.6617
  805MPD2    C511910   0.094   4.311  15.485  0.6364  0.1193 -0.1198
  805MPD2     H11911   4.597   4.605  15.521  1.3840  2.0952  1.0677
  805MPD2    H111912   0.222   4.398  15.619  0.2951 -0.8421 -0.8303
  805MPD2    H211913   4.722   4.235  15.342  0.8107 -0.5224  1.2182
  805MPD2    H311914   0.166   4.231  15.465 -0.8669 -1.3907  0.5168
  805MPD2     N11915   0.078   4.631  15.667 -0.6823  0.4811 -0.4255
  805MPD2    H511916   0.021   4.715  15.665 -1.9031 -0.3442 -0.6304
  805MPD2    N111917   4.524   4.435  15.342  0.0913  0.3170 -0.3321
  805MPD2    H711918   4.457   4.502  15.376  0.8590  1.9695 -2.0482
  806MPD2     C11919   4.217   4.528   0.216 -0.0149  0.0632  0.0455
  806MPD2    C111920   4.301   4.482   0.311  0.1776 -0.3777 -0.2541
  806MPD2    C211921   4.420   4.422   0.277  0.5598 -0.1492  0.6800
  806MPD2    C311922   4.453   4.397   0.146  0.1600 -0.4192 -0.3335
  806MPD2    C411923   4.365   4.436   0.049 -0.2745 -0.1029  0.0617
  806MPD2    C511924   4.247   4.498   0.081  0.0264  0.1438  0.1906
  806MPD2     H11925   4.491   4.389   0.352 -1.5468 -1.8755  1.9150
  806MPD2    H111926   4.388   4.436  17.715  1.2103 -1.9761  0.3673
  806MPD2    H211927   4.123   4.572   0.248 -0.0771  0.4316 -0.6468
  806MPD2    H311928   4.186   4.526  17.768 -1.7211 -0.3511  1.2895
  806MPD2     N11929   4.576   4.345   0.111  0.0064 -0.9800  0.6242
  806MPD2    H511930   4.640   4.341   0.190 -0.3593 -2.2381  0.8644
  806MPD2    N111931   4.259   4.493   0.445  0.3131 -0.0530 -0.2305
  806MPD2    H711932   4.190   4.562   0.470  0.8452 -0.2117  1.7152
  807MPD2     C11933   4.026   0.120   1.118 -0.5841 -0.3097 -0.1095
  807MPD2    C111934   4.119   0.030   1.153  0.6190  0.2848 -0.9095
  807MPD2    C211935   4.139   0.006   1.286 -0.2642 -0.7451  0.1650
  807MPD2    C311936   4.067   0.061   1.390  0.0765 -0.2687  1.3910
  807MPD2    C411937   3.970   0.150   1.348 -0.3208  0.2996  0.0604
  807MPD2    C511938   3.942   0.173   1.215 -0.0754  0.5852  0.1890
  807MPD2     H11939   4.227   4.690   1.308  0.1370 -1.1180 -2.4235
  807MPD2    H111940   3.922   0.198   1.432 -2.0237 -3.2287  1.1392
  807MPD2    H211941   3.995   0.138   1.016  4.1721 -0.8916 -1.6812
  807MPD2    H311942   3.850   0.220   1.184 -0.6731  0.2892  1.5164
  807MPD2     N11943   4.111   0.023   1.521  0.2329  0.1263  0.4606
  807MPD2    H511944   4.178   4.692   1.536  0.8078  0.7396  0.9692
  807MPD2    N111945   4.199   4.707   1.062  0.0927 -0.5131 -0.7399
  807MPD2    H711946   4.255   4.630   1.097 -0.8146 -1.4261 -1.3320
  808MPD2     C11947   0.484   1.284   9.950 -0.5672 -0.0710 -0.0238
  808MPD2    C111948   0.609   1.240   9.920  0.1484 -0.3232  0.1692
  808MPD2    C211949   0.708   1.333   9.896  0.4071 -0.2735 -0.1201
  808MPD2    C311950   0.676   1.468   9.914  0.0435 -0.0505 -0.2790
  808MPD2    C411951   0.557   1.513   9.968 -0.1093  0.3866 -0.0008
  808MPD2    C511952   0.462   1.420   9.974  0.3688  0.2374  0.2278
  808MPD2     H11953   0.805   1.301   9.859  1.0703  0.4402  0.9816
  808MPD2    H111954   0.536   1.617   9.990 -0.9463  0.0911  0.5855
  808MPD2    H211955   0.394   1.223   9.959  0.5695 -1.7937 -0.2377
  808MPD2    H311956   0.361   1.450   9.996  0.7879  2.5034 -1.0104
  808MPD2     N11957   0.767   1.569   9.871  0.2300 -0.1982  0.4331
  808MPD2    H511958   0.735   1.665   9.875  1.9475  0.4725 -2.0051
  808MPD2    N111959   0.642   1.100   9.891  0.1812 -0.6841 -0.2185
  808MPD2    H711960   0.739   1.080   9.869  0.1772 -1.0623  0.1011
  809MPD2     C11961   1.081   1.731   9.003 -0.0354  0.1474 -0.3741
  809MPD2    C111962   1.187   1.778   9.082  0.1902  0.9208 -0.6341
  809MPD2    C211963   1.163   1.800   9.215 -0.1205  0.0326  0.1019
  809MPD2    C311964   1.039   1.780   9.272  0.1368 -0.4621 -0.2645
  809MPD2    C411965   0.936   1.736   9.188 -0.2456  0.0474 -0.2797
  809MPD2    C511966   0.956   1.713   9.059  0.1480  0.0091 -0.8101
  809MPD2     H11967   1.250   1.807   9.280 -1.3146 -0.4867  1.7680
  809MPD2    H111968   0.837   1.712   9.224 -0.5104 -0.8358 -1.5747
  809MPD2    H211969   1.090   1.717   8.896 -1.2705  0.1660 -0.4708
  809MPD2    H311970   0.867   1.678   9.009 -0.5835 -0.0505  0.5506
  809MPD2     N11971   1.014   1.799   9.412 -0.3846 -0.4607  1.4513
  809MPD2    H511972   0.919   1.802   9.448 -0.5104 -1.7970  1.2144
  809MPD2    N111973   1.319   1.784   9.040  0.1207  0.3714  0.2451
  809MPD2    H711974   1.387   1.815   9.109  0.5494 -0.7933  0.3447
  810MPD2     C11975   0.658   0.814  10.254 -0.3853  0.5828 -0.5077
  810MPD2    C111976   0.525   0.829  10.269 -0.1223 -0.1040  0.0218
  810MPD2    C211977   0.474   0.956  10.299 -0.7662  0.2948 -1.1870
  810MPD2    C311978   0.565   1.064  10.317  0.5233  0.5134  0.7268
  810MPD2    C411979   0.694   1.045  10.301  0.7385 -0.7699  0.0441
  810MPD2    C511980   0.744   0.920  10.276  0.1567  0.6283 -0.0439
  810MPD2     H11981   0.367   0.972  10.313 -0.7142 -1.5880  1.3760
  810MPD2    H111982   0.768   1.122  10.318  0.3909  0.2890 -3.3036
  810MPD2    H211983   0.702   0.717  10.230 -0.3040 -0.0754  2.3070
  810MPD2    H311984   0.852   0.911  10.272 -0.1318 -1.6717 -2.1953
  810MPD2     N11985   0.518   1.200  10.344 -0.3258 -0.6374  0.3261
  810MPD2    H511986   0.581   1.280  10.337 -0.7173 -0.3951 -0.4462
  810MPD2    N111987   0.433   0.733  10.232 -0.7322  0.1269 -1.1605
  810MPD2    H711988   0.335   0.756  10.248 -0.0938 -0.5641  3.6866
  811MPD2     C11989   4.448   0.750   9.901 -0.1313  0.0596 -0.8023
  811MPD2    C111990   4.568   0.797   9.948 -0.5252 -0.4800 -0.4866
  811MPD2    C211991   4.588   0.931   9.969  0.5465  0.7781 -0.3834
  811MPD2    C311992   4.484   1.021   9.949 -0.2750 -0.2933 -0.1124
  811MPD2    C411993   4.363   0.966   9.906 -0.0231  0.2084  0.5182
  811MPD2    C511994   4.345   0.833   9.881 -0.4363 -0.2695 -0.7878
  811MPD2     H11995   4.682   0.962  10.015 -0.5089  1.0181  1.6105
  811MPD2    H111996   4.280   1.024   9.868 -0.3268 -0.9462 -0.5409
  811MPD2    H211997   4.443   0.643   9.887 -1.7223  0.1283 -0.6815
  811MPD2    H311998   4.262   0.789   9.828 -0.4343 -0.4737 -0.6201
  811MPD2     N11999   4.505   1.155   9.979 -0.0162 -0.2858  0.0057
  811MPD2    H512000   4.597   1.176  10.017  0.4366  1.2407 -1.9634
  811MPD2    N112001   4.660   0.699   9.982  0.8030 -0.5606 -0.2934
  811MPD2    H712002   4.624   0.605   9.968  1.3466 -1.1807  2.4303
  812MPD2     C12003   3.322   0.809  12.293 -0.4367 -0.8234 -0.4934
  812MPD2    C112004   3.446   0.870  12.275 -0.3073  0.7420 -0.7668
  812MPD2    C212005   3.558   0.798  12.323  0.3294  0.2289  0.1831
  812MPD2    C312006   3.545   0.684  12.391 -0.1110 -0.0210 -0.2315
  812MPD2    C412007   3.417   0.639  12.421 -0.1455 -0.6941 -0.4218
  812MPD2    C512008   3.312   0.699  12.367 -0.3196 -0.0881  0.2346
  812MPD2     H12009   3.660   0.826  12.300 -0.9747  2.8445 -2.4501
  812MPD2    H112010   3.396   0.545  12.472  0.0597  0.5719  1.9743
  812MPD2    H212011   3.235   0.852  12.245 -1.1597 -1.5729  0.1630
  812MPD2    H312012   3.211   0.665  12.387  0.4142 -1.5340  1.4207
  812MPD2     N12013   3.662   0.628  12.441  0.1184  0.0558 -0.0958
  812MPD2    H512014   3.746   0.684  12.429 -0.7089  1.3161  0.0216
  812MPD2    N112015   3.453   0.976  12.183 -0.2915  0.4715 -0.2908
  812MPD2    H712016   3.362   1.003  12.146  0.6091  2.3742 -1.0793
  813MPD2     C12017   2.729   2.196  13.129  0.2184 -0.6513  0.3703
  813MPD2    C112018   2.762   2.319  13.180 -0.5899 -0.3783 -0.5720
  813MPD2    C212019   2.714   2.357  13.298  0.8108 -0.5951 -1.0904
  813MPD2    C312020   2.632   2.267  13.376 -0.1556  0.2666  0.0426
  813MPD2    C412021   2.593   2.147  13.327 -0.3886 -0.7166 -1.0937
  813MPD2    C512022   2.652   2.109  13.205  0.0960 -0.3528  0.3136
  813MPD2     H12023   2.740   2.456  13.333  2.9066 -1.0243 -1.4208
  813MPD2    H112024   2.542   2.075  13.389 -1.8772  1.0071 -0.3225
  813MPD2    H212025   2.766   2.161  13.033 -1.0522  1.1929 -0.7973
  813MPD2    H312026   2.633   2.011  13.161 -0.7759 -1.1167  2.4122
  813MPD2     N12027   2.608   2.312  13.511 -0.1342  0.1148  0.2201
  813MPD2    H512028   2.649   2.402  13.536 -0.5584  0.5162 -0.5368
  813MPD2    N112029   2.846   2.413  13.115 -0.0561 -0.2518 -0.0027
  813MPD2    H712030   2.868   2.500  13.163  1.8840 -0.4209 -0.5743
  814MPD2     C12031   3.373   3.852  12.312  0.4904  0.2908 -0.3551
  814MPD2    C112032   3.413   3.941  12.211 -0.0525  0.6716 -0.3591
  814MPD2    C212033   3.471   4.056  12.258  0.3768  1.3112 -0.4611
  814MPD2    C312034   3.475   4.092  12.395  0.1355 -0.5434 -0.4292
  814MPD2    C412035   3.413   4.012  12.483  0.4068  0.3539  0.0760
  814MPD2    C512036   3.375   3.890  12.444 -0.8015 -0.0550  0.6702
  814MPD2     H12037   3.532   4.108  12.184  2.3562 -2.6882 -1.6128
  814MPD2    H112038   3.410   4.039  12.588 -0.0437 -2.4438  0.7855
  814MPD2    H212039   3.332   3.756  12.281 -0.8710  0.2248  1.6788
  814MPD2    H312040   3.332   3.822  12.516 -1.7453  2.5887  2.6195
  814MPD2     N12041   3.535   4.202  12.446 -0.9394  0.2837 -0.5001
  814MPD2    H512042   3.550   4.212  12.546  1.9451 -1.2955 -0.7889
  814MPD2    N112043   3.423   3.905  12.072  0.1808  0.4500 -0.0709
  814MPD2    H712044   3.473   3.973  12.016  2.9077  0.0028  1.8483
  815MPD2     C12045   3.813   2.593  11.699  0.5577 -0.4999  0.0168
  815MPD2    C112046   3.893   2.490  11.754  0.6575 -0.6343  0.4104
  815MPD2    C212047   3.918   2.508  11.890 -0.6415  0.4682  0.0674
  815MPD2    C312048   3.857   2.596  11.975 -0.0750 -0.1635  0.1547
  815MPD2    C412049   3.763   2.682  11.915 -0.4573 -0.3869 -0.2350
  815MPD2    C512050   3.757   2.689  11.779  0.0783 -0.2267 -1.1022
  815MPD2     H12051   3.987   2.440  11.937 -0.4745  1.1827  0.8624
  815MPD2    H112052   3.696   2.746  11.972  0.0742  1.3233 -1.5206
  815MPD2    H212053   3.793   2.585  11.592 -1.5312 -0.3318  0.4101
  815MPD2    H312054   3.696   2.764  11.730  2.4766  2.0784 -0.5320
  815MPD2     N12055   3.890   2.593  12.111  0.1516  0.2710  0.4797
  815MPD2    H512056   3.952   2.516  12.134 -1.6902 -1.0827  0.9542
  815MPD2    N112057   3.963   2.397  11.671 -0.4013 -0.1970  0.8174
  815MPD2    H712058   3.970   2.427  11.574 -0.3062  0.5752  1.0634
  816MPD2     C12059   3.755   1.603  17.127  0.4981  0.0715  1.1527
  816MPD2    C112060   3.869   1.683  17.146  0.4599 -0.1396  0.9243
  816MPD2    C212061   3.995   1.619  17.160  1.0553  0.0541 -0.9691
  816MPD2    C312062   4.001   1.484  17.154 -0.4606 -0.2132 -0.8072
  816MPD2    C412063   3.878   1.404  17.132 -0.3049  1.0614 -0.1642
  816MPD2    C512064   3.762   1.469  17.124  0.1554  0.2302  0.1046
  816MPD2     H12065   4.088   1.674  17.160 -0.0223  1.8816  0.4910
  816MPD2    H112066   3.874   1.296  17.137 -1.1026  1.0501 -1.0122
  816MPD2    H212067   3.657   1.649  17.121  1.1957  1.5486  0.9492
  816MPD2    H312068   3.669   1.416  17.107 -0.4457  1.6345 -0.9688
  816MPD2     N12069   4.132   1.423  17.140  0.8205 -0.2110  0.1977
  816MPD2    H512070   4.215   1.474  17.168  1.3168 -0.0710 -1.5118
  816MPD2    N112071   3.847   1.822  17.154  0.3441  0.3942  0.5997
  816MPD2    H712072   3.748   1.842  17.152  0.4253  0.6156 -1.0935
  817MPD2     C12073   3.577   3.507   9.917 -0.5003  0.3503 -0.0331
  817MPD2    C112074   3.548   3.437   9.802  0.1359  0.8424 -0.4839
  817MPD2    C212075   3.466   3.500   9.711 -0.8227 -0.5173  0.0787
  817MPD2    C312076   3.397   3.614   9.737 -0.5261  0.0301 -0.1868
  817MPD2    C412077   3.425   3.677   9.859 -0.4655  0.5198  0.3558
  817MPD2    C512078   3.510   3.625   9.946 -0.3459 -0.1688 -0.4191
  817MPD2     H12079   3.463   3.452   9.614  0.1286 -1.4460  0.5072
  817MPD2    H112080   3.380   3.769   9.892  2.4314  1.2628  2.1853
  817MPD2    H212081   3.640   3.469   9.997  0.2450 -0.6083 -1.0729
  817MPD2    H312082   3.528   3.676  10.040  1.5986  1.4419 -1.6673
  817MPD2     N12083   3.301   3.670   9.650 -0.0803 -0.0947  0.2502
  817MPD2    H512084   3.281   3.610   9.570 -0.4100  1.0153 -0.5052
  817MPD2    N112085   3.610   3.316   9.768 -0.4691 -0.9270 -0.5468
  817MPD2    H712086   3.583   3.282   9.676 -2.9270 -1.1247  0.2423
  818MPD2     C12087   2.651   3.319  10.055  0.2500 -0.2500 -0.4624
  818MPD2    C112088   2.701   3.230  10.152 -0.0418 -1.2072 -0.2261
  818MPD2    C212089   2.791   3.141  10.111 -0.3902 -0.0571 -0.1955
  818MPD2    C312090   2.839   3.140   9.981 -0.2653 -0.0856  1.0699
  818MPD2    C412091   2.788   3.228   9.889 -0.1204 -0.5182 -0.4772
  818MPD2    C512092   2.702   3.321   9.928 -0.1629 -0.3169  0.1117
  818MPD2     H12093   2.822   3.063  10.180  0.7352  0.4343 -0.1391
  818MPD2    H112094   2.838   3.231   9.792 -0.5945  1.1033 -0.6587
  818MPD2    H212095   2.572   3.390  10.079  0.0977 -0.3195 -0.7592
  818MPD2    H312096   2.663   3.391   9.854  0.9950  0.7599  0.5142
  818MPD2     N12097   2.924   3.037   9.931 -0.0793 -0.3664 -0.5139
  818MPD2    H512098   2.934   3.036   9.830 -0.9304  2.1391 -0.6235
  818MPD2    N112099   2.647   3.223  10.280 -0.3031 -0.5364 -0.2347
  818MPD2    H712100   2.693   3.172  10.355 -0.8980  0.2750  0.6879
  819MPD2     C12101   0.417   0.093  15.518 -0.0747  0.4696 -0.6259
  819MPD2    C112102   0.429   4.702  15.491  0.2207 -0.3069 -0.0597
  819MPD2    C212103   0.490   4.631  15.594  0.2703 -0.0126 -0.4153
  819MPD2    C312104   0.539   4.685  15.709  0.2795 -0.3820 -0.6518
  819MPD2    C412105   0.551   0.076  15.721  0.0422  0.1103 -0.1520
  819MPD2    C512106   0.485   0.150  15.628 -0.1686  0.7185 -0.7407
  819MPD2     H12107   0.506   4.524  15.589  0.8313  0.0227  0.5003
  819MPD2    H112108   0.603   0.123  15.804 -0.6669  0.9540 -0.1898
  819MPD2    H212109   0.365   0.156  15.447  1.2275  0.7705 -1.3143
  819MPD2    H312110   0.485   0.258  15.642  1.0247  0.6818 -0.4917
  819MPD2     N12111   0.607   4.598  15.802  0.5510 -0.1483 -0.3720
  819MPD2    H512112   0.588   4.502  15.775 -1.8999  0.5726 -1.1715
  819MPD2    N112113   0.373   4.642  15.376 -0.0413  0.1413  0.1899
  819MPD2    H712114   0.317   4.698  15.313 -0.0220  0.2328  0.2552
  820MPD2     C12115   4.438   4.579  14.641 -0.7155 -0.0621 -0.3734
  820MPD2    C112116   4.419   4.597  14.779 -0.3136 -0.5751 -0.4885
  820MPD2    C212117   4.517   4.555  14.871  0.1855 -0.2928 -0.4645
  820MPD2    C312118   4.629   4.486  14.832  0.3654 -0.3378  0.7502
  820MPD2    C412119   4.640   4.469  14.695 -0.0921  0.8156 -0.0654
  820MPD2    C512120   4.551   4.513  14.601  0.3650  1.0584  0.0645
  820MPD2     H12121   4.513   4.586  14.975 -0.7311 -0.6227 -0.4012
  820MPD2    H112122   4.728   4.417  14.658  0.1591 -0.5470  2.3893
  820MPD2    H212123   4.364   4.606  14.567 -1.7448  0.2382  0.7633
  820MPD2    H312124   4.559   4.482  14.497 -0.4217 -0.8876  0.5733
  820MPD2     N12125   4.731   4.453  14.921 -0.1978  0.0392  0.2960
  820MPD2    H512126   0.055   4.389  14.882  0.2218  1.9487 -2.0542
  820MPD2    N112127   4.301   4.664  14.820 -0.3806 -0.2381  0.0869
  820MPD2    H712128   4.251   4.693  14.736  0.5108  0.5989 -0.1551
  821MPD2     C12129   0.926   0.761  12.918 -0.1099  0.3066  0.4487
  821MPD2    C112130   0.966   0.813  13.046  0.3425  0.2360 -0.6669
  821MPD2    C212131   1.064   0.907  13.059 -0.0175 -0.2424 -0.5839
  821MPD2    C312132   1.133   0.941  12.943  0.4613 -0.7045  0.6784
  821MPD2    C412133   1.092   0.896  12.817 -0.5029 -0.2866  0.3827
  821MPD2    C512134   0.994   0.801  12.807  0.5594  0.1505  0.1536
  821MPD2     H12135   1.089   0.949  13.156  1.8175 -0.3049 -1.0506
  821MPD2    H112136   1.150   0.915  12.728 -1.2876  1.6216  0.2598
  821MPD2    H212137   0.852   0.683  12.906 -0.8929  1.0125  0.6862
  821MPD2    H312138   0.971   0.749  12.715  2.0555 -1.9755  0.9995
  821MPD2     N12139   1.240   1.031  12.946  0.2159  0.0864 -0.0029
  821MPD2    H512140   1.278   1.060  12.857  0.9990  0.7304  0.5469
  821MPD2    N112141   0.923   0.762  13.172  0.0896 -0.0593 -0.4639
  821MPD2    H712142   0.971   0.780  13.260  0.1831  0.0783 -0.5434
  822MPD2     C12143   1.467   1.352  15.707  0.0028 -0.7304  0.1944
  822MPD2    C112144   1.402   1.306  15.812 -0.2946 -0.6754 -0.0610
  822MPD2    C212145   1.335   1.401  15.894 -0.0668 -0.8723  0.5677
  822MPD2    C312146   1.337   1.540  15.868  0.1110  0.1134  0.2125
  822MPD2    C412147   1.403   1.584  15.754 -0.2076 -0.3921 -0.1877
  822MPD2    C512148   1.463   1.489  15.683  0.2902  0.9760  0.1275
  822MPD2     H12149   1.277   1.364  15.978  1.2400 -1.7372  1.0848
  822MPD2    H112150   1.397   1.689  15.727  2.6055 -0.0070  0.6908
  822MPD2    H212151   1.514   1.285  15.636 -0.8374 -0.2640 -0.7806
  822MPD2    H312152   1.505   1.525  15.591  0.0328 -1.2349 -0.8701
  822MPD2     N12153   1.280   1.630  15.962  0.3969 -0.3134  0.4550
  822MPD2    H512154   1.233   1.580  16.036  0.5288 -2.2924 -0.8108
  822MPD2    N112155   1.381   1.170  15.849 -0.4055 -0.2124  0.3309
  822MPD2    H712156   1.340   1.147  15.939 -0.0140  2.0635  1.0893
  823MPD2     C12157   1.064   1.740  16.778 -0.0025  0.3031  0.4182
  823MPD2    C112158   1.049   1.677  16.657  0.4130  0.2956 -0.2582
  823MPD2    C212159   1.024   1.541  16.653 -0.0978 -0.6457 -0.2287
  823MPD2    C312160   0.995   1.472  16.772 -0.2311  0.4452 -0.3690
  823MPD2    C412161   0.972   1.545  16.884 -0.2200  0.3175  0.2937
  823MPD2    C512162   1.014   1.677  16.889  1.2041  0.4183  0.2762
  823MPD2     H12163   1.040   1.490  16.559  0.9884  2.0347 -1.5098
  823MPD2    H112164   0.928   1.487  16.965  0.7957 -0.4313  0.3082
  823MPD2    H212165   1.098   1.843  16.783 -0.7771  0.6296 -1.1444
  823MPD2    H312166   1.012   1.725  16.986  2.0943  2.1780 -0.5600
  823MPD2     N12167   0.977   1.332  16.783 -0.8987  0.3967 -0.9221
  823MPD2    H512168   0.928   1.302  16.867  0.4614  1.0302  0.0879
  823MPD2    N112169   1.098   1.752  16.545 -0.1776  1.0273 -0.0946
  823MPD2    H712170   1.138   1.844  16.558 -0.3013  0.8485  1.5908
  824MPD2     C12171   1.420   0.380  15.563  0.4814 -0.2582  0.3427
  824MPD2    C112172   1.517   0.473  15.596 -0.4355  0.6705  0.2493
  824MPD2    C212173   1.647   0.453  15.550 -1.1313  0.1418 -0.4084
  824MPD2    C312174   1.685   0.341  15.480 -0.7018  0.0361 -0.4634
  824MPD2    C412175   1.581   0.247  15.456 -0.0927  0.1585 -0.0931
  824MPD2    C512176   1.456   0.275  15.488 -0.0837 -0.8035 -0.9106
  824MPD2     H12177   1.729   0.511  15.590 -0.3291 -1.2861  0.0013
  824MPD2    H112178   1.602   0.153  15.405 -0.0050  1.3740 -2.2768
  824MPD2    H212179   1.315   0.384  15.589  1.0255  3.4093  2.0879
  824MPD2    H312180   1.379   0.203  15.464 -0.5159 -0.8695  0.6506
  824MPD2     N12181   1.820   0.330  15.433 -0.3443  0.3850  0.2999
  824MPD2    H512182   1.885   0.408  15.433 -2.2848  2.0150 -0.7057
  824MPD2    N112183   1.487   0.572  15.688  0.4439 -0.0824  0.4087
  824MPD2    H712184   1.553   0.643  15.719  0.6870 -0.5322  0.9042
  825MPD2     C12185   2.448   0.595  14.976 -0.2441 -0.5044 -0.2711
  825MPD2    C112186   2.401   0.613  15.100 -0.3157  0.0590 -0.1903
  825MPD2    C212187   2.409   0.738  15.169 -0.5210 -0.4070  0.4319
  825MPD2    C312188   2.472   0.847  15.101  0.4801  0.2111 -0.0973
  825MPD2    C412189   2.512   0.832  14.971 -0.2335  1.1034 -0.1025
  825MPD2    C512190   2.505   0.701  14.917  0.1028  0.5686  0.2459
  825MPD2     H12191   2.388   0.745  15.275  1.7106  0.5532  0.8115
  825MPD2    H112192   2.555   0.913  14.914 -0.7881  2.3815  1.3073
  825MPD2    H212193   2.446   0.494  14.937 -0.5763 -0.8661  0.6928
  825MPD2    H312194   2.551   0.676  14.822  2.5705  2.9352  0.8159
  825MPD2     N12195   2.464   0.980  15.157  0.0445  0.7374 -0.4800
  825MPD2    H512196   2.472   1.059  15.094  2.3065  1.7225  1.0505
  825MPD2    N112197   2.332   0.501  15.153 -0.2129  0.2503  0.9087
  825MPD2    H712198   2.334   0.411  15.106 -0.3240  0.5129  0.4053
  826MPD2     C12199   3.028   0.742  13.943 -0.1389 -0.3839  1.0241
  826MPD2    C112200   2.946   0.645  13.890 -0.2325  0.0758 -0.1332
  826MPD2    C212201   2.840   0.671  13.799  0.0534 -0.7009 -0.3723
  826MPD2    C312202   2.809   0.806  13.771 -0.0868 -0.1729  0.5595
  826MPD2    C412203   2.899   0.901  13.812  0.0697  0.8292 -0.0127
  826MPD2    C512204   3.008   0.870  13.889 -0.2063  0.5067 -0.4244
  826MPD2     H12205   2.782   0.588  13.761  1.1442 -1.1545 -1.0376
  826MPD2    H112206   2.889   1.006  13.790 -2.2196  0.1752 -2.0665
  826MPD2    H212207   3.114   0.732  14.009  1.5246 -0.9864 -1.2368
  826MPD2    H312208   3.074   0.948  13.924 -0.1526 -0.0459  0.7165
  826MPD2     N12209   2.705   0.856  13.693 -0.2850  0.7197 -0.6111
  826MPD2    H512210   2.699   0.957  13.681 -0.9014  0.6789 -0.6800
  826MPD2    N112211   2.967   0.518  13.944 -0.1605 -0.6566 -0.1001
  826MPD2    H712212   3.038   0.516  14.016  1.1157 -0.9376 -1.3693
  827MPD2     C12213   3.147   2.114   9.863  0.2377  0.2201  0.4935
  827MPD2    C112214   3.167   2.009   9.950 -0.0016 -0.2227  0.2333
  827MPD2    C212215   3.086   1.899   9.945  0.0886  0.1532  0.0892
  827MPD2    C312216   2.993   1.884   9.843  0.1652 -0.2329  0.0078
  827MPD2    C412217   2.967   1.997   9.772 -0.1406  0.5041  0.7460
  827MPD2    C512218   3.043   2.106   9.773  0.1537  0.0917 -0.2690
  827MPD2     H12219   3.103   1.816  10.013 -0.2525 -0.5277 -0.6641
  827MPD2    H112220   2.888   2.011   9.699  0.9837 -2.4008 -1.0674
  827MPD2    H212221   3.207   2.204   9.851  0.3272  0.0571 -0.3153
  827MPD2    H312222   3.023   2.191   9.708  2.8231  0.0172 -1.2078
  827MPD2     N12223   2.916   1.765   9.840  0.2035 -0.2184 -0.2201
  827MPD2    H512224   2.925   1.705   9.922  0.5036 -1.6324 -1.2942
  827MPD2    N112225   3.271   2.020  10.043  0.5416 -0.2728 -0.7400
  827MPD2    H712226   3.328   2.104  10.048 -0.4786  0.3835  0.0705
  828MPD2     C12227   1.614   1.645  12.383  0.7667 -0.3807 -0.0988
  828MPD2    C112228   1.508   1.687  12.303 -0.6481  0.0093 -0.2582
  828MPD2    C212229   1.537   1.741  12.181 -0.3265  0.2182 -0.2322
  828MPD2    C312230   1.672   1.754  12.141  0.1883 -0.3387  0.2872
  828MPD2    C412231   1.775   1.714  12.223  0.5204 -0.2433 -0.1712
  828MPD2    C512232   1.746   1.644  12.336 -0.3388  0.3680  0.1924
  828MPD2     H12233   1.453   1.756  12.113 -0.1851 -0.2555 -0.5100
  828MPD2    H112234   1.881   1.716  12.201  0.7836 -2.6931  0.8127
  828MPD2    H212235   1.590   1.611  12.483  1.6557  1.3437  0.6988
  828MPD2    H312236   1.829   1.597  12.388  0.5666  1.3847 -0.3118
  828MPD2     N12237   1.708   1.786  12.007 -0.1862  0.9004 -0.2300
  828MPD2    H512238   1.807   1.778  11.984  0.1655  3.5541  0.4078
  828MPD2    N112239   1.374   1.684  12.347 -0.0374 -0.7910 -0.2134
  828MPD2    H712240   1.306   1.729  12.287 -0.6141  0.1399  1.1241
  829MPD2     C12241   0.680   1.930  11.950  0.0158  0.2219 -0.5466
  829MPD2    C112242   0.639   1.962  12.080 -0.7572 -0.2297  0.2200
  829MPD2    C212243   0.728   1.942  12.186 -0.2299  0.2862  0.2196
  829MPD2    C312244   0.851   1.881  12.165 -0.0928  0.4659  0.4210
  829MPD2    C412245   0.892   1.861  12.034  0.5675 -0.5667  0.1237
  829MPD2    C512246   0.809   1.882  11.930 -0.0870 -0.0244 -0.0669
  829MPD2     H12247   0.700   1.981  12.283  2.1845 -0.8992  1.3881
  829MPD2    H112248   0.981   1.806  12.008  0.9177  0.1837 -0.2514
  829MPD2    H212249   0.617   1.950  11.865  0.4021 -1.5773 -1.2575
  829MPD2    H312250   0.849   1.848  11.835  0.7734 -1.2630  0.7421
  829MPD2     N12251   0.932   1.844  12.271 -0.9396  0.9134 -0.7297
  829MPD2    H512252   1.007   1.782  12.244 -0.2329  1.8246 -0.8672
  829MPD2    N112253   0.503   2.002  12.102  0.1265  0.1259 -0.2940
  829MPD2    H712254   0.439   1.990  12.023  1.2479  0.5404 -1.2693
  830MPD2     C12255   1.201   4.017  15.939 -1.4577  0.1580  0.6095
  830MPD2    C112256   1.108   4.084  15.866  0.1288 -0.6869  0.0344
  830MPD2    C212257   1.126   4.087  15.729  0.3184 -0.4997 -0.3976
  830MPD2    C312258   1.232   4.013  15.672 -0.2615  0.1822  0.3832
  830MPD2    C412259   1.328   3.952  15.745  0.0722  1.3384  0.6593
  830MPD2    C512260   1.312   3.952  15.880 -0.0678 -0.8738  0.6378
  830MPD2     H12261   1.058   4.141  15.663 -0.2044 -0.2977  0.3134
  830MPD2    H112262   1.413   3.905  15.696 -1.1129 -1.2126  1.1038
  830MPD2    H212263   1.194   4.008  16.047  0.3613  0.1604  0.7251
  830MPD2    H312264   1.379   3.893  15.941  0.5531 -0.6958  0.1218
  830MPD2     N12265   1.254   4.023  15.532  0.7609 -0.1990 -0.1826
  830MPD2    H512266   1.340   3.975  15.506 -0.0260 -2.4258  1.2451
  830MPD2    N112267   1.003   4.142  15.934 -0.0234  0.1485  0.5422
  830MPD2    H712268   1.002   4.133  16.035  0.0655  2.3912  0.7321
  831MPD2     C12269   1.486   1.520  16.288  0.3569 -0.2474 -0.4527
  831MPD2    C112270   1.508   1.411  16.209 -0.1669 -0.1428  0.2224
  831MPD2    C212271   1.411   1.314  16.218 -0.3478 -0.4397 -0.0294
  831MPD2    C312272   1.309   1.317  16.319  0.6243  0.5725  0.0998
  831MPD2    C412273   1.313   1.416  16.413 -0.8319 -0.3230 -0.3968
  831MPD2    C512274   1.396   1.519  16.392  0.0146  0.1198  0.0234
  831MPD2     H12275   1.421   1.235  16.144 -1.4248 -0.5224 -0.0912
  831MPD2    H112276   1.247   1.411  16.499  0.0616 -1.0249  0.2549
  831MPD2    H212277   1.542   1.613  16.284  0.0818 -0.0271  0.6192
  831MPD2    H312278   1.385   1.607  16.455 -1.9277 -1.9523  2.5587
  831MPD2     N12279   1.202   1.215  16.326  0.1061  0.5287 -0.3088
  831MPD2    H512280   1.133   1.221  16.400  0.0260  2.3547 -0.5216
  831MPD2    N112281   1.611   1.407  16.115 -0.0611 -0.5156  0.2124
  831MPD2    H712282   1.657   1.495  16.094  0.4299 -0.6144  0.8522
  832MPD2     C12283   4.723   2.765  17.085  0.2125  0.6029  0.1163
  832MPD2    C112284   0.003   2.890  17.031 -0.2374  1.1064 -1.0121
  832MPD2    C212285   4.658   2.925  16.928 -0.2335  0.5905  1.0009
  832MPD2    C312286   4.571   2.827  16.881  0.5044  0.2711 -0.2910
  832MPD2    C412287   4.555   2.709  16.944  0.2047 -0.6304 -0.1188
  832MPD2    C512288   4.637   2.675  17.046  0.0290  0.3387 -0.8347
  832MPD2     H12289   4.669   3.024  16.884  1.7446  0.3032  0.8505
  832MPD2    H112290   4.486   2.629  16.920 -2.1332  1.7317 -1.2410
  832MPD2    H212291   0.045   2.731  17.164 -1.4901  2.3028  2.2598
  832MPD2    H312292   4.638   2.581  17.100 -1.9052  0.3363 -0.8163
  832MPD2     N12293   4.475   2.854  16.781  0.1628 -0.0206 -0.5675
  832MPD2    H512294   4.422   2.771  16.756 -0.0244 -0.5405  1.5198
  832MPD2    N112295   0.106   2.971  17.084  0.3944 -0.1378 -0.2942
  832MPD2    H712296   0.158   2.927  17.159  0.8132  2.8596  1.1719
  833MPD2     C12297   2.313   4.349  12.922  0.2114  0.0264  0.2001
  833MPD2    C112298   2.264   4.398  12.805 -0.1891  0.1498  0.2182
  833MPD2    C212299   2.318   4.352  12.687 -0.5688 -0.1413 -0.3227
  833MPD2    C312300   2.424   4.263  12.689 -0.2631  0.9756 -0.1956
  833MPD2    C412301   2.478   4.214  12.807  0.3059  0.1170  0.2393
  833MPD2    C512302   2.421   4.260  12.928 -0.2369 -0.0805  0.7462
  833MPD2     H12303   2.272   4.374  12.591  0.9692  1.8311 -0.5995
  833MPD2    H112304   2.561   4.144  12.811  0.5737  0.4343  0.2681
  833MPD2    H212305   2.248   4.359  13.008  0.6065 -0.3554  0.5469
  833MPD2    H312306   2.460   4.217  13.019 -2.1338 -1.6994  0.7886
  833MPD2     N12307   2.486   4.242  12.567 -0.2791 -0.2531 -0.3892
  833MPD2    H512308   2.443   4.292  12.490  0.0298  0.5212 -0.0601
  833MPD2    N112309   2.143   4.471  12.814  0.6512 -0.3063 -0.5340
  833MPD2    H712310   2.102   4.484  12.906  1.4395  1.3748 -0.4213
  834MPD2     C12311   2.239   3.454  11.974  0.0668  0.7848  0.7684
  834MPD2    C112312   2.201   3.573  11.912 -0.5887 -0.6561  0.3200
  834MPD2    C212313   2.265   3.689  11.955 -0.8302 -0.9996  0.2370
  834MPD2    C312314   2.352   3.693  12.061 -0.0281  0.3919  0.2448
  834MPD2    C412315   2.380   3.571  12.128 -0.1893 -0.6429  0.2589
  834MPD2    C512316   2.338   3.454  12.072  0.6850 -0.2716  0.1882
  834MPD2     H12317   2.244   3.784  11.907  0.4709  0.6963  3.0065
  834MPD2    H112318   2.439   3.556  12.218 -1.5964  0.3830  1.3473
  834MPD2    H212319   2.201   3.357  11.943  1.1122  0.8680 -0.7860
  834MPD2    H312320   2.360   3.366  12.131 -1.7434 -0.0588  1.3976
  834MPD2     N12321   2.401   3.824  12.100 -1.1640 -0.0319  0.2737
  834MPD2    H512322   2.374   3.901  12.040  0.7720  1.5153  1.3881
  834MPD2    N112323   2.114   3.562  11.795 -0.3082 -0.3862  0.4896
  834MPD2    H712324   2.094   3.465  11.774  1.5440 -0.6987  0.1789
  835MPD2     C12325   2.221   2.032  10.883  0.1268 -0.3988 -0.3202
  835MPD2    C112326   2.127   2.086  10.960 -0.2827 -0.0533  0.0017
  835MPD2    C212327   2.160   2.115  11.089  0.3891  0.7440 -0.0525
  835MPD2    C312328   2.278   2.076  11.147 -0.6853  0.3560  0.0306
  835MPD2    C412329   2.366   2.013  11.066 -0.1266 -0.4694 -0.6623
  835MPD2    C512330   2.344   1.994  10.932  0.2393 -0.0699 -0.5248
  835MPD2     H12331   2.083   2.158  11.150  1.4145  1.6259  0.6236
  835MPD2    H112332   2.462   1.975  11.098 -0.1541 -0.5069 -0.6251
  835MPD2    H212333   2.205   2.020  10.776 -1.0527 -0.4485 -0.1375
  835MPD2    H312334   2.424   1.949  10.874  0.8917  0.3995  0.0071
  835MPD2     N12335   2.313   2.104  11.281  0.4912 -0.3816 -0.6889
  835MPD2    H512336   2.395   2.058  11.318 -0.7595 -0.1520  2.3721
  835MPD2    N112337   1.995   2.103  10.917  0.5353  0.1240 -0.0828
  835MPD2    H712338   1.931   2.138  10.988 -0.8110 -1.6686 -0.3954
  836MPD2     C12339   1.688   2.162  11.641 -0.4622 -0.0596  0.6223
  836MPD2    C112340   1.780   2.176  11.746 -0.7326  0.5029 -0.6988
  836MPD2    C212341   1.743   2.178  11.877  0.6339  0.1020  0.3968
  836MPD2    C312342   1.604   2.168  11.895  0.2536 -0.5654 -0.0772
  836MPD2    C412343   1.514   2.179  11.792 -0.0019 -0.1553 -0.4310
  836MPD2    C512344   1.558   2.170  11.668 -0.0448  0.3917 -0.6107
  836MPD2     H12345   1.815   2.204  11.953  0.0764  0.8324  0.6686
  836MPD2    H112346   1.408   2.184  11.815 -0.2289  0.2523 -1.5632
  836MPD2    H212347   1.721   2.146  11.539  0.6410 -0.3352  1.0161
  836MPD2    H312348   1.496   2.156  11.580  0.2661 -2.3282 -0.3955
  836MPD2     N12349   1.551   2.177  12.025  0.3415  0.3709  0.4986
  836MPD2    H512350   1.453   2.202  12.036  0.4412  1.1192 -0.3438
  836MPD2    N112351   1.918   2.181  11.711  0.2017  0.3245  0.3442
  836MPD2    H712352   1.945   2.182  11.613 -0.7268 -1.2023  0.0717
  837MPD2     C12353   0.280   1.746  10.008  0.6929 -0.5842  0.1209
  837MPD2    C112354   0.165   1.778   9.942  0.3507  0.2873  0.2524
  837MPD2    C212355   0.153   1.913   9.893 -0.0697  0.3947  0.4341
  837MPD2    C312356   0.250   2.006   9.917 -0.1999  0.3153 -0.6279
  837MPD2    C412357   0.363   1.966   9.982  0.1327 -0.4570 -0.3308
  837MPD2    C512358   0.375   1.843  10.037  0.3781 -0.2070  0.1819
  837MPD2     H12359   0.064   1.940   9.838  0.5658  0.4491 -0.5669
  837MPD2    H112360   0.433   2.043  10.014  0.9711 -0.6923 -1.6075
  837MPD2    H212361   0.302   1.643  10.035  0.3197 -0.8511 -0.6107
  837MPD2    H312362   0.464   1.814  10.092  1.1680 -0.0521 -1.0172
  837MPD2     N12363   0.222   2.134   9.866  0.8139  0.4448  0.2491
  837MPD2    H512364   0.130   2.154   9.827  1.1804  1.8320  0.0842
  837MPD2    N112365   0.057   1.685   9.920  0.1181 -0.5213  0.0892
  837MPD2    H712366   4.718   1.716   9.869  0.5567 -0.7953 -0.7944
  838MPD2     C12367   3.613   4.701  12.141  0.1654 -0.4912 -0.0681
  838MPD2    C112368   3.507   4.636  12.082 -0.4030  0.2270 -0.5830
  838MPD2    C212369   3.394   4.610  12.159 -0.3278  0.7288  0.0747
  838MPD2    C312370   3.395   4.633  12.294 -0.1054 -0.0000  0.2422
  838MPD2    C412371   3.498   4.694  12.355  0.1525 -0.3841  0.6484
  838MPD2    C512372   3.615   4.730  12.275 -0.4701  0.3180  0.1411
  838MPD2     H12373   3.313   4.561  12.106  0.4258  0.9610 -1.3032
  838MPD2    H112374   3.492   4.722  12.459 -0.2315  2.0045 -0.0086
  838MPD2    H212375   3.704   4.713  12.085 -0.5565 -1.1395 -1.3717
  838MPD2    H312376   3.706   0.027  12.318 -1.0664  0.1565  1.5611
  838MPD2     N12377   3.284   4.589  12.362 -0.3485  0.6763  0.3618
  838MPD2    H512378   3.208   4.555  12.305  0.7026  0.8424 -1.1352
  838MPD2    N112379   3.504   4.601  11.941 -0.4861  0.7675  0.1919
  838MPD2    H712380   3.418   4.563  11.900  0.2718 -0.7658  0.0152
  839MPD2     C12381   2.996   3.962  11.808 -0.0979  0.0049  0.2626
  839MPD2    C112382   3.065   3.943  11.688 -0.3890 -0.1276  0.5377
  839MPD2    C212383   3.169   4.033  11.657 -0.0206 -0.4267  0.0583
  839MPD2    C312384   3.184   4.146  11.736 -0.4209  0.1578 -0.3338
  839MPD2    C412385   3.116   4.158  11.848 -0.1611  1.1205 -0.1009
  839MPD2    C512386   3.028   4.067  11.891  0.3398  0.7805 -0.1395
  839MPD2     H12387   3.226   4.028  11.565 -2.4114 -0.5299 -1.4075
  839MPD2    H112388   3.132   4.234  11.923  0.7334  1.3616 -0.5360
  839MPD2    H212389   2.916   3.899  11.845 -0.2196  1.4981  2.5857
  839MPD2    H312390   2.991   4.075  11.992 -0.5862 -1.0370 -0.3368
  839MPD2     N12391   3.279   4.248  11.713 -0.2622  0.0316 -0.6482
  839MPD2    H512392   3.284   4.314  11.790 -0.5257  0.3261 -0.8852
  839MPD2    N112393   3.036   3.838  11.600 -0.3942  0.5242 -0.5644
  839MPD2    H712394   3.093   3.835  11.516 -0.6770  2.5858 -0.8103
  840MPD2     C12395   3.719   2.493   9.944  0.5303 -0.1631 -0.3165
  840MPD2    C112396   3.741   2.421  10.062  0.0601  0.5089 -0.0783
  840MPD2    C212397   3.823   2.488  10.158 -0.0938 -0.4740  0.2084
  840MPD2    C312398   3.857   2.617  10.147 -0.2670  0.5227  0.3430
  840MPD2    C412399   3.830   2.686  10.029 -0.5287 -0.1635  0.2737
  840MPD2    C512400   3.766   2.624   9.925 -0.0423  0.6188 -0.6151
  840MPD2     H12401   3.843   2.443  10.255  1.2487 -0.6040 -0.1350
  840MPD2    H112402   3.861   2.788  10.009  1.2527 -0.3241  2.2523
  840MPD2    H212403   3.678   2.438   9.860 -0.5684  3.0082 -1.8854
  840MPD2    H312404   3.739   2.672   9.832 -1.1576 -1.2219 -1.2402
  840MPD2     N12405   3.904   2.677  10.264  0.4110 -0.2634 -0.3622
  840MPD2    H512406   3.914   2.617  10.345 -0.4801  0.1337  0.0409
  840MPD2    N112407   3.682   2.290  10.075  0.0229 -0.0980 -0.0595
  840MPD2    H712408   3.619   2.249  10.008 -1.1922 -1.0602  1.6669
  841MPD2     C12409   3.526   1.010  14.991  0.1718 -0.3047 -0.0476
  841MPD2    C112410   3.451   1.123  14.980 -0.3538  0.1260 -0.5864
  841MPD2    C212411   3.505   1.245  15.020  0.1246  0.1376  0.2192
  841MPD2    C312412   3.622   1.251  15.088  0.0014 -0.1915 -0.1020
  841MPD2    C412413   3.704   1.135  15.088 -0.0552  0.0145  0.5632
  841MPD2    C512414   3.651   1.020  15.043  0.7205 -0.5194 -0.3633
  841MPD2     H12415   3.459   1.334  14.980 -1.6156 -0.4148  1.0083
  841MPD2    H112416   3.810   1.131  15.109  0.0257  1.4636  0.4021
  841MPD2    H212417   3.482   0.916  14.959  0.2956 -0.1102 -0.7720
  841MPD2    H312418   3.712   0.930  15.047  1.6232  0.0347 -1.7867
  841MPD2     N12419   3.665   1.377  15.136 -0.1190 -1.3235  0.5575
  841MPD2    H512420   3.603   1.457  15.119  0.4295 -0.8595  0.7453
  841MPD2    N112421   3.329   1.130  14.908  0.1554 -0.1124  0.3190
  841MPD2    H712422   3.270   1.212  14.915  2.1264  1.3432  0.0282
  842MPD2     C12423   4.074   3.154  16.840  0.1695 -0.3984  0.3670
  842MPD2    C112424   3.970   3.062  16.828  0.3225 -0.1390  0.2141
  842MPD2    C212425   3.972   2.950  16.902  0.3157  0.0161 -0.1786
  842MPD2    C312426   4.059   2.940  17.012  0.3457  0.8364 -0.2235
  842MPD2    C412427   4.163   3.023  17.018 -0.8810 -0.2482 -0.1753
  842MPD2    C512428   4.179   3.127  16.927  0.4408 -0.5577 -0.6692
  842MPD2     H12429   3.894   2.878  16.884  0.6669 -0.4880  0.2988
  842MPD2    H112430   4.249   3.006  17.082 -0.6201 -1.8958 -0.9807
  842MPD2    H212431   4.070   3.245  16.782 -0.7765 -0.5467  0.2055
  842MPD2    H312432   4.265   3.191  16.936  0.7598 -1.1267  0.3128
  842MPD2     N12433   4.041   2.852  17.117  0.4151  0.0916 -0.4227
  842MPD2    H512434   4.091   2.888  17.198  0.3611 -1.1622  0.1705
  842MPD2    N112435   3.862   3.095  16.735  0.1293 -0.5059  0.2044
  842MPD2    H712436   3.867   3.184  16.686  0.3895 -0.6945 -0.1084
  843MPD2     C12437   0.936   3.021   0.547  0.3054 -0.2675  0.8465
  843MPD2    C112438   1.066   2.981   0.575 -0.2312  0.0568  0.4067
  843MPD2    C212439   1.170   3.063   0.543  0.2346  0.2266 -0.2611
  843MPD2    C312440   1.148   3.184   0.471 -0.8516  0.0626  0.1497
  843MPD2    C412441   1.019   3.213   0.439  0.6851 -0.4427 -0.6685
  843MPD2    C512442   0.914   3.139   0.486 -0.6939  0.4907  0.4747
  843MPD2     H12443   1.269   3.038   0.577 -0.1648  1.9730  2.1669
  843MPD2    H112444   1.007   3.307   0.387 -1.4139  1.1683  2.8127
  843MPD2    H212445   0.855   2.961   0.586  2.5103 -3.8052 -0.0134
  843MPD2    H312446   0.819   3.191   0.484 -0.0898  1.4814 -3.2993
  843MPD2     N12447   1.251   3.274   0.438  1.3420 -0.6686  0.1310
  843MPD2    H512448   1.223   3.359   0.391 -1.0430 -0.9166  1.0653
  843MPD2    N112449   1.075   2.861   0.657  0.0719  0.2539 -0.5508
  843MPD2    H712450   0.988   2.815   0.683  0.8341 -1.7935 -1.5932
  844MPD2     C12451   4.556   2.144  16.767  0.5274  0.2084 -0.3897
  844MPD2    C112452   4.618   2.176  16.649  0.0976 -0.2475 -0.2395
  844MPD2    C212453   4.709   2.287  16.649 -0.2051 -0.3222 -0.2625
  844MPD2    C312454   4.736   2.355  16.766  0.3194  0.0069 -0.1777
  844MPD2    C412455   4.661   2.321  16.876 -0.8487 -0.2771 -0.1071
  844MPD2    C512456   4.579   2.211  16.879  0.5354 -0.5601 -0.0068
  844MPD2     H12457   0.019   2.315  16.559 -0.8179 -0.8125 -0.7685
  844MPD2    H112458   4.680   2.362  16.974 -0.0847  1.9682 -1.2206
  844MPD2    H212459   4.493   2.055  16.769  0.2134  0.4528  0.5300
  844MPD2    H312460   4.532   2.187  16.973  1.3144 -0.9069  0.2898
  844MPD2     N12461   0.071   2.472  16.760  0.0888  0.2961 -0.2835
  844MPD2    H512462   0.109   2.488  16.667  0.3108  0.6400 -0.1324
  844MPD2    N112463   4.598   2.116  16.525 -0.2308 -0.1515 -0.7751
  844MPD2    H712464   4.644   2.161  16.447 -0.5555  0.1939 -0.7687
  845MPD2     C12465   4.649   3.326  16.522  0.7758  0.2533 -0.1011
  845MPD2    C112466   0.015   3.338  16.608 -0.0082 -0.4251  0.4327
  845MPD2    C212467   0.084   3.226  16.649 -0.0137  0.7863  0.3351
  845MPD2    C312468   0.052   3.101  16.584  0.6667  0.2854 -0.1499
  845MPD2    C412469   4.688   3.092  16.494 -0.2446 -0.2374  0.5643
  845MPD2    C512470   4.613   3.205  16.474  0.0651 -0.3975 -0.1243
  845MPD2     H12471   0.160   3.227  16.726  1.2304  1.8866 -0.8931
  845MPD2    H112472   4.650   2.996  16.463  0.4410 -0.6171  0.8956
  845MPD2    H212473   4.587   3.410  16.494 -0.1221 -1.1854 -2.3794
  845MPD2    H312474   4.520   3.196  16.418 -0.6502 -2.0322  1.3415
  845MPD2     N12475   0.113   2.978  16.619 -0.1291 -0.5739 -0.6399
  845MPD2    H512476   0.079   2.893  16.576 -2.1630  0.6744 -1.4719
  845MPD2    N112477   0.049   3.466  16.658  0.2302 -0.1471 -0.3357
  845MPD2    H712478   4.730   3.544  16.642  0.2452 -0.1263 -0.2937
  846MPD2     C12479   1.349   3.209  13.812  0.8063  0.3471 -0.1645
  846MPD2    C112480   1.261   3.308  13.822  0.2734  0.7085  0.6714
  846MPD2    C212481   1.221   3.362  13.943 -0.0094 -0.4797  0.0345
  846MPD2    C312482   1.276   3.313  14.062  0.3807 -0.5703 -0.5149
  846MPD2    C412483   1.359   3.196  14.051 -0.8808 -0.0729 -0.1559
  846MPD2    C512484   1.400   3.153  13.922  0.0204 -1.0559  0.2300
  846MPD2     H12485   1.152   3.445  13.953  0.3202 -0.1433 -0.5329
  846MPD2    H112486   1.392   3.137  14.136 -2.2280  0.3640  0.6738
  846MPD2    H212487   1.374   3.159  13.719  0.3044  0.5795 -0.4254
  846MPD2    H312488   1.459   3.062  13.914  2.0516  0.4493 -1.7617
  846MPD2     N12489   1.243   3.369  14.188  0.3327  0.7210  1.0885
  846MPD2    H512490   1.185   3.452  14.191  1.7086  1.7368 -0.3846
  846MPD2    N112491   1.198   3.364  13.704  0.1507  0.3631 -0.2279
  846MPD2    H712492   1.113   3.416  13.722  0.1081 -0.4991  2.1135
  847MPD2     C12493   1.262   4.188  14.152  0.3669 -0.3343 -0.5021
  847MPD2    C112494   1.375   4.131  14.194 -0.1327  0.0181  0.4253
  847MPD2    C212495   1.362   4.032  14.288  0.5249  0.7204  0.0120
  847MPD2    C312496   1.242   3.981  14.327  0.8546 -0.8359  0.2239
  847MPD2    C412497   1.126   4.035  14.274 -0.4802 -0.3021  0.6678
  847MPD2    C512498   1.137   4.130  14.177  0.3329  0.4065 -0.0808
  847MPD2     H12499   1.447   3.980  14.330 -1.4356 -0.9045  1.8976
  847MPD2    H112500   1.031   3.988  14.298 -1.5646  1.4643 -0.1965
  847MPD2    H212501   1.264   4.284  14.101 -1.4329 -0.6687 -1.2168
  847MPD2    H312502   1.045   4.166  14.132  0.3814  2.8360  1.7721
  847MPD2     N12503   1.251   3.875  14.420 -0.0986  0.6686  0.1975
  847MPD2    H512504   1.343   3.841  14.446 -1.0565 -0.8640  1.5870
  847MPD2    N112505   1.501   4.188  14.175  0.4029 -0.3041  0.2171
  847MPD2    H712506   1.573   4.142  14.230 -0.4468 -2.1349 -0.1840
  848MPD2     C12507   4.261   3.144  16.066 -0.7018  0.0335 -0.9438
  848MPD2    C112508   4.244   3.220  16.186  0.2280 -0.1034 -0.6411
  848MPD2    C212509   4.228   3.355  16.176 -0.1697 -0.7318  0.1912
  848MPD2    C312510   4.245   3.417  16.054 -0.0088 -0.4296  0.7750
  848MPD2    C412511   4.278   3.344  15.940 -0.2316  0.4356  0.2090
  848MPD2    C512512   4.275   3.208  15.947  0.2686 -1.1970  0.1697
  848MPD2     H12513   4.185   3.405  16.262 -0.3527 -1.0577  0.2899
  848MPD2    H112514   4.284   3.382  15.839  0.6020  1.9122  0.8006
  848MPD2    H212515   4.267   3.036  16.060  1.0834  0.0157  1.2429
  848MPD2    H312516   4.288   3.151  15.856  0.1916 -2.0529  0.7006
  848MPD2     N12517   4.214   3.552  16.042 -0.1277 -0.0942  0.0007
  848MPD2    H512518   4.193   3.592  15.951 -1.6707 -1.2637 -0.1450
  848MPD2    N112519   4.214   3.148  16.310  0.2206 -0.2920 -0.1415
  848MPD2    H712520   4.202   3.210  16.389 -0.9343 -1.8607  0.9142
  849MPD2     C12521   2.950   2.386  14.611  0.9197  0.1899  0.5172
  849MPD2    C112522   3.061   2.447  14.570  0.0618 -0.4431 -0.2657
  849MPD2    C212523   3.158   2.466  14.661 -0.0854 -0.4434  0.1817
  849MPD2    C312524   3.143   2.401  14.783 -0.5625 -0.1278 -0.5996
  849MPD2    C412525   3.031   2.331  14.822 -0.3625 -0.5565  0.4481
  849MPD2    C512526   2.929   2.331  14.734 -0.0236 -0.1233  0.1816
  849MPD2     H12527   3.249   2.522  14.641 -1.6144  1.2234 -2.0832
  849MPD2    H112528   3.026   2.276  14.916 -0.9516 -0.9135  0.2052
  849MPD2    H212529   2.872   2.363  14.539  0.2356  1.4104  0.8669
  849MPD2    H312530   2.835   2.285  14.761 -0.2675  0.6045  0.5906
  849MPD2     N12531   3.253   2.398  14.874 -0.5052  0.2646  0.5388
  849MPD2    H512532   3.251   2.328  14.947 -2.2273 -1.0298 -0.7524
  849MPD2    N112533   3.077   2.472  14.429  0.1367 -0.2376 -0.0236
  849MPD2    H712534   3.017   2.427  14.361  1.3361  0.3397 -1.4442
  850MPD2     C12535   1.591   0.407  14.693  0.0779 -0.0034 -0.1239
  850MPD2    C112536   1.622   0.422  14.825 -0.1154 -0.5771  0.0258
  850MPD2    C212537   1.746   0.459  14.868 -0.0297  0.1561  0.0312
  850MPD2    C312538   1.839   0.498  14.776  0.1150  0.7884 -0.0065
  850MPD2    C412539   1.816   0.476  14.643  0.9166 -1.1110  0.4829
  850MPD2    C512540   1.691   0.432  14.605  0.1067 -0.0633  0.4705
  850MPD2     H12541   1.757   0.469  14.975  0.5567  1.3452 -0.1330
  850MPD2    H112542   1.898   0.486  14.573  0.1893  1.6997  0.0065
  850MPD2    H212543   1.495   0.374  14.655 -0.0627  0.6510 -0.3418
  850MPD2    H312544   1.672   0.408  14.501 -0.5045 -2.4529  1.1307
  850MPD2     N12545   1.963   0.567  14.808 -0.0348  0.0580 -0.3338
  850MPD2    H512546   2.021   0.601  14.733 -0.4325 -0.0439 -0.6886
  850MPD2    N112547   1.537   0.389  14.932 -0.0480  0.3126  0.2503
  850MPD2    H712548   1.572   0.395  15.027 -0.8716 -1.6842  0.6817
  851MPD2     C12549   1.684   4.563  15.038  0.3680 -0.6127 -0.6886
  851MPD2    C112550   1.554   4.568  15.094  0.2317 -0.0064 -0.0103
  851MPD2    C212551   1.503   4.454  15.152  0.0749  0.2325 -0.2270
  851MPD2    C312552   1.575   4.337  15.154  0.5367  0.1812 -0.4380
  851MPD2    C412553   1.703   4.331  15.089  0.4816  0.1456 -0.0813
  851MPD2    C512554   1.756   4.442  15.031  0.1815  0.0902 -0.1222
  851MPD2     H12555   1.403   4.457  15.194  0.0687  0.2862 -0.2450
  851MPD2    H112556   1.758   4.237  15.091 -0.0827 -0.2032 -1.1569
  851MPD2    H212557   1.723   4.646  14.981 -0.6833  1.0986  1.1106
  851MPD2    H312558   1.858   4.451  14.994  0.5867  0.1840  1.0171
  851MPD2     N12559   1.501   4.230  15.198 -0.2419  0.7698  0.1517
  851MPD2    H512560   1.418   4.256  15.249  0.3635  1.2013  0.9130
  851MPD2    N112561   1.497   4.701  15.103  0.8771  0.3203 -0.4915
  851MPD2    H712562   1.553   0.035  15.072  0.6883  0.3566 -0.7448
  852MPD2     C12563   0.903   3.372  10.535 -0.8500 -0.2808 -0.0618
  852MPD2    C112564   0.968   3.378  10.654  0.1889  0.2205 -0.1973
  852MPD2    C212565   1.089   3.443  10.665 -0.1457  0.1330  0.0159
  852MPD2    C312566   1.139   3.525  10.563 -0.9590  0.0906  0.4504
  852MPD2    C412567   1.077   3.525  10.443 -0.3811 -0.1896  0.4363
  852MPD2    C512568   0.961   3.446  10.434 -0.0865 -0.2091 -0.1529
  852MPD2     H12569   1.136   3.443  10.762  0.4578 -0.1420 -0.2745
  852MPD2    H112570   1.104   3.598  10.368  0.2752  0.2261  1.0795
  852MPD2    H212571   0.809   3.318  10.523 -0.6618 -0.7176  0.4479
  852MPD2    H312572   0.910   3.441  10.339  1.3741 -0.9663 -0.8928
  852MPD2     N12573   1.256   3.603  10.594 -0.5746 -0.3752 -0.7048
  852MPD2    H512574   1.287   3.597  10.691 -0.0983  0.3805 -0.8173
  852MPD2    N112575   0.918   3.302  10.763 -0.1304  0.5674  0.5038
  852MPD2    H712576   0.980   3.284  10.841  0.5140  1.0016  0.0873
  853MPD2     C12577   3.134   2.770  12.787  0.3289  0.2084  0.5066
  853MPD2    C112578   3.043   2.869  12.754 -0.3684  0.4673  0.3923
  853MPD2    C212579   3.008   2.874  12.616 -0.4224  0.4064  0.1909
  853MPD2    C312580   3.073   2.799  12.521 -0.9443  1.1164  0.4284
  853MPD2    C412581   3.170   2.705  12.563 -0.1394  0.4451 -0.7690
  853MPD2    C512582   3.192   2.692  12.695 -1.0127  0.0531  0.5239
  853MPD2     H12583   2.936   2.946  12.579 -1.6383 -0.6727  0.4694
  853MPD2    H112584   3.217   2.638  12.493 -0.9956 -0.2446 -0.6939
  853MPD2    H212585   3.151   2.742  12.890  0.1331  0.7886  0.6990
  853MPD2    H312586   3.264   2.622  12.736 -0.4244 -1.1424 -2.5682
  853MPD2     N12587   3.048   2.808  12.380 -0.2947 -0.0975  0.4217
  853MPD2    H512588   3.105   2.752  12.317 -1.2353 -3.9675  2.9942
  853MPD2    N112589   2.979   2.937  12.858 -0.2092  0.7019  0.1363
  853MPD2    H712590   3.021   2.913  12.947 -1.0275 -1.8350 -0.1542
  854MPD2     C12591   4.375   2.834  12.958 -0.1710  0.2236  0.0026
  854MPD2    C112592   4.473   2.928  12.980  0.1074 -0.0697 -0.1921
  854MPD2    C212593   4.585   2.882  13.045 -0.1196 -1.0559  0.6499
  854MPD2    C312594   4.604   2.750  13.088 -0.2254  0.5020 -0.8601
  854MPD2    C412595   4.510   2.658  13.060  0.0604 -0.7151  0.0221
  854MPD2    C512596   4.393   2.702  12.999  0.1882  0.2847  1.0107
  854MPD2     H12597   4.665   2.946  13.080 -0.3128  0.9520 -2.5790
  854MPD2    H112598   4.513   2.555  13.094  0.6418 -1.7785 -3.2023
  854MPD2    H212599   4.284   2.854  12.903  1.0003  0.3075 -1.9118
  854MPD2    H312600   4.311   2.631  12.995 -0.2359  0.8368 -0.2081
  854MPD2     N12601   4.709   2.705  13.167 -0.1232 -0.1011 -0.3184
  854MPD2    H512602   4.714   2.604  13.173  1.5226 -0.0057 -0.1313
  854MPD2    N112603   4.451   3.067  12.943 -0.1180 -0.9283 -0.3706
  854MPD2    H712604   4.368   3.092  12.889 -0.4732  0.8905  1.0188
  855MPD2     C12605   0.537   2.751  13.996 -0.3341 -0.4058 -0.3691
  855MPD2    C112606   0.484   2.626  13.960 -0.7473 -0.0303 -0.1968
  855MPD2    C212607   0.448   2.602  13.825 -0.5865 -0.8700  0.2475
  855MPD2    C312608   0.446   2.707  13.733 -0.4155  0.3610 -0.4263
  855MPD2    C412609   0.498   2.831  13.770 -0.2613 -0.1420  0.7830
  855MPD2    C512610   0.539   2.854  13.902 -0.1116 -0.5433 -0.0096
  855MPD2     H12611   0.411   2.507  13.788  0.3508 -0.9338 -0.5092
  855MPD2    H112612   0.512   2.907  13.694  2.0126 -0.5017  0.8692
  855MPD2    H212613   0.572   2.778  14.095 -0.3453 -1.4501 -0.0724
  855MPD2    H312614   0.571   2.954  13.928 -1.3827 -0.6088  1.8388
  855MPD2     N12615   0.408   2.697  13.601 -0.5622 -0.4368 -0.0080
  855MPD2    H512616   0.396   2.785  13.550  1.5864 -1.2675 -1.9322
  855MPD2    N112617   0.460   2.524  14.063  0.4261 -0.0780  0.4545
  855MPD2    H712618   0.416   2.442  14.023  1.7081 -0.1457 -0.7912
  856MPD2     C12619   2.722   3.578  14.617 -0.0129 -0.0238 -0.0225
  856MPD2    C112620   2.757   3.660  14.513 -0.0674  0.1956 -0.1855
  856MPD2    C212621   2.651   3.687  14.420  0.8687  0.6598 -0.4445
  856MPD2    C312622   2.527   3.632  14.423  0.4090  0.0232 -0.1633
  856MPD2    C412623   2.501   3.544  14.525  0.3257 -0.5820 -0.3817
  856MPD2    C512624   2.599   3.523  14.625 -0.1761  0.2658  0.2679
  856MPD2     H12625   2.679   3.755  14.340  1.4162  1.1488  0.1587
  856MPD2    H112626   2.413   3.481  14.530  1.2014 -1.9888 -2.5331
  856MPD2    H212627   2.790   3.542  14.693  0.8528 -1.0337 -1.2842
  856MPD2    H312628   2.576   3.457  14.708  1.1726 -1.1906 -0.5239
  856MPD2     N12629   2.431   3.653  14.323  0.2961 -0.4446  0.5268
  856MPD2    H512630   2.346   3.599  14.332 -0.2792  0.2351 -0.9170
  856MPD2    N112631   2.887   3.703  14.482 -0.3348 -0.0925 -0.2242
  856MPD2    H712632   2.900   3.756  14.397 -3.1043  2.5550  1.0115
  857MPD2     C12633   4.417   1.852  12.560 -0.6737 -0.7444 -1.1707
  857MPD2    C112634   4.291   1.802  12.594 -0.0169 -0.0337  0.3408
  857MPD2    C212635   4.241   1.822  12.724  0.2763 -0.5220 -0.4302
  857MPD2    C312636   4.318   1.893  12.816  0.7435  0.0304 -0.5910
  857MPD2    C412637   4.442   1.945  12.778  0.2087  0.0272  0.1132
  857MPD2    C512638   4.490   1.915  12.654 -0.0999 -0.1329 -0.3628
  857MPD2     H12639   4.155   1.770  12.765  0.7440 -0.2113  0.9385
  857MPD2    H112640   4.516   1.991  12.842  1.4005 -0.8022 -0.6797
  857MPD2    H212641   4.483   1.824  12.479  0.8455  3.0566 -1.2473
  857MPD2    H312642   4.595   1.931  12.633 -0.6473  0.5852 -2.6268
  857MPD2     N12643   4.278   1.928  12.949 -0.1586  0.4129  0.1758
  857MPD2    H512644   4.188   1.891  12.979 -0.2891 -1.5710 -2.7125
  857MPD2    N112645   4.234   1.701  12.505 -0.1716 -0.6660 -0.2646
  857MPD2    H712646   4.275   1.688  12.414 -1.1430  3.5532 -1.2949
  858MPD2     C12647   4.010   0.047  16.863 -0.4429 -0.6490 -0.8396
  858MPD2    C112648   4.145   0.026  16.846  0.6573  0.7409 -0.1645
  858MPD2    C212649   4.235   0.124  16.887 -0.2352 -0.2407 -0.4914
  858MPD2    C312650   4.188   0.232  16.966 -0.1347  0.3667  0.3581
  858MPD2    C412651   4.053   0.251  16.984  0.1997 -0.1900  0.1513
  858MPD2    C512652   3.966   0.158  16.937  0.2727  0.7101 -0.8191
  858MPD2     H12653   4.342   0.114  16.873  0.2378  2.7836  0.8979
  858MPD2    H112654   4.023   0.328  17.055  0.1147 -1.2056  1.2259
  858MPD2    H212655   3.937   4.717  16.835 -1.1651 -0.1873 -0.1917
  858MPD2    H312656   3.861   0.167  16.965  0.9278  2.2815  1.0976
  858MPD2     N12657   4.267   0.337  17.010 -0.0369  0.4126  0.6452
  858MPD2    H512658   4.218   0.397  17.075 -0.2398 -2.4352  3.1230
  858MPD2    N112659   4.177   4.643  16.794  0.5067 -0.3420 -0.3677
  858MPD2    H712660   4.095   4.586  16.778  0.2139  0.3062 -1.1897
  859MPD2     C12661   2.988   2.494  15.892 -0.0290 -0.2973  0.3770
  859MPD2    C112662   3.106   2.433  15.867  0.5107 -0.0362 -0.6495
  859MPD2    C212663   3.139   2.320  15.937 -0.4788  0.1203  0.1782
  859MPD2    C312664   3.065   2.260  16.037  0.0418  0.3110 -0.5987
  859MPD2    C412665   2.942   2.326  16.059  0.5239 -0.1428 -0.0923
  859MPD2    C512666   2.911   2.442  15.991 -0.1377  0.6141 -0.1208
  859MPD2     H12667   3.242   2.287  15.926  0.0563  1.7131  0.4210
  859MPD2    H112668   2.868   2.286  16.127 -0.8530 -0.9256 -2.0414
  859MPD2    H212669   2.962   2.585  15.839 -0.4567  1.1605  3.0818
  859MPD2    H312670   2.809   2.476  15.998 -0.3399  0.2061 -1.0398
  859MPD2     N12671   3.103   2.149  16.116 -0.6141 -0.1447 -0.0708
  859MPD2    H512672   3.040   2.113  16.187 -0.3948 -0.9228 -0.2712
  859MPD2    N112673   3.198   2.492  15.777 -0.1320  0.8011  0.2976
  859MPD2    H712674   3.179   2.584  15.737 -0.3536  0.4049 -0.5110
  860MPD2     C12675   0.948   2.695  11.767  0.0681  0.3154  0.5583
  860MPD2    C112676   0.935   2.761  11.886 -0.4896  0.7330 -0.9260
  860MPD2    C212677   0.812   2.768  11.948  0.0310  0.6832 -0.4350
  860MPD2    C312678   0.703   2.712  11.886  0.2919 -1.1460  0.2316
  860MPD2    C412679   0.711   2.654  11.759 -0.1759 -0.4287  0.6880
  860MPD2    C512680   0.836   2.658  11.705  0.6165 -0.5172 -0.1260
  860MPD2     H12681   0.799   2.812  12.046 -0.9575  0.3515 -0.4227
  860MPD2    H112682   0.623   2.615  11.709 -0.4738  0.1838  0.7407
  860MPD2    H212683   1.043   2.670  11.721  1.0834  1.9207  1.8065
  860MPD2    H312684   0.857   2.608  11.611 -0.9591  0.8709 -1.2274
  860MPD2     N12685   0.586   2.716  11.962 -0.4394  0.2103 -0.3629
  860MPD2    H512686   0.590   2.787  12.035  1.7792 -0.8173  0.5175
  860MPD2    N112687   1.043   2.797  11.967 -0.0463 -0.6095 -0.2190
  860MPD2    H712688   1.019   2.840  12.056 -2.0352  1.0407 -1.5361
  861MPD2     C12689   4.696   0.992  11.267  0.0062  0.7970 -0.0138
  861MPD2    C112690   4.711   1.131  11.265  0.2697  0.2044 -0.2111
  861MPD2    C212691   4.675   1.203  11.156 -0.5777  0.0373  0.3057
  861MPD2    C312692   4.621   1.146  11.044  1.0568  0.7644 -0.3362
  861MPD2    C412693   4.610   1.011  11.045  0.7853  0.0019  0.0214
  861MPD2    C512694   4.640   0.936  11.156  0.5963  0.6263  0.3390
  861MPD2     H12695   4.683   1.311  11.159 -0.6661  0.0914 -1.6460
  861MPD2    H112696   4.579   0.952  10.960 -0.0830  2.5695 -1.4227
  861MPD2    H212697   4.721   0.924  11.348  0.3065  0.3900 -0.4433
  861MPD2    H312698   4.629   0.829  11.152 -1.9060  0.8587  1.0711
  861MPD2     N12699   4.565   1.211  10.932 -0.1287 -0.1569 -0.3409
  861MPD2    H512700   4.494   1.164  10.877 -0.2149  0.1148 -0.4601
  861MPD2    N112701   0.019   1.207  11.376 -0.8291  0.1018  0.1021
  861MPD2    H712702   0.012   1.308  11.366 -0.6660  0.1752  0.6964
  862MPD2     C12703   3.991   1.163  10.506  0.6749 -0.1184  0.0403
  862MPD2    C112704   4.104   1.122  10.571  0.4002  0.3807 -0.5005
  862MPD2    C212705   4.141   0.993  10.576 -0.3073 -0.0135  0.4868
  862MPD2    C312706   4.061   0.893  10.535  0.5021  0.7455  0.4505
  862MPD2    C412707   3.938   0.923  10.490  0.1403  0.8008  0.2505
  862MPD2    C512708   3.906   1.060  10.467  0.5051 -0.0733  0.0310
  862MPD2     H12709   4.231   0.979  10.635  0.5801 -1.0314 -1.1164
  862MPD2    H112710   3.864   0.848  10.464  0.0340 -0.4640  4.2841
  862MPD2    H212711   3.964   1.266  10.487  1.3271  0.0633  0.1079
  862MPD2    H312712   3.812   1.092  10.424  0.4018 -0.0256  0.2912
  862MPD2     N12713   4.098   0.763  10.562 -0.2999 -0.3421  1.0017
  862MPD2    H512714   4.026   0.694  10.542 -0.6188  0.0678  0.7262
  862MPD2    N112715   4.201   1.207  10.626 -0.2987 -0.0127 -0.7639
  862MPD2    H712716   4.291   1.175  10.661  0.5007  2.0047 -0.9649
  863MPD2     C12717   2.792   4.182  16.361 -0.4370 -0.5771  1.5632
  863MPD2    C112718   2.710   4.227  16.461 -1.0283 -0.0713 -0.2961
  863MPD2    C212719   2.746   4.208  16.591 -0.2045 -0.0725 -0.4824
  863MPD2    C312720   2.871   4.160  16.618 -0.5964 -1.2120  0.2357
  863MPD2    C412721   2.946   4.096  16.523 -0.7421 -0.2020  0.1135
  863MPD2    C512722   2.903   4.110  16.396  0.4052  0.5398 -0.6449
  863MPD2     H12723   2.683   4.236  16.675  1.2892 -0.1455  0.6668
  863MPD2    H112724   3.036   4.040  16.545  0.3109  1.1068 -0.8315
  863MPD2    H212725   2.761   4.200  16.259  0.6801 -2.3064  0.9174
  863MPD2    H312726   2.950   4.053  16.316 -0.5983  1.3065 -1.7813
  863MPD2     N12727   2.920   4.152  16.750 -0.1341  0.1548 -0.6526
  863MPD2    H512728   2.999   4.090  16.765  0.9338  1.4543 -0.8661
  863MPD2    N112729   2.584   4.292  16.427  0.3883 -0.0755 -0.5760
  863MPD2    H712730   2.565   4.295  16.328  0.3796 -1.9852 -0.6187
  864MPD2     C12731   3.359   0.942  17.227  0.8577  0.4128 -0.3897
  864MPD2    C112732   3.431   0.833  17.182 -0.1402  0.5152 -0.1757
  864MPD2    C212733   3.552   0.854  17.109  0.6527 -0.4675 -0.5837
  864MPD2    C312734   3.603   0.982  17.082  0.0007  0.3600  0.5850
  864MPD2    C412735   3.527   1.088  17.128  0.5672  0.3967  0.4253
  864MPD2    C512736   3.413   1.064  17.198  0.3047  0.4112 -0.5082
  864MPD2     H12737   3.604   0.766  17.076 -0.1385 -1.0999 -0.1417
  864MPD2    H112738   3.555   1.193  17.121  1.6765 -0.0047 -1.2592
  864MPD2    H212739   3.274   0.920  17.290  1.5559  2.0541  1.1469
  864MPD2    H312740   3.362   1.143  17.252  3.7029  0.0055  3.2668
  864MPD2     N12741   3.723   0.999  17.014 -0.1741  0.6821  0.2032
  864MPD2    H512742   3.727   1.093  16.976  2.3930  1.1052  1.4953
  864MPD2    N112743   3.371   0.708  17.203 -0.2608 -0.8359 -0.2480
  864MPD2    H712744   3.271   0.707  17.220 -0.2204 -0.2364  0.0228
  865MPD2     C12745   3.637   1.007  16.140  0.3983 -0.2978  0.2973
  865MPD2    C112746   3.679   0.897  16.213  0.0356 -0.8016 -0.9977
  865MPD2    C212747   3.755   0.922  16.328 -0.3553  0.1229  0.1329
  865MPD2    C312748   3.779   1.051  16.372  0.1191 -0.9366 -0.5325
  865MPD2    C412749   3.720   1.153  16.301 -0.0327  0.2766 -0.2367
  865MPD2    C512750   3.650   1.131  16.187  0.5742  0.2888 -0.5393
  865MPD2     H12751   3.795   0.835  16.379  2.2182  0.7827 -0.7296
  865MPD2    H112752   3.746   1.257  16.317  0.4294 -0.1358  1.6261
  865MPD2    H212753   3.588   0.992  16.044 -1.1845  0.9261  0.9170
  865MPD2    H312754   3.624   1.215  16.122 -0.8434 -1.5910 -2.3976
  865MPD2     N12755   3.843   1.083  16.492 -0.8990 -0.2291 -0.3798
  865MPD2    H512756   3.842   1.178  16.528 -1.2557 -0.2866 -0.2343
  865MPD2    N112757   3.639   0.765  16.182 -0.6528 -0.0171 -0.6577
  865MPD2    H712758   3.591   0.758  16.093  0.8637  0.8347 -1.5471
  866MPD2     C12759   0.641   1.404  10.617 -0.2146 -0.1673 -0.1388
  866MPD2    C112760   0.595   1.333  10.725 -0.4364  0.2679 -0.2359
  866MPD2    C212761   0.518   1.393  10.823  0.1483 -0.5377 -0.6643
  866MPD2    C312762   0.475   1.525  10.806 -0.5470  0.0786 -0.0954
  866MPD2    C412763   0.523   1.606  10.699  0.7019  0.8242  0.2770
  866MPD2    C512764   0.612   1.543  10.613  0.0046 -0.8279  0.1356
  866MPD2     H12765   0.473   1.338  10.906  0.1039 -0.3236 -0.5454
  866MPD2    H112766   0.503   1.710  10.676 -0.7930  0.5822  0.4815
  866MPD2    H212767   0.729   1.381  10.558  1.0513  0.3044  1.5688
  866MPD2    H312768   0.654   1.599  10.531 -0.8546 -0.4285 -0.0324
  866MPD2     N12769   0.377   1.591  10.884  0.0743 -0.0197  0.5624
  866MPD2    H512770   0.369   1.689  10.859 -1.4547 -0.1658  0.4473
  866MPD2    N112771   0.626   1.195  10.719  0.5669 -0.6094 -0.1595
  866MPD2    H712772   0.690   1.169  10.645 -1.4824 -0.0227 -2.1552
  867MPD2     C12773   2.107   0.900  16.609  0.1605  0.1429 -0.2018
  867MPD2    C112774   2.125   0.827  16.722 -0.1799  1.0932 -0.8420
  867MPD2    C212775   2.123   0.900  16.846 -0.5928  0.0736 -0.0020
  867MPD2    C312776   2.073   1.032  16.848  0.1013  0.1100 -0.0838
  867MPD2    C412777   2.038   1.093  16.731  0.4004  0.1223 -0.2329
  867MPD2    C512778   2.066   1.035  16.610 -0.3820 -0.1096  0.0899
  867MPD2     H12779   2.151   0.851  16.939 -0.3919  1.0875  0.4687
  867MPD2    H112780   1.998   1.194  16.724  0.3168  0.1206  0.2020
  867MPD2    H212781   2.130   0.853  16.514 -2.6232 -0.6961 -0.4566
  867MPD2    H312782   2.063   1.090  16.517  0.4121 -1.0962 -0.5156
  867MPD2     N12783   2.060   1.104  16.971 -0.1933 -0.2755 -0.0934
  867MPD2    H512784   2.019   1.197  16.962 -0.5049 -0.4328 -0.3286
  867MPD2    N112785   2.152   0.687  16.699  0.5585 -0.6759  0.1315
  867MPD2    H712786   2.156   0.651  16.604  2.0116  0.5444 -0.2715
  868MPD2     C12787   3.707   4.204  13.044 -0.0624 -0.0004 -0.1061
  868MPD2    C112788   3.782   4.306  13.100  0.8630 -0.5108  0.6097
  868MPD2    C212789   3.797   4.314  13.236  0.8191 -0.7642  0.0439
  868MPD2    C312790   3.722   4.235  13.320 -0.1124 -0.1862  0.3532
  868MPD2    C412791   3.626   4.152  13.266 -0.0062 -1.0060 -0.0557
  868MPD2    C512792   3.631   4.126  13.129  0.5253 -0.0759  0.2438
  868MPD2     H12793   3.878   4.364  13.289  1.2988 -1.3135 -0.1740
  868MPD2    H112794   3.560   4.099  13.334  0.5382 -0.8868  0.5684
  868MPD2    H212795   3.719   4.186  12.938  1.1659 -1.2755  0.2538
  868MPD2    H312796   3.561   4.052  13.093  0.8007 -0.6277  0.8633
  868MPD2     N12797   3.741   4.244  13.460 -0.2306 -0.0443 -0.0915
  868MPD2    H512798   3.821   4.301  13.487  0.5355 -0.8993 -0.5499
  868MPD2    N112799   3.864   4.374  13.003 -0.0895  0.3596  0.6731
  868MPD2    H712800   3.845   4.343  12.908  0.0500  2.3349  0.0083
  869MPD2     C12801   4.594   2.196   0.352 -0.3314 -0.0854 -0.8543
  869MPD2    C112802   4.505   2.246   0.442  0.3686 -0.0293 -0.0701
  869MPD2    C212803   4.554   2.309   0.558  0.2223  0.3164 -0.2356
  869MPD2    C312804   4.686   2.299   0.592  0.8438 -0.4350  0.0384
  869MPD2    C412805   0.027   2.226   0.508  0.1826  0.2243 -0.2986
  869MPD2    C512806   4.726   2.186   0.385 -0.6051 -0.0392 -0.1340
  869MPD2     H12807   4.488   2.339   0.639 -1.2936 -1.0723 -0.9534
  869MPD2    H112808   0.133   2.215   0.528 -0.2493 -2.0251  0.6936
  869MPD2    H212809   4.562   2.153   0.258 -0.0063 -0.6975 -0.6894
  869MPD2    H312810   0.035   2.118   0.319  0.9928  1.2255 -0.1453
  869MPD2     N12811   4.738   2.347   0.710  1.0417  0.0176 -0.7714
  869MPD2    H512812   0.086   2.314   0.735  1.4259  0.5235 -1.5150
  869MPD2    N112813   4.366   2.236   0.419  0.4457  0.0394  0.0498
  869MPD2    H712814   4.335   2.193   0.333 -0.3485  2.3068 -0.8041
  870MPD2     C12815   0.343   1.348   1.036  0.5335 -0.6727  0.4796
  870MPD2    C112816   0.221   1.396   1.040 -0.0552 -0.4006 -0.3905
  870MPD2    C212817   0.150   1.443   0.929  0.0827  0.4060  0.4021
  870MPD2    C312818   0.227   1.477   0.817  0.8118  0.1352  0.5117
  870MPD2    C412819   0.355   1.425   0.808  0.1959  0.1117 -0.4116
  870MPD2    C512820   0.409   1.362   0.918  0.3751  0.5880  0.4619
  870MPD2     H12821   0.060   1.501   0.945 -1.7236 -2.0292 -0.8341
  870MPD2    H112822   0.415   1.438   0.719 -2.4367 -0.8768 -2.3331
  870MPD2    H212823   0.402   1.316   1.121 -0.5997 -2.5878  0.5480
  870MPD2    H312824   0.510   1.323   0.911  0.7371  1.5882  0.1884
  870MPD2     N12825   0.160   1.545   0.712  0.5105  0.0803 -0.1223
  870MPD2    H512826   0.064   1.573   0.731  0.6450  0.0241  0.6372
  870MPD2    N112827   0.175   1.424   1.168 -0.1297  0.0556 -0.4321
  870MPD2    H712828   0.244   1.419   1.242  0.6346 -1.3136 -1.2406
  871MPD2     C12829   0.658   0.628  16.478 -0.7044 -0.9725  0.5612
  871MPD2    C112830   0.791   0.664  16.470  0.0301  0.2040 -0.5659
  871MPD2    C212831   0.881   0.581  16.401 -0.5088 -0.9809 -0.1575
  871MPD2    C312832   0.836   0.470  16.327  0.7736  0.4628  0.0703
  871MPD2    C412833   0.697   0.440  16.329  0.7039  0.4383  0.6438
  871MPD2    C512834   0.616   0.513  16.410 -0.0230  0.5093 -0.4045
  871MPD2     H12835   0.984   0.611  16.414 -1.4284  1.5249  1.3769
  871MPD2    H112836   0.655   0.346  16.292  2.9746 -0.0921 -0.5969
  871MPD2    H212837   0.583   0.688  16.528  0.6216  1.9650 -0.9731
  871MPD2    H312838   0.511   0.486  16.420 -0.4776  2.3693 -0.0616
  871MPD2     N12839   0.924   0.390  16.260 -0.3470  0.0318  0.1550
  871MPD2    H512840   0.892   0.296  16.242 -1.6587  0.0829  2.2999
  871MPD2    N112841   0.845   0.771  16.534 -0.1989  0.7418 -0.3055
  871MPD2    H712842   0.944   0.792  16.522 -0.7345  3.0931 -0.6238
  872MPD2     C12843   2.095   2.717  14.074  0.5018  0.5111 -0.2763
  872MPD2    C112844   2.117   2.834  14.142 -0.1440 -0.4335  0.8648
  872MPD2    C212845   2.016   2.901  14.208  0.3960 -0.4676 -0.1053
  872MPD2    C312846   1.885   2.855  14.203 -0.0876 -0.4145  0.6875
  872MPD2    C412847   1.862   2.737  14.129 -0.3306  0.8895 -0.6455
  872MPD2    C512848   1.965   2.672  14.061 -0.4845  0.5197  0.8668
  872MPD2     H12849   2.045   2.993  14.258  2.0389  0.0085 -1.9344
  872MPD2    H112850   1.763   2.693  14.129 -1.2185  2.9028 -2.2350
  872MPD2    H212851   2.172   2.661  14.022  0.2886  2.2364 -2.4336
  872MPD2    H312852   1.935   2.581  14.011 -0.8413  0.6071  0.9188
  872MPD2     N12853   1.774   2.914  14.261  0.1411  0.1977  0.0200
  872MPD2    H512854   1.689   2.860  14.248 -0.1603  0.1509  2.2925
  872MPD2    N112855   2.247   2.893  14.159 -0.5203  0.0915 -0.1898
  872MPD2    H712856   2.257   2.989  14.189 -0.0511  0.0203 -0.1207
  873MPD2     C12857   3.859   3.303   1.132  0.3745  0.0191  0.1986
  873MPD2    C112858   3.725   3.334   1.119  0.4455 -0.0427  0.0476
  873MPD2    C212859   3.638   3.235   1.084 -0.5728  0.6013  0.1256
  873MPD2    C312860   3.682   3.113   1.047 -0.0193  0.7953 -0.2478
  873MPD2    C412861   3.814   3.086   1.042 -0.2279 -0.5070  0.0114
  873MPD2    C512862   3.902   3.182   1.073 -0.3143 -0.8149 -0.1357
  873MPD2     H12863   3.532   3.258   1.086 -0.6755  0.0430  1.3747
  873MPD2    H112864   3.840   2.998   0.984  3.0193 -0.9296  2.1241
  873MPD2    H212865   3.926   3.379   1.172  0.3707 -0.8291  1.8354
  873MPD2    H312866   4.008   3.158   1.064  0.6977  3.4377  0.4839
  873MPD2     N12867   3.604   3.003   1.014 -0.1972  0.2453 -0.2196
  873MPD2    H512868   3.656   2.927   0.972 -2.8939 -1.3429 -0.6906
  873MPD2    N112869   3.693   3.455   1.180  0.4941  0.0504  0.5757
  873MPD2    H712870   3.763   3.511   1.229 -0.5921  2.0483 -0.1526
  874MPD2     C12871   3.379   3.602  16.242  0.1427  0.6290  0.1785
  874MPD2    C112872   3.502   3.552  16.292 -0.2015  0.2906 -1.2504
  874MPD2    C212873   3.625   3.609  16.265  0.1659 -0.8135  0.5158
  874MPD2    C312874   3.640   3.720  16.178  0.2332 -0.2086  0.0201
  874MPD2    C412875   3.517   3.783  16.142 -0.6889  0.0964 -0.1448
  874MPD2    C512876   3.395   3.721  16.169  0.3389 -0.3775  0.6685
  874MPD2     H12877   3.719   3.569  16.301  1.0102  1.3058  0.6475
  874MPD2    H112878   3.528   3.864  16.070  2.6336  0.0967  0.3604
  874MPD2    H212879   3.283   3.562  16.271  1.4682 -1.1387  2.0892
  874MPD2    H312880   3.313   3.787  16.145 -2.2875 -3.9414 -0.1718
  874MPD2     N12881   3.774   3.764  16.156 -0.1790 -0.4330  0.1480
  874MPD2    H512882   3.849   3.711  16.199  0.4860 -0.3374 -0.9138
  874MPD2    N112883   3.488   3.438  16.377  0.4516  0.8154  0.1657
  874MPD2    H712884   3.396   3.394  16.385 -0.2041  1.4948 -3.3586
  875MPD2     C12885   4.280   0.871  14.569 -0.3755  0.2174 -0.2140
  875MPD2    C112886   4.332   0.989  14.513 -0.2571  0.2547  0.0170
  875MPD2    C212887   4.387   1.081  14.598  0.5463 -0.1638 -0.2906
  875MPD2    C312888   4.366   1.071  14.738  0.2021 -0.1808  0.0066
  875MPD2    C412889   4.298   0.959  14.787  0.4930  0.1313 -0.0609
  875MPD2    C512890   4.269   0.856  14.702  0.1832 -0.5555  0.1774
  875MPD2     H12891   4.439   1.168  14.560  0.8019 -0.5309 -0.7742
  875MPD2    H112892   4.297   0.940  14.894  1.1284 -1.8933 -0.4103
  875MPD2    H212893   4.235   0.786  14.519 -0.8890 -0.0418  0.6883
  875MPD2    H312894   4.213   0.771  14.739 -2.4984  0.1644 -2.2414
  875MPD2     N12895   4.399   1.160  14.839 -0.3513  0.4764 -0.4409
  875MPD2    H512896   4.374   1.126  14.931  2.3841  2.0897  0.8992
  875MPD2    N112897   4.333   1.021  14.375 -0.2866 -0.1648 -0.2534
  875MPD2    H712898   4.394   1.100  14.353  1.2270 -1.7875 -1.8617
  876MPD2     C12899   3.486   2.531  16.067 -0.1618  0.4040 -0.3614
  876MPD2    C112900   3.627   2.526  16.080  0.1775 -0.6583 -0.0295
  876MPD2    C212901   3.689   2.414  16.138 -0.4169  0.5466 -0.1062
  876MPD2    C312902   3.621   2.304  16.189  0.3830  0.7116  0.1764
  876MPD2    C412903   3.484   2.315  16.183 -0.3159  0.4224 -0.3456
  876MPD2    C512904   3.416   2.420  16.116  0.3123  0.0171 -0.1400
  876MPD2     H12905   3.797   2.415  16.132 -0.3679  0.3073  0.8378
  876MPD2    H112906   3.418   2.241  16.225 -0.4151  1.0051  0.5193
  876MPD2    H212907   3.435   2.614  16.020 -0.1021 -0.4531 -1.9507
  876MPD2    H312908   3.308   2.417  16.118  0.3808 -1.7941  0.4309
  876MPD2     N12909   3.697   2.202  16.241  0.5319  0.0390 -0.5795
  876MPD2    H512910   3.797   2.204  16.228  0.2586  0.7000 -2.5525
  876MPD2    N112911   3.704   2.633  16.027  1.0346 -0.0601  1.3259
  876MPD2    H712912   3.659   2.706  15.973  3.1945  0.9228  0.8838
  877MPD2     C12913   3.584   3.085  15.527  0.0821 -0.1871  0.4294
  877MPD2    C112914   3.718   3.105  15.537 -0.4909  0.1647 -0.2097
  877MPD2    C212915   3.778   3.141  15.421 -0.4266 -0.7657  0.3951
  877MPD2    C312916   3.709   3.149  15.300 -0.0794 -0.4900  1.2764
  877MPD2    C412917   3.574   3.132  15.297 -1.0814 -1.3796  0.1879
  877MPD2    C512918   3.508   3.101  15.415  0.1340 -0.5142  0.0184
  877MPD2     H12919   3.885   3.153  15.429 -0.1731 -0.1385 -4.2871
  877MPD2    H112920   3.523   3.124  15.202 -1.5268 -1.1594  0.4100
  877MPD2    H212921   3.525   3.080  15.618 -1.4771  1.3031 -0.4935
  877MPD2    H312922   3.400   3.098  15.405  0.2349 -0.3541 -1.1200
  877MPD2     N12923   3.772   3.175  15.176 -0.4479  0.1215  0.5137
  877MPD2    H512924   3.713   3.164  15.094 -0.8793  1.0516  0.7047
  877MPD2    N112925   3.799   3.078  15.650  0.0314 -0.0812  0.7694
  877MPD2    H712926   3.899   3.081  15.634  0.0184 -1.6793  0.3368
  878MPD2     C12927   2.928   2.163  13.508 -0.2278  0.0097  0.1797
  878MPD2    C112928   3.062   2.207  13.499 -0.2605  0.4061 -0.4453
  878MPD2    C212929   3.129   2.234  13.616  0.6408 -0.4704  0.8503
  878MPD2    C312930   3.070   2.229  13.743 -0.0257  0.3338  0.6387
  878MPD2    C412931   2.943   2.176  13.750  0.7020  0.0372  0.1572
  878MPD2    C512932   2.872   2.152  13.631 -0.1686 -0.2373  0.3529
  878MPD2     H12933   3.233   2.266  13.618 -0.1838  2.2936 -0.0793
  878MPD2    H112934   2.883   2.173  13.840 -1.0520  0.2694 -0.9894
  878MPD2    H212935   2.868   2.154  13.419  1.1257 -0.6871 -0.6684
  878MPD2    H312936   2.768   2.129  13.651  0.1013 -1.4354  0.4200
  878MPD2     N12937   3.145   2.262  13.858  0.2083  0.3784 -0.0199
  878MPD2    H512938   3.239   2.291  13.832  0.0512  2.1250  1.3953
  878MPD2    N112939   3.107   2.245  13.370 -0.1441  0.5351 -0.5190
  878MPD2    H712940   3.040   2.230  13.295 -0.0409 -1.1085 -0.2731
  879MPD2     C12941   3.381   4.490  17.105  0.7429  0.0205 -0.1708
  879MPD2    C112942   3.422   4.371  17.165  0.6299  0.1470  0.1909
  879MPD2    C212943   3.440   4.250  17.092 -0.1493  0.1980  0.3654
  879MPD2    C312944   3.385   4.234  16.970  0.7247  1.1888 -0.9109
  879MPD2    C412945   3.334   4.350  16.914  0.3388 -1.0182 -1.0107
  879MPD2    C512946   3.335   4.472  16.980  0.0292 -0.0804 -0.1721
  879MPD2     H12947   3.478   4.165  17.147 -0.4531  0.0068  0.2825
  879MPD2    H112948   3.288   4.350  16.816 -2.5779  1.8376  0.3425
  879MPD2    H212949   3.389   4.591  17.142  1.3197 -0.4837  1.0792
  879MPD2    H312950   3.301   4.561  16.928 -1.3424 -1.3986 -1.5484
  879MPD2     N12951   3.398   4.117  16.889 -0.6929  0.0923  0.5364
  879MPD2    H512952   3.370   4.106  16.792 -1.5534 -0.5914  0.8515
  879MPD2    N112953   3.468   4.377  17.298 -0.0519  0.1746  0.1596
  879MPD2    H712954   3.451   4.466  17.344 -0.4524 -0.6191  1.5398
  880MPD2     C12955   0.230   0.662   0.114  0.5560 -0.1574 -0.0891
  880MPD2    C112956   0.340   0.744   0.119  0.0614 -0.1731 -0.1979
  880MPD2    C212957   0.467   0.681   0.105 -0.7389  0.3384 -0.3632
  880MPD2    C312958   0.472   0.541   0.094  0.6027  1.1353 -0.3661
  880MPD2    C412959   0.352   0.469   0.099 -0.4309 -0.1759 -0.4573
  880MPD2    C512960   0.231   0.525   0.109  0.3582  0.3336 -0.2224
  880MPD2     H12961   0.562   0.733   0.107  1.1413 -3.1844  0.6373
  880MPD2    H112962   0.342   0.361   0.091 -1.1950 -0.1773  0.4569
  880MPD2    H212963   0.133   0.711   0.121  1.6636  2.1469 -0.8474
  880MPD2    H312964   0.139   0.469   0.097  0.3817  0.2298  0.0709
  880MPD2     N12965   0.599   0.485   0.083 -1.0984  0.3036  0.3320
  880MPD2    H512966   0.674   0.552   0.073 -0.5476 -0.2131  0.9553
  880MPD2    N112967   0.322   0.881   0.122 -0.2668  0.3409 -0.0215
  880MPD2    H712968   0.228   0.921   0.117  0.4589  2.4128  2.5449
  881MPD2     C12969   0.558   1.881  17.511 -1.1362  0.1760  0.0302
  881MPD2    C112970   0.613   1.761  17.465  0.2736  0.4170 -0.7999
  881MPD2    C212971   0.584   1.642  17.536 -0.6332 -0.5585  0.3522
  881MPD2    C312972   0.530   1.658  17.664  0.7823 -0.8541  0.2613
  881MPD2    C412973   0.494   1.783  17.714  0.2150  0.0091  0.3966
  881MPD2    C512974   0.519   1.891  17.638 -1.0196  0.4258  0.8196
  881MPD2     H12975   0.603   1.547  17.488  0.2573  0.1589 -0.7054
  881MPD2    H112976   0.460   1.806   0.043 -0.0550  0.8703  0.1067
  881MPD2    H212977   0.584   1.971  17.456  0.6014 -0.6424 -0.5056
  881MPD2    H312978   0.480   1.987  17.670 -0.2218  1.1853 -0.4637
  881MPD2     N12979   0.503   1.553  17.748 -0.4282 -0.2351  0.7233
  881MPD2    H512980   0.451   1.581   0.059 -0.1846  0.3760  0.6669
  881MPD2    N112981   0.644   1.762  17.323  0.0761 -0.2376 -0.0878
  881MPD2    H712982   0.643   1.846  17.266  1.6433  1.5653  2.5504
  882MPD2     C12983   3.790   2.816  14.555  0.2746  0.1249  0.5096
  882MPD2    C112984   3.744   2.933  14.620 -0.0915  0.9732  0.2526
  882MPD2    C212985   3.607   2.950  14.642 -0.1502 -0.0438  0.0661
  882MPD2    C312986   3.514   2.866  14.592 -0.4805  0.3528 -0.3336
  882MPD2    C412987   3.564   2.751  14.535 -0.3544 -0.1246 -0.9128
  882MPD2    C512988   3.697   2.729  14.512 -0.5096  0.7049  0.3463
  882MPD2     H12989   3.560   3.030  14.698 -1.6089 -1.2477  0.5470
  882MPD2    H112990   3.495   2.672  14.507 -0.2486  0.1940 -2.0669
  882MPD2    H212991   3.897   2.802  14.542  0.0949 -2.0233  1.3393
  882MPD2    H312992   3.730   2.640  14.459  1.3249  1.0970  0.8166
  882MPD2     N12993   3.375   2.872  14.615 -0.1512 -0.1983 -0.0210
  882MPD2    H512994   3.325   2.792  14.576  1.9207 -1.6277  0.2457
  882MPD2    N112995   3.839   3.032  14.653 -0.1931  0.2011  0.6262
  882MPD2    H712996   3.939   3.018  14.637 -0.0011  1.7083  0.5000
  883MPD2     C12997   0.742   2.785  16.268  0.1695 -0.6149 -0.5288
  883MPD2    C112998   0.764   2.895  16.185 -0.0585 -0.2623 -0.1824
  883MPD2    C212999   0.872   2.970  16.212 -0.0704 -0.3761  0.7351
  883MPD2    C313000   0.956   2.944  16.322 -0.2974  0.0196  0.2322
  883MPD2    C413001   0.933   2.832  16.405 -0.1382 -0.0134  0.2310
  883MPD2    C513002   0.818   2.761  16.379 -0.0596  0.1459 -0.1561
  883MPD2     H13003   0.883   3.061  16.154 -4.2366  0.5333  1.4110
  883MPD2    H113004   0.998   2.806  16.488  0.0236  0.3703  0.2288
  883MPD2    H213005   0.663   2.715  16.245  0.3092 -2.4415  4.4967
  883MPD2    H313006   0.803   2.674  16.443 -0.3877  1.9274  2.2124
  883MPD2     N13007   1.071   3.027  16.338 -0.0734  0.5459 -0.1080
  883MPD2    H513008   1.087   3.099  16.267 -0.3422 -0.6499 -1.3890
  883MPD2    N113009   0.676   2.928  16.083 -0.0989  0.1542 -0.3612
  883MPD2    H713010   0.693   3.007  16.022  1.3939  0.3236  0.2662
  884MPD2     C13011   2.787   3.864  15.342 -0.3850  0.1822  0.2514
  884MPD2    C113012   2.718   3.843  15.224  0.1379  0.0949 -0.1116
  884MPD2    C213013   2.585   3.871  15.214  0.3117  0.4818 -0.3260
  884MPD2    C313014   2.518   3.904  15.327 -0.3723  0.1024  0.5469
  884MPD2    C413015   2.582   3.927  15.444 -0.3846 -0.3253  0.4031
  884MPD2    C513016   2.717   3.911  15.452 -0.3997  0.1816  1.0882
  884MPD2     H13017   2.531   3.857  15.121  0.3898  1.0376 -0.4555
  884MPD2    H113018   2.540   3.960  15.538  0.9340  2.0758  0.1434
  884MPD2    H213019   2.893   3.852  15.362 -0.2664 -0.2199 -0.6077
  884MPD2    H313020   2.775   3.919  15.544  0.7959  2.4521  0.1273
  884MPD2     N13021   2.378   3.920  15.314  0.3173 -0.2349  0.2070
  884MPD2    H513022   2.337   3.915  15.221 -0.3390  1.3739  0.4108
  884MPD2    N113023   2.786   3.792  15.110  0.4304  0.1837  0.1488
  884MPD2    H713024   2.734   3.782  15.023 -0.3467  1.5244  0.4498
  885MPD2     C13025   0.732   3.764   0.050 -0.1078 -0.2746  0.8178
  885MPD2    C113026   0.681   3.869   0.122 -0.1482 -0.1853  0.3128
  885MPD2    C213027   0.713   3.996   0.075 -0.1557 -0.3794  0.2913
  885MPD2    C313028   0.819   4.013  17.765 -0.7583  0.1563  0.3405
  885MPD2    C413029   0.880   3.903  17.700  0.1646  0.0458 -0.1886
  885MPD2    C513030   0.826   3.784  17.722  0.0694 -0.1603  0.3086
  885MPD2     H13031   0.659   4.084   0.107  0.5208  0.7714 -1.6887
  885MPD2    H113032   0.969   3.904  17.638 -0.5128 -2.4446 -1.1842
  885MPD2    H213033   0.708   3.662   0.079  1.2754 -0.8596 -0.1722
  885MPD2    H313034   0.870   3.703  17.665  0.5714  1.3955 -1.5014
  885MPD2     N13035   0.850   4.148  17.735  0.1925 -0.4028 -0.0487
  885MPD2    H513036   0.791   4.212   0.017  1.9628  2.0197 -0.9801
  885MPD2    N113037   0.585   3.849   0.221  0.9882 -0.6077 -0.1405
  885MPD2    H713038   0.580   3.750   0.244  1.7035  0.1674  3.2495
  886MPD2     C13039   2.557   3.175  16.026 -0.2613  0.0486  0.3321
  886MPD2    C113040   2.564   3.041  15.980 -0.5623 -0.3514  0.3965
  886MPD2    C213041   2.508   3.007  15.863 -0.0662 -0.1618  0.3811
  886MPD2    C313042   2.466   3.106  15.784  0.7696 -1.1237 -0.4177
  886MPD2    C413043   2.446   3.232  15.825  0.1629 -0.4075  0.1197
  886MPD2    C513044   2.505   3.264  15.946  0.4562 -0.2165 -0.2260
  886MPD2     H13045   2.507   2.907  15.823 -0.3670  0.3575 -0.8973
  886MPD2    H113046   2.406   3.308  15.759  1.0239 -0.5453 -0.5613
  886MPD2    H213047   2.626   3.217  16.098 -1.1229 -1.7391  2.2090
  886MPD2    H313048   2.501   3.368  15.976  1.1516 -0.1261 -0.4310
  886MPD2     N13049   2.446   3.069  15.646 -0.5896 -0.3087 -0.3110
  886MPD2    H513050   2.475   2.976  15.620  0.9657 -0.0695  0.5949
  886MPD2    N113051   2.627   2.944  16.058 -0.2982 -0.1742 -0.8083
  886MPD2    H713052   2.617   2.851  16.020 -0.3525 -1.0946  1.4687
  887MPD2     C13053   3.370   2.809  16.239  0.5331  0.5437 -0.3423
  887MPD2    C113054   3.253   2.880  16.220 -0.5025 -0.1193 -0.1957
  887MPD2    C213055   3.261   3.005  16.163 -0.6488  0.0849 -0.1287
  887MPD2    C313056   3.382   3.059  16.136  0.0684  0.2150  0.4597
  887MPD2    C413057   3.501   2.996  16.160 -0.0739  0.4913 -0.1107
  887MPD2    C513058   3.491   2.869  16.203 -0.2324 -0.0303 -0.0179
  887MPD2     H13059   3.169   3.058  16.141 -0.7424 -0.7906 -1.8099
  887MPD2    H113060   3.598   3.035  16.133 -0.0222  1.2983  1.2454
  887MPD2    H213061   3.362   2.709  16.282 -0.2820  1.4739  1.6655
  887MPD2    H313062   3.580   2.808  16.211  0.4736  0.6204 -3.0728
  887MPD2     N13063   3.370   3.188  16.081 -0.0476  0.0731 -0.5403
  887MPD2    H513064   3.273   3.208  16.058 -0.0414  1.8068  0.9180
  887MPD2    N113065   3.128   2.830  16.237  0.1746 -0.1072  0.2174
  887MPD2    H713066   3.057   2.882  16.187  0.6024 -2.0799 -2.4356
  888MPD2     C13067   4.553   2.416  15.029 -0.2680  0.1084  0.0210
  888MPD2    C113068   4.575   2.472  15.157 -0.1685 -0.3960 -0.3866
  888MPD2    C213069   4.642   2.595  15.171  0.0375 -0.5579 -0.2564
  888MPD2    C313070   4.695   2.663  15.061  0.2340 -0.5950 -0.3700
  888MPD2    C413071   4.666   2.612  14.935 -0.0031  0.2405  0.0289
  888MPD2    C513072   4.594   2.494  14.919 -0.0528  0.4651 -0.2704
  888MPD2     H13073   4.661   2.629  15.272  1.0537 -1.5175 -0.1234
  888MPD2    H113074   4.692   2.660  14.841 -0.8241 -1.2097 -0.9293
  888MPD2    H213075   4.494   2.327  15.014 -1.4663  0.6378  1.5659
  888MPD2    H313076   4.579   2.460  14.817 -0.0094 -1.3037  0.3240
  888MPD2     N13077   0.024   2.784  15.074 -0.2954 -0.0267 -0.1958
  888MPD2    H513078   0.040   2.822  15.167 -1.7883  1.6086 -0.5917
  888MPD2    N113079   4.520   2.400  15.272 -0.2773  0.2000  0.2253
  888MPD2    H713080   4.534   2.442  15.364 -3.5771  1.5004  0.1582
  889MPD2     C13081   3.679   2.149  13.206 -0.0242 -0.4730  0.0021
  889MPD2    C113082   3.789   2.197  13.268  0.1192  0.0280  0.3750
  889MPD2    C213083   3.789   2.330  13.283 -0.2016  0.0922 -0.0020
  889MPD2    C313084   3.688   2.416  13.239  0.3112  0.1163  0.3274
  889MPD2    C413085   3.568   2.364  13.186  0.3899 -0.8334 -0.1308
  889MPD2    C513086   3.575   2.227  13.168  0.2984 -0.5329  0.1686
  889MPD2     H13087   3.867   2.371  13.345 -0.3249 -1.0043  0.8695
  889MPD2    H113088   3.487   2.426  13.151  1.2610  1.0518  1.1793
  889MPD2    H213089   3.680   2.048  13.167 -2.3871  0.1599 -1.6233
  889MPD2    H313090   3.500   2.175  13.108  0.0156  0.8567 -0.7026
  889MPD2     N13091   3.708   2.556  13.255  0.1932 -0.0307 -0.1480
  889MPD2    H513092   3.798   2.589  13.290 -0.7674 -0.0556  2.3576
  889MPD2    N113093   3.913   2.123  13.267 -0.5034  0.0020  0.3712
  889MPD2    H713094   3.993   2.176  13.300 -0.0903 -1.2577  1.4058
  890MPD2     C13095   3.898   3.582  14.485 -0.7583 -0.1850 -0.2242
  890MPD2    C113096   4.035   3.583  14.487  0.2351  0.7300  0.3509
  890MPD2    C213097   4.100   3.558  14.608 -0.2110 -0.0888 -0.5440
  890MPD2    C313098   4.024   3.537  14.724 -0.4005 -0.7436 -0.1251
  890MPD2    C413099   3.890   3.526  14.712 -0.4406  0.3175 -0.1544
  890MPD2    C513100   3.825   3.540  14.592 -0.9198 -0.1397  0.1576
  890MPD2     H13101   4.208   3.565  14.607 -0.1669 -0.7233 -0.0871
  890MPD2    H113102   3.822   3.498  14.792  1.0280  1.2453  1.4254
  890MPD2    H213103   3.843   3.603  14.394 -0.7837  1.0725  0.0839
  890MPD2    H313104   3.720   3.513  14.587 -1.4345  2.2928 -2.3052
  890MPD2     N13105   4.092   3.530  14.846  0.2483  0.0429  0.5242
  890MPD2    H513106   4.192   3.548  14.835 -0.0416  0.9850 -0.6894
  890MPD2    N113107   4.104   3.625  14.369  0.5557 -0.2563 -0.1219
  890MPD2    H713108   4.051   3.659  14.289 -0.2914  0.8433  0.9041
  891MPD2     C13109   1.882   2.445  16.813  0.6480 -0.0372  0.3204
  891MPD2    C113110   1.779   2.443  16.909  0.3657  0.4281 -0.2284
  891MPD2    C213111   1.796   2.368  17.029 -0.1272  0.0938  1.3308
  891MPD2    C313112   1.904   2.284  17.048  0.3442  0.2826  0.2924
  891MPD2    C413113   2.003   2.292  16.951 -0.1215  0.3737 -0.1740
  891MPD2    C513114   1.995   2.372  16.837 -0.2863  0.1823  0.2125
  891MPD2     H13115   1.725   2.375  17.110 -1.1068  1.6902  0.3418
  891MPD2    H113116   2.101   2.248  16.959  0.9670  3.0080  0.9531
  891MPD2    H213117   1.871   2.508  16.725 -1.6960 -1.0905 -0.1581
  891MPD2    H313118   2.081   2.380  16.771 -0.5987 -1.2406 -0.3674
  891MPD2     N13119   1.916   2.197  17.164 -0.1704 -0.3737 -0.8525
  891MPD2    H513120   1.847   2.208  17.237  0.9119  1.9488 -0.1887
  891MPD2    N113121   1.664   2.516  16.879 -0.2831  0.4203  0.6150
  891MPD2    H713122   1.666   2.581  16.801 -0.8255 -0.6443 -0.2800
  892MPD2     C13123   2.802   3.387  15.314 -0.7781 -0.6880  0.0680
  892MPD2    C113124   2.752   3.371  15.191  0.2521 -0.1380  0.0978
  892MPD2    C213125   2.813   3.290  15.108 -0.0715  0.0130 -0.1310
  892MPD2    C313126   2.923   3.218  15.142  0.2217  0.2033  0.2757
  892MPD2    C413127   2.983   3.243  15.258  0.1968  0.2420 -0.1556
  892MPD2    C513128   2.916   3.322  15.346  0.2786 -0.4045  0.1095
  892MPD2     H13129   2.772   3.269  15.010 -0.4726 -0.0520  0.0518
  892MPD2    H113130   3.073   3.188  15.284  0.6831  0.4929 -1.3172
  892MPD2    H213131   2.747   3.440  15.391  0.8303 -0.5062  1.0869
  892MPD2    H313132   2.949   3.325  15.450 -3.0042 -2.4884  1.2104
  892MPD2     N13133   2.986   3.118  15.059 -0.3836 -0.0077  0.0338
  892MPD2    H513134   3.079   3.086  15.085  0.4145  1.7689 -0.6579
  892MPD2    N113135   2.626   3.431  15.168  0.5744  0.1312 -0.7470
  892MPD2    H713136   2.582   3.476  15.247  2.6595  1.9982 -0.6653
  893MPD2     C13137   3.851   1.585   1.823  1.1981 -0.0213 -0.0890
  893MPD2    C113138   3.851   1.520   1.704 -0.3509  0.0142 -0.4324
  893MPD2    C213139   3.762   1.408   1.687 -0.0005  0.2778  0.1274
  893MPD2    C313140   3.676   1.378   1.790 -0.0831  0.4972 -0.9452
  893MPD2    C413141   3.684   1.449   1.907  0.0982 -0.6512  0.5180
  893MPD2    C513142   3.765   1.560   1.924  0.9854 -0.1972  0.7027
  893MPD2     H13143   3.748   1.361   1.590  1.9060 -1.1071  0.5303
  893MPD2    H113144   3.623   1.433   1.995 -0.2228  0.9400  0.5827
  893MPD2    H213145   3.913   1.674   1.828  3.0233 -1.2247 -1.5959
  893MPD2    H313146   3.768   1.607   2.021 -1.6444  1.1797  0.1288
  893MPD2     N13147   3.574   1.274   1.777 -1.0946 -0.3145  0.4282
  893MPD2    H513148   3.526   1.247   1.862 -1.0603  0.6215  0.7453
  893MPD2    N113149   3.938   1.565   1.605 -0.4259 -0.4634 -0.1020
  893MPD2    H713150   4.006   1.634   1.637  0.7306 -0.9630 -1.5006
  894MPD2     C13151   1.796   3.952   1.168 -0.4296 -0.1095  0.3608
  894MPD2    C113152   1.781   4.084   1.202 -0.8678 -0.0770 -0.5132
  894MPD2    C213153   1.808   4.178   1.106 -0.6816  0.6739  0.4829
  894MPD2    C313154   1.846   4.131   0.977 -0.0960 -0.0928 -0.3406
  894MPD2    C413155   1.860   3.995   0.951 -0.0887  1.1121  0.4133
  894MPD2    C513156   1.837   3.902   1.047 -0.2173  0.2449 -0.3968
  894MPD2     H13157   1.808   4.284   1.127 -1.0081  0.9284 -0.8606
  894MPD2    H113158   1.896   3.951   0.859  2.2249  1.3548  1.2168
  894MPD2    H213159   1.790   3.885   1.253 -0.0334 -0.0731  0.4171
  894MPD2    H313160   1.853   3.795   1.038 -2.0519  0.0782 -1.6517
  894MPD2     N13161   1.879   4.230   0.881 -0.5700 -0.5772  0.6632
  894MPD2    H513162   1.850   4.323   0.909  1.3229  0.0423  0.5708
  894MPD2    N113163   1.737   4.131   1.321 -0.1505 -0.2991 -0.3673
  894MPD2    H713164   1.728   4.232   1.326 -1.8502 -0.5643  2.3407
  895MPD2     C13165   1.797   2.005  13.954 -0.0159  0.8908 -0.3753
  895MPD2    C113166   1.695   1.909  13.941  0.0253 -0.3360 -0.1848
  895MPD2    C213167   1.715   1.780  13.897 -0.6989  0.2593 -0.5395
  895MPD2    C313168   1.846   1.734  13.879  1.1949 -0.7317  0.1479
  895MPD2    C413169   1.948   1.825  13.901  0.4508 -0.0409  0.0667
  895MPD2    C513170   1.925   1.953  13.949 -0.1576 -0.2639 -0.8263
  895MPD2     H13171   1.634   1.709  13.909  0.3997 -0.6405  1.6701
  895MPD2    H113172   2.054   1.800  13.904  0.3139 -0.4502  1.4374
  895MPD2    H213173   1.771   2.108  13.977  0.4455  0.2585  2.9975
  895MPD2    H313174   2.004   2.022  13.977  0.6656 -1.2352 -0.7453
  895MPD2     N13175   1.882   1.598  13.847 -0.7801  0.6456 -0.6015
  895MPD2    H513176   1.979   1.569  13.844 -0.8992  0.3316 -1.4761
  895MPD2    N113177   1.556   1.946  13.936 -0.4604 -0.2176 -0.3123
  895MPD2    H713178   1.493   1.868  13.919  0.9901 -0.9499 -2.2710
  896MPD2     C13179   3.693   0.534   1.662 -0.9022  0.3168  0.1027
  896MPD2    C113180   3.752   0.493   1.547  0.1552 -0.0907 -0.0210
  896MPD2    C213181   3.665   0.455   1.442 -0.6715  0.0389  0.1518
  896MPD2    C313182   3.530   0.443   1.463  0.1978  0.2115  0.0846
  896MPD2    C413183   3.480   0.461   1.589  0.5324  0.9182 -0.1007
  896MPD2    C513184   3.557   0.521   1.687 -0.0073 -0.0423  0.1082
  896MPD2     H13185   3.698   0.434   1.341  0.9480  0.2545  0.6406
  896MPD2    H113186   3.377   0.444   1.618 -0.0985  0.4603 -2.6513
  896MPD2    H213187   3.756   0.571   1.742 -0.5383 -1.3396  0.5860
  896MPD2    H313188   3.511   0.535   1.784 -0.4124  0.6616 -0.1817
  896MPD2     N13189   3.447   0.395   1.361  0.2031  0.8711  0.4289
  896MPD2    H513190   3.494   0.366   1.276 -1.9375 -0.5928 -0.2445
  896MPD2    N113191   3.894   0.515   1.539 -0.6620 -0.0318 -0.1568
  896MPD2    H713192   3.952   0.546   1.616 -2.9585  0.8477  1.2404
  897MPD2     C13193   0.498   1.874  10.909  0.0165 -0.3240 -0.3283
  897MPD2    C113194   0.439   1.962  10.820 -0.2648  0.6492 -0.0024
  897MPD2    C213195   0.332   2.037  10.864  0.1822 -0.1005 -0.1348
  897MPD2    C313196   0.287   2.040  10.996  0.6755 -0.1973 -0.0221
  897MPD2    C413197   0.355   1.962  11.090  0.3262 -0.0168 -0.3393
  897MPD2    C513198   0.456   1.874  11.038  0.6160 -0.2199  0.9100
  897MPD2     H13199   0.291   2.103  10.788 -2.0958 -0.8857  0.4070
  897MPD2    H113200   0.317   1.965  11.191  2.1308 -0.6562  0.3648
  897MPD2    H213201   0.572   1.800  10.880 -0.3219 -1.0775  0.7311
  897MPD2    H313202   0.516   1.808  11.100 -0.0916 -1.6042  0.1339
  897MPD2     N13203   0.190   2.140  11.025 -0.5680 -0.0441 -0.2516
  897MPD2    H513204   0.154   2.187  10.943  0.9575  0.4688 -0.6210
  897MPD2    N113205   0.498   1.997  10.690  0.2978  0.2464  0.7069
  897MPD2    H713206   0.449   2.065  10.633  3.7079  1.9215 -0.2253
  898MPD2     C13207   2.258   3.099  17.586  0.1667 -0.8016 -0.4483
  898MPD2    C113208   2.365   3.110  17.504  0.4859 -0.0291 -1.1579
  898MPD2    C213209   2.373   3.221  17.417  0.4350  0.6135 -0.0168
  898MPD2    C313210   2.288   3.328  17.426 -0.1764  0.6528  0.2692
  898MPD2    C413211   2.181   3.325  17.513  0.2006  0.3156  0.3255
  898MPD2    C513212   2.165   3.209  17.590 -0.5234  0.1685  0.0246
  898MPD2     H13213   2.461   3.230  17.355  0.3281 -0.0016 -0.2600
  898MPD2    H113214   2.103   3.399  17.515  1.9497  2.1486  1.1230
  898MPD2    H213215   2.227   3.009  17.638  2.0791 -0.6059  0.9986
  898MPD2    H313216   2.071   3.198  17.643 -0.5807 -0.6329 -0.2366
  898MPD2     N13217   2.315   3.437  17.338  0.1537 -0.4261  0.3217
  898MPD2    H513218   2.389   3.428  17.269 -1.1614 -0.3263 -1.0846
  898MPD2    N113219   2.471   3.020  17.505  0.3192 -0.1456 -0.6305
  898MPD2    H713220   2.551   3.045  17.448 -0.4719  2.7016 -0.5103
  899MPD2     C13221   3.090   3.615  16.895 -0.0496 -0.4708 -0.1642
  899MPD2    C113222   3.088   3.681  17.015  0.0479  0.1878  0.4001
  899MPD2    C213223   3.090   3.608  17.132 -0.2064  0.6371  0.1236
  899MPD2    C313224   3.081   3.468  17.125 -0.5587 -0.3901 -0.0645
  899MPD2    C413225   3.069   3.399  17.008 -0.3351  0.0133 -0.0947
  899MPD2    C513226   3.089   3.473  16.889 -1.0327  0.1409  0.0384
  899MPD2     H13227   3.113   3.664  17.222 -0.6432  1.1725 -0.0990
  899MPD2    H113228   3.067   3.290  17.010 -2.4925  0.0488  0.6363
  899MPD2    H213229   3.098   3.670  16.802 -3.1638 -0.4167 -0.4016
  899MPD2    H313230   3.097   3.418  16.795 -0.0504 -1.4788  1.0700
  899MPD2     N13231   3.068   3.386  17.240  0.2079  0.5154  0.0339
  899MPD2    H513232   3.047   3.288  17.227  1.2517  0.5293 -1.7819
  899MPD2    N113233   3.095   3.821  17.024 -0.5311 -1.1002 -0.9980
  899MPD2    H713234   3.098   3.870  16.934  0.1853  0.3991 -0.1659
  900MPD2     C13235   2.649   0.217  12.626 -0.6355 -0.2061  0.1246
  900MPD2    C113236   2.575   0.161  12.730  0.3054  0.5724  0.4305
  900MPD2    C213237   2.436   0.189  12.738 -0.1345  0.2827 -0.0988
  900MPD2    C313238   2.384   0.276  12.646  0.3888 -0.4343  0.4044
  900MPD2    C413239   2.457   0.331  12.541  0.5033  0.2809  0.2876
  900MPD2    C513240   2.589   0.304  12.535  0.9438 -0.1440  0.7487
  900MPD2     H13241   2.376   0.140  12.815 -0.1523  0.0289 -0.2742
  900MPD2    H113242   2.416   0.403  12.471  0.2618 -0.6939 -0.5716
  900MPD2    H213243   2.757   0.207  12.622 -0.8689 -2.7067 -0.2339
  900MPD2    H313244   2.650   0.360  12.465 -0.3648 -0.4172 -0.6119
  900MPD2     N13245   2.242   0.292  12.647 -0.4078 -0.0194 -0.4922
  900MPD2    H513246   2.192   0.231  12.711 -1.1816 -0.3647 -1.4297
  900MPD2    N113247   2.645   0.081  12.824 -0.2395  0.0418  0.6127
  900MPD2    H713248   2.744   0.068  12.806 -0.3842  0.7648 -0.7278
  901MPD2     C13249   2.708   3.875  13.364  0.7989 -0.4658  0.5295
  901MPD2    C113250   2.833   3.919  13.333 -0.0348 -1.5626 -0.9305
  901MPD2    C213251   2.845   4.058  13.306 -0.2923 -0.6462 -0.5382
  901MPD2    C313252   2.736   4.140  13.294 -0.4932 -0.3687  0.2633
  901MPD2    C413253   2.609   4.091  13.311 -0.5327  0.7270  0.2173
  901MPD2    C513254   2.600   3.956  13.345  0.4049  1.2146  0.4109
  901MPD2     H13255   2.935   4.113  13.279  1.2392 -1.2457  3.3057
  901MPD2    H113256   2.517   4.144  13.291 -1.4254 -0.4915  1.1415
  901MPD2    H213257   2.690   3.775  13.401 -1.8267 -0.5194 -0.9297
  901MPD2    H313258   2.499   3.926  13.369  0.2889 -0.6978 -2.4003
  901MPD2     N13259   2.761   4.265  13.241 -0.6924 -0.0712  0.0109
  901MPD2    H513260   2.858   4.278  13.212 -1.4328  1.1468 -1.9522
  901MPD2    N113261   2.939   3.825  13.327 -1.1622  0.3015  0.7211
  901MPD2    H713262   2.917   3.732  13.360  1.9968  0.0932  2.2802
  902MPD2     C13263   2.485   3.117  13.151 -0.4359 -0.0006 -0.2968
  902MPD2    C113264   2.460   3.179  13.027 -0.0928 -0.1669 -0.5725
  902MPD2    C213265   2.477   3.102  12.911  0.7112 -0.8207 -0.0574
  902MPD2    C313266   2.500   2.964  12.910  0.3026  0.4044 -0.2196
  902MPD2    C413267   2.519   2.907  13.034  0.6600 -0.6868  0.2768
  902MPD2    C513268   2.519   2.981  13.153 -0.3646  0.7176  0.3320
  902MPD2     H13269   2.472   3.160  12.819  0.1266  4.4300  3.2584
  902MPD2    H113270   2.513   2.799  13.037 -1.8225 -0.6356 -2.5251
  902MPD2    H213271   2.478   3.168  13.246  1.8092  1.1394 -0.7372
  902MPD2    H313272   2.541   2.932  13.247 -0.3159  0.0142 -0.0431
  902MPD2     N13273   2.485   2.882  12.793  0.3223  0.2493 -1.0519
  902MPD2    H513274   2.526   2.789  12.783  0.9714  0.4653 -0.3976
  902MPD2    N113275   2.438   3.315  13.035 -0.2664  0.1091 -0.3365
  902MPD2    H713276   2.424   3.352  13.129  0.9243  3.8314 -1.6553
  903MPD2     C13277   2.130   2.801  11.938  0.2924  0.5000 -0.3196
  903MPD2    C113278   2.094   2.799  12.075  0.1913 -0.5598 -0.2602
  903MPD2    C213279   1.965   2.833  12.112 -0.8416  0.5634  0.2845
  903MPD2    C313280   1.865   2.842  12.023  0.4144 -0.0699  0.1644
  903MPD2    C413281   1.900   2.855  11.892 -0.3685 -1.3978 -0.4354
  903MPD2    C513282   2.031   2.830  11.854 -0.1668  0.7519 -0.5892
  903MPD2     H13283   1.933   2.859  12.212 -1.2920 -3.1314  1.1022
  903MPD2    H113284   1.828   2.870  11.812 -0.4973  1.0737  0.1413
  903MPD2    H213285   2.236   2.797  11.917  0.8435  2.2093  2.0776
  903MPD2    H313286   2.053   2.827  11.748 -0.6594 -0.8649 -0.6394
  903MPD2     N13287   1.734   2.842  12.066 -0.3397 -0.6270  0.2043
  903MPD2    H513288   1.727   2.839  12.167 -0.3882  0.0700  0.2240
  903MPD2    N113289   2.201   2.775  12.170  0.0861  0.2490  0.0326
  903MPD2    H713290   2.287   2.730  12.140  0.9578  1.7228  0.3064
  904MPD2     C13291   1.821   1.546  14.630  0.7241 -0.1423 -0.7331
  904MPD2    C113292   1.810   1.680  14.604  0.8056 -0.0626  0.3626
  904MPD2    C213293   1.920   1.756  14.635 -0.5558 -0.3186  0.1232
  904MPD2    C313294   2.040   1.710  14.684  0.3115  0.1456  0.1522
  904MPD2    C413295   2.052   1.577  14.706 -0.2188  0.5550 -0.6068
  904MPD2    C513296   1.939   1.498  14.688 -0.0143 -0.2745  0.3626
  904MPD2     H13297   1.907   1.861  14.611 -0.7448 -0.3177  0.2286
  904MPD2    H113298   2.141   1.527  14.742  0.0491  0.0025 -2.0132
  904MPD2    H213299   1.742   1.474  14.612 -1.3856  1.5337  1.7167
  904MPD2    H313300   1.944   1.393  14.714  2.4492 -0.0535  0.8210
  904MPD2     N13301   2.137   1.803  14.721 -0.0590  0.3370 -0.1476
  904MPD2    H513302   2.107   1.900  14.719  1.3257  0.7709  0.1422
  904MPD2    N113303   1.695   1.747  14.548 -0.0372 -0.0581 -0.5720
  904MPD2    H713304   1.707   1.844  14.519  0.2308 -0.8179 -3.0307
  905MPD2     C13305   1.206   1.330  14.101 -0.1392 -0.2829  0.3092
  905MPD2    C113306   1.304   1.431  14.073 -0.0705 -0.1941  0.8681
  905MPD2    C213307   1.413   1.408  13.994  0.1942  0.2862 -0.3149
  905MPD2    C313308   1.426   1.275  13.944 -0.9998  1.0152  0.3902
  905MPD2    C413309   1.340   1.171  13.979 -0.5162  0.5633 -0.3407
  905MPD2    C513310   1.226   1.203  14.055 -0.2052  0.3523 -0.7388
  905MPD2     H13311   1.491   1.479  13.969  0.5005  0.5096  1.2582
  905MPD2    H113312   1.341   1.071  13.937 -0.5532 -0.6627  2.5755
  905MPD2    H213313   1.124   1.357  14.166 -0.3906 -2.1727  0.7937
  905MPD2    H313314   1.156   1.121  14.068  0.1372  0.0912 -0.5354
  905MPD2     N13315   1.542   1.251  13.865  0.0967 -0.4244 -0.4690
  905MPD2    H513316   1.593   1.328  13.822  0.9441 -0.3821  0.5898
  905MPD2    N113317   1.282   1.553  14.135  0.2589  0.3462  0.6965
  905MPD2    H713318   1.204   1.556  14.200  0.3321  2.9043  0.6850
  906MPD2     C13319   3.589   2.721  10.896 -0.5910 -0.0461  0.5861
  906MPD2    C113320   3.719   2.677  10.891 -0.3395 -0.1528  0.6187
  906MPD2    C213321   3.759   2.571  10.965 -0.3110  0.3754  0.7954
  906MPD2    C313322   3.675   2.502  11.042 -0.2022  0.3074  0.7620
  906MPD2    C413323   3.546   2.541  11.048  0.1505  0.6838  0.1124
  906MPD2    C513324   3.511   2.653  10.980  0.5343  0.6457 -0.3128
  906MPD2     H13325   3.860   2.532  10.962  0.2029  1.8572 -1.3575
  906MPD2    H113326   3.484   2.480  11.113  1.5844  1.3449  2.0793
  906MPD2    H213327   3.546   2.795  10.830 -0.9973 -1.7521 -1.0411
  906MPD2    H313328   3.407   2.683  10.991  0.0048 -1.3610  0.2450
  906MPD2     N13329   3.730   2.406  11.129  0.2623  0.2098  0.4443
  906MPD2    H513330   3.827   2.383  11.114  0.5995  2.0112 -0.1066
  906MPD2    N113331   3.817   2.730  10.809  0.5605  0.3747 -0.4676
  906MPD2    H713332   3.904   2.679  10.801 -0.5804 -1.9551  1.8276
  907MPD2     C13333   2.630   1.506  15.804  0.5594  0.0715 -1.1318
  907MPD2    C113334   2.664   1.402  15.728 -0.1063 -0.4906  0.3009
  907MPD2    C213335   2.785   1.336  15.761  0.6553  0.2778  0.1085
  907MPD2    C313336   2.856   1.359  15.874  0.5302  0.4069  0.0183
  907MPD2    C413337   2.806   1.463  15.955  0.6708  0.0813  0.3072
  907MPD2    C513338   2.705   1.541  15.910 -0.2281  0.7232  0.0552
  907MPD2     H13339   2.823   1.258  15.696  1.3351  0.4128  0.3456
  907MPD2    H113340   2.860   1.489  16.046  0.6559  1.3535 -0.0583
  907MPD2    H213341   2.550   1.575  15.780  0.3007  1.4269  3.6793
  907MPD2    H313342   2.676   1.623  15.976  0.1750  1.0164 -0.1340
  907MPD2     N13343   2.960   1.273  15.913  0.1183 -0.5581  0.1983
  907MPD2    H513344   2.989   1.191  15.861 -1.3502 -0.0233 -1.4537
  907MPD2    N113345   2.593   1.355  15.618  0.4228  0.1857  0.2599
  907MPD2    H713346   2.635   1.273  15.576  0.6646  0.2568  0.3619
  908MPD2     C13347   0.833   2.190   9.720  0.5444  0.0563 -0.3640
  908MPD2    C113348   0.758   2.088   9.780 -0.3482  0.8266 -0.5530
  908MPD2    C213349   0.733   2.081   9.914  0.2232  0.0488  0.1095
  908MPD2    C313350   0.796   2.178   9.995 -0.0950  0.0651 -0.6510
  908MPD2    C413351   0.885   2.268   9.945 -0.2605  1.1737  0.5539
  908MPD2    C513352   0.907   2.271   9.808 -0.3745 -0.0510 -0.1840
  908MPD2     H13353   0.657   2.018   9.961  0.6485 -0.1875  0.4825
  908MPD2    H113354   0.932   2.345  10.006 -1.0412  0.4016  2.1279
  908MPD2    H213355   0.865   2.181   9.617 -0.4692  1.0954 -0.7724
  908MPD2    H313356   0.972   2.351   9.772 -0.1507 -0.8345 -1.5143
  908MPD2     N13357   0.775   2.188  10.136  0.2198 -0.1633 -0.1291
  908MPD2    H513358   0.822   2.261  10.189 -0.4359  0.4731 -0.4373
  908MPD2    N113359   0.691   2.003   9.695  0.3167  0.2840  0.1177
  908MPD2    H713360   0.689   2.030   9.597  3.2909  2.9047  0.7489
  909MPD2     C13361   0.808   0.167  11.997  0.4323  0.1885  0.8722
  909MPD2    C113362   0.853   0.296  12.026  0.2149 -0.1193  0.3148
  909MPD2    C213363   0.804   0.365  12.136  0.3630  0.4656  0.3851
  909MPD2    C313364   0.705   0.309  12.208  0.1013  0.0033 -0.2503
  909MPD2    C413365   0.654   0.191  12.176  0.3106 -0.0366 -0.0732
  909MPD2    C513366   0.713   0.112  12.079  0.6162 -0.1896 -0.1066
  909MPD2     H13367   0.840   0.465  12.158  2.1543  0.0114 -0.4311
  909MPD2    H113368   0.567   0.148  12.223 -0.1180 -0.6319 -1.3930
  909MPD2    H213369   0.838   0.107  11.912  0.7510  2.3482 -0.5432
  909MPD2    H313370   0.683   0.013  12.045  0.3412  0.2214 -1.0705
  909MPD2     N13371   0.628   0.397  12.295  0.2068 -0.8113  0.2580
  909MPD2    H513372   0.656   0.494  12.284  1.1490 -0.9627  1.2794
  909MPD2    N113373   0.938   0.361  11.931  0.1450  0.4101 -0.6071
  909MPD2    H713374   0.951   0.461  11.945 -3.8542  1.0117 -1.1310
  910MPD2     C13375   2.666   1.998  16.077 -0.3685 -0.5149 -0.6583
  910MPD2    C113376   2.569   1.923  16.125 -0.1611  0.1685 -0.2671
  910MPD2    C213377   2.437   1.939  16.084 -0.0692  0.1533 -0.5475
  910MPD2    C313378   2.405   2.043  16.001  0.1007 -0.4086  0.1219
  910MPD2    C413379   2.507   2.130  15.957  0.7605  0.4085 -0.2905
  910MPD2    C513380   2.633   2.097  15.997 -0.0387 -0.0049  0.3002
  910MPD2     H13381   2.371   1.855  16.105 -0.8025  1.3248  1.7451
  910MPD2    H113382   2.484   2.215  15.893 -0.0111 -0.1765 -0.8019
  910MPD2    H213383   2.773   1.989  16.093 -0.7285 -2.1878  0.7656
  910MPD2    H313384   2.702   2.169  15.956 -0.1170 -0.2606 -0.2789
  910MPD2     N13385   2.275   2.069  15.963 -0.3029 -0.6658 -0.2911
  910MPD2    H513386   2.266   2.160  15.919  2.6108 -0.3096 -0.1577
  910MPD2    N113387   2.595   1.808  16.202  0.2302  0.0047 -0.0636
  910MPD2    H713388   2.516   1.749  16.222 -1.3380  2.4479  0.9923
  911MPD2     C13389   0.062   2.204  16.161  0.1032  0.4730 -0.3961
  911MPD2    C113390   0.100   2.264  16.280 -0.4389  0.6462  0.7686
  911MPD2    C213391   0.056   2.393  16.307  0.4317 -1.2207 -0.4818
  911MPD2    C313392   4.703   2.448  16.225 -0.5490 -0.3320 -0.1125
  911MPD2    C413393   4.663   2.392  16.111  0.0659  0.4947  0.9038
  911MPD2    C513394   4.717   2.270  16.078 -0.5360 -0.8440  0.3057
  911MPD2     H13395   0.090   2.451  16.392 -0.0135 -1.6690 -0.0018
  911MPD2    H113396   4.587   2.432  16.044 -1.9651 -1.4348  2.0448
  911MPD2    H213397   0.082   2.099  16.141  0.1506  0.2300  0.9076
  911MPD2    H313398   4.690   2.228  15.982 -0.5147  0.9916 -0.4908
  911MPD2     N13399   4.653   2.576  16.255 -0.6368  0.2990 -0.3780
  911MPD2    H513400   4.584   2.610  16.189  0.0698  1.9625 -0.2589
  911MPD2    N113401   0.186   2.184  16.361 -1.1845  0.4576  0.0561
  911MPD2    H713402   0.206   2.088  16.333  1.3676  0.5847  1.5290
  912MPD2     C13403   4.321   2.482  15.882  0.1503 -0.2066  0.4913
  912MPD2    C113404   4.301   2.491  16.016 -1.0737  0.4442 -0.5125
  912MPD2    C213405   4.307   2.368  16.083 -0.0807 -0.5179  0.2505
  912MPD2    C313406   4.348   2.254  16.019 -0.0259  0.0400 -0.0671
  912MPD2    C413407   4.363   2.249  15.884 -0.7875  0.1029  0.1140
  912MPD2    C513408   4.332   2.362  15.815  0.6656 -0.3889  0.5989
  912MPD2     H13409   4.298   2.364  16.191 -0.5165 -4.2485  0.0775
  912MPD2    H113410   4.396   2.165  15.823 -1.9309  1.3398 -2.1943
  912MPD2    H213411   4.325   2.575  15.826 -1.2198 -1.2021 -1.2572
  912MPD2    H313412   4.350   2.362  15.708 -0.1122 -0.6105  0.4651
  912MPD2     N13413   4.373   2.142  16.102 -0.1755 -0.2578 -0.1444
  912MPD2    H513414   4.391   2.169  16.198  0.3942  0.7750 -0.5386
  912MPD2    N113415   4.301   2.626  16.078  0.7525 -0.2019 -0.7157
  912MPD2    H713416   4.312   2.710  16.021 -2.7039 -0.5363 -1.8653
  913MPD2     C13417   4.632   3.542  10.619  0.0867 -0.1980 -0.7238
  913MPD2    C113418   4.686   3.666  10.635  0.8363  0.6660 -0.1346
  913MPD2    C213419   4.641   3.769  10.555 -0.5215 -0.4119  0.3285
  913MPD2    C313420   4.529   3.755  10.475 -0.0436  0.4352  0.0485
  913MPD2    C413421   4.476   3.630  10.462  0.3121  0.8122 -0.1776
  913MPD2    C513422   4.532   3.519  10.521  0.3346  1.0666 -0.6222
  913MPD2     H13423   4.685   3.868  10.558  0.7886 -0.9583 -1.1741
  913MPD2    H113424   4.401   3.617  10.386  1.1262 -0.4880 -0.7480
  913MPD2    H213425   4.676   3.453  10.661 -1.1285  0.4465  1.9138
  913MPD2    H313426   4.511   3.417  10.491  0.5114  1.3628 -1.7695
  913MPD2     N13427   4.478   3.850  10.383 -0.0725 -0.1564 -0.7623
  913MPD2    H513428   4.407   3.825  10.314 -0.2942 -1.0316 -0.2139
  913MPD2    N113429   0.052   3.671  10.719  0.1344  0.3528  0.4731
  913MPD2    H713430   0.100   3.590  10.758 -0.5533 -0.5802 -0.6187
  914MPD2     C13431   3.005   3.852  12.446  0.3886 -0.3661 -0.1618
  914MPD2    C113432   3.052   3.930  12.543  0.4308  0.1741  0.0487
  914MPD2    C213433   3.085   3.873  12.665  0.3006  0.0101 -0.1019
  914MPD2    C313434   3.085   3.734  12.676  0.1506 -0.7038 -0.9801
  914MPD2    C413435   3.043   3.654  12.575 -0.4798  0.2721  0.1566
  914MPD2    C513436   3.008   3.722  12.455  0.2198  0.5082 -0.3662
  914MPD2     H13437   3.100   3.935  12.752  1.2787  1.0800 -1.0321
  914MPD2    H113438   3.050   3.546  12.573  2.3942  0.5089 -2.6622
  914MPD2    H213439   2.973   3.889  12.349  0.7712  0.3909 -0.0034
  914MPD2    H313440   2.963   3.657  12.380  0.1857 -0.5331  0.5583
  914MPD2     N13441   3.124   3.685  12.799  0.0966 -0.4271  0.8750
  914MPD2    H513442   3.171   3.751  12.861 -0.4282  0.2076  0.6010
  914MPD2    N113443   3.034   4.071  12.526  0.2635  0.3598 -0.7169
  914MPD2    H713444   2.985   4.104  12.443 -0.2914 -0.2971 -0.6548
  915MPD2     C13445   1.001   3.781  16.105 -0.5115  0.4070  0.2377
  915MPD2    C113446   0.879   3.838  16.062  0.1266  0.2157 -0.0911
  915MPD2    C213447   0.819   3.936  16.142 -0.1681 -0.7648 -0.1553
  915MPD2    C313448   0.876   3.964  16.259  1.1169  0.2148  0.3191
  915MPD2    C413449   1.001   3.923  16.298  0.3965  0.0022 -0.5853
  915MPD2    C513450   1.062   3.828  16.215  0.1337  0.2175  0.3107
  915MPD2     H13451   0.726   3.981  16.109  0.4413 -1.8832 -3.4213
  915MPD2    H113452   1.058   3.954  16.386  0.9332 -3.0416  0.1382
  915MPD2    H213453   1.043   3.699  16.047  0.8499  0.5105  1.0849
  915MPD2    H313454   1.158   3.792  16.249  0.4257  1.9908  1.3628
  915MPD2     N13455   0.801   4.039  16.346 -0.0098  0.5690 -1.0791
  915MPD2    H513456   0.702   4.043  16.326  0.4637  0.3837 -3.4262
  915MPD2    N113457   0.828   3.791  15.943 -0.0170 -0.1513  0.1749
  915MPD2    H713458   0.886   3.720  15.899  0.4230 -0.0350  0.5753
  916MPD2     C13459   4.073   1.858  15.847 -0.4867  0.3518 -0.6914
  916MPD2    C113460   4.069   1.791  15.962  0.1922  0.2282  0.1790
  916MPD2    C213461   4.157   1.683  15.977  0.0664  0.2520  0.6147
  916MPD2    C313462   4.236   1.637  15.874  0.6947 -0.5584 -0.0913
  916MPD2    C413463   4.230   1.696  15.752 -0.6428 -0.8789  0.0085
  916MPD2    C513464   4.152   1.799  15.748  0.8173  0.6297 -0.2785
  916MPD2     H13465   4.166   1.630  16.071 -0.1262  0.3094  0.6661
  916MPD2    H113466   4.287   1.663  15.666 -0.0553  0.0398  0.0392
  916MPD2    H213467   4.008   1.942  15.828 -1.0384  0.3061  0.9702
  916MPD2    H313468   4.149   1.862  15.660  1.3968  1.7045  0.4721
  916MPD2     N13469   4.328   1.538  15.903  0.6369  0.1579  0.2806
  916MPD2    H513470   4.365   1.531  15.997  0.4114  5.8254  0.7809
  916MPD2    N113471   3.971   1.831  16.061  0.1341  0.1125 -0.3921
  916MPD2    H713472   3.913   1.910  16.037 -1.2094 -0.8344 -0.2619
  917MPD2     C13473   4.711   4.655  12.015  0.6446  0.2888  0.0476
  917MPD2    C113474   4.611   4.654  11.921 -0.1397 -0.0154  0.9193
  917MPD2    C213475   4.645   4.683  11.791 -0.4075 -0.0943 -0.2605
  917MPD2    C313476   0.031   4.697  11.754  0.2737 -0.1180 -0.2581
  917MPD2    C413477   0.132   4.700  11.849 -0.5333  0.0736  0.4138
  917MPD2    C513478   0.095   4.685  11.976  0.1441  0.4336  0.1907
  917MPD2     H13479   4.572   4.683  11.711 -0.7540 -0.7045  0.0601
  917MPD2    H113480   0.238   4.717  11.832 -0.3252  1.0544  2.5989
  917MPD2    H213481   4.688   4.634  12.119 -0.7134 -1.2472 -0.5716
  917MPD2    H313482   0.174   4.703  12.048  0.1362 -0.1452  0.3475
  917MPD2     N13483   0.073   4.711  11.620 -0.8307 -0.1051 -0.1941
  917MPD2    H513484   0.174   4.716  11.607 -0.9810 -0.2265 -1.4300
  917MPD2    N113485   4.480   4.614  11.963 -0.8106  0.3550  0.3809
  917MPD2    H713486   4.467   4.600  12.063 -0.2102  0.1998  0.4327
  918MPD2     C13487   4.124   0.515  12.307 -0.4506 -0.1051  0.4240
  918MPD2    C113488   4.219   0.435  12.363 -0.1084 -0.1931 -0.1188
  918MPD2    C213489   4.212   0.299  12.332  0.1890 -0.0929  0.1815
  918MPD2    C313490   4.104   0.245  12.262  0.4512  0.0268 -0.1131
  918MPD2    C413491   4.003   0.331  12.217 -0.1994 -0.1576 -0.1553
  918MPD2    C513492   4.021   0.467  12.233 -0.4725 -0.2826  0.7827
  918MPD2     H13493   4.287   0.233  12.374 -1.0945 -0.5259  1.7563
  918MPD2    H113494   3.920   0.303  12.153  0.0569 -0.8215 -0.2021
  918MPD2    H213495   4.134   0.623  12.309  0.2044 -0.1661  0.4192
  918MPD2    H313496   3.950   0.541  12.198 -0.3885 -0.2317  0.7184
  918MPD2     N13497   4.113   0.111  12.229  0.3677  0.7890 -0.7552
  918MPD2    H513498   4.202   0.071  12.256  0.4235  2.1826  1.1393
  918MPD2    N113499   4.335   0.486  12.426 -0.3379 -0.4293 -0.2839
  918MPD2    H713500   4.400   0.417  12.462  1.3807  1.8888  0.9786
  919MPD2     C13501   0.240   3.666  12.134 -0.7872  0.3316 -0.1409
  919MPD2    C113502   0.254   3.535  12.107  0.1274 -0.4233 -0.3812
  919MPD2    C213503   0.314   3.500  11.986 -0.3280  0.0859  0.3509
  919MPD2    C313504   0.357   3.601  11.896 -0.2987  0.6900 -0.6698
  919MPD2    C413505   0.355   3.735  11.934  1.3113 -0.5860 -0.6139
  919MPD2    C513506   0.303   3.762  12.062 -0.4079 -0.1395 -0.5528
  919MPD2     H13507   0.316   3.399  11.945 -2.8222  0.6530 -1.1497
  919MPD2    H113508   0.397   3.811  11.868  0.8895 -0.1273 -0.3546
  919MPD2    H213509   0.181   3.704  12.217  1.5218  2.5842  0.4980
  919MPD2    H313510   0.291   3.868  12.083 -0.2822  0.0379 -1.3606
  919MPD2     N13511   0.411   3.577  11.764 -0.4096  0.3244  0.2781
  919MPD2    H513512   0.427   3.660  11.707  0.1115  0.1255  0.1316
  919MPD2    N113513   0.179   3.440  12.180 -0.2914 -0.1804  0.0761
  919MPD2    H713514   0.164   3.345  12.147 -0.0315  0.2537 -1.3042
  920MPD2     C13515   4.690   3.955  11.037  0.8144 -0.8901  0.1885
  920MPD2    C113516   4.642   3.830  11.075  0.0054  0.0661 -0.5041
  920MPD2    C213517   4.719   3.737  11.146  0.1912  0.1302  0.8468
  920MPD2    C313518   0.104   3.765  11.180 -0.3506 -0.2938 -0.3144
  920MPD2    C413519   0.153   3.893  11.153  0.1576 -0.4263 -0.6096
  920MPD2    C513520   0.075   3.981  11.077 -0.1417  0.4575  0.4221
  920MPD2     H13521   4.669   3.645  11.175 -0.5330  0.3167  0.1891
  920MPD2    H113522   0.246   3.931  11.194  1.7643 -0.9803 -3.7797
  920MPD2    H213523   4.637   4.041  10.999  0.8055 -0.8307  0.3350
  920MPD2    H313524   0.104   4.086  11.071  0.6284  0.3195  1.8295
  920MPD2     N13525   0.170   3.668  11.261  0.0760 -0.2434  0.4152
  920MPD2    H513526   0.118   3.587  11.292  0.7021 -0.2006  1.6010
  920MPD2    N113527   4.511   3.797  11.038  0.0122  0.6862 -0.1645
  920MPD2    H713528   4.480   3.702  11.059 -0.5258  0.5484 -1.6236
  921MPD2     C13529   0.839   2.588  17.104 -0.0548 -0.1792 -0.3921
  921MPD2    C113530   0.896   2.555  16.986 -0.3225 -0.4834  0.6552
  921MPD2    C213531   0.835   2.470  16.893 -0.8534  0.3554  0.4093
  921MPD2    C313532   0.710   2.417  16.920 -0.3544  0.5684  0.4316
  921MPD2    C413533   0.649   2.453  17.040  0.2192  1.1967 -0.0641
  921MPD2    C513534   0.715   2.529  17.138 -0.2681  0.3863  0.4840
  921MPD2     H13535   0.876   2.450  16.795 -1.6730 -0.1023  0.1509
  921MPD2    H113536   0.554   2.406  17.064  0.7155 -0.8714 -2.0901
  921MPD2    H213537   0.892   2.652  17.173  3.0287 -3.0790 -0.0857
  921MPD2    H313538   0.672   2.549  17.235  2.8682  4.4107  1.0062
  921MPD2     N13539   0.650   2.335  16.824 -0.1359 -0.8125  0.0822
  921MPD2    H513540   0.709   2.325  16.742 -0.8879  2.0686 -0.7956
  921MPD2    N113541   1.025   2.617  16.961 -0.1906  0.2631 -0.0725
  921MPD2    H713542   1.073   2.669  17.034  0.6901 -0.9055  0.1887
  922MPD2     C13543   1.367   0.952  17.206  0.0418  0.4067 -0.4107
  922MPD2    C113544   1.392   0.923  17.341  0.2881 -0.5042  0.4151
  922MPD2    C213545   1.439   0.793  17.379  0.3519 -0.0090  0.2380
  922MPD2    C313546   1.453   0.696  17.278 -0.2840 -0.3424  0.2020
  922MPD2    C413547   1.439   0.733  17.144 -0.0380 -0.6176 -0.4598
  922MPD2    C513548   1.404   0.857  17.115 -0.4307  0.0935  0.5185
  922MPD2     H13549   1.456   0.765  17.482 -0.4123  0.0717  0.3865
  922MPD2    H113550   1.442   0.658  17.066  0.4401  0.4072 -1.4201
  922MPD2    H213551   1.318   1.043  17.172  0.9743  1.0898  0.1106
  922MPD2    H313552   1.388   0.877  17.009  0.8067 -2.3399 -0.1304
  922MPD2     N13553   1.486   0.557  17.316 -0.2724 -0.3128 -0.2460
  922MPD2    H513554   1.514   0.544  17.413  0.6032 -1.2473 -0.6224
  922MPD2    N113555   1.366   1.019  17.447 -0.1873 -0.2506 -0.1694
  922MPD2    H713556   1.413   0.998  17.534 -0.3493 -1.1059 -0.2877
  923MPD2     C13557   2.981   3.051   8.843 -0.0043  0.3460 -0.1468
  923MPD2    C113558   3.014   3.091   8.971  0.3137  0.1102 -0.3352
  923MPD2    C213559   3.122   3.019   9.035  0.3129  0.0924  0.0030
  923MPD2    C313560   3.186   2.912   8.969 -0.0566 -0.0602 -0.0449
  923MPD2    C413561   3.138   2.869   8.854  0.4151 -0.1534 -0.7284
  923MPD2    C513562   3.044   2.941   8.786  0.0977  0.0390 -0.8691
  923MPD2     H13563   3.162   3.066   9.125 -0.2844 -1.9565  1.3395
  923MPD2    H113564   3.194   2.790   8.804 -0.1565 -2.4290  2.1935
  923MPD2    H213565   2.909   3.108   8.784  0.7402  0.9774 -0.4534
  923MPD2    H313566   3.021   2.908   8.686  1.8865  2.7706 -2.1588
  923MPD2     N13567   3.301   2.853   9.022 -0.1402 -0.2453 -0.4333
  923MPD2    H513568   3.315   2.761   8.981  4.6965  1.1452 -2.0150
  923MPD2    N113569   2.950   3.205   9.027  0.3910 -0.8675 -0.2481
  923MPD2    H713570   2.893   3.260   8.963 -1.2472 -0.0746  1.9227
  924MPD2     C13571   2.826   0.520  15.814  0.1153 -0.7258 -0.3155
  924MPD2    C113572   2.852   0.535  15.950 -0.0519  0.0598  0.1062
  924MPD2    C213573   2.956   0.621  15.979  0.8238 -0.1777 -0.8302
  924MPD2    C313574   3.032   0.688  15.878 -0.6965 -0.1287 -0.6003
  924MPD2    C413575   3.004   0.674  15.743  0.2432  0.9202 -0.3896
  924MPD2    C513576   2.898   0.594  15.719 -0.2115  0.2628 -0.6003
  924MPD2     H13577   2.975   0.636  16.085  0.7110  0.5084 -0.9091
  924MPD2    H113578   3.058   0.715  15.659  1.8471  0.6879  0.5367
  924MPD2    H213579   2.736   0.469  15.781  0.0866 -0.7384 -0.2164
  924MPD2    H313580   2.867   0.577  15.617 -2.0542 -1.1371  0.1895
  924MPD2     N13581   3.132   0.778  15.924  0.8587  0.0801  0.0541
  924MPD2    H513582   3.137   0.796  16.024  1.7024  2.2303 -0.3718
  924MPD2    N113583   2.778   0.480  16.055 -0.2323 -0.1375  0.0270
  924MPD2    H713584   2.808   0.513  16.146  2.2523 -1.1370 -0.4166
  925MPD2     C13585   1.824   3.211  15.026  0.6514  0.5391  0.1246
  925MPD2    C113586   1.694   3.247  14.982  0.5284 -0.4291 -0.3037
  925MPD2    C213587   1.606   3.301  15.087  0.7429 -0.0651  0.2279
  925MPD2    C313588   1.650   3.319  15.214  0.4353 -0.5527 -0.0651
  925MPD2    C413589   1.785   3.295  15.237 -0.1818 -0.1931  0.8371
  925MPD2    C513590   1.874   3.254  15.143  0.2493 -0.2035  0.1315
  925MPD2     H13591   1.508   3.321  15.046  0.6824  1.4106  1.1145
  925MPD2    H113592   1.820   3.310  15.338  1.1497 -3.0782  0.7840
  925MPD2    H213593   1.902   3.169  14.964 -0.5000  2.2662 -2.4683
  925MPD2    H313594   1.972   3.231  15.182 -0.2102 -0.8314  0.9163
  925MPD2     N13595   1.559   3.325  15.322 -0.4208 -0.0523 -0.0460
  925MPD2    H513596   1.605   3.317  15.412  2.7953  5.0573 -1.2314
  925MPD2    N113597   1.636   3.220  14.851 -0.3460 -0.7188  0.0941
  925MPD2    H713598   1.537   3.237  14.835 -0.5862 -0.8754  1.4022
  926MPD2     C13599   4.538   1.112  13.876  0.4701 -0.1126 -0.0009
  926MPD2    C113600   4.669   1.146  13.894 -0.0610 -0.1806  0.1236
  926MPD2    C213601   0.002   1.131  13.779 -0.4859 -0.1404  0.3850
  926MPD2    C313602   4.686   1.128  13.653 -0.4974 -0.4230  0.2647
  926MPD2    C413603   4.554   1.097  13.643  0.2835  0.0259  0.2529
  926MPD2    C513604   4.480   1.082  13.754  0.6938 -0.1656  0.2202
  926MPD2     H13605   0.110   1.136  13.787 -0.4013 -0.0132 -0.9188
  926MPD2    H113606   4.507   1.073  13.548 -0.4223 -1.4543  0.9943
  926MPD2    H213607   4.480   1.106  13.967 -0.9441  0.3285 -0.8837
  926MPD2    H313608   4.375   1.059  13.744  1.1611 -1.7825 -0.9986
  926MPD2     N13609   0.022   1.131  13.536  0.1018 -0.3600  0.0981
  926MPD2    H513610   0.122   1.136  13.551  0.5778  0.1065 -3.3372
  926MPD2    N113611   4.727   1.174  14.015  0.1002  0.5239 -0.1085
  926MPD2    H713612   0.083   1.190  14.016  0.0730  0.8005 -1.2806
  927MPD2     C13613   0.167   3.620  17.429 -0.1550 -0.8324  0.1957
  927MPD2    C113614   0.108   3.748  17.443  0.0721  0.6960  0.5519
  927MPD2    C213615   0.174   3.858  17.391 -0.3989 -0.1205  0.4332
  927MPD2    C313616   0.300   3.845  17.324 -0.2384 -0.0540  0.5950
  927MPD2    C413617   0.342   3.718  17.297  0.1671 -0.6078  0.2904
  927MPD2    C513618   0.280   3.611  17.353  0.3373 -0.2245 -0.3928
  927MPD2     H13619   0.146   3.961  17.406 -2.0312 -0.1435 -2.3784
  927MPD2    H113620   0.438   3.698  17.251  0.0586 -1.0482  0.2589
  927MPD2    H213621   0.112   3.530  17.456 -0.5766 -0.4725  0.5405
  927MPD2    H313622   0.323   3.512  17.347 -0.1930 -0.3133 -2.7252
  927MPD2     N13623   0.382   3.959  17.296  0.2736 -0.2033 -0.0426
  927MPD2    H513624   0.338   4.050  17.307  3.9343  1.5179  0.5198
  927MPD2    N113625   4.734   3.769  17.524 -0.6656 -0.7269 -0.1255
  927MPD2    H713626   4.692   3.686  17.567 -0.9042 -1.3458 -1.5699
  928MPD2     C13627   2.552   2.360   0.886  0.8687  0.2937  0.3371
  928MPD2    C113628   2.512   2.426   0.769  1.0611  0.1719 -0.2604
  928MPD2    C213629   2.604   2.459   0.670  1.1999  0.7318 -0.2934
  928MPD2    C313630   2.727   2.403   0.687  0.4556  0.7396 -0.6450
  928MPD2    C413631   2.773   2.343   0.803  0.1424  0.6089 -0.7433
  928MPD2    C513632   2.679   2.312   0.904 -0.3190  0.0949  0.1945
  928MPD2     H13633   2.580   2.538   0.600 -2.4276  1.2431  1.5217
  928MPD2    H113634   2.876   2.316   0.823 -0.3494 -0.8503 -0.2135
  928MPD2    H213635   2.477   2.350   0.964 -2.9816  2.6903 -3.0095
  928MPD2    H313636   2.712   2.271   0.998  2.6784  2.7142  0.2951
  928MPD2     N13637   2.835   2.433   0.598  0.4198 -0.7087 -0.1519
  928MPD2    H513638   2.924   2.423   0.646  0.6423 -2.6220 -0.9668
  928MPD2    N113639   2.373   2.460   0.750 -0.3920  0.1243  0.4150
  928MPD2    H713640   2.313   2.434   0.827  2.1286 -0.5752  2.1387
  929MPD2     C13641   3.547   2.503  10.421 -0.3834  0.1090  0.2188
  929MPD2    C113642   3.456   2.408  10.380  0.0273 -0.5369  0.2835
  929MPD2    C213643   3.385   2.433  10.266 -0.0947  0.9233 -0.6552
  929MPD2    C313644   3.394   2.557  10.202 -0.0583  0.2433 -0.1767
  929MPD2    C413645   3.489   2.647  10.247  0.3227  0.6248 -0.5909
  929MPD2    C513646   3.566   2.616  10.351  0.8680  0.3252 -0.6080
  929MPD2     H13647   3.308   2.368  10.228  0.3203  1.3633 -2.2579
  929MPD2    H113648   3.505   2.742  10.196  0.9433  1.0438  0.3923
  929MPD2    H213649   3.606   2.475  10.507 -0.1464 -0.3653 -0.0975
  929MPD2    H313650   3.653   2.679  10.364  0.5014  0.2888  2.0918
  929MPD2     N13651   3.313   2.608  10.098  0.4169 -0.2598  0.2978
  929MPD2    H513652   3.323   2.706  10.076  3.4487 -0.9248 -1.3701
  929MPD2    N113653   3.418   2.308  10.479 -0.1329  0.2079  0.1833
  929MPD2    H713654   3.471   2.299  10.565 -2.2893 -0.7735  1.4186
  930MPD2     C13655   0.086   3.980  14.180  0.8606  0.3090  0.1953
  930MPD2    C113656   0.079   4.074  14.077  0.0375  0.5333  0.1509
  930MPD2    C213657   0.025   4.028  13.953 -0.1910 -0.4817 -0.1375
  930MPD2    C313658   0.001   3.890  13.931 -0.5491  0.3070 -0.1151
  930MPD2    C413659   0.024   3.797  14.031 -0.1257  0.0850 -1.2924
  930MPD2    C513660   0.059   3.845  14.151 -0.0765  0.1354 -0.3836
  930MPD2     H13661   0.009   4.094  13.869 -0.0955  0.3566  0.5091
  930MPD2    H113662   4.738   3.694  14.022  5.2312 -1.4438 -1.2088
  930MPD2    H213663   0.104   4.006  14.283  0.3149 -3.6083  1.2636
  930MPD2    H313664   0.069   3.771  14.229 -1.2674  0.7438  0.3558
  930MPD2     N13665   4.699   3.849  13.806 -0.6600 -0.0262  0.0401
  930MPD2    H513666   4.733   3.757  13.784 -0.8621 -0.5306  1.7799
  930MPD2    N113667   0.131   4.206  14.101  0.4986  0.0435 -0.2221
  930MPD2    H713668   0.146   4.242  14.195 -0.7082 -1.4706  0.5566
  931MPD2     C13669   0.049   3.462   0.250 -0.1468  0.2278  0.6233
  931MPD2    C113670   4.706   3.569   0.289 -0.2995  0.3283 -0.3995
  931MPD2    C213671   4.681   3.580   0.429 -0.2727  0.4872 -0.3730
  931MPD2    C313672   4.731   3.491   0.523  0.4537 -0.0109 -0.0047
  931MPD2    C413673   0.068   3.393   0.473 -0.4500 -0.4313  0.5720
  931MPD2    C513674   0.093   3.374   0.343 -0.7363 -0.1184  0.0443
  931MPD2     H13675   4.625   3.667   0.462 -2.5642 -1.3122  0.4872
  931MPD2    H113676   0.115   3.327   0.545 -0.6313 -0.2211  0.8848
  931MPD2    H213677   0.079   3.446   0.147 -1.5169 -1.5204  0.4937
  931MPD2    H313678   0.158   3.294   0.310 -0.6218 -0.2115  0.4988
  931MPD2     N13679   4.718   3.499   0.662 -0.2325 -0.5863  0.3356
  931MPD2    H513680   0.041   3.446   0.716  0.4625 -0.7657 -0.6943
  931MPD2    N113681   4.655   3.656   0.192  0.0786  0.0369  0.7486
  931MPD2    H713682   4.682   3.624   0.100 -2.7737 -0.8223  0.1880
  932MPD2     C13683   1.847   3.024  11.422 -0.0915 -0.7003 -0.2330
  932MPD2    C113684   1.957   3.111  11.446  0.2967  0.1708  0.2161
  932MPD2    C213685   2.087   3.069  11.449 -0.4380  0.6908  0.0281
  932MPD2    C313686   2.112   2.934  11.425  0.6610 -0.4395  0.0033
  932MPD2    C413687   2.012   2.842  11.422  0.0127  0.0059  0.1694
  932MPD2    C513688   1.882   2.892  11.411  0.1912  1.0176  0.2299
  932MPD2     H13689   2.169   3.139  11.457 -1.5591  1.9280  0.7871
  932MPD2    H113690   2.042   2.738  11.416 -0.6973 -0.2567  1.1224
  932MPD2    H213691   1.744   3.057  11.419 -0.0231 -0.3500  0.9926
  932MPD2    H313692   1.797   2.827  11.398  0.6546  1.2281 -3.9190
  932MPD2     N13693   2.243   2.881  11.434  0.4941 -0.3297  0.0830
  932MPD2    H513694   2.259   2.782  11.446  1.8145 -0.1066  0.1331
  932MPD2    N113695   1.942   3.248  11.476 -0.1304  0.5117 -0.4401
  932MPD2    H713696   2.027   3.302  11.490 -0.1629  0.2108  0.9480
  933MPD2     C13697   1.681   2.943   0.371  0.1577  0.2878 -0.3478
  933MPD2    C113698   1.814   2.964   0.389 -0.1180 -0.4874  0.5357
  933MPD2    C213699   1.871   3.064   0.317  0.1637  0.4273 -0.0379
  933MPD2    C313700   1.802   3.136   0.222  0.5931  0.1028 -0.2861
  933MPD2    C413701   1.672   3.116   0.203 -0.2128  0.1306  0.4617
  933MPD2    C513702   1.607   3.020   0.278  0.0884 -0.3468  0.2017
  933MPD2     H13703   1.978   3.079   0.319  0.0227  1.2439  1.7894
  933MPD2    H113704   1.619   3.164   0.121  0.1099  0.5232  0.4835
  933MPD2    H213705   1.628   2.865   0.424  0.7953 -0.9564 -1.5677
  933MPD2    H313706   1.500   3.006   0.278 -0.1128  1.2840 -2.3464
  933MPD2     N13707   1.879   3.237   0.155  0.0351 -0.1434 -0.1631
  933MPD2    H513708   1.976   3.246   0.183 -0.4017  1.7255  0.7032
  933MPD2    N113709   1.884   2.884   0.480  0.6931  0.4265 -0.2871
  933MPD2    H713710   1.830   2.807   0.519  0.8119  0.3220 -0.3311
  934MPD2     C13711   3.116   0.126   1.584 -0.6211  0.0796  0.4233
  934MPD2    C113712   3.229   0.085   1.522  0.6872  0.1220  0.1796
  934MPD2    C213713   3.216   0.005   1.408  0.5904 -1.0003 -0.3335
  934MPD2    C313714   3.095   4.696   1.374  0.6979  0.4911 -0.4949
  934MPD2    C413715   2.981   0.006   1.433 -0.2761 -0.0278  0.1219
  934MPD2    C513716   2.997   0.099   1.529  0.0236 -0.4570  0.7679
  934MPD2     H13717   3.307   4.733   1.351  1.7506 -0.1529  1.2746
  934MPD2    H113718   2.881   4.718   1.408 -0.1758 -0.5924  0.4396
  934MPD2    H213719   3.113   0.185   1.674  0.7791 -1.5697  1.5681
  934MPD2    H313720   2.913   0.149   1.577  1.2874  3.7956 -1.4066
  934MPD2     N13721   3.072   4.611   1.267 -0.1217  0.5929 -0.2476
  934MPD2    H513722   2.982   4.563   1.264  0.9863 -1.4475 -1.5278
  934MPD2    N113723   3.363   0.106   1.571 -0.1756  0.6402  0.2883
  934MPD2    H713724   3.440   0.071   1.514  0.3886  1.1246  0.7601
  935MPD2     C13725   3.691   3.956   0.880 -0.1291 -0.0677  0.0097
  935MPD2    C113726   3.574   3.886   0.865  0.2442 -0.7258 -0.4910
  935MPD2    C213727   3.455   3.957   0.880  0.3532 -0.4760  0.2132
  935MPD2    C313728   3.467   4.093   0.914  0.0841  0.1209  0.3943
  935MPD2    C413729   3.584   4.160   0.920 -0.5217  0.0847 -0.5113
  935MPD2    C513730   3.700   4.093   0.890 -0.5933  0.1891 -0.7119
  935MPD2     H13731   3.354   3.917   0.876  0.5204 -1.0289  1.3832
  935MPD2    H113732   3.593   4.266   0.941 -2.3113  0.5615 -2.2515
  935MPD2    H213733   3.776   3.891   0.859  1.5478  1.9639  0.5237
  935MPD2    H313734   3.798   4.138   0.898 -0.2670 -0.6797  0.1363
  935MPD2     N13735   3.359   4.174   0.947 -0.4564  0.3536 -0.1834
  935MPD2    H513736   3.389   4.262   0.988 -0.0074  0.2139 -0.2123
  935MPD2    N113737   3.564   3.748   0.837  0.3215 -0.2245 -0.1681
  935MPD2    H713738   3.478   3.709   0.799  0.2255  0.1302 -0.3226
  936MPD2     C13739   2.234   1.817  12.202  0.1927  0.8501  1.2541
  936MPD2    C113740   2.343   1.796  12.288 -0.2472  0.2127  0.0543
  936MPD2    C213741   2.453   1.884  12.294  0.2822  0.1367  0.1649
  936MPD2    C313742   2.443   1.999  12.218  0.5200  0.4478 -0.2725
  936MPD2    C413743   2.335   2.018  12.133  1.0053 -0.0149  0.0102
  936MPD2    C513744   2.230   1.926  12.122 -0.3704 -0.0529 -0.9748
  936MPD2     H13745   2.539   1.861  12.357 -0.2392  0.4969  1.0074
  936MPD2    H113746   2.321   2.116  12.090 -1.6835 -0.1878  0.4538
  936MPD2    H213747   2.159   1.739  12.200  1.3166 -0.2259  1.6840
  936MPD2    H313748   2.145   1.962  12.065 -1.1449 -0.3247 -0.0065
  936MPD2     N13749   2.534   2.103  12.215  0.4612  0.2876 -0.4671
  936MPD2    H513750   2.517   2.184  12.157  1.0767 -1.2168 -2.7447
  936MPD2    N113751   2.358   1.677  12.358 -0.2869  0.0186  0.5609
  936MPD2    H713752   2.452   1.649  12.384  0.7892  1.0970 -2.1292
  937MPD2     C13753   4.727   2.741  12.098  0.0583 -0.5020  0.1840
  937MPD2    C113754   0.038   2.861  12.061  0.6267  0.7105 -0.0220
  937MPD2    C213755   0.105   2.882  11.938 -0.3294 -0.2406  0.5804
  937MPD2    C313756   0.118   2.769  11.851 -0.1181  0.4536  0.2136
  937MPD2    C413757   0.060   2.645  11.887 -0.5879  0.9054  0.3028
  937MPD2    C513758   4.740   2.636  12.007  0.0285 -0.8437 -0.4134
  937MPD2     H13759   0.142   2.980  11.912 -1.5882 -0.2965 -1.3802
  937MPD2    H113760   0.073   2.553  11.831  2.2811  1.0647  0.7083
  937MPD2    H213761   4.678   2.732  12.195  0.8257  1.6166  0.7689
  937MPD2    H313762   4.696   2.541  12.036 -0.8109 -0.5148 -0.6179
  937MPD2     N13763   0.193   2.777  11.722  0.1074  0.9556 -0.3333
  937MPD2    H513764   0.237   2.867  11.704  1.7469 -0.1237 -1.6730
  937MPD2    N113765   0.008   2.985  12.127 -0.6962 -0.1325  0.0798
  937MPD2    H713766   0.060   3.062  12.085 -1.5392 -0.1307 -0.9703
  938MPD2     C13767   2.746   4.023   0.440 -0.3857 -0.3804 -0.3438
  938MPD2    C113768   2.654   4.117   0.452  0.5659  0.2131 -0.4225
  938MPD2    C213769   2.563   4.116   0.553 -0.3311  0.4638 -0.1379
  938MPD2    C313770   2.562   4.012   0.647  0.3886  0.2735  0.7641
  938MPD2    C413771   2.654   3.915   0.630 -0.4570 -0.5999 -0.0098
  938MPD2    C513772   2.746   3.923   0.528 -0.6783 -0.5126 -0.0592
  938MPD2     H13773   2.501   4.204   0.560 -0.9409  0.0829 -0.6643
  938MPD2    H113774   2.661   3.831   0.698  0.1997 -0.2092  0.4154
  938MPD2    H213775   2.828   4.013   0.369  0.3271  2.5457  0.0892
  938MPD2    H313776   2.816   3.842   0.512 -1.7256 -1.4791  0.2924
  938MPD2     N13777   2.480   4.008   0.762  0.9669  0.3447 -0.1917
  938MPD2    H513778   2.499   3.934   0.828 -1.5158 -0.0187  0.1199
  938MPD2    N113779   2.662   4.224   0.353 -0.9907 -0.2694 -0.6045
  938MPD2    H713780   2.743   4.225   0.292 -2.0350 -1.9300 -2.0500
  939MPD2     C13781   3.903   0.741   0.732 -0.0331  0.7803  0.6730
  939MPD2    C113782   4.001   0.767   0.828 -0.5541 -0.0542 -1.0326
  939MPD2    C213783   4.126   0.700   0.814  0.9264  0.4115 -0.6688
  939MPD2    C313784   4.151   0.614   0.713 -0.0365  0.8334  0.2809
  939MPD2    C413785   4.042   0.578   0.625 -0.2865  0.2213 -0.7377
  939MPD2    C513786   3.930   0.652   0.635  1.0203  0.0130 -0.3838
  939MPD2     H13787   4.210   0.735   0.874  0.2428  1.3196 -0.2394
  939MPD2    H113788   4.055   0.507   0.544  1.1832  0.5966 -0.8286
  939MPD2    H213789   3.805   0.786   0.728 -0.4626 -0.0407  1.9350
  939MPD2    H313790   3.847   0.631   0.569  1.6541 -0.3385 -1.0711
  939MPD2     N13791   4.286   0.575   0.684 -0.0376  0.6520  0.4129
  939MPD2    H513792   4.359   0.621   0.737  0.6511 -1.8009  1.5921
  939MPD2    N113793   3.981   0.863   0.933  0.3270 -0.1951  0.1331
  939MPD2    H713794   3.901   0.924   0.921 -1.6820 -2.7326  0.6824
  940MPD2     C13795   3.660   1.560  13.202 -0.0065 -0.4890 -1.0218
  940MPD2    C113796   3.570   1.458  13.237  0.1121  0.4260 -0.1855
  940MPD2    C213797   3.458   1.435  13.157  0.1060 -0.0507  0.2289
  940MPD2    C313798   3.434   1.512  13.044 -0.3901  0.2270  0.7890
  940MPD2    C413799   3.513   1.624  13.019  0.6924  0.6707  0.2554
  940MPD2    C513800   3.622   1.643  13.101 -0.3821  0.2831  0.1086
  940MPD2     H13801   3.390   1.351  13.173 -1.2318  1.2185  1.1890
  940MPD2    H113802   3.491   1.692  12.938  2.1168  0.1862 -0.5307
  940MPD2    H213803   3.758   1.565  13.248 -0.6298  0.3986  0.1947
  940MPD2    H313804   3.693   1.723  13.081 -0.8634  1.0938  1.6488
  940MPD2     N13805   3.326   1.475  12.949 -0.3426 -0.5100 -0.2595
  940MPD2    H513806   3.307   1.538  12.871 -0.1033  0.8993  0.8308
  940MPD2    N113807   3.594   1.361  13.339 -0.0517  0.0312 -0.6208
  940MPD2    H713808   3.526   1.286  13.347  0.6475 -0.6372 -0.9876
  941MPD2     C13809   2.155   1.011   9.908  0.2970 -0.2089 -0.2061
  941MPD2    C113810   2.233   0.914   9.975  0.4834  0.2682 -0.0126
  941MPD2    C213811   2.166   0.798  10.019 -0.2267  0.6579  0.0824
  941MPD2    C313812   2.035   0.776   9.998 -0.4164 -0.7530  0.9811
  941MPD2    C413813   1.963   0.876   9.930 -0.1082  0.3599  0.2291
  941MPD2    C513814   2.022   0.987   9.880  0.4477  0.4164  0.5465
  941MPD2     H13815   2.220   0.714  10.061 -0.0820  0.5729 -0.2754
  941MPD2    H113816   1.856   0.877   9.912 -0.1962  0.1427  0.7394
  941MPD2    H213817   2.205   1.102   9.874  1.6472 -1.0031 -0.3685
  941MPD2    H313818   1.953   1.056   9.831 -0.4578  0.3105  1.6788
  941MPD2     N13819   1.965   0.657  10.035 -0.3671 -0.0337  0.5723
  941MPD2    H513820   1.865   0.672  10.033 -0.2687  0.7317  1.4541
  941MPD2    N113821   2.371   0.921   9.987  0.8640  0.6015 -0.0622
  941MPD2    H713822   2.419   0.850  10.041  2.4134  1.6042 -0.1008
  942MPD2     C13823   2.436   3.207   9.073 -0.0277 -0.2552  0.7067
  942MPD2    C113824   2.440   3.124   9.182  0.1998 -0.0210 -0.2261
  942MPD2    C213825   2.528   3.018   9.186 -0.6228  0.3199  0.1578
  942MPD2    C313826   2.623   2.998   9.087 -0.3630  0.7810  0.4779
  942MPD2    C413827   2.615   3.079   8.973 -0.1243 -0.2927 -0.6153
  942MPD2    C513828   2.522   3.183   8.970 -0.0353  0.0176 -0.0331
  942MPD2     H13829   2.524   2.945   9.266 -1.9680  0.4527  0.2070
  942MPD2    H113830   2.686   3.086   8.891  2.1994 -1.5954  1.2801
  942MPD2    H213831   2.359   3.284   9.062  0.5934 -0.0905 -2.2965
  942MPD2    H313832   2.531   3.248   8.884 -0.9993 -1.1173 -0.9928
  942MPD2     N13833   2.727   2.907   9.103 -0.1165 -0.0671  0.5361
  942MPD2    H513834   2.792   2.912   9.026  1.8738  1.4410  2.2914
  942MPD2    N113835   2.346   3.127   9.285  0.5672 -0.1778  0.3259
  942MPD2    H713836   2.361   3.065   9.364  0.7566 -1.1506 -0.4877
  943MPD2     C13837   0.567   0.470   9.434 -0.3806 -0.2958 -1.1252
  943MPD2    C113838   0.540   0.354   9.509  0.3206  0.4441  0.7290
  943MPD2    C213839   0.648   0.293   9.583 -0.0658 -0.1718 -0.0094
  943MPD2    C313840   0.767   0.361   9.595 -0.3022 -0.4685  0.1995
  943MPD2    C413841   0.797   0.470   9.520  0.0123 -0.3265  0.2575
  943MPD2    C513842   0.696   0.521   9.433  0.5647 -0.4806 -0.3729
  943MPD2     H13843   0.629   0.217   9.658 -1.2403 -0.0344 -0.1725
  943MPD2    H113844   0.891   0.524   9.524  0.0295 -0.4911  1.9331
  943MPD2    H213845   0.488   0.517   9.377 -0.4184  2.4724  1.2286
  943MPD2    H313846   0.717   0.606   9.370  2.0669 -1.3153 -1.0208
  943MPD2     N13847   0.872   0.312   9.674  0.4987  0.1378 -0.7290
  943MPD2    H513848   0.948   0.376   9.697 -0.8681  1.2623  0.6274
  943MPD2    N113849   0.410   0.309   9.499  0.2763  0.2651  0.6229
  943MPD2    H713850   0.341   0.368   9.454 -0.4513 -1.9285 -1.1565
  944MPD2     C13851   0.484   1.270  11.324 -0.1945  0.6028  0.3962
  944MPD2    C113852   0.439   1.144  11.325 -0.2525  0.4468 -0.7472
  944MPD2    C213853   0.476   1.056  11.426  0.2538 -0.2852 -0.3602
  944MPD2    C313854   0.559   1.093  11.530 -0.8466 -0.3390 -0.3969
  944MPD2    C413855   0.604   1.225  11.522  0.2924 -0.8172  0.5535
  944MPD2    C513856   0.576   1.305  11.418  0.2615  0.5520 -0.1434
  944MPD2     H13857   0.442   0.953  11.428 -0.1966 -0.0878  1.6805
  944MPD2    H113858   0.663   1.272  11.600  3.2021  0.0622 -2.1843
  944MPD2    H213859   0.462   1.350  11.256  0.1579  0.7446  0.4474
  944MPD2    H313860   0.626   1.400  11.404  0.8325  0.3819  0.7726
  944MPD2     N13861   0.577   1.004  11.642  0.1581  0.0082  0.3567
  944MPD2    H513862   0.542   0.909  11.634 -2.2169  0.5760  3.7286
  944MPD2    N113863   0.359   1.106  11.216  0.0515 -0.0814  0.6207
  944MPD2    H713864   0.345   1.176  11.143  0.1201 -0.6351  0.0700
    1TMC1    C113865   3.898   0.222  14.755  0.1289  0.5719  0.2035
    1TMC1    C213866   3.876   0.081  14.750 -0.3131  0.3146  0.7269
    1TMC1    C313867   3.851   0.019  14.877 -0.5386  0.7729 -0.2862
    1TMC1    C413868   3.910   0.294  14.879  0.0631  0.0005  0.0851
    1TMC1    C513869   3.894   0.213  14.994 -0.4797 -0.1874  0.4771
    1TMC1    C613870   3.855   0.081  14.998 -0.1081  0.4709 -0.0447
    1TMC1     C13871   3.943   0.295  14.638  0.0563  0.6965 -0.7403
    1TMC1     O13872   3.951   0.230  14.540  0.2369  0.3740  0.0915
    1TMC1     H13873   3.861   0.026  14.658 -0.0412 -0.4437  1.1356
    1TMC1    H113874   3.930   0.399  14.899 -0.2461  0.1550 -0.4199
    1TMC1    H213875   3.845   0.030  15.093  1.3264  1.0525  0.4074
    1TMC1    C713876   3.965   0.269  15.107  0.6425  0.5976  0.4061
    1TMC1    C813877   3.846   4.618  14.875 -1.3660 -0.5746 -0.3291
    1TMC1    O113878   3.913   0.350  15.182 -0.4404 -0.2432  0.0340
    1TMC1    O213879   3.812   4.552  14.979  0.1468 -0.5704  0.3140
    1TMC1    O313880   4.041   0.167  15.149  0.1810 -0.5019 -0.0480
    1TMC1    H313881   4.080   0.104  15.085 -2.5749 -1.2891 -0.9604
    1TMC1    O513882   3.928   4.558  14.784 -0.1512  0.1353  0.1874
    1TMC1    H513883   3.954   4.609  14.705 -0.5017 -1.1968 -0.7724
    2MPD2     C13884   3.968   0.735  14.362  0.6299  0.2510  0.5537
    2MPD2    C113885   3.955   0.762  14.498 -0.3734 -0.7371 -0.0818
    2MPD2    C213886   3.962   0.661  14.595  1.0552 -0.4366  0.5645
    2MPD2    C313887   3.959   0.533  14.552 -0.5720 -0.6915 -0.2915
    2MPD2    C413888   3.976   0.503  14.415 -0.3642 -0.4391 -0.1933
    2MPD2    C513889   3.985   0.605  14.324 -0.3809  0.6099 -0.3962
    2MPD2     H13890   3.970   0.682  14.700  1.2809  2.1659  0.0179
    2MPD2    H113891   3.985   0.406  14.368 -1.0279 -1.5345  1.9307
    2MPD2    H213892   3.989   0.813  14.289 -1.1925 -0.0804 -0.3260
    2MPD2    H313893   4.014   0.585  14.222  0.3730  0.2870 -0.1215
    2MPD2     N13894   3.945   0.434  14.654 -0.4852 -0.0122  0.3333
    2MPD2    H513895   3.923   0.463  14.748 -3.3241 -0.2003 -0.2907
    2MPD2    N113896   3.951   0.898  14.528  0.3827  0.3730  0.0816
    2MPD2    H713897   3.945   0.965  14.452 -0.6370  1.3188  0.9933
    3TMC2    C113898   3.928   1.094  14.654  0.2196 -0.6656 -0.2190
    3TMC2    C213899   3.844   1.160  14.745 -0.5122  0.1990 -0.2607
    3TMC2    C313900   3.825   1.295  14.723 -0.7087  0.0763  0.5436
    3TMC2    C413901   3.988   1.160  14.549  0.6007  0.1268  0.2080
    3TMC2    C513902   3.953   1.292  14.531 -0.2934  1.0549 -0.6521
    3TMC2    C613903   3.879   1.362  14.617  0.1980  0.1143  0.1295
    3TMC2     C13904   3.938   0.949  14.655 -0.5381 -0.1030  0.0703
    3TMC2     O13905   3.929   0.892  14.765 -0.0718 -0.3118  0.2024
    3TMC2     H13906   3.793   1.094  14.814 -0.3833 -1.2856 -1.5736
    3TMC2    H113907   4.055   1.117  14.475  1.6012  0.6557  0.7940
    3TMC2    H213908   3.855   1.466  14.601 -0.6352 -0.1186 -0.1552
    3TMC2    C713909   4.013   1.363  14.417 -0.4808 -0.3403  0.3531
    3TMC2    C813910   3.702   1.358  14.757 -0.1457 -0.4409 -0.1553
    3TMC2    O113911   4.132   1.351  14.393  0.1691 -0.3226  0.0683
    3TMC2    O213912   3.710   1.478  14.775  0.0413 -0.1306 -0.1825
    3TMC2    O513913   3.623   1.305  14.662  0.6933  0.2128 -0.8712
    3TMC2    H513914   3.637   1.209  14.653 -3.6837 -0.5007 -0.0728
    4TMC2    C113915   3.318   1.945  13.947 -0.4443 -0.0704 -0.1171
    4TMC2    C213916   3.354   1.972  13.822 -0.0596 -0.0083 -0.1105
    4TMC2    C313917   3.487   1.953  13.777 -0.3380 -0.2360  0.5359
    4TMC2    C413918   3.415   1.895  14.033  0.4364 -0.2750  0.1002
    4TMC2    C513919   3.541   1.872  13.990  0.1742  0.0620 -0.4078
    4TMC2    C613920   3.583   1.903  13.861  0.9283 -0.1327 -0.2279
    4TMC2     C13921   3.182   1.954  13.999  0.2082  0.0339  0.2381
    4TMC2     O13922   3.176   1.990  14.114 -0.2692 -0.2667 -0.7082
    4TMC2     H13923   3.283   2.024  13.759 -0.1577 -0.4795 -0.3873
    4TMC2    H113924   3.375   1.866  14.129 -1.2177  2.0729  0.1124
    4TMC2    H213925   3.680   1.864  13.833  0.5964  0.2870 -1.9636
    4TMC2    C713926   3.619   1.792  14.082 -0.2878 -0.1736 -0.3270
    4TMC2    C813927   3.523   2.003  13.645  0.2295  0.1538 -0.0566
    4TMC2    O113928   3.560   1.724  14.165  0.4583  0.5302 -0.2111
    4TMC2    O213929   3.428   2.030  13.573 -0.1280  0.1725  0.6628
    4TMC2    O513930   3.637   2.069  13.674  0.2658  0.0430  0.1549
    4TMC2    H513931   3.668   2.049  13.765  0.4171 -1.2293 -0.1699
    5MPD2     C13932   2.676   1.878  13.961  0.7178  0.1326  0.4201
    5MPD2    C113933   2.739   1.851  13.842 -0.0968 -0.5677 -0.1047
    5MPD2    C213934   2.873   1.867  13.825 -0.1825  0.4669  0.8051
    5MPD2    C313935   2.948   1.904  13.934 -0.1939 -0.2003 -0.6971
    5MPD2    C413936   2.890   1.926  14.059  0.0411 -0.1901 -0.2496
    5MPD2    C513937   2.755   1.915  14.064  0.4242  0.3896  0.0727
    5MPD2     H13938   2.926   1.854  13.732 -1.1313  1.1704  0.1666
    5MPD2    H113939   2.954   1.954  14.142  0.1506 -0.1121 -0.3606
    5MPD2    H213940   2.570   1.860  13.968  0.5665  0.8924  0.0472
    5MPD2    H313941   2.708   1.934  14.160  0.6797  0.6756  0.1451
    5MPD2     N13942   3.087   1.911  13.912  0.1161 -0.4838  0.2272
    5MPD2    H513943   3.117   1.881  13.820 -2.8441 -2.4153 -0.1016
    5MPD2    N113944   2.667   1.791  13.732  0.5080  0.2360 -0.5261
    5MPD2    H713945   2.567   1.790  13.749  0.8094  1.2637  1.3394
    6MPD1     C13946   1.556   2.569  13.211 -0.5749  0.4269 -0.2279
    6MPD1    C113947   1.463   2.497  13.288  0.4279 -0.0331 -0.3150
    6MPD1    C213948   1.454   2.358  13.260 -0.0617  0.1460 -0.1857
    6MPD1    C313949   1.522   2.300  13.157  0.5386  0.4450  0.5829
    6MPD1    C413950   1.601   2.382  13.081  0.0900 -0.3090 -0.5364
    6MPD1    C513951   1.610   2.514  13.097  1.1745  0.1373  0.1804
    6MPD1     H13952   1.387   2.300  13.322  1.5281 -0.9423  0.5353
    6MPD1    H113953   1.657   2.345  12.996 -0.0702  0.0014 -0.7755
    6MPD1    H213954   1.574   2.676  13.218 -0.9288  0.5007 -0.4136
    6MPD1    H313955   1.670   2.576  13.032  2.2194 -0.6258  0.4147
    6MPD1     N13956   1.533   2.161  13.128  0.2972  0.2080 -0.2353
    6MPD1    H513957   1.588   2.143  13.045 -1.4192 -1.4352 -1.0136
    6MPD1    N113958   1.413   2.550  13.409  0.1911  0.2554  1.2267
    6MPD1    H613959   1.321   2.512  13.428 -0.8646  1.9629 -0.4418
    6MPD1    H713960   1.401   2.650  13.417  0.3025  0.5078 -1.5461
    7MPD2     C13961   1.807   1.397  13.420  0.8791 -0.2106 -0.1734
    7MPD2    C113962   1.867   1.520  13.430 -0.4021  0.3686 -0.2590
    7MPD2    C213963   1.999   1.531  13.455  0.5817 -0.3566 -0.0643
    7MPD2    C313964   2.074   1.414  13.472 -0.6375  0.0862  1.2766
    7MPD2    C413965   2.016   1.287  13.457  0.8203 -0.2872  0.6319
    7MPD2    C513966   1.882   1.283  13.440 -0.2622 -0.4025  0.3571
    7MPD2     H13967   2.041   1.631  13.450  0.4110 -0.2441  0.7253
    7MPD2    H113968   2.063   1.197  13.492 -1.0665 -0.9922  1.3469
    7MPD2    H213969   1.701   1.388  13.403  0.2525  3.9221  1.5954
    7MPD2    H313970   1.831   1.188  13.447  2.1797 -1.8143 -1.0123
    7MPD2     N13971   2.213   1.429  13.480  0.7780 -0.1231 -0.7327
    7MPD2    H513972   2.263   1.347  13.446  2.9267  1.1246 -0.5802
    7MPD2    N113973   1.800   1.636  13.404  0.2009 -0.3440 -0.3401
    7MPD2    H713974   1.859   1.719  13.394 -0.8508  0.6066  1.4886
    8TMC3    C113975   2.422   1.540  13.493 -1.1920 -0.4822 -0.3047
    8TMC3    C213976   2.490   1.622  13.581  0.3059 -0.1151  0.3040
    8TMC3    C313977   2.599   1.693  13.533  0.4032  0.8451  0.6921
    8TMC3    C413978   2.447   1.533  13.358 -0.2805  0.8635  0.1038
    8TMC3    C513979   2.542   1.623  13.313  0.3133  0.0134  0.1753
    8TMC3    C613980   2.625   1.696  13.400 -0.1826  0.4729  0.1079
    8TMC3     C13981   2.285   1.535  13.530  0.3284 -0.8993 -0.7099
    8TMC3     O13982   2.243   1.626  13.599 -0.4495 -0.4628 -0.1858
    8TMC3     H13983   2.472   1.618  13.687 -0.5315  0.3486  0.1767
    8TMC3    H113984   2.372   1.490  13.292 -2.0360 -0.9731  3.2867
    8TMC3    H213985   2.711   1.742  13.353  0.8145 -1.1932  0.2997
    8TMC3    C713986   2.522   1.695  13.186 -0.3993  0.5176  0.1715
    8TMC3    C813987   2.711   1.734  13.619  0.6191 -0.0577 -0.3207
    8TMC3    O113988   2.599   1.790  13.174  0.0551 -0.3539  0.0015
    8TMC3    O213989   2.823   1.728  13.568 -0.0441  0.0880  0.9082
    9TMC3    C113990   1.547   1.933  13.160 -0.6858 -0.3915  0.2646
    9TMC3    C213991   1.636   1.939  13.057  0.0847  0.2056  0.2156
    9TMC3    C313992   1.744   1.853  13.060  1.3491 -0.0148  0.4206
    9TMC3    C413993   1.559   1.836  13.258  0.3895 -0.2716  0.0298
    9TMC3    C513994   1.666   1.756  13.260  0.3416 -0.0131 -0.2329
    9TMC3    C613995   1.758   1.755  13.157  0.1570 -0.4319 -0.4657
    9TMC3     C13996   1.488   2.059  13.204 -0.1259  0.1988  0.3531
    9TMC3     O13997   1.438   2.066  13.317  0.3190 -0.0640  0.0196
    9TMC3     H13998   1.633   2.007  12.974  0.2075 -0.8748 -0.6719
    9TMC3    H113999   1.490   1.825  13.341  0.0283  2.4551  0.0804
    9TMC3    H214000   1.838   1.683  13.172  2.2662  1.5143 -2.3652
    9TMC3    C714001   1.673   1.644  13.354  0.3481  1.0136  0.2681
    9TMC3    C814002   1.871   1.917  13.005  0.0923  0.2288 -0.1044
    9TMC3    O114003   1.578   1.566  13.355 -0.1534 -0.2180  0.0221
    9TMC3    O214004   1.866   2.040  12.980 -0.0029  0.4030 -0.8715
   10MPD2     C14005   2.378   1.893  13.006 -0.2456  0.9916 -0.5341
   10MPD2    C114006   2.325   1.782  13.065  0.4834  0.4051 -0.4436
   10MPD2    C214007   2.194   1.761  13.056 -0.7255  0.6629  0.0143
   10MPD2    C314008   2.112   1.852  13.005  0.0651 -0.1250  0.1881
   10MPD2    C414009   2.167   1.965  12.945  0.4494 -0.2341 -0.1866
   10MPD2    C514010   2.300   1.976  12.937 -0.2627 -0.1811  0.4585
   10MPD2     H14011   2.159   1.667  13.097  3.9674 -1.0136  0.2480
   10MPD2    H114012   2.099   2.031  12.891 -0.0728  1.7472  2.9106
   10MPD2    H214013   2.485   1.912  13.001  0.0877 -0.5847  0.3789
   10MPD2    H314014   2.340   2.060  12.881 -0.2452  1.2078  2.5308
   10MPD2     N14015   1.980   1.832  13.034 -0.1465 -0.1648 -0.0370
   10MPD2    H514016   1.958   1.737  13.064  1.6711 -0.2581  0.9880
   10MPD2    N114017   2.396   1.678  13.133  0.1273  0.0781  0.3206
   10MPD2    H714018   2.341   1.598  13.161  0.4021 -0.6297 -1.1796
   11MPD2     C14019   4.076   1.618  14.263 -0.2175 -0.5243  0.5327
   11MPD2    C114020   3.951   1.555  14.263  0.5354 -0.5827  0.6249
   11MPD2    C214021   3.842   1.620  14.210  0.4303 -0.5937 -0.0966
   11MPD2    C314022   3.860   1.743  14.143 -0.2346  0.2022  0.3239
   11MPD2    C414023   3.986   1.795  14.134  0.5830 -0.0690  0.0482
   11MPD2    C514024   4.093   1.736  14.193 -0.2072  0.4554  0.7433
   11MPD2     H14025   3.748   1.566  14.211 -0.4374  0.9120 -2.4869
   11MPD2    H114026   4.005   1.893  14.092  1.0099 -0.1658  0.0150
   11MPD2    H214027   4.160   1.568  14.308  0.4084 -0.6710 -0.7899
   11MPD2    H314028   4.181   1.793  14.221 -0.8581  1.1223  1.4042
   11MPD2     N14029   3.754   1.815  14.078 -0.1316  0.2761 -0.1452
   11MPD2    H514030   3.779   1.899  14.026  0.0128  0.0197 -0.4874
   11MPD2    N114031   3.921   1.443  14.349  0.6881 -0.0911 -0.1836
   11MPD2    H714032   3.825   1.421  14.375  0.6162  0.0984 -0.2845
    1MPD1     C14033   1.676   2.626  17.410 -0.6065 -0.5365  0.3714
    1MPD1    C114034   1.778   2.599  17.328  0.3268 -0.3152  0.5494
    1MPD1    C214035   1.778   2.672  17.208  0.1950 -0.2733  0.1139
    1MPD1    C314036   1.688   2.774  17.195  1.0959  0.9407 -0.2785
    1MPD1    C414037   1.575   2.791  17.281 -0.2432 -0.1396  0.3152
    1MPD1    C514038   1.567   2.700  17.383  0.0810  0.2611  0.8574
    1MPD1     H14039   1.847   2.653  17.126 -0.4606  2.0591 -0.9838
    1MPD1    H114040   1.493   2.860  17.263 -2.2434 -2.0217  2.3294
    1MPD1    H214041   1.676   2.572  17.504  2.4933 -1.9028 -0.3934
    1MPD1    H314042   1.485   2.701  17.454 -1.3899  1.4624 -0.8642
    1MPD1     N14043   1.709   2.881  17.106  0.1330  0.5495 -0.0209
    1MPD1    H514044   1.631   2.946  17.101  0.2699  0.9577  2.8355
    1MPD1    N114045   1.868   2.489  17.356  0.0156 -0.0052 -0.6451
    1MPD1    H614046   1.904   2.484  17.451  2.7850 -0.5824 -1.7341
    1MPD1    H714047   1.956   2.496  17.305  1.8325  1.2510  2.6353
    2MPD1     C14048   1.526   3.808  16.795  0.1360  0.2083  0.5793
    2MPD1    C114049   1.611   3.769  16.691  0.4212 -0.0595  0.1606
    2MPD1    C214050   1.664   3.639  16.695 -0.0308  0.0512 -0.0910
    2MPD1    C314051   1.659   3.564  16.811  0.3793  0.2827 -0.5555
    2MPD1    C414052   1.610   3.627  16.923  0.5181 -0.4506 -0.0987
    2MPD1    C514053   1.540   3.740  16.913  0.3156 -0.5961  0.5965
    2MPD1     H14054   1.704   3.605  16.600  0.1674 -1.9953  0.7251
    2MPD1    H114055   1.626   3.583  17.020 -1.6165  0.2334  0.5779
    2MPD1    H214056   1.479   3.906  16.792  0.7844  0.3932 -3.6244
    2MPD1    H314057   1.488   3.780  17.000  1.2900 -2.7805  2.1775
    2MPD1     N14058   1.724   3.441  16.814  0.6019  0.7674 -1.0141
    2MPD1    H514059   1.758   3.412  16.723  1.6875 -2.4515  0.4193
    2MPD1    N114060   1.605   3.825  16.561  0.2235  0.3177  0.2070
    2MPD1    H614061   1.598   3.927  16.560  0.2612  0.3208  0.2508
    2MPD1    H714062   1.690   3.803  16.508 -0.8201 -1.1046 -0.8684
    3TMC3    C114063   1.801   3.231  16.902 -0.3894 -0.2739  0.1086
    3TMC3    C214064   1.894   3.235  16.804  0.2464  0.9772 -1.2302
    3TMC3    C314065   1.946   3.114  16.775 -0.0011  0.3846 -0.4775
    3TMC3    C414066   1.769   3.119  16.969  0.0243  0.1722  0.1850
    3TMC3    C514067   1.818   3.003  16.934  0.4639 -0.3890  0.4508
    3TMC3    C614068   1.900   2.993  16.828 -0.0027 -0.5559 -0.3316
    3TMC3     C14069   1.723   3.348  16.915 -0.6427 -0.0833  0.8220
    3TMC3     O14070   1.657   3.353  17.018 -0.6417 -0.5804  0.3882
    3TMC3     H14071   1.929   3.330  16.765  2.1647  0.4672 -0.7279
    3TMC3    H114072   1.693   3.125  17.046 -1.7374  0.8108 -1.5783
    3TMC3    H214073   1.947   2.898  16.802 -1.0882 -1.1160 -0.2472
    3TMC3    C714074   1.825   2.892  17.025 -0.2791 -0.2540  0.1050
    3TMC3    C814075   2.083   3.110  16.731  0.6639 -0.4234  0.2131
    3TMC3    O114076   1.924   2.824  17.010  0.3920  0.1912  0.3717
    3TMC3    O214077   2.139   3.001  16.730  0.2827  0.0997  0.2255
    4MPD1     C14078   2.477   3.325  16.492  0.0411 -0.7592 -0.3297
    4MPD1    C114079   2.388   3.422  16.538 -0.2169 -0.2314 -0.4951
    4MPD1    C214080   2.284   3.386  16.617  0.1536 -0.3946 -0.3188
    4MPD1    C314081   2.267   3.257  16.656  0.2100 -0.1637 -0.6575
    4MPD1    C414082   2.354   3.161  16.620 -0.6752  0.3870 -0.6404
    4MPD1    C514083   2.457   3.195  16.532  0.1108 -1.2198 -0.3262
    4MPD1     H14084   2.214   3.463  16.647 -0.4868 -1.4442  0.8735
    4MPD1    H114085   2.332   3.062  16.659  2.0039  0.3128  0.7695
    4MPD1    H214086   2.566   3.350  16.435  0.1689  0.2329  0.3096
    4MPD1    H314087   2.525   3.119  16.497 -0.3390  0.1402 -4.1036
    4MPD1     N14088   2.137   3.230  16.707 -0.6400 -0.7311  0.4734
    4MPD1    H514089   2.085   3.313  16.736 -2.1536 -2.0399  1.5367
    4MPD1    N114090   2.397   3.547  16.474 -0.7152  0.0429 -0.9796
    4MPD1    H614091   2.363   3.632  16.519  1.6535  0.0699  0.7365
    4MPD1    H714092   2.492   3.564  16.442 -0.8847  0.3069 -1.3371
    1TCq1    O114093   2.248   2.569  11.352  0.1026  0.2859 -0.4204
    1TCq1    C114094   2.281   2.511  11.473 -0.6351 -0.2088  0.3122
    1TCq1    O214095   2.225   2.554  11.573 -0.4264 -0.1670  0.6026
    1TCq1    C214096   2.420   2.475  11.476  0.0945  0.5027 -0.0498
    1TCq1    C314097   2.518   2.512  11.385 -0.4925 -0.5436 -0.1239
    1TCq1    C414098   2.642   2.461  11.397  0.1254 -0.1512  0.8965
    1TCq1    C514099   2.690   2.423  11.517 -0.2615  0.3111 -0.0417
    1TCq1    C614100   2.596   2.389  11.616  0.2916 -0.2186 -0.4132
    1TCq1    C714101   2.460   2.408  11.593  1.0714 -1.0866 -0.2652
    1TCq1    C814102   2.641   2.317  11.738 -0.9485 -0.4548  0.7640
    1TCq1    O414103   2.547   2.299  11.822 -0.0198  0.1619 -0.3213
    1TCq1    C914104   2.745   2.516  11.317  0.5624  0.3556 -0.3610
    1TCq1    O514105   2.853   2.554  11.376 -0.4477 -0.3550 -0.0828
    1TCq1    O614106   2.710   2.540  11.195  0.4887  0.1585  0.7336
    1TCq1    H114107   2.277   2.511  11.279  2.3588 -1.3129  1.7340
    1TCq1    H214108   2.484   2.572  11.301 -3.5610 -0.6063  1.0666
    1TCq1    H314109   2.797   2.407  11.529 -0.0709  3.1069  2.1568
    1TCq1    H414110   2.377   2.385  11.658 -0.0641  0.7618 -1.0601
    2MPD1     C14111   2.984   2.074  12.025 -0.4765  0.3310  0.9536
    2MPD1    C114112   3.041   2.176  11.956 -0.5234 -0.2720 -0.8351
    2MPD1    C214113   2.971   2.253  11.858 -0.1998 -0.3588 -0.0434
    2MPD1    C314114   2.838   2.227  11.843 -0.4966  0.1082  0.0408
    2MPD1    C414115   2.774   2.131  11.921  0.2611 -0.4013 -0.1342
    2MPD1    C514116   2.850   2.061  12.006  0.4269  0.0871 -0.3741
    2MPD1     H14117   3.021   2.334  11.806  0.6581 -1.8721 -1.5856
    2MPD1    H114118   2.667   2.117  11.912  0.0392  0.8238  0.5186
    2MPD1    H214119   3.033   2.019  12.104  1.4384  2.0180  0.9387
    2MPD1    H314120   2.800   1.987  12.067 -2.1952  1.3873 -0.9792
    2MPD1     N14121   2.773   2.302  11.747 -1.0551 -0.4719 -0.0824
    2MPD1    H514122   2.824   2.346  11.671 -1.6623  0.5555  0.1073
    2MPD1    N114123   3.177   2.194  11.973  0.0903  0.2592 -0.0274
    2MPD1    H614124   3.202   2.169  12.069  2.3426  1.9859 -0.1795
    2MPD1    H714125   3.202   2.292  11.974  0.4053  0.1693  0.6500
    1TMC1    C114126   4.593   4.206   1.364  0.4615 -0.2729  0.3066
    1TMC1    C214127   4.484   4.283   1.329  0.6162  0.1495  0.3034
    1TMC1    C314128   4.469   4.387   1.417  0.2858  0.0541  0.3884
    1TMC1    C414129   4.673   4.235   1.472 -0.3142  0.2215  0.5715
    1TMC1    C514130   4.644   4.332   1.564  0.1347  0.4986 -0.1820
    1TMC1    C614131   4.533   4.409   1.534  0.0780 -0.1779 -0.4428
    1TMC1     C14132   4.636   4.098   1.275 -0.3547 -0.3542  0.5794
    1TMC1     O14133   4.722   4.027   1.328 -0.3532  0.1194 -0.0276
    1TMC1     H14134   4.412   4.256   1.253  2.0723  1.3512 -1.4996
    1TMC1    H114135   0.023   4.181   1.483 -1.3704 -1.6117  0.6812
    1TMC1    H214136   4.511   4.500   1.589  0.1434 -1.4628  1.6874
    1TMC1    C714137   4.730   4.362   1.674 -0.3367 -0.0272  0.3895
    1TMC1    C814138   4.364   4.473   1.390 -0.1750  0.1094 -0.1836
    1TMC1    O114139   4.715   4.467   1.732  0.5272  0.2912  0.4439
    1TMC1    O214140   4.313   4.546   1.475  0.1846 -0.6033  0.4160
    1TMC1    O314141   0.040   4.249   1.721  0.2077 -0.5292 -0.3877
    1TMC1    H314142   0.007   4.168   1.676 -0.8122 -0.8928  1.0083
    1TMC1    O514143   4.378   4.498   1.256  0.4629  0.6766  0.0232
    1TMC1    H514144   4.460   4.462   1.217  0.0651  1.2999 -1.3905
    2MPD1     C14145   4.722   3.892   0.822 -0.0181  0.5364  0.7542
    2MPD1    C114146   4.613   3.972   0.806 -0.5152  0.3293  0.3750
    2MPD1    C214147   4.557   4.025   0.924  0.1788  0.6540  0.4080
    2MPD1    C314148   4.614   4.008   1.043 -0.6126  0.0535 -0.4930
    2MPD1    C414149   4.726   3.929   1.054 -0.1814  0.1540 -0.7580
    2MPD1    C514150   0.043   3.878   0.942 -0.3856  0.1014  0.4137
    2MPD1     H14151   4.477   4.096   0.908 -0.0860 -0.0177 -1.2422
    2MPD1    H114152   0.032   3.910   1.149 -0.6831  0.2753 -0.4754
    2MPD1    H214153   0.028   3.855   0.733 -1.1814 -0.6141  0.5728
    2MPD1    H314154   0.134   3.819   0.938 -2.3074 -2.7881 -1.4765
    2MPD1     N14155   4.571   4.090   1.151  0.4769 -0.0610 -0.0868
    2MPD1    H514156   4.497   4.157   1.132  0.2075 -0.6726 -1.2074
    2MPD1    N114157   4.541   3.984   0.681 -0.2459 -0.0813  0.0624
    2MPD1    H614158   4.454   4.037   0.683 -0.0789  0.0683  3.6460
    2MPD1    H714159   4.510   3.895   0.642  2.1425 -1.2191  0.7702
    1MPD1     C14160   3.853   2.868  11.184  0.7019  0.7282 -0.1909
    1MPD1    C114161   3.767   2.830  11.284  0.6737  0.5625  0.3436
    1MPD1    C214162   3.819   2.829  11.416 -0.0506  0.3852  0.4548
    1MPD1    C314163   3.954   2.853  11.436  0.2544 -0.1528 -0.4499
    1MPD1    C414164   4.043   2.878  11.328 -0.8197  0.5742  0.4191
    1MPD1    C514165   3.987   2.882  11.203 -1.0966 -0.0959  0.2771
    1MPD1     H14166   3.743   2.815  11.492 -0.3903  0.9535  0.2165
    1MPD1    H114167   4.151   2.878  11.342 -0.5200  0.8703 -1.9457
    1MPD1    H214168   3.814   2.890  11.085  1.2178 -0.8664 -0.7533
    1MPD1    H314169   4.057   2.910  11.125 -0.5990 -1.3068  0.2919
    1MPD1     N14170   4.010   2.843  11.568  0.4939  0.2893  0.4350
    1MPD1    H514171   3.950   2.815  11.645  0.2351 -0.0983  0.0946
    1MPD1    N114172   3.629   2.829  11.253 -0.5579  0.1315 -0.1637
    1MPD1    H614173   3.575   2.766  11.313 -0.4654  0.9278  0.7469
    1MPD1    H714174   3.614   2.813  11.154  3.9135 -2.6361 -0.4192
    2MPD1     C14175   3.492   3.056  11.703  0.6122  0.1095  0.9381
    2MPD1    C114176   3.624   3.072  11.744  0.9765 -0.8613  0.0243
    2MPD1    C214177   3.722   3.123  11.661 -0.6745 -0.2773  0.5437
    2MPD1    C314178   3.686   3.144  11.530  0.9883  0.0684 -0.3657
    2MPD1    C414179   3.562   3.106  11.482  0.0551  0.2927 -0.4927
    2MPD1    C514180   3.465   3.077  11.570  0.1802 -0.1004 -0.5285
    2MPD1     H14181   3.820   3.152  11.698 -0.8629  2.1209 -0.8572
    2MPD1    H114182   3.545   3.124  11.377  2.2506  0.1552 -0.8714
    2MPD1    H214183   3.417   3.041  11.780 -1.6536  0.8751 -1.1527
    2MPD1    H314184   3.362   3.069  11.536  0.8677 -1.3291 -2.3558
    2MPD1     N14185   3.771   3.192  11.429 -0.4161  0.2867 -0.2457
    2MPD1    H514186   3.731   3.195  11.336 -0.5371  0.0234 -0.2039
    2MPD1    N114187   3.648   3.065  11.881  0.0790  0.6042  0.8847
    2MPD1    H614188   3.742   3.033  11.901  1.2845  3.5499 -0.1234
    2MPD1    H714189   3.582   2.998  11.921  0.3853  0.4068  1.0567
    3MPD1     C14190   3.684   3.342  10.505  0.3734 -0.0750  0.2053
    3MPD1    C114191   3.668   3.459  10.575 -0.6622 -0.6283  0.0194
    3MPD1    C214192   3.734   3.476  10.696 -0.1232 -0.0175 -0.4002
    3MPD1    C314193   3.806   3.371  10.758 -0.2440 -0.3561 -0.0620
    3MPD1    C414194   3.812   3.252  10.688 -0.0767 -0.3411 -0.0218
    3MPD1    C514195   3.751   3.230  10.568 -0.3789 -0.2020  0.7816
    3MPD1     H14196   3.746   3.576  10.733  0.7214  0.0908 -0.9510
    3MPD1    H114197   3.861   3.166  10.732 -1.6992 -1.5538 -0.5842
    3MPD1    H214198   3.644   3.328  10.405  1.6643 -1.5907 -0.1130
    3MPD1    H314199   3.769   3.135  10.519  2.0090  0.3921  0.5161
    3MPD1     N14200   3.855   3.384  10.890  0.0238  0.0048  0.0597
    3MPD1    H514201   3.839   3.472  10.938  0.4292 -0.1317  0.4485
    3MPD1    N114202   3.619   3.575  10.501  0.1277 -0.7426 -0.2342
    3MPD1    H614203   3.548   3.553  10.431 -0.9267 -1.5459  1.1059
    3MPD1    H714204   3.588   3.635  10.576 -0.4161 -1.2877 -0.0247
    4MPD2     C14205   3.925   3.257  12.147  0.1068 -0.9857  0.1373
    4MPD2    C114206   4.058   3.214  12.128  0.0653 -0.5299 -0.0308
    4MPD2    C214207   4.165   3.298  12.157 -0.3838 -0.0486 -0.2997
    4MPD2    C314208   4.139   3.417  12.211  0.1512 -0.0785  0.5006
    4MPD2    C414209   4.018   3.463  12.237 -0.1671 -0.2355  0.3730
    4MPD2    C514210   3.910   3.382  12.209  0.2594 -0.4997 -0.0803
    4MPD2     H14211   4.262   3.260  12.128 -0.0941 -0.6914  1.5166
    4MPD2    H114212   4.000   3.563  12.276  0.1591 -0.6123  1.4908
    4MPD2    H214213   3.845   3.197  12.107 -2.0803  0.9854  1.5717
    4MPD2    H314214   3.810   3.423  12.212  0.4689 -0.0593  0.9887
    4MPD2     N14215   4.244   3.516  12.228 -0.2820 -0.1631 -0.9941
    4MPD2    H514216   4.224   3.607  12.268 -0.3935 -0.7865  0.3601
    4MPD2    N114217   4.092   3.088  12.065  0.3315 -0.5572  0.0464
    4MPD2    H714218   4.192   3.079  12.052  0.5352  1.4197  0.2927
    5TMC3    C114219   4.088   2.888  11.961  0.1524 -0.7567 -0.2706
    5TMC3    C214220   4.060   2.874  11.834  0.0973  0.2245 -0.0632
    5TMC3    C314221   4.165   2.862  11.745  0.4483 -0.4942 -0.0328
    5TMC3    C414222   4.217   2.874  12.008  0.1245  0.7707 -0.1190
    5TMC3    C514223   4.319   2.869  11.919 -0.3611 -0.2184 -0.3667
    5TMC3    C614224   4.297   2.858  11.782 -0.1911 -0.2530  0.3730
    5TMC3     C14225   4.011   2.989  12.020  0.5440 -0.6065 -0.1557
    5TMC3     O14226   3.891   2.983  12.014 -0.0509 -0.4337  0.3925
    5TMC3     H14227   3.963   2.908  11.800  0.1967  0.6193  0.0513
    5TMC3    H114228   4.248   2.884  12.112  0.2341  0.7031 -0.1451
    5TMC3    H214229   4.378   2.871  11.710 -0.2174 -2.4517 -0.0488
    5TMC3    C714230   4.408   2.979  11.951 -0.4289  0.5480  0.4466
    5TMC3    C814231   4.137   2.883  11.601  0.3314  0.3136 -0.5164
    5TMC3    O114232   4.363   3.064  12.026  0.0452 -0.7012  0.2031
    5TMC3    O214233   4.216   2.951  11.535 -0.1285  0.4390  0.3635
    6TMC3    C114234   3.968   3.272  11.331  0.2350  0.2836  0.1327
    6TMC3    C214235   3.899   3.247  11.214 -0.4117 -0.3936 -0.7682
    6TMC3    C314236   3.922   3.329  11.105 -0.4045  0.2113  0.3268
    6TMC3    C414237   4.039   3.387  11.350  0.3878 -0.4325 -0.2150
    6TMC3    C514238   4.042   3.470  11.246  0.0422  0.0026 -0.2646
    6TMC3    C614239   3.989   3.448  11.118  0.5895 -0.0128 -0.8064
    6TMC3     C14240   3.904   3.219  11.449  0.3560  0.6577  0.6508
    6TMC3     O14241   3.962   3.254  11.552  0.4452  0.5021  0.1886
    6TMC3     H14242   3.849   3.151  11.217  1.9831 -1.6145  0.6843
    6TMC3    H114243   4.098   3.390  11.441  3.2552 -0.1527 -2.0744
    6TMC3    H214244   4.015   3.500  11.027  1.8630  0.3553 -0.2378
    6TMC3    C714245   4.130   3.589  11.249 -0.1434 -0.4569 -0.3498
    6TMC3    C814246   3.884   3.282  10.974  0.1736  0.2050 -0.3068
    6TMC3    O114247   4.173   3.625  11.139  0.1996 -0.4037 -0.3683
    6TMC3    O214248   3.883   3.156  10.958 -0.0622  0.4827  0.1216
    7MPD2     C14249   0.014   3.312  11.769 -0.0515 -1.0301 -0.4608
    7MPD2    C114250   4.679   3.320  11.877 -0.7865 -0.1438  0.3865
    7MPD2    C214251   4.597   3.210  11.912 -0.2113 -0.2274  0.4903
    7MPD2    C314252   4.600   3.095  11.836 -0.8733 -0.1279  0.4741
    7MPD2    C414253   4.680   3.095  11.726  0.4437  0.1367  1.0484
    7MPD2    C514254   0.016   3.198  11.699  0.6758 -0.3566 -0.1990
    7MPD2     H14255   4.534   3.228  11.998  1.1986  0.1222  1.4553
    7MPD2    H114256   4.703   3.001  11.677 -0.4294 -0.5515  1.9361
    7MPD2    H214257   0.077   3.394  11.735 -1.0900  0.8132  2.1377
    7MPD2    H314258   0.089   3.173  11.622  0.6780 -1.4101  0.1583
    7MPD2     N14259   4.519   2.983  11.865 -0.2056 -0.7402 -0.0738
    7MPD2    H514260   4.539   2.906  11.801 -0.0266  0.0732 -1.0105
    7MPD2    N114261   4.646   3.435  11.954  0.2211 -0.5314  0.1838
    7MPD2    H714262   4.563   3.431  12.012 -1.4298  1.5949 -2.0453
    8TMC3    C114263   4.626   3.654  12.006 -0.4292 -0.2583 -0.2804
    8TMC3    C214264   4.568   3.749  11.932  0.1571  0.2130 -0.2902
    8TMC3    C314265   4.436   3.775  11.959 -0.8716 -0.3776 -0.2202
    8TMC3    C414266   4.573   3.608  12.123  0.4962 -0.4692  0.5522
    8TMC3    C514267   4.438   3.630  12.156 -0.1835  0.6619  0.1749
    8TMC3    C614268   4.373   3.722  12.074  0.4707  0.6697 -0.5514
    8TMC3     C14269   4.697   3.557  11.924  0.3575  0.5022  0.3342
    8TMC3     O14270   0.013   3.591  11.820  0.0532  0.3258 -0.5452
    8TMC3     H14271   4.617   3.762  11.836 -2.0275  0.9855 -1.2895
    8TMC3    H114272   4.628   3.525  12.165 -0.4367  0.3294  3.3505
    8TMC3    H214273   4.271   3.746  12.103 -0.1883 -0.2834 -2.0511
    8TMC3    C714274   4.376   3.501  12.176  0.0377 -0.5548  0.0068
    8TMC3    C814275   4.341   3.795  11.851 -0.3763  1.0128 -0.5819
    8TMC3    O114276   4.430   3.404  12.125  0.2149  0.8585  0.1276
    8TMC3    O214277   4.229   3.746  11.863  0.6376 -0.3791  0.0110
    9MPD2     C14278   4.446   3.907  11.504  0.4758 -0.8938 -0.3375
    9MPD2    C114279   4.366   3.844  11.605  0.0918 -0.1690 -0.7120
    9MPD2    C214280   4.267   3.755  11.555  0.2180  0.3032 -0.4964
    9MPD2    C314281   4.241   3.742  11.417 -0.6591  0.5739 -0.5242
    9MPD2    C414282   4.325   3.806  11.327  0.1386 -0.0309  0.2290
    9MPD2    C514283   4.425   3.886  11.373 -0.1760 -0.1659 -0.4071
    9MPD2     H14284   4.209   3.701  11.629 -1.2632  0.2859 -1.6820
    9MPD2    H114285   4.292   3.818  11.224  3.4977  0.4041 -0.8347
    9MPD2    H214286   4.527   3.968  11.541  0.4394 -1.3546  0.4910
    9MPD2    H314287   4.472   3.953  11.302  0.3255 -2.0737 -1.8720
    9MPD2     N14288   4.155   3.639  11.377  0.0155  0.0748  0.5096
    9MPD2    H514289   4.097   3.596  11.448 -0.8204  0.4948  0.0848
    9MPD2    N114290   4.397   3.864  11.747  0.2832  0.0811  0.2605
    9MPD2    H714291   4.490   3.903  11.760  0.5849  0.0779 -1.9170
    1MPD1     C14292   4.033   2.353  16.331  0.0090  0.0265 -0.0216
    1MPD1    C114293   4.061   2.245  16.251 -0.2991 -0.1784  0.5800
    1MPD1    C214294   4.107   2.123  16.302 -0.1941 -0.0327  0.0408
    1MPD1    C314295   4.150   2.114  16.436  0.1521 -0.8145 -0.1146
    1MPD1    C414296   4.115   2.220  16.514 -0.2647 -0.6074 -0.2953
    1MPD1    C514297   4.064   2.334  16.461 -0.4515  0.4385 -0.2526
    1MPD1     H14298   4.117   2.036  16.238 -1.1810  0.1320 -0.3269
    1MPD1    H114299   4.119   2.220  16.623  2.0806 -2.3616 -0.3871
    1MPD1    H214300   3.984   2.444  16.298  0.5101  0.5966  0.8176
    1MPD1    H314301   4.036   2.417  16.524  0.2039 -1.6062  2.7377
    1MPD1     N14302   4.194   1.998  16.504  0.0979 -0.0266 -0.0441
    1MPD1    H514303   4.193   1.996  16.606 -2.1843  0.6515 -0.0521
    1MPD1    N114304   3.999   2.245  16.122  0.1350 -0.7977 -0.7786
    1MPD1    H614305   3.983   2.337  16.081  1.0918 -0.7933 -1.1452
    1MPD1    H714306   4.043   2.175  16.062  3.5306  0.1253  0.6135
    2TMC2    C114307   4.152   1.530  16.520  0.4952 -0.0891  0.2080
    2TMC2    C214308   4.153   1.532  16.664 -0.5655 -0.1035  0.1042
    2TMC2    C314309   4.177   1.648  16.730  0.1922 -0.1409  0.3846
    2TMC2    C414310   4.188   1.635  16.454  0.4423  1.3958  0.0386
    2TMC2    C514311   4.200   1.758  16.521  0.1246 -0.0151 -0.3707
    2TMC2    C614312   4.202   1.766  16.656  0.4219 -0.2729 -0.4615
    2TMC2     C14313   4.109   1.405  16.454  0.2155 -0.5206 -0.3322
    2TMC2     O14314   4.061   1.314  16.519 -0.0041  0.1027  0.7339
    2TMC2     H14315   4.141   1.438  16.715 -0.1747  0.6018  1.4796
    2TMC2    H114316   4.198   1.627  16.347 -2.3082  2.5724 -0.2978
    2TMC2    H214317   4.217   1.856  16.715 -1.2984  1.3720 -2.5712
    2TMC2    C714318   4.214   1.878  16.442 -0.0159  0.0436 -0.4288
    2TMC2    C814319   4.245   1.632  16.850  0.2458 -0.0604  0.6873
    2TMC2    O114320   4.231   1.863  16.321 -0.4021 -0.5972 -0.1583
    2TMC2    O214321   4.320   1.540  16.882  0.2067  0.1842  0.0389
    2TMC2    O514322   4.205   1.735  16.928 -0.1290  0.4941  0.1616
    2TMC2    H514323   4.141   1.786  16.875 -0.3494  0.0850  0.0299
    3MPD1     C14324   4.118   1.061  16.076  0.0191 -0.3349 -0.1697
    3MPD1    C114325   4.122   1.185  16.011  0.2919 -0.1006  0.4994
    3MPD1    C214326   4.132   1.298  16.094  0.8375  0.4438 -0.8767
    3MPD1    C314327   4.123   1.287  16.232  0.9022 -0.0206 -1.0467
    3MPD1    C414328   4.108   1.163  16.284 -0.6543 -0.0526 -0.4893
    3MPD1    C514329   4.114   1.049  16.213  0.5787  0.6670  0.0029
    3MPD1     H14330   4.138   1.395  16.045  0.1642  0.9143 -0.0237
    3MPD1    H114331   4.095   1.143  16.390 -1.0702  1.2965 -0.2935
    3MPD1    H214332   4.110   0.970  16.016  0.2741 -0.7754  0.4683
    3MPD1    H314333   4.093   0.956  16.264 -0.1584  0.5822 -0.4543
    3MPD1     N14334   4.126   1.406  16.315 -0.5893 -0.6189  0.5714
    3MPD1    H514335   4.116   1.498  16.273  1.0399 -0.3241  0.8460
    3MPD1    N114336   4.155   1.190  15.873 -0.7839  0.7490  0.0611
    3MPD1    H614337   4.111   1.275  15.840  1.2337  1.0169 -1.8699
    3MPD1    H714338   4.113   1.115  15.818  0.0774  0.5546 -0.3243
    1TMC1    C114339   2.437   0.694  13.158  0.1770  0.7667  0.1801
    1TMC1    C214340   2.355   0.668  13.267 -0.7495  0.5739  0.0965
    1TMC1    C314341   2.232   0.625  13.231 -0.4320 -0.3393 -0.6319
    1TMC1    C414342   2.399   0.674  13.031  0.1426  0.4815  0.1875
    1TMC1    C514343   2.276   0.648  13.004  0.2708 -0.1871  0.0148
    1TMC1    C614344   2.188   0.619  13.101 -0.7855 -0.1271  0.6609
    1TMC1     C14345   2.541   0.793  13.177 -0.4650  0.8443 -0.6262
    1TMC1     O14346   2.517   0.892  13.106 -0.5361 -0.3887 -0.7152
    1TMC1     H14347   2.375   0.688  13.372 -1.0153  1.2649  0.0119
    1TMC1    H114348   2.455   0.715  12.947 -0.4898 -0.2913 -0.6071
    1TMC1    H214349   2.082   0.606  13.082 -0.7809 -0.1254  0.6345
    1TMC1    C714350   2.228   0.639  12.868 -0.0006 -0.5346  0.1289
    1TMC1    C814351   2.145   0.647  13.344 -0.3271 -0.4020  0.9514
    1TMC1    O114352   2.263   0.715  12.776 -0.1054  0.2067 -0.2178
    1TMC1    O214353   2.152   0.735  13.425 -0.0247  0.0727  0.3801
    1TMC1    O314354   2.128   0.543  12.869  0.0603  0.1330 -0.3422
    1TMC1    H314355   2.148   0.465  12.924 -2.8241  0.5467  1.3378
    1TMC1    O514356   2.028   0.585  13.315 -0.1565 -0.5719 -0.0390
    1TMC1    H514357   2.057   0.506  13.265  2.1249 -0.6590  1.3944
    2MPD2     C14358   2.793   0.960  13.207  0.0929  0.5218 -0.0871
    2MPD2    C114359   2.769   0.839  13.271  0.6951  0.0434 -0.5685
    2MPD2    C214360   2.865   0.789  13.354 -0.4477  0.3763 -0.0220
    2MPD2    C314361   2.985   0.851  13.374  0.4272  0.1123  0.0848
    2MPD2    C414362   3.011   0.973  13.315 -0.3485 -0.3717  0.2702
    2MPD2    C514363   2.913   1.027  13.236 -0.1018  0.3374  1.5305
    2MPD2     H14364   2.865   0.685  13.384  0.0048  0.6485  0.9354
    2MPD2    H114365   3.107   1.019  13.338 -0.3855  0.2421 -0.7910
    2MPD2    H214366   2.724   1.006  13.138 -0.7183  2.1756  1.8181
    2MPD2    H314367   2.931   1.124  13.191 -1.0465  0.8128  2.1754
    2MPD2     N14368   3.074   0.782  13.460 -0.5036  0.4817  0.5603
    2MPD2    H514369   3.031   0.709  13.516  1.7964 -1.8404 -0.6799
    2MPD2    N114370   2.649   0.757  13.251  0.1262  0.1392 -0.1873
    2MPD2    H714371   2.651   0.664  13.291  2.3513  0.1589 -0.2171
    3TCq1    O114372   3.483   0.763  14.007 -0.2067  0.1569 -0.7659
    3TCq1    C114373   3.476   0.824  13.886  0.0195  0.8333  0.3700
    3TCq1    O214374   3.536   0.928  13.855 -0.0032 -0.4641 -0.4108
    3TCq1    C214375   3.407   0.746  13.784 -0.5020  0.0230 -0.0812
    3TCq1    C314376   3.374   0.615  13.808  0.2478 -0.4415  0.7292
    3TCq1    C414377   3.277   0.556  13.734  0.7325 -0.1361 -0.5703
    3TCq1    C514378   3.219   0.624  13.632  0.2461  0.2898 -0.1521
    3TCq1    C614379   3.266   0.749  13.599  0.4519  0.0529  0.5779
    3TCq1    C714380   3.361   0.813  13.673  0.8646 -0.3297 -0.6139
    3TCq1    C814381   3.201   0.829  13.492  0.0955  0.3161  0.1883
    3TCq1    O414382   3.273   0.904  13.427  0.1436 -0.1480  0.2911
    3TCq1    C914383   3.227   0.428  13.765 -0.0219 -0.4374  0.9325
    3TCq1    O514384   3.296   0.365  13.856 -0.5531  0.3677  0.3555
    3TCq1    O614385   3.150   0.366  13.693 -0.1738 -0.1146  0.4016
    3TCq1    H114386   3.417   0.694  14.027  0.9042 -0.1494  1.8984
    3TCq1    H214387   3.412   0.559  13.892  1.3629 -0.8424 -0.0473
    3TCq1    H314388   3.136   0.574  13.583  0.4668  0.9188 -1.1605
    3TCq1    H414389   3.382   0.919  13.664 -0.2443 -0.1085 -0.5694
    1MPD2     C14390   1.271   2.404  14.668  0.5659 -0.4587  0.3875
    1MPD2    C114391   1.229   2.345  14.783 -0.1496  0.5447 -0.1273
    1MPD2    C214392   1.316   2.318  14.887 -0.0849 -0.1915 -0.2266
    1MPD2    C314393   1.452   2.331  14.867 -0.2446 -1.1230 -0.2618
    1MPD2    C414394   1.493   2.378  14.742  0.9140  0.4926  0.0158
    1MPD2    C514395   1.402   2.425  14.653 -0.7140 -0.4010 -0.2531
    1MPD2     H14396   1.275   2.272  14.976 -1.5368 -0.4223 -1.0136
    1MPD2    H114397   1.600   2.387  14.726  0.0751  2.3958 -4.3206
    1MPD2    H214398   1.207   2.441  14.589  0.3258 -0.7871  0.4255
    1MPD2    H314399   1.444   2.458  14.559  0.9023 -0.7233  0.3545
    1MPD2     N14400   1.557   2.284  14.955  0.0761  0.0252  0.3252
    1MPD2    H514401   1.652   2.304  14.925 -1.0016  1.2763 -2.2486
    1MPD2    N114402   1.096   2.318  14.792  0.3207  0.3295  0.4086
    1MPD2    H714403   1.040   2.350  14.713  1.0180 -0.8473 -0.5714
    2TMC3    C114404   0.899   2.185  14.846 -0.5010  0.2592  0.9116
    2TMC3    C214405   0.867   2.086  14.939 -0.4561  0.0540 -0.1808
    2TMC3    C314406   0.824   1.971  14.896  0.3911  0.0075 -0.4252
    2TMC3    C414407   0.864   2.170  14.711 -0.0732  0.4829  0.6142
    2TMC3    C514408   0.810   2.047  14.678 -0.0869  0.2724  0.9060
    2TMC3    C614409   0.803   1.946  14.768  1.0205 -0.1511  0.1136
    2TMC3     C14410   1.034   2.230  14.874  0.7080  0.5519  0.3769
    2TMC3     O14411   1.086   2.167  14.966 -0.1456 -0.2657 -0.1125
    2TMC3     H14412   0.879   2.107  15.045 -3.2726  0.4384  0.0558
    2TMC3    H114413   0.892   2.250  14.644 -0.7951  0.2518  0.0314
    2TMC3    H214414   0.800   1.844  14.733  0.7488 -0.0514 -0.1513
    2TMC3    C714415   0.760   2.017  14.543  0.4094 -0.1170  0.3757
    2TMC3    C814416   0.878   1.859  14.969  0.5948  1.1708  0.2180
    2TMC3    O114417   0.723   1.906  14.520  0.4964 -0.0234  0.0002
    2TMC3    O214418   0.833   1.746  14.948 -0.2287 -0.2255 -0.3946
    3TCq1    O114419   0.756   2.584  13.447 -0.5775 -0.1112 -0.5911
    3TCq1    C114420   0.795   2.682  13.536  0.1270  0.2137 -0.5069
    3TCq1    O214421   0.794   2.800  13.511 -0.3419 -0.1846  0.3819
    3TCq1    C214422   0.818   2.625  13.666  0.1521  0.3748  0.5001
    3TCq1    C314423   0.910   2.695  13.739 -0.1801  0.4684  0.1805
    3TCq1    C414424   0.929   2.652  13.862  0.0969 -0.1087  0.2206
    3TCq1    C514425   0.864   2.547  13.915  0.1322 -0.4142  0.4948
    3TCq1    C614426   0.782   2.468  13.837 -0.1013  0.5703  0.6873
    3TCq1    C714427   0.760   2.510  13.713  0.4193  0.3838 -0.1220
    3TCq1    C814428   0.713   2.357  13.891 -0.2172  1.0428  0.2444
    3TCq1    O414429   0.624   2.306  13.828  0.4074 -0.1904 -0.2884
    3TCq1    C914430   1.028   2.721  13.939 -0.3155 -0.0041  0.3491
    3TCq1    O514431   1.073   2.834  13.901  0.3640 -0.3015 -0.0388
    3TCq1    O614432   1.049   2.669  14.053 -0.3091  0.2603 -0.1183
    3TCq1    H114433   0.774   2.493  13.477  0.0471  0.0730 -0.4100
    3TCq1    H214434   0.963   2.780  13.697  0.0678 -0.5108 -1.4592
    3TCq1    H314435   0.871   2.540  14.022 -3.3672 -0.5207  0.7040
    3TCq1    H414436   0.688   2.446  13.663  0.6735 -1.8213  2.3414
    4MPD2     C14437   0.621   2.112  14.050 -0.7300 -0.0147 -0.3245
    4MPD2    C114438   0.711   2.210  14.093  0.2153  0.2810  0.0153
    4MPD2    C214439   0.760   2.197  14.220  0.5729 -0.5993 -0.8935
    4MPD2    C314440   0.720   2.110  14.317  0.3773  0.2523  0.0031
    4MPD2    C414441   0.619   2.016  14.271 -0.6088 -0.0047 -0.3192
    4MPD2    C514442   0.573   2.016  14.141  0.4507  0.3296 -0.2520
    4MPD2     H14443   0.830   2.273  14.254 -0.8709  1.0617 -1.6304
    4MPD2    H114444   0.582   1.938  14.337 -0.9134  2.3655  2.3074
    4MPD2    H214445   0.584   2.100  13.949 -0.0303 -1.5586 -0.4004
    4MPD2    H314446   0.497   1.950  14.102  2.4710 -2.3239  0.3461
    4MPD2     N14447   0.768   2.118  14.451 -0.1536 -0.3555  0.1599
    4MPD2    H514448   0.833   2.193  14.469 -1.6399  0.9251  0.1502
    4MPD2    N114449   0.764   2.319  14.011 -0.0892  0.2612 -0.3622
    4MPD2    H714450   0.845   2.369  14.048  0.3953  0.6234 -1.9224
    5TMC2    C114451   1.657   1.921  15.223  0.1007  0.0990  0.1244
    5TMC2    C214452   1.759   1.884  15.141 -0.8974  0.3245 -0.7948
    5TMC2    C314453   1.796   1.969  15.049 -0.1958 -0.7330  0.8889
    5TMC2    C414454   1.602   2.048  15.211  0.2157  1.0332  0.5303
    5TMC2    C514455   1.645   2.134  15.115  0.1359 -0.3273  0.2972
    5TMC2    C614456   1.750   2.100  15.037  0.1975 -0.1445 -0.1178
    5TMC2     C14457   1.547   1.823  15.240 -0.2578 -0.8112  0.0747
    5TMC2     O14458   1.585   1.706  15.260  0.1695 -0.0052 -1.0637
    5TMC2     H14459   1.790   1.780  15.140  0.4091  0.7163 -0.9345
    5TMC2    H114460   1.521   2.079  15.275 -1.8387 -0.5626 -1.2750
    5TMC2    H214461   1.800   2.155  14.958 -1.0023  1.3351  0.1471
    5TMC2    C714462   1.530   2.204  15.063 -0.3674 -0.2106 -0.2217
    5TMC2    C814463   1.887   1.930  14.951  0.2197  0.3254  0.9254
    5TMC2    O114464   1.423   2.160  15.099  0.0461 -0.4765  0.0725
    5TMC2    O214465   1.907   1.983  14.842 -0.0590  0.3541  0.6150
    5TMC2    O514466   1.978   1.855  15.011  0.1503  0.2694  0.7035
    5TMC2    H514467   1.969   1.830  15.106 -1.3202  0.6553  0.6576
    6MPD2     C14468   1.071   1.682  15.127 -0.6712 -0.1283  0.2063
    6MPD2    C114469   1.089   1.818  15.095  0.6089 -0.2415  0.6705
    6MPD2    C214470   1.215   1.876  15.116 -0.2417 -0.1083 -1.0805
    6MPD2    C314471   1.320   1.801  15.170  0.3060  0.0938  0.0951
    6MPD2    C414472   1.306   1.667  15.190  0.2396  0.0232  0.3938
    6MPD2    C514473   1.182   1.616  15.179  0.0151  0.5318 -0.3621
    6MPD2     H14474   1.225   1.982  15.096  0.5008 -0.4860 -2.6834
    6MPD2    H114475   1.376   1.603  15.244  0.3965  0.0080  0.1726
    6MPD2    H214476   0.974   1.634  15.118 -1.9340  2.3527  0.7327
    6MPD2    H314477   1.167   1.516  15.217  0.7304  0.7899  0.6186
    6MPD2     N14478   1.436   1.870  15.179  0.1942  0.0323 -0.1454
    6MPD2    H514479   1.436   1.969  15.156 -1.7628  0.1183  0.2787
    6MPD2    N114480   0.997   1.898  15.031 -0.2680 -0.7286 -0.6714
    6MPD2    H714481   1.027   1.992  15.009 -1.4663 -0.8187 -2.6532
  945NH3     N114482   3.629   0.237  11.327 -0.1108  0.2903 -0.0270
  945NH3     H214483   3.705   0.225  11.261 -1.8479  1.0511 -2.1893
  945NH3     H314484   3.682   0.248  11.413 -0.5292 -1.1046  0.4196
  945NH3     H414485   3.602   0.334  11.316  1.9096  0.8633  0.0987
  946SOD     NA14486   0.721   4.433  15.352  0.2505 -0.0636  0.1767
  947SOD     NA14487   2.525   3.424  12.591  0.5771 -0.4086  0.0834
  948SOD     NA14488   4.024   0.153   4.084  0.0715  0.2346  0.5021
  949SOD     NA14489   0.681   3.967  12.578 -0.3297 -0.1719 -0.2928
  950SOD     NA14490   1.933   1.321  10.818  0.1106  0.4657  0.2216
  951SOD     NA14491   0.369   1.024   7.876  0.4132 -0.3563  0.0446
  952SOD     NA14492   0.825   1.536  14.855  0.2066  0.0963  0.3245
  953SOD     NA14493   0.836   2.644  12.471 -0.3791  0.1383 -0.0397
  954SOL     OW14494   4.588   3.146   4.976  0.0118  0.8269 -0.2221
  954SOL    HW114495   4.645   3.069   4.969 -0.9138  0.0675  0.4491
  954SOL    HW214496   4.579   3.173   5.068 -2.5769 -0.7853  0.0118
  955SOL     OW14497   1.918   0.716  14.195  0.0527  0.4893 -0.0612
  955SOL    HW114498   1.859   0.742  14.124 -1.7035 -3.2372 -0.0012
  955SOL    HW214499   1.929   0.624  14.171 -0.4908  1.1334 -2.8140
  956SOL     OW14500   1.500   3.846   1.075  0.5491 -0.3170  0.3509
  956SOL    HW114501   1.576   3.847   1.133  0.6798  0.1981  0.1698
  956SOL    HW214502   1.459   3.759   1.083  0.7149 -0.4676 -0.4579
  957SOL     OW14503   3.236   2.614   7.288  0.0665  0.2295  0.1811
  957SOL    HW114504   3.193   2.651   7.365 -0.2638  0.1731  0.0238
  957SOL    HW214505   3.298   2.562   7.338 -0.1660  1.3583  1.6512
  958SOL     OW14506   1.356   4.635   3.086  0.5704  0.3679  0.0621
  958SOL    HW114507   1.291   4.613   3.020 -1.2191 -1.5675  2.4793
  958SOL    HW214508   1.435   4.598   3.046  0.9524  1.4654 -0.1963
  959SOL     OW14509   0.142   4.730   4.492  0.4740  0.1596  0.0211
  959SOL    HW114510   0.050   0.009   4.505  0.1498  0.5248 -3.0925
  959SOL    HW214511   0.137   4.697   4.403 -1.3145  1.1171 -0.2230
  960SOL     OW14512   2.118   3.382  12.924 -0.0449 -0.7025 -0.2264
  960SOL    HW114513   2.163   3.312  12.877  0.3062  0.0406 -0.9989
  960SOL    HW214514   2.060   3.424  12.861  0.9019  0.3756 -0.3988
  961SOL     OW14515   3.565   1.033  14.614 -0.4364 -0.0788  0.0029
  961SOL    HW114516   3.507   0.986  14.674  0.4609  2.3366  2.7709
  961SOL    HW214517   3.551   0.982  14.534 -1.8133  0.4124 -0.0681
  962SOL     OW14518   3.141   4.569   3.943 -0.0275 -0.4149  0.0440
  962SOL    HW114519   3.211   4.529   3.993  0.2109 -0.8395 -0.6330
  962SOL    HW214520   3.060   4.521   3.960 -2.0867  2.1236 -2.6368
  963SOL     OW14521   3.344   2.547   7.879  0.2506 -0.0572 -0.0529
  963SOL    HW114522   3.306   2.620   7.831 -0.2275  1.0103  1.9746
  963SOL    HW214523   3.317   2.565   7.969 -1.8264 -1.9188 -0.3007
  964SOL     OW14524   3.459   1.625   5.700  0.0514 -0.4181 -0.4047
  964SOL    HW114525   3.375   1.609   5.743 -1.0969  0.2127 -2.3907
  964SOL    HW214526   3.500   1.664   5.777  1.5990  0.0052 -1.4347
  965SOL     OW14527   4.295   2.188   1.268 -0.8088 -0.3478 -0.4137
  965SOL    HW114528   4.243   2.259   1.231  0.2280  0.3945 -0.4325
  965SOL    HW214529   4.223   2.126   1.275 -2.1938  1.2211 -0.7417
  966SOL     OW14530   1.818   1.748  14.222  0.2455  0.0212 -0.2461
  966SOL    HW114531   1.806   1.655  14.243  1.0014 -0.0514 -0.1142
  966SOL    HW214532   1.789   1.754  14.131  1.4848 -0.2667 -0.6603
  967SOL     OW14533   4.156   0.925   7.320  0.3145  0.4795  0.3756
  967SOL    HW114534   4.158   1.020   7.307 -0.3078  0.4740  0.2512
  967SOL    HW214535   4.061   0.915   7.319  0.4257 -0.7160  1.1970
  968SOL     OW14536   4.512   4.382   9.489  0.0064  0.2353  0.0669
  968SOL    HW114537   4.441   4.440   9.460 -0.7958 -0.0851  1.3744
  968SOL    HW214538   4.562   4.447   9.539  0.0631  0.9206 -0.8892
  969SOL     OW14539   0.165   1.617  16.309 -0.3210 -0.3685 -0.0939
  969SOL    HW114540   0.247   1.590  16.269 -0.1271  1.1827 -0.7831
  969SOL    HW214541   0.106   1.568  16.251 -1.7381 -0.5628  1.5253
  970SOL     OW14542   1.667   0.478   6.017 -0.4551 -0.3573  0.0899
  970SOL    HW114543   1.696   0.534   5.945  0.9120  0.0900  0.9790
  970SOL    HW214544   1.690   0.392   5.981 -2.1151  1.1601 -4.5553
  971SOL     OW14545   4.574   3.680  16.527  0.2405 -0.0495 -0.5486
  971SOL    HW114546   4.629   3.757  16.511  0.6042  0.1520  1.6815
  971SOL    HW214547   4.533   3.660  16.443 -0.0449 -1.2463 -0.1158
  972SOL     OW14548   2.082   1.797  10.560 -0.1945 -0.2365  0.1405
  972SOL    HW114549   1.997   1.784  10.602  0.9691 -2.6142  1.7699
  972SOL    HW214550   2.087   1.892  10.573 -0.3704  0.1857 -2.9243
  973SOL     OW14551   0.263   1.587   7.380  0.1920 -0.0382  0.1201
  973SOL    HW114552   0.179   1.622   7.411 -0.2134 -1.7257  0.9306
  973SOL    HW214553   0.251   1.590   7.285  0.5094 -1.1305  0.0505
  974SOL     OW14554   0.676   4.413  10.730 -0.6895  0.1671 -0.0792
  974SOL    HW114555   0.731   4.335  10.726  0.7822  1.1702  0.8143
  974SOL    HW214556   0.587   4.382  10.749  0.0250 -1.9270 -0.1088
  975SOL     OW14557   0.700   3.941   7.999  0.1689  0.1537  0.4648
  975SOL    HW114558   0.709   3.894   7.916  2.1782  1.4765 -0.0813
  975SOL    HW214559   0.742   3.873   8.051 -0.2718 -1.8213 -1.7423
  976SOL     OW14560   4.342   0.054   3.618 -0.2090  0.3218 -0.3013
  976SOL    HW114561   4.404   0.123   3.640 -0.9692  0.1606  2.3954
  976SOL    HW214562   4.255   0.083   3.642  0.2803 -0.0194  1.9123
  977SOL     OW14563   0.916   0.702   6.143 -0.0861 -0.0663 -0.2109
  977SOL    HW114564   0.835   0.670   6.183  2.2021 -1.4266  3.3902
  977SOL    HW214565   0.974   0.675   6.214  0.6238 -3.1321 -1.9830
  978SOL     OW14566   2.853   3.966   4.158  0.0227 -0.0497  1.1987
  978SOL    HW114567   2.803   3.912   4.097  0.5987  2.2832 -1.3265
  978SOL    HW214568   2.906   3.898   4.200  3.8479  1.0022 -1.9659
  979SOL     OW14569   2.586   3.487   2.171  0.1519 -0.0441  0.8311
  979SOL    HW114570   2.499   3.448   2.168  0.0129  0.2865  0.4981
  979SOL    HW214571   2.633   3.434   2.107 -2.1765 -0.0836 -0.8603
  980SOL     OW14572   2.339   0.452  14.318  0.5238  0.1731 -0.1038
  980SOL    HW114573   2.319   0.358  14.319 -1.9492  0.7134  1.9720
  980SOL    HW214574   2.329   0.482  14.227 -0.5664  0.6374  0.1663
  981SOL     OW14575   1.064   4.319   7.867  0.3818 -0.2851 -0.4400
  981SOL    HW114576   0.972   4.291   7.870 -0.0397  1.1393  0.0385
  981SOL    HW214577   1.108   4.246   7.910  0.1419 -1.3394 -1.9563
  982SOL     OW14578   1.810   3.387  16.555  0.1796  0.7326  0.2176
  982SOL    HW114579   1.824   3.292  16.552 -0.3148  0.6685  0.0122
  982SOL    HW214580   1.883   3.425  16.506 -0.0829  0.1345 -0.6410
  983SOL     OW14581   0.595   0.732   3.144 -0.1422  0.3917  0.3905
  983SOL    HW114582   0.596   0.659   3.082  2.6730  1.1328 -0.4259
  983SOL    HW214583   0.657   0.790   3.100 -0.2601  0.4620  0.3154
  984SOL     OW14584   0.204   1.349   8.718 -0.5757 -0.0875 -0.3601
  984SOL    HW114585   0.264   1.420   8.738 -0.7904 -0.2947  1.0357
  984SOL    HW214586   0.237   1.334   8.629  0.0242  1.9429 -0.4739
  985SOL     OW14587   0.316   3.199   4.427  0.0595 -0.4199  0.7948
  985SOL    HW114588   0.232   3.198   4.474  0.1719  1.5035  1.0253
  985SOL    HW214589   0.291   3.214   4.336 -0.6466 -0.2048  1.0193
  986SOL     OW14590   1.708   1.397  10.785  0.1186 -0.1684  0.3297
  986SOL    HW114591   1.642   1.351  10.734  1.0257 -1.8093  0.6435
  986SOL    HW214592   1.681   1.365  10.872  1.9294  0.9772  1.3219
  987SOL     OW14593   1.081   1.234   4.885  0.2275 -0.3728 -0.2439
  987SOL    HW114594   1.010   1.174   4.865  0.5669 -0.6314 -0.6815
  987SOL    HW214595   1.074   1.242   4.981 -1.0662  0.8160 -0.4477
  988SOL     OW14596   0.636   3.573   2.907  0.6793 -0.1706 -0.4212
  988SOL    HW114597   0.685   3.624   2.843  1.2292  0.3436  0.4147
  988SOL    HW214598   0.680   3.488   2.907  0.7835 -0.1100  0.5975
  989SOL     OW14599   3.054   4.000   0.642 -0.2490 -0.2074  0.7738
  989SOL    HW114600   3.125   3.973   0.584 -0.3010  2.8588 -0.7155
  989SOL    HW214601   3.099   4.004   0.727  0.4443 -0.2646  0.4108
  990SOL     OW14602   1.847   2.215   9.187 -0.5991  0.1799  0.3073
  990SOL    HW114603   1.848   2.301   9.229  1.2917  0.6905 -0.7933
  990SOL    HW214604   1.829   2.168   9.268  1.2755 -1.3649 -0.1918
  991SOL     OW14605   4.241   2.578  11.332 -1.1482 -0.6776  0.0204
  991SOL    HW114606   4.265   2.662  11.293 -1.8091 -0.8611 -0.7636
  991SOL    HW214607   4.323   2.553  11.375 -0.2102  1.1564 -0.7152
  992SOL     OW14608   3.192   3.789   5.745  0.1369  0.2309  0.5134
  992SOL    HW114609   3.263   3.834   5.789  1.0884  0.4003 -1.1811
  992SOL    HW214610   3.223   3.785   5.654 -0.0893  2.6514  0.3551
  993SOL     OW14611   2.581   0.029   5.820 -0.8652 -0.3698 -0.9443
  993SOL    HW114612   2.575   0.038   5.725  0.4242  0.6414 -0.9259
  993SOL    HW214613   2.581   4.679   5.838  0.8660 -0.6491 -2.3609
  994SOL     OW14614   1.609   3.785   4.404  0.2794 -0.0913 -0.1230
  994SOL    HW114615   1.575   3.855   4.349  0.8629  0.1171 -0.2202
  994SOL    HW214616   1.649   3.832   4.477  0.9724  1.2758 -1.4096
  995SOL     OW14617   3.403   4.385  11.209 -0.8204 -0.5539  0.1225
  995SOL    HW114618   3.340   4.456  11.216  1.3378  1.3818 -0.0349
  995SOL    HW214619   3.481   4.420  11.252  1.4866 -1.7958 -3.0973
  996SOL     OW14620   0.752   2.651   6.535  0.0217  0.0490  0.0883
  996SOL    HW114621   0.710   2.691   6.459 -1.2790 -0.1162  0.7141
  996SOL    HW214622   0.842   2.638   6.503 -0.1135 -0.1026 -0.2337
  997SOL     OW14623   4.543   0.786   8.638  0.1288  0.7666 -0.0101
  997SOL    HW114624   4.536   0.853   8.706  1.4718  0.0553  0.8319
  997SOL    HW214625   4.449   0.779   8.623 -0.0819  2.8575  0.3054
  998SOL     OW14626   1.181   4.556   4.352 -0.2534  0.4058  0.4098
  998SOL    HW114627   1.167   4.533   4.443 -0.4953  0.9851  0.5175
  998SOL    HW214628   1.132   4.638   4.346 -0.9133  0.0348  0.7320
  999SOL     OW14629   0.115   1.618   8.951 -0.3072 -0.1469 -0.3011
  999SOL    HW114630   0.138   1.705   8.919  0.6735 -0.0552  0.6823
  999SOL    HW214631   0.135   1.566   8.872 -0.3969  1.5519 -1.4496
 1000SOL     OW14632   4.665   1.466   8.207  0.6571  0.4803 -0.4241
 1000SOL    HW114633   4.576   1.501   8.208 -0.0241 -1.3694  1.5581
 1000SOL    HW214634   4.654   1.414   8.127  0.1529 -0.4881  0.2912
 1001SOL     OW14635   3.125   0.440  15.193 -0.2268 -0.0579  0.2034
 1001SOL    HW114636   3.091   0.413  15.108  0.8129 -0.9019  0.0664
 1001SOL    HW214637   3.208   0.481  15.170 -1.1203  0.3967 -2.1551
 1002SOL     OW14638   2.446   1.808   3.904  0.0717  0.3854 -0.2954
 1002SOL    HW114639   2.537   1.797   3.877  0.8319  0.4131  2.3221
 1002SOL    HW214640   2.468   1.822   3.996 -2.6173 -0.8392  0.5394
 1003SOL     OW14641   1.800   4.328   2.810 -0.1523 -0.2875  0.3095
 1003SOL    HW114642   1.803   4.422   2.824 -0.0324 -0.2974  0.3472
 1003SOL    HW214643   1.775   4.313   2.719 -2.7103 -0.8213  1.1030
 1004SOL     OW14644   2.295   3.196   6.827 -0.1112 -0.1003  0.6203
 1004SOL    HW114645   2.345   3.152   6.759 -0.0746  1.5932 -0.4672
 1004SOL    HW214646   2.273   3.121   6.882  2.2229 -0.3681  1.1804
 1005SOL     OW14647   3.658   1.720   9.078 -0.4152  0.2489  0.6749
 1005SOL    HW114648   3.737   1.765   9.111 -1.9197  0.8134  3.5506
 1005SOL    HW214649   3.629   1.653   9.140 -0.8612 -1.0636 -0.9840
 1006SOL     OW14650   0.228   4.166   2.864  0.4352 -0.3063  0.4127
 1006SOL    HW114651   0.310   4.174   2.816  0.8430  2.6103  1.5885
 1006SOL    HW214652   0.256   4.227   2.933 -1.8385 -0.1636  1.2381
 1007SOL     OW14653   4.521   4.612   3.582 -0.0924 -0.2596  0.1977
 1007SOL    HW114654   4.517   4.568   3.667 -0.8286 -2.0061 -0.7457
 1007SOL    HW214655   4.459   4.683   3.595 -1.6895 -1.8709  1.3609
 1008SOL     OW14656   3.197   0.170  10.116  0.2793 -0.3145  0.4023
 1008SOL    HW114657   3.285   0.166  10.078  0.2703  0.5330  0.3066
 1008SOL    HW214658   3.163   0.086  10.086 -2.0923 -0.1851  2.6685
 1009SOL     OW14659   0.981   1.415  16.110 -0.3396  0.6378  0.5866
 1009SOL    HW114660   0.942   1.333  16.080  0.8708  0.4703 -0.5069
 1009SOL    HW214661   0.981   1.405  16.205 -0.0164 -3.0554  0.2189
 1010SOL     OW14662   4.099   1.997   8.423 -0.2431 -0.8426 -0.5194
 1010SOL    HW114663   4.059   2.059   8.484  1.7594 -0.0098 -0.0681
 1010SOL    HW214664   4.023   1.946   8.395 -0.2134 -0.7955 -0.6887
 1011SOL     OW14665   3.389   4.336   7.361  0.2041 -0.3793  0.3633
 1011SOL    HW114666   3.308   4.360   7.407 -0.5333 -1.1776 -0.5202
 1011SOL    HW214667   3.354   4.284   7.288  1.0749  1.6629 -1.4985
 1012SOL     OW14668   4.137   3.397   7.671  0.3977 -0.3082 -0.5166
 1012SOL    HW114669   4.075   3.325   7.658  1.1424 -0.3920 -3.5928
 1012SOL    HW214670   4.190   3.360   7.742 -0.1417 -1.0518 -0.4981
 1013SOL     OW14671   3.000   0.094  13.146 -0.2061  0.0946  0.1164
 1013SOL    HW114672   3.059   0.135  13.210  2.2147 -0.1726 -1.9367
 1013SOL    HW214673   2.937   0.043  13.196 -0.7801 -1.1336 -1.8732
 1014SOL     OW14674   2.564   0.911   2.582  0.0150 -0.4413 -0.4610
 1014SOL    HW114675   2.597   1.000   2.570 -1.0916  0.2143  1.4147
 1014SOL    HW214676   2.587   0.862   2.503 -0.8214 -1.3709 -0.1288
 1015SOL     OW14677   1.276   0.714   3.798  0.0165 -0.0449  0.6391
 1015SOL    HW114678   1.235   0.628   3.788 -1.1306  0.5188  0.5537
 1015SOL    HW214679   1.227   0.747   3.873  3.3751  0.2795  2.6841
 1016SOL     OW14680   4.341   0.917  11.154  0.3630 -0.5172  0.2166
 1016SOL    HW114681   4.351   0.841  11.098 -0.8393 -0.8521  0.4453
 1016SOL    HW214682   4.353   0.871  11.237 -3.3709  1.5287  1.9480
 1017SOL     OW14683   3.580   0.682   9.143 -0.0685  0.3350 -0.1301
 1017SOL    HW114684   3.531   0.615   9.096  0.3198  0.0886 -0.1838
 1017SOL    HW214685   3.563   0.659   9.234  1.3764  1.5727  0.4567
 1018SOL     OW14686   3.324   4.485   3.065 -0.2570 -0.4702  0.5684
 1018SOL    HW114687   3.353   4.431   3.139 -1.2647 -2.1124 -0.2185
 1018SOL    HW214688   3.285   4.414   3.013 -0.5967  0.2149 -0.1191
 1019SOL     OW14689   0.772   2.250   2.830  0.4936  0.2303  0.1792
 1019SOL    HW114690   0.800   2.307   2.901  1.3355  1.0983 -0.8417
 1019SOL    HW214691   0.850   2.202   2.799  0.7762 -0.5931  2.1447
 1020SOL     OW14692   2.018   0.597   8.635  0.6726 -0.0251  0.1151
 1020SOL    HW114693   2.069   0.665   8.589  2.1654 -1.1003  0.1733
 1020SOL    HW214694   2.011   0.632   8.724 -0.2672  0.3015 -0.0941
 1021SOL     OW14695   0.785   0.240   1.463  0.0835  0.4845 -0.5384
 1021SOL    HW114696   0.716   0.282   1.411  0.5608  0.7099 -0.9786
 1021SOL    HW214697   0.790   0.311   1.527  0.7686  1.1035 -1.2844
 1022SOL     OW14698   1.322   3.226   8.393  0.1388  1.0094  0.3886
 1022SOL    HW114699   1.414   3.244   8.371  0.0859  2.3592  1.2648
 1022SOL    HW214700   1.299   3.172   8.318  2.1639  0.8412 -0.1088
 1023SOL     OW14701   2.752   1.266   6.758 -0.2035  0.0586  0.2152
 1023SOL    HW114702   2.763   1.198   6.824 -3.1407  0.3054  0.9479
 1023SOL    HW214703   2.838   1.263   6.717 -0.2364  0.1900  0.1359
 1024SOL     OW14704   0.056   0.576   5.104 -0.3872 -0.3697 -0.1690
 1024SOL    HW114705   0.053   0.550   5.012  0.3132 -0.0980 -0.2722
 1024SOL    HW214706   0.105   0.658   5.092 -1.6825  0.2717 -1.0655
 1025SOL     OW14707   2.355   0.606   0.094 -0.0873  0.3416  0.2660
 1025SOL    HW114708   2.360   0.700   0.109 -2.1267  0.6448 -1.0256
 1025SOL    HW214709   2.274   0.586   0.141 -0.9771  3.7548  0.2070
 1026SOL     OW14710   3.570   4.295   0.374 -0.3403 -0.4969 -0.5090
 1026SOL    HW114711   3.561   4.230   0.445 -0.2867 -0.7502 -0.7344
 1026SOL    HW214712   3.608   4.238   0.307  1.7579  0.1292  0.1722
 1027SOL     OW14713   0.333   3.492   1.041 -0.1631 -0.0123  0.3260
 1027SOL    HW114714   0.364   3.580   1.017  0.6029 -0.0157  1.3100
 1027SOL    HW214715   0.411   3.445   1.012  0.4382  1.7076 -0.8801
 1028SOL     OW14716   2.500   1.365  12.323 -1.0996 -0.3823 -1.2011
 1028SOL    HW114717   2.574   1.307  12.306 -1.5599 -0.8764 -1.5106
 1028SOL    HW214718   2.547   1.448  12.322 -3.0849  0.7516 -1.1471
 1029SOL     OW14719   2.378   4.500   7.707 -0.3137 -0.1687 -0.1998
 1029SOL    HW114720   2.396   4.594   7.719  0.5586 -0.5588  1.5125
 1029SOL    HW214721   2.287   4.491   7.735 -0.0424 -0.1738  0.6904
 1030SOL     OW14722   3.557   3.110   7.334  0.4312  0.7069 -0.8613
 1030SOL    HW114723   3.595   3.102   7.247  0.2938 -0.5215 -0.8091
 1030SOL    HW214724   3.571   3.016   7.345  0.5906  0.8860  0.5460
 1031SOL     OW14725   3.762   3.319  10.201  0.3040  0.7403  0.3510
 1031SOL    HW114726   3.744   3.230  10.230 -0.7128  0.3974 -1.2941
 1031SOL    HW214727   3.764   3.304  10.106  0.2527 -1.7531  0.7627
 1032SOL     OW14728   0.176   1.875  11.376 -0.1631  0.1960  0.1850
 1032SOL    HW114729   0.264   1.851  11.406 -0.3368 -0.4652  0.1581
 1032SOL    HW214730   0.184   1.966  11.346  3.5924 -0.1817 -0.0130
 1033SOL     OW14731   0.116   2.732   7.838  0.2356 -0.1376  0.4007
 1033SOL    HW114732   0.112   2.826   7.850  3.1583  0.1980 -1.3600
 1033SOL    HW214733   0.025   2.705   7.853 -0.5871  1.9660 -0.8454
 1034SOL     OW14734   1.672   2.298   6.373 -0.0599 -0.2106 -0.2717
 1034SOL    HW114735   1.683   2.235   6.302  0.5674 -0.5490  0.1347
 1034SOL    HW214736   1.763   2.312   6.399 -0.1809 -0.0082  0.0390
 1035SOL     OW14737   4.018   4.711   8.879  0.4132 -0.1229  0.4715
 1035SOL    HW114738   4.104   4.684   8.913  0.6304  0.5684  0.4674
 1035SOL    HW214739   3.974   4.626   8.888  2.6578 -1.4054 -0.5973
 1036SOL     OW14740   0.707   4.629   0.530  0.1004 -0.0387 -0.0866
 1036SOL    HW114741   0.703   4.619   0.435 -0.0235  0.7796 -0.1645
 1036SOL    HW214742   0.615   4.650   0.548  0.5442  2.1433 -0.4562
 1037SOL     OW14743   4.687   1.035  17.138  0.6255  0.0607 -0.4123
 1037SOL    HW114744   4.643   0.951  17.147 -0.5777  0.7097 -0.1784
 1037SOL    HW214745   0.024   1.013  17.091  1.1920  0.6738  0.2672
 1038SOL     OW14746   4.533   3.176   6.335  0.0365  0.6614 -0.8663
 1038SOL    HW114747   4.511   3.253   6.388  0.0927 -0.9293  1.4360
 1038SOL    HW214748   4.538   3.216   6.247  1.9958 -1.3021 -1.6579
 1039SOL     OW14749   4.492   1.767   1.769  0.2289  0.2004 -0.1813
 1039SOL    HW114750   4.487   1.678   1.803  0.8434 -0.1134 -0.9252
 1039SOL    HW214751   4.444   1.754   1.687 -1.5812  1.2940  0.7115
 1040SOL     OW14752   3.952   3.597   1.339 -0.5934  0.4300 -0.0333
 1040SOL    HW114753   3.910   3.651   1.407 -1.9991 -1.1458  0.3401
 1040SOL    HW214754   4.044   3.619   1.356 -0.1587 -1.9127  0.5886
 1041SOL     OW14755   1.422   4.570   9.840  0.5516  0.3079  0.0882
 1041SOL    HW114756   1.466   4.490   9.812  0.4304 -0.6610  2.6710
 1041SOL    HW214757   1.394   4.544   9.928 -1.7888  1.4363 -0.3207
 1042SOL     OW14758   1.073   1.185  13.739  0.3325 -0.4571 -0.2338
 1042SOL    HW114759   1.024   1.120  13.790  0.3427  0.3720  0.8089
 1042SOL    HW214760   1.139   1.207  13.804 -0.6035  0.0497  0.5530
 1043SOL     OW14761   0.925   2.786   3.043 -0.2310 -0.3069 -0.0847
 1043SOL    HW114762   1.003   2.780   3.099  0.9360  0.0388 -1.6700
 1043SOL    HW214763   0.961   2.843   2.975 -0.1354  1.3506  1.3457
 1044SOL     OW14764   0.319   3.115   4.058  0.3472  0.1814  0.0893
 1044SOL    HW114765   0.344   3.040   4.005  1.4111  1.5672 -1.3470
 1044SOL    HW214766   0.350   3.175   3.990  1.4424 -0.6337 -0.1259
 1045SOL     OW14767   3.066   0.409  12.961  0.6245 -0.0627  1.0493
 1045SOL    HW114768   3.066   0.458  12.879 -1.7066  1.5124  1.9927
 1045SOL    HW214769   3.037   0.474  13.024 -1.1532 -0.5207  0.7065
 1046SOL     OW14770   3.580   3.098  11.144 -0.3893  0.1059 -0.4022
 1046SOL    HW114771   3.582   3.011  11.184  1.9956  0.1435 -0.4677
 1046SOL    HW214772   3.605   3.078  11.054 -2.3588 -2.0813 -0.4735
 1047SOL     OW14773   0.001   1.877   4.503  0.5497 -0.2736 -0.7637
 1047SOL    HW114774   4.656   1.840   4.506 -0.7034  2.9728  1.4322
 1047SOL    HW214775   0.015   1.887   4.409  3.4169 -0.4963 -0.3587
 1048SOL     OW14776   4.231   3.683   7.859 -0.1550  0.0993 -0.7319
 1048SOL    HW114777   4.326   3.696   7.855  0.0684 -0.2098  2.8879
 1048SOL    HW214778   4.222   3.597   7.901 -0.0820  0.4953  0.1095
 1049SOL     OW14779   2.201   3.827  17.639  0.4071 -0.2477  0.7495
 1049SOL    HW114780   2.287   3.855  17.609  0.5664 -2.5841 -0.9640
 1049SOL    HW214781   2.173   3.774  17.564  0.9471  1.2590 -0.5041
 1050SOL     OW14782   0.791   4.075   8.697  0.5031  0.1407 -0.2632
 1050SOL    HW114783   0.795   3.996   8.644  0.3315 -0.7936  1.1171
 1050SOL    HW214784   0.847   4.133   8.645 -0.6335  0.9335 -0.6041
 1051SOL     OW14785   0.499   4.253   0.042 -0.0332 -0.9567  0.3046
 1051SOL    HW114786   0.463   4.210  17.736  0.5126 -0.5459 -0.1789
 1051SOL    HW214787   0.474   4.342   0.018  0.7669 -0.3269  1.8439
 1052SOL     OW14788   4.149   1.250   2.875  0.1714 -0.0824 -0.0101
 1052SOL    HW114789   4.158   1.160   2.844  2.3033 -0.5540  1.9530
 1052SOL    HW214790   4.243   1.270   2.873  0.0748  0.5425  2.2202
 1053SOL     OW14791   2.501   2.203   2.786 -0.4079  0.6838 -0.6840
 1053SOL    HW114792   2.439   2.275   2.772 -1.3785  0.5185  2.7935
 1053SOL    HW214793   2.439   2.130   2.793 -0.8747  1.0163 -1.3321
 1054SOL     OW14794   2.871   0.811   1.255  0.0019  0.5279  0.0970
 1054SOL    HW114795   2.899   0.727   1.218  0.9370  1.0931 -0.4918
 1054SOL    HW214796   2.951   0.851   1.289  1.2993 -1.7298 -0.2982
 1055SOL     OW14797   4.475   1.911   5.137 -0.2558 -0.1920 -0.1962
 1055SOL    HW114798   4.481   1.892   5.230 -0.9540  0.1075 -0.0904
 1055SOL    HW214799   4.410   1.980   5.146 -1.2411 -0.9081 -1.8608
 1056SOL     OW14800   0.174   0.134   7.732  0.3991 -0.2352  0.3008
 1056SOL    HW114801   0.223   0.216   7.734 -0.5712  0.3141  1.5389
 1056SOL    HW214802   0.226   0.087   7.666  0.2540  1.0179 -0.7193
 1057SOL     OW14803   0.119   1.385  17.675  0.5398  0.4435  0.0337
 1057SOL    HW114804   0.143   1.394  17.583  1.4552 -0.2712  0.2020
 1057SOL    HW214805   0.115   1.289  17.685  0.1002  0.5613  1.0374
 1058SOL     OW14806   0.530   2.224   8.999 -0.1572  0.3380  0.3779
 1058SOL    HW114807   0.539   2.193   8.909  0.4815  0.5706  0.3665
 1058SOL    HW214808   0.515   2.318   8.986  4.0339  0.9201 -0.0199
 1059SOL     OW14809   4.298   1.011   9.028  0.2251 -0.4321 -0.0407
 1059SOL    HW114810   4.311   0.929   9.076 -0.5779 -0.1117  0.7459
 1059SOL    HW214811   4.202   1.009   9.039  0.1047  0.5992 -0.9362
 1060SOL     OW14812   4.208   2.467  13.626 -0.1873  0.0166  0.1566
 1060SOL    HW114813   4.293   2.458  13.584 -0.9518  1.6565 -1.7439
 1060SOL    HW214814   4.198   2.374  13.647 -4.4758  0.5064  0.3041
 1061SOL     OW14815   3.881   3.245   4.281 -0.4046 -0.0310  0.0076
 1061SOL    HW114816   3.915   3.157   4.267 -1.8393 -0.5791  0.0093
 1061SOL    HW214817   3.917   3.258   4.369  1.3123 -3.3806 -0.2044
 1062SOL     OW14818   2.120   3.276  12.515 -0.7496 -0.1716 -0.6313
 1062SOL    HW114819   2.026   3.294  12.520 -0.2579  1.9002  1.0417
 1062SOL    HW214820   2.124   3.216  12.440  0.1450 -0.7364 -0.1321
 1063SOL     OW14821   1.100   0.296   3.567 -0.2667 -0.4511 -0.7689
 1063SOL    HW114822   1.125   0.380   3.528  0.0313  0.0773  0.5504
 1063SOL    HW214823   1.024   0.277   3.512  0.1819  0.0877 -1.5789
 1064SOL     OW14824   1.858   2.702   9.089  0.0045  0.6987 -0.1064
 1064SOL    HW114825   1.937   2.752   9.109  0.3730 -0.7486  2.0386
 1064SOL    HW214826   1.810   2.769   9.040 -0.6058  1.1197  1.0662
 1065SOL     OW14827   3.176   1.970   6.380 -0.5155  0.1028 -0.3005
 1065SOL    HW114828   3.084   1.962   6.355  0.0526 -0.4499 -2.2022
 1065SOL    HW214829   3.183   1.943   6.472  0.5200  1.0013 -0.1059
 1066SOL     OW14830   2.282   0.092   1.506  0.0869  0.1002  0.1583
 1066SOL    HW114831   2.346   0.066   1.440 -0.7009 -1.6603  0.0837
 1066SOL    HW214832   2.281   0.015   1.563 -0.4529  0.6090  0.8370
 1067SOL     OW14833   1.046   4.335   7.473 -0.1699 -0.1954 -0.5458
 1067SOL    HW114834   0.968   4.289   7.502  1.0306 -1.0900  1.2141
 1067SOL    HW214835   1.037   4.407   7.535 -0.0245  1.6900 -2.7074
 1068SOL     OW14836   1.756   1.143  15.674  0.1067  0.0972  0.5525
 1068SOL    HW114837   1.747   1.194  15.593  0.1067 -2.1099 -0.8395
 1068SOL    HW214838   1.664   1.128  15.698 -0.2407 -0.3984 -1.0923
 1069SOL     OW14839   1.062   0.477   4.732 -0.4006 -0.3245  0.1379
 1069SOL    HW114840   0.997   0.514   4.792 -1.5907 -1.0811 -0.6993
 1069SOL    HW214841   1.094   0.560   4.696  0.9760 -0.4396  1.1100
 1070SOL     OW14842   4.432   2.739   3.718  0.1394 -0.0523 -0.1640
 1070SOL    HW114843   4.525   2.745   3.696  0.4949  2.1866  1.9942
 1070SOL    HW214844   4.383   2.789   3.652 -1.6433 -0.5641  0.7751
 1071SOL     OW14845   1.215   2.236   7.577 -0.4225  0.1557  0.0835
 1071SOL    HW114846   1.167   2.204   7.654  0.6706 -1.7245 -0.0281
 1071SOL    HW214847   1.149   2.297   7.544  0.2287 -0.3616 -2.1787
 1072SOL     OW14848   0.823   1.934   3.721 -0.0227 -0.6518  0.7074
 1072SOL    HW114849   0.803   1.869   3.653  1.0406 -0.3115  0.0619
 1072SOL    HW214850   0.762   1.904   3.789 -0.3016  0.2293  0.8484
 1073SOL     OW14851   3.811   2.003   6.078  0.2311 -0.0335 -0.3855
 1073SOL    HW114852   3.766   1.999   6.162  0.7958 -1.9261 -0.1791
 1073SOL    HW214853   3.856   1.919   6.073 -1.2532 -0.6597 -3.3660
 1074SOL     OW14854   1.449   2.165   1.993 -0.0222  0.1025 -0.3051
 1074SOL    HW114855   1.448   2.193   1.902  0.2633  0.6009 -0.1580
 1074SOL    HW214856   1.358   2.136   1.990  0.5342 -1.7621  0.5981
 1075SOL     OW14857   2.093   0.503   6.106 -0.2773  0.0851 -0.2587
 1075SOL    HW114858   2.046   0.554   6.041  3.0404  2.4602 -0.7920
 1075SOL    HW214859   2.170   0.552   6.135 -0.5292 -1.7590  3.5657
 1076SOL     OW14860   1.791   4.289   7.149 -0.2218  0.5049 -0.0930
 1076SOL    HW114861   1.765   4.202   7.180 -0.7290  1.0508  1.0168
 1076SOL    HW214862   1.781   4.351   7.221  1.1849 -2.7753  2.9352
 1077SOL     OW14863   3.646   3.652   8.845  0.8208  0.0841 -0.4745
 1077SOL    HW114864   3.678   3.571   8.887  0.3987 -0.8000 -1.8482
 1077SOL    HW214865   3.670   3.711   8.916  1.7559 -0.1875 -0.5584
 1078SOL     OW14866   2.900   2.053  16.292  0.2298 -0.2301  0.3067
 1078SOL    HW114867   2.822   2.106  16.277  1.4807  0.7627 -2.5499
 1078SOL    HW214868   2.864   1.972  16.329 -0.4667 -0.1901 -0.2895
 1079SOL     OW14869   3.833   1.986  15.651  0.1546  0.0537  0.5991
 1079SOL    HW114870   3.785   2.069  15.657 -0.5659 -0.1418 -3.0355
 1079SOL    HW214871   3.761   1.926  15.635 -1.5493  2.3326 -0.3399
 1080SOL     OW14872   2.607   0.454   5.669 -0.1208  0.2438 -0.7671
 1080SOL    HW114873   2.653   0.452   5.585  1.0502  3.2364 -0.2117
 1080SOL    HW214874   2.517   0.438   5.642 -0.5625  0.5036  0.5731
 1081SOL     OW14875   2.665   4.541   9.048  0.5216  0.4847 -0.4879
 1081SOL    HW114876   2.703   4.455   9.070 -0.4698 -0.0965 -1.0407
 1081SOL    HW214877   2.592   4.516   8.991 -0.6891  0.3004  1.1541
 1082SOL     OW14878   0.679   3.656   7.063  0.6634  0.4898  0.1877
 1082SOL    HW114879   0.752   3.617   7.111  1.1606 -1.1799 -1.9601
 1082SOL    HW214880   0.728   3.711   7.002 -0.5771  1.9733  0.5381
 1083SOL     OW14881   3.032   3.606   0.787  0.6011  0.1736 -0.1954
 1083SOL    HW114882   3.027   3.544   0.859 -0.8049 -0.5781 -0.9217
 1083SOL    HW214883   2.993   3.688   0.817 -0.0545 -0.0903 -0.3283
 1084SOL     OW14884   2.590   3.568   2.655  0.2383 -0.2335  0.7438
 1084SOL    HW114885   2.677   3.608   2.653  0.3542 -0.4649  1.2448
 1084SOL    HW214886   2.602   3.488   2.604 -0.1891 -0.4606  1.0007
 1085SOL     OW14887   3.266   2.253   7.384  0.4275 -0.2145  0.5458
 1085SOL    HW114888   3.342   2.198   7.404  1.0029  0.5757  0.5488
 1085SOL    HW214889   3.301   2.336   7.416 -1.4780 -0.8615  4.2359
 1086SOL     OW14890   0.471   2.318   2.072  0.2793 -0.5539  0.2888
 1086SOL    HW114891   0.519   2.383   2.124  2.2995 -1.2147 -0.7378
 1086SOL    HW214892   0.480   2.234   2.119  0.7574 -0.3521  0.5620
 1087SOL     OW14893   4.636   1.702   5.849 -0.3804 -0.3389 -0.0589
 1087SOL    HW114894   4.715   1.731   5.894 -0.4686  1.2640 -0.9220
 1087SOL    HW214895   4.598   1.784   5.816 -0.3690 -0.0118  0.7274
 1088SOL     OW14896   0.885   1.394  17.437 -0.0045 -0.1553  0.4745
 1088SOL    HW114897   0.806   1.405  17.383 -0.5378  0.4105  1.3669
 1088SOL    HW214898   0.947   1.371  17.367 -0.9960 -0.6250 -0.2510
 1089SOL     OW14899   3.028   1.229  13.508 -0.7719 -0.4413 -0.3792
 1089SOL    HW114900   3.109   1.232  13.559 -1.0839  2.7679 -0.0329
 1089SOL    HW214901   3.066   1.239  13.420  0.7099 -1.5510  0.1382
 1090SOL     OW14902   0.725   3.778   6.453 -0.1387  0.5670  0.0462
 1090SOL    HW114903   0.670   3.749   6.381 -0.0537 -0.1177  0.2533
 1090SOL    HW214904   0.691   3.866   6.469  1.2877  0.9040  1.2033
 1091SOL     OW14905   0.624   2.606   2.123  0.0757 -0.6640  0.3169
 1091SOL    HW114906   0.683   2.673   2.089 -1.1528 -0.0966 -0.7159
 1091SOL    HW214907   0.675   2.573   2.196  0.9313 -2.9728 -1.3226
 1092SOL     OW14908   3.847   3.790  16.539 -0.1742  0.1714  0.3594
 1092SOL    HW114909   3.788   3.863  16.555 -0.7021 -0.7583  2.5851
 1092SOL    HW214910   3.845   3.745  16.623  0.8338 -1.2007 -0.3619
 1093SOL     OW14911   3.785   0.274   7.886  0.0832  0.1695  0.1251
 1093SOL    HW114912   3.783   0.286   7.981 -1.1281  3.4666 -0.2865
 1093SOL    HW214913   3.876   0.299   7.872 -0.3194  0.3105 -2.1939
 1094SOL     OW14914   4.493   2.861   6.818  0.0056 -0.0359  0.1842
 1094SOL    HW114915   4.466   2.843   6.908  1.4962  3.7485  1.4108
 1094SOL    HW214916   4.537   2.946   6.811 -1.1349  0.5376  0.0163
 1095SOL     OW14917   0.530   2.811   7.936 -0.0467 -0.3900  0.4676
 1095SOL    HW114918   0.535   2.889   7.881  1.6006 -0.1968  0.9115
 1095SOL    HW214919   0.621   2.798   7.961  0.6070  0.6935 -1.3896
 1096SOL     OW14920   3.720   0.794   0.316 -0.2735  0.0717  0.1624
 1096SOL    HW114921   3.627   0.803   0.294 -0.1773  1.0520  0.1771
 1096SOL    HW214922   3.722   0.701   0.339  2.9207  0.1759  0.2553
 1097SOL     OW14923   0.731   1.663   9.470  0.2490 -0.3995  0.0644
 1097SOL    HW114924   0.664   1.710   9.421 -0.0308 -2.6669 -1.7056
 1097SOL    HW214925   0.685   1.582   9.489 -2.9684  0.7650 -2.8045
 1098SOL     OW14926   3.541   0.207   4.239  0.8278  0.0318 -0.6617
 1098SOL    HW114927   3.467   0.153   4.212  0.4783  1.0564 -1.7798
 1098SOL    HW214928   3.524   0.281   4.180 -2.9642 -0.9285 -0.7589
 1099SOL     OW14929   2.977   4.297   5.458  0.5319  0.0074 -0.0942
 1099SOL    HW114930   2.928   4.275   5.379  1.2016 -2.4536  0.1699
 1099SOL    HW214931   3.059   4.252   5.434 -0.7480 -2.7271  0.7052
 1100SOL     OW14932   3.714   1.636   9.532  0.1209 -0.4029 -0.6568
 1100SOL    HW114933   3.790   1.579   9.542 -1.2868 -2.1753 -0.1582
 1100SOL    HW214934   3.645   1.579   9.499  1.0397 -0.0317 -3.2115
 1101SOL     OW14935   2.298   0.394   4.138 -0.0351 -0.3817 -0.2046
 1101SOL    HW114936   2.341   0.309   4.139 -0.0722 -0.4004 -0.1904
 1101SOL    HW214937   2.206   0.370   4.150 -0.2515 -0.0674 -1.2234
 1102SOL     OW14938   1.542   2.383   1.525  0.1614 -0.5568  0.3494
 1102SOL    HW114939   1.448   2.369   1.511  0.1459 -0.8702  0.7597
 1102SOL    HW214940   1.572   2.322   1.456 -0.5307 -0.6189  0.1028
 1103SOL     OW14941   1.232   4.310  10.951 -0.7777 -0.5701  0.5661
 1103SOL    HW114942   1.282   4.233  10.925  0.4501  0.4847 -0.2156
 1103SOL    HW214943   1.187   4.263  11.021 -1.3063 -1.2185 -0.2136
 1104SOL     OW14944   1.696   1.474  11.817 -0.5378 -0.1497  0.1724
 1104SOL    HW114945   1.644   1.548  11.786 -1.5159 -0.8905  0.0447
 1104SOL    HW214946   1.743   1.474  11.734  1.9708  1.4141  1.5979
 1105SOL     OW14947   3.955   0.735   8.168  0.7828  0.0026 -0.1032
 1105SOL    HW114948   3.871   0.724   8.212  0.0864 -1.5289 -1.8064
 1105SOL    HW214949   4.019   0.682   8.217 -0.6476  0.7027  2.5028
 1106SOL     OW14950   0.850   1.062   9.445 -0.3121 -0.1852 -0.0509
 1106SOL    HW114951   0.760   1.092   9.452  0.1302  1.3326 -1.0468
 1106SOL    HW214952   0.879   1.135   9.391 -0.8353  1.0652  1.3668
 1107SOL     OW14953   3.511   4.737  13.351 -0.4671 -0.7195 -0.5338
 1107SOL    HW114954   3.492   4.743  13.257  0.5549 -0.1116 -0.6932
 1107SOL    HW214955   3.599   4.701  13.355  0.6873  2.1435 -0.4641
 1108SOL     OW14956   1.036   0.428   8.503  0.1699  0.1672  0.3492
 1108SOL    HW114957   0.953   0.473   8.517 -0.4912 -0.9871  0.1310
 1108SOL    HW214958   1.022   0.347   8.552  0.4127  0.6020  1.1448
 1109SOL     OW14959   1.638   2.911   5.484  0.1388  0.3544  0.0448
 1109SOL    HW114960   1.595   2.919   5.570 -0.6679 -0.3100 -0.2882
 1109SOL    HW214961   1.611   2.823   5.459  1.4681 -0.4009  1.2669
 1110SOL     OW14962   4.093   0.522   5.631 -0.0031 -0.1138  0.1873
 1110SOL    HW114963   4.166   0.577   5.659  0.0054  0.4351 -0.9478
 1110SOL    HW214964   4.034   0.595   5.616 -0.4223 -0.0766  2.0155
 1111SOL     OW14965   3.076   3.528   7.284  0.1459  0.1250  0.0021
 1111SOL    HW114966   2.988   3.495   7.263  1.8187 -3.6003 -1.1788
 1111SOL    HW214967   3.126   3.472   7.225  2.6094 -1.2292  3.3725
 1112SOL     OW14968   0.517   4.156   4.433 -0.4707 -0.1286 -0.0108
 1112SOL    HW114969   0.588   4.114   4.384  1.1896  2.9284 -0.2428
 1112SOL    HW214970   0.563   4.161   4.516  0.5839  1.9322 -0.7137
 1113SOL     OW14971   1.050   2.162   2.695  0.1973  0.3140 -0.3203
 1113SOL    HW114972   1.094   2.219   2.758  1.2854 -0.0344 -0.7702
 1113SOL    HW214973   1.035   2.235   2.635  1.2018  0.4909 -0.3558
 1114SOL     OW14974   2.515   2.798  15.601  0.3006  0.0146  0.1405
 1114SOL    HW114975   2.474   2.772  15.519  1.7272  0.1586 -0.6275
 1114SOL    HW214976   2.572   2.722  15.615 -1.3181 -1.3728 -0.7876
 1115SOL     OW14977   1.783   2.893   4.120  0.2081  0.2616  0.7956
 1115SOL    HW114978   1.868   2.931   4.143 -0.4977  2.1929  0.2191
 1115SOL    HW214979   1.811   2.808   4.084 -1.1146  0.2757 -0.2422
 1116SOL     OW14980   0.306   4.558   1.981 -0.1514  0.5871 -0.3530
 1116SOL    HW114981   0.242   4.595   1.921 -1.4024  1.6141  1.5908
 1116SOL    HW214982   0.280   4.466   1.993 -0.0358  0.4608 -1.0856
 1117SOL     OW14983   4.727   1.903   3.233  0.5998 -0.0788  0.9633
 1117SOL    HW114984   4.657   1.840   3.251 -1.0080  1.3043 -0.3754
 1117SOL    HW214985   4.686   1.981   3.195  1.0535  1.0605  2.8619
 1118SOL     OW14986   1.987   2.151  15.295  0.3908 -0.4620 -0.7812
 1118SOL    HW114987   1.928   2.169  15.368 -1.1676  2.3529 -2.7098
 1118SOL    HW214988   1.971   2.227  15.238  1.4621  0.7019  0.4932
 1119SOL     OW14989   0.507   3.296  12.232 -0.0765  0.4088  0.6854
 1119SOL    HW114990   0.539   3.268  12.146 -1.7332  0.1574  0.1600
 1119SOL    HW214991   0.495   3.389  12.213  0.1626 -0.2416 -2.6392
 1120SOL     OW14992   0.320   0.425   5.735  1.0209 -0.2212 -0.5353
 1120SOL    HW114993   0.408   0.450   5.709 -0.5105  2.5082 -3.1277
 1120SOL    HW214994   0.277   0.398   5.653 -2.5809  1.4933  0.7914
 1121SOL     OW14995   2.764   3.265  14.775  0.3818  0.8520  0.4299
 1121SOL    HW114996   2.702   3.313  14.830  0.2825  0.3058  0.7935
 1121SOL    HW214997   2.765   3.188  14.831 -1.7097  0.8683  0.4921
 1122SOL     OW14998   2.098   2.301   0.620 -0.0353  0.0325  0.0888
 1122SOL    HW114999   2.045   2.226   0.592  1.0584 -1.4018  1.8586
 1122SOL    HW215000   2.189   2.271   0.608  0.5838  2.1036 -0.4000
 1123SOL     OW15001   3.327   0.581  14.173  0.3780 -0.8301  0.2887
 1123SOL    HW115002   3.315   0.508  14.234  2.5363  0.8327  2.7053
 1123SOL    HW215003   3.293   0.657  14.219  0.6179 -0.5780  0.0504
 1124SOL     OW15004   1.115   0.570  12.222 -0.3862  0.4772 -0.0979
 1124SOL    HW115005   1.110   0.650  12.274 -0.8736 -0.1794  0.8583
 1124SOL    HW215006   1.039   0.570  12.163  0.8372  1.0734 -1.6746
 1125SOL     OW15007   3.070   1.980   4.221 -0.3283 -0.9489 -0.2039
 1125SOL    HW115008   3.036   1.893   4.201 -0.3083 -1.1119  0.4619
 1125SOL    HW215009   3.005   2.047   4.198 -1.1476 -0.3970  3.5582
 1126SOL     OW15010   2.827   1.987   3.530 -0.2734 -0.3743  0.2889
 1126SOL    HW115011   2.912   1.951   3.505 -1.3549 -1.0594 -2.5249
 1126SOL    HW215012   2.795   2.007   3.441 -3.0267 -2.8284  0.6976
 1127SOL     OW15013   3.194   0.663   5.340  0.6631 -0.1143 -0.6861
 1127SOL    HW115014   3.148   0.717   5.277 -1.1320  1.3834  1.9038
 1127SOL    HW215015   3.145   0.582   5.323 -1.4613  0.5904  2.0012
 1128SOL     OW15016   0.697   3.080   3.837 -0.0368  0.4189  0.4182
 1128SOL    HW115017   0.793   3.086   3.828  0.0998  0.0929  1.7170
 1128SOL    HW215018   0.661   3.140   3.772 -0.6906  1.1613  1.4771
 1129SOL     OW15019   0.253   1.100   2.097  0.0890 -0.6643 -0.4005
 1129SOL    HW115020   0.200   1.060   2.166 -0.9583  0.7493 -0.3907
 1129SOL    HW215021   0.250   1.027   2.035  3.4248  1.2613 -2.8120
 1130SOL     OW15022   1.509   3.750   2.865 -0.2423  0.4640 -0.3306
 1130SOL    HW115023   1.490   3.677   2.805  0.8344  0.8243 -1.0871
 1130SOL    HW215024   1.564   3.800   2.806  2.1300  0.4412  1.8854
 1131SOL     OW15025   3.718   2.092   7.958  0.2498 -0.6942  0.4107
 1131SOL    HW115026   3.655   2.083   7.887  3.1994  1.9532 -2.5215
 1131SOL    HW215027   3.713   2.000   7.984 -0.1849 -0.4987  1.0152
 1132SOL     OW15028   4.479   0.288   5.421  0.0471 -0.0648  0.6825
 1132SOL    HW115029   4.564   0.279   5.377 -0.5966 -0.5773 -0.4712
 1132SOL    HW215030   4.457   0.371   5.379  0.7027 -0.4835 -0.5077
 1133SOL     OW15031   3.501   2.407   4.212  0.2007 -0.0266  0.4876
 1133SOL    HW115032   3.578   2.354   4.234  0.2196  0.3248  1.2535
 1133SOL    HW215033   3.551   2.477   4.169 -3.7373  0.2308 -3.6875
 1134SOL     OW15034   4.197   0.698   0.225 -0.2056  0.2550 -0.2127
 1134SOL    HW115035   4.161   0.759   0.161 -0.5670  2.1291  1.7566
 1134SOL    HW215036   4.118   0.651   0.252  1.7717 -2.4771  0.8005
 1135SOL     OW15037   0.249   1.907  16.841 -0.1474 -0.2339  0.0460
 1135SOL    HW115038   0.168   1.872  16.804 -0.5395 -0.4727  1.1247
 1135SOL    HW215039   0.227   1.933  16.931  0.2005 -2.0197  0.6500
 1136SOL     OW15040   3.550   2.119   4.704 -0.1212 -0.0478 -0.2493
 1136SOL    HW115041   3.549   2.059   4.630 -1.2259  0.9201 -1.0042
 1136SOL    HW215042   3.457   2.130   4.725 -0.3651 -2.8884  0.2724
 1137SOL     OW15043   3.069   0.831  14.958 -0.0232  0.1863  0.4252
 1137SOL    HW115044   3.083   0.880  15.039 -5.1075  1.0519  0.7627
 1137SOL    HW215045   3.147   0.775  14.953  0.9752  1.4978  1.1601
 1138SOL     OW15046   2.980   2.160  15.236  0.1241 -0.0998  0.2508
 1138SOL    HW115047   2.946   2.110  15.162  1.1303  0.4517 -0.5797
 1138SOL    HW215048   3.072   2.174  15.213 -0.3464  2.0893 -0.3095
 1139SOL     OW15049   4.655   0.909   6.764  0.2186  0.1609 -0.5768
 1139SOL    HW115050   4.670   0.893   6.671  0.3460 -2.0620 -0.1585
 1139SOL    HW215051   4.739   0.891   6.805  0.5735 -0.2420 -1.4858
 1140SOL     OW15052   0.432   4.267   8.844  0.0646  0.1319  0.3888
 1140SOL    HW115053   0.479   4.351   8.844  3.1547 -1.5880  2.2177
 1140SOL    HW215054   0.448   4.245   8.752 -1.1112 -0.3014  0.2938
 1141SOL     OW15055   3.201   0.118   0.474  0.2958  0.0404 -0.2599
 1141SOL    HW115056   3.114   0.081   0.491  1.2253 -1.8403  0.4272
 1141SOL    HW215057   3.184   0.182   0.405  1.7365 -0.2082 -0.8546
 1142SOL     OW15058   1.204   4.213  13.262  0.5961 -0.9050 -0.2433
 1142SOL    HW115059   1.284   4.162  13.273  1.7686  0.8168 -0.8372
 1142SOL    HW215060   1.196   4.259  13.345 -0.6075  0.4361 -1.1136
 1143SOL     OW15061   3.761   4.639  13.345 -0.3261  0.4250  0.1506
 1143SOL    HW115062   3.815   4.718  13.344 -1.3184  1.0909 -0.2181
 1143SOL    HW215063   3.828   4.572  13.327  1.9285  2.2743  1.7729
 1144SOL     OW15064   4.034   0.292  14.101 -0.0669 -0.3577 -0.8940
 1144SOL    HW115065   4.013   0.205  14.136 -0.5409  0.7137  1.4647
 1144SOL    HW215066   3.947   0.322  14.074 -0.0430 -1.7329 -2.5025
 1145SOL     OW15067   1.448   3.976   5.526  0.0795  0.9679  0.1020
 1145SOL    HW115068   1.500   3.956   5.448 -0.7072 -0.4227 -0.0609
 1145SOL    HW215069   1.403   4.058   5.504  0.2334  1.4447  1.5588
 1146SOL     OW15070   1.074   2.103   7.089  0.1613  0.3549  0.2405
 1146SOL    HW115071   1.072   2.019   7.043  0.4299 -0.8741  2.4509
 1146SOL    HW215072   1.168   2.120   7.087  0.2598  0.0186  1.6435
 1147SOL     OW15073   2.794   3.350   8.808  0.0607 -0.4928  0.0474
 1147SOL    HW115074   2.774   3.440   8.785  0.1589 -0.7708 -1.0974
 1147SOL    HW215075   2.746   3.303   8.740 -1.0866 -0.2190  0.6624
 1148SOL     OW15076   0.719   1.338   4.522  0.4468 -0.0813  0.0113
 1148SOL    HW115077   0.717   1.433   4.520  0.0834 -0.0572  2.3862
 1148SOL    HW215078   0.810   1.322   4.495  0.4470 -2.5839  1.4281
 1149SOL     OW15079   2.769   0.382   2.717  0.4229  0.1407 -0.2575
 1149SOL    HW115080   2.776   0.310   2.779 -3.1605 -0.4361 -0.5556
 1149SOL    HW215081   2.773   0.457   2.777 -0.5711 -1.4161  1.7224
 1150SOL     OW15082   3.810   3.399   9.446 -0.2079  0.2777  0.6929
 1150SOL    HW115083   3.829   3.353   9.364  1.1377 -0.0070  1.1715
 1150SOL    HW215084   3.737   3.456   9.419  0.0206  0.4893  0.5239
 1151SOL     OW15085   3.060   0.316   7.664 -0.5952  0.3013  0.0077
 1151SOL    HW115086   3.131   0.272   7.710 -1.2456  1.4754  2.1601
 1151SOL    HW215087   3.069   0.395   7.718  0.9598  0.6048 -0.7095
 1152SOL     OW15088   0.059   1.557  16.547  0.3054 -0.3592  0.0303
 1152SOL    HW115089   0.101   1.560  16.461 -0.2072  2.4701 -0.0976
 1152SOL    HW215090   0.046   1.462  16.549 -2.9389  0.0704 -0.5806
 1153SOL     OW15091   2.343   1.704   8.354  0.2347  0.1855 -0.2416
 1153SOL    HW115092   2.414   1.663   8.304  0.6477 -0.1926  0.6507
 1153SOL    HW215093   2.282   1.682   8.284 -0.0575  1.5222 -0.3986
 1154SOL     OW15094   3.547   3.272   6.668 -0.7253 -0.7355 -0.3086
 1154SOL    HW115095   3.594   3.340   6.716 -2.9259 -0.4261  1.4219
 1154SOL    HW215096   3.473   3.320   6.630  0.3756  1.2949  0.1064
 1155SOL     OW15097   0.919   4.426   5.689 -0.3732  0.1959  0.1364
 1155SOL    HW115098   0.946   4.457   5.775 -0.4773  1.2325 -0.2030
 1155SOL    HW215099   0.868   4.347   5.700 -2.3453  1.1965 -1.7944
 1156SOL     OW15100   0.987   1.343   4.476 -0.1975 -0.0981  0.6301
 1156SOL    HW115101   1.012   1.327   4.385  0.2923 -1.0156  0.9169
 1156SOL    HW215102   1.015   1.258   4.512 -2.2473 -0.9415  0.2135
 1157SOL     OW15103   1.768   0.689   9.720 -0.4594 -0.3271  0.5270
 1157SOL    HW115104   1.720   0.680   9.803  0.4163  1.2604  1.2019
 1157SOL    HW215105   1.748   0.779   9.696  2.5984  0.5982  1.5402
 1158SOL     OW15106   0.960   2.358   2.039  0.0520  0.4603  0.2008
 1158SOL    HW115107   0.961   2.291   2.107 -1.3446  0.9414  0.6992
 1158SOL    HW215108   0.893   2.326   1.978  1.2440 -1.2142 -0.2089
 1159SOL     OW15109   0.813   0.418   7.373 -0.1108 -0.1475 -0.0388
 1159SOL    HW115110   0.900   0.426   7.334  0.7462 -0.6731  1.7374
 1159SOL    HW215111   0.815   0.506   7.410 -2.3133  0.1948 -0.7200
 1160SOL     OW15112   3.006   4.488   3.151  0.4986  0.5424  0.0780
 1160SOL    HW115113   2.953   4.433   3.209  1.4133 -1.1928 -0.7369
 1160SOL    HW215114   3.085   4.436   3.164  0.0801 -0.2248 -0.4402
 1161SOL     OW15115   3.163   3.635   5.373 -0.5019  0.3516 -0.3391
 1161SOL    HW115116   3.256   3.637   5.351  0.2230  1.9499  2.8354
 1161SOL    HW215117   3.130   3.567   5.314 -0.9503 -0.5412  0.9238
 1162SOL     OW15118   0.872   1.083   9.134 -0.4155  0.2823  0.9877
 1162SOL    HW115119   0.778   1.098   9.139 -0.8701 -1.3785 -2.8256
 1162SOL    HW215120   0.902   1.148   9.071  0.8814 -1.7195 -0.4576
 1163SOL     OW15121   3.388   3.304   3.107 -0.7527 -0.1026 -0.5942
 1163SOL    HW115122   3.478   3.288   3.134 -0.3211  2.4619 -0.5047
 1163SOL    HW215123   3.361   3.316   3.198  1.0671  2.1779 -0.3605
 1164SOL     OW15124   2.876   1.780   7.450  0.0144 -0.3424  0.3305
 1164SOL    HW115125   2.878   1.734   7.366 -0.8726 -1.9408  1.1845
 1164SOL    HW215126   2.802   1.841   7.443  1.0405  0.7812 -0.8685
 1165SOL     OW15127   3.949   4.466  13.500  0.6603 -0.3143 -0.3852
 1165SOL    HW115128   3.978   4.486  13.589  1.7033 -1.5028 -0.4596
 1165SOL    HW215129   4.028   4.483  13.448 -0.2555 -0.1055 -1.7124
 1166SOL     OW15130   2.659   0.758  16.117 -0.1027 -0.6845 -0.2608
 1166SOL    HW115131   2.692   0.835  16.069 -1.3981 -0.9994 -1.6736
 1166SOL    HW215132   2.741   0.734  16.160 -0.2416  0.0172  0.3958
 1167SOL     OW15133   0.839   0.296   7.080 -0.1726  0.1780  0.3152
 1167SOL    HW115134   0.852   0.223   7.141  1.3983  1.0106  0.9945
 1167SOL    HW215135   0.859   0.260   6.993  2.0663 -0.4853  1.1060
 1168SOL     OW15136   3.494   1.421   8.449 -1.0149  0.3218  0.0900
 1168SOL    HW115137   3.539   1.369   8.516  0.1621  1.5901  0.2736
 1168SOL    HW215138   3.403   1.413   8.477 -1.1799 -1.0089 -0.8203
 1169SOL     OW15139   3.006   4.293   9.819 -0.0356  0.1864 -0.5684
 1169SOL    HW115140   3.023   4.202   9.843 -2.4556 -0.5056 -1.5309
 1169SOL    HW215141   3.096   4.318   9.795  0.0353 -1.0217 -1.5413
 1170SOL     OW15142   0.166   4.317  13.616  0.5419  0.6481  0.3514
 1170SOL    HW115143   0.078   4.319  13.580 -1.3350  0.7708  4.8985
 1170SOL    HW215144   0.150   4.316  13.711  0.8722  0.7952  0.4069
 1171SOL     OW15145   1.425   0.144  11.656 -0.0899 -0.1603 -0.1420
 1171SOL    HW115146   1.362   0.088  11.701  0.3984  0.4096  1.2432
 1171SOL    HW215147   1.423   0.229  11.701  0.2807  0.9222 -2.1509
 1172SOL     OW15148   1.940   3.657   9.982 -0.2633  0.3109 -0.1854
 1172SOL    HW115149   2.005   3.608  10.033  0.1372 -0.7157 -1.6783
 1172SOL    HW215150   1.875   3.589   9.966  1.2052 -1.4506  1.2831
 1173SOL     OW15151   1.024   0.006   3.974  0.2723  0.0173  0.3774
 1173SOL    HW115152   1.109   4.734   3.935  0.0081 -1.4358  0.3922
 1173SOL    HW215153   1.010   4.671   4.026  2.5559  0.7191  2.0480
 1174SOL     OW15154   0.200   3.813   8.180 -1.0820  0.2897 -0.3372
 1174SOL    HW115155   0.270   3.748   8.182  0.0263  1.5114  1.5041
 1174SOL    HW215156   0.244   3.896   8.201 -0.7219  0.2680 -1.0212
 1175SOL     OW15157   3.256   1.711  17.197 -0.0355 -0.1137  0.3062
 1175SOL    HW115158   3.217   1.798  17.187 -0.8915 -0.3034  1.9613
 1175SOL    HW215159   3.182   1.662  17.161 -0.5985 -0.5767  2.0901
 1176SOL     OW15160   4.269   2.270   1.968 -0.2122 -0.1533 -0.1795
 1176SOL    HW115161   4.278   2.212   2.044 -1.1462  1.9237  1.5141
 1176SOL    HW215162   4.340   2.243   1.911 -0.4445  0.4548 -0.7588
 1177SOL     OW15163   1.030   0.495  10.422  0.3886 -0.3609  0.5127
 1177SOL    HW115164   1.123   0.514  10.434  0.2233  1.5351 -1.2886
 1177SOL    HW215165   0.990   0.577  10.448 -1.6548 -1.1144 -0.2577
 1178SOL     OW15166   4.040   1.346   5.998 -0.3399  0.0607 -0.1364
 1178SOL    HW115167   4.095   1.410   6.044 -0.9982  0.7830 -0.3493
 1178SOL    HW215168   4.052   1.270   6.056 -2.6027  0.4495  0.8845
 1179SOL     OW15169   2.355   2.642   1.635  0.2781  0.0789  0.1940
 1179SOL    HW115170   2.270   2.678   1.610  0.1332 -0.9143 -0.7351
 1179SOL    HW215171   2.335   2.548   1.638 -0.9581  0.3150 -0.7658
 1180SOL     OW15172   1.586   4.246   7.821  0.3252  0.0088 -0.2836
 1180SOL    HW115173   1.640   4.280   7.893  0.0397  0.7821 -0.4271
 1180SOL    HW215174   1.512   4.212   7.870  0.2029 -0.2606 -0.6577
 1181SOL     OW15175   3.982   3.165   7.564 -0.0678 -0.2390  0.0886
 1181SOL    HW115176   3.949   3.092   7.512 -1.1259  0.4443 -0.2040
 1181SOL    HW215177   3.914   3.233   7.562 -0.6522 -0.7866  1.3032
 1182SOL     OW15178   2.085   4.164   5.772 -0.3549 -0.3112  0.6949
 1182SOL    HW115179   2.166   4.206   5.743 -1.0062  1.4519  1.4653
 1182SOL    HW215180   2.114   4.118   5.851  0.2247  0.8649  1.1634
 1183SOL     OW15181   1.911   2.726   2.661 -0.3611 -0.2271  0.2170
 1183SOL    HW115182   1.918   2.813   2.622 -0.5710 -0.0463  0.5801
 1183SOL    HW215183   1.950   2.747   2.746 -0.6209  3.5494 -0.5794
 1184SOL     OW15184   3.793   4.648   8.382 -0.0199 -0.3817  0.8087
 1184SOL    HW115185   3.730   4.576   8.388  0.0294 -0.3806  1.3172
 1184SOL    HW215186   3.757   4.712   8.443 -2.1330 -0.8637  0.0741
 1185SOL     OW15187   1.531   2.680   0.192 -0.1266 -0.3709  0.2020
 1185SOL    HW115188   1.480   2.744   0.142 -0.6124  0.3139  1.5408
 1185SOL    HW215189   1.477   2.678   0.272  0.3501 -0.8417  0.5108
 1186SOL     OW15190   2.852   1.033   7.439  0.7592  0.9346  0.1635
 1186SOL    HW115191   2.824   1.125   7.434  0.4629  0.5941 -4.9244
 1186SOL    HW215192   2.779   0.993   7.487 -0.1528  0.5925 -1.5082
 1187SOL     OW15193   1.795   4.041  12.002  0.3363 -0.2903 -0.0756
 1187SOL    HW115194   1.885   4.021  12.025 -0.0415 -1.5316  0.3209
 1187SOL    HW215195   1.819   4.099  11.930  0.5481  0.1544  0.3597
 1188SOL     OW15196   1.482   2.366   2.414 -0.1442 -0.5349 -0.4402
 1188SOL    HW115197   1.565   2.350   2.459 -0.1027 -1.3796 -0.8254
 1188SOL    HW215198   1.459   2.451   2.451  0.3524 -0.9295  0.7582
 1189SOL     OW15199   4.032   0.238   2.477 -0.2105  0.0336  0.2356
 1189SOL    HW115200   3.951   0.204   2.440 -0.7851  2.4610 -0.7213
 1189SOL    HW215201   4.061   0.168   2.536 -0.8693  1.1169  1.8340
 1190SOL     OW15202   0.495   3.009   5.888  0.6283 -0.2057 -0.1115
 1190SOL    HW115203   0.578   3.003   5.936 -0.1413  1.9519  1.4929
 1190SOL    HW215204   0.521   3.063   5.813  0.3834 -0.5756 -0.4598
 1191SOL     OW15205   2.389   2.770   4.448  0.3446 -0.1565  0.9255
 1191SOL    HW115206   2.399   2.702   4.381 -0.9900  1.1815 -0.6049
 1191SOL    HW215207   2.384   2.846   4.390 -0.1880 -2.4603 -2.0455
 1192SOL     OW15208   2.014   2.403  10.303  0.5273  0.0895  0.2936
 1192SOL    HW115209   1.963   2.378  10.226  2.7241  0.6729 -1.3668
 1192SOL    HW215210   2.097   2.369  10.271 -0.3501 -0.4816 -1.3492
 1193SOL     OW15211   3.593   0.645   9.428 -0.3042  0.4438  0.3528
 1193SOL    HW115212   3.665   0.584   9.409 -1.4355 -0.5901 -0.6593
 1193SOL    HW215213   3.553   0.617   9.510 -1.9380  0.5666 -0.4008
 1194SOL     OW15214   4.301   0.723   7.000 -0.2861  0.8372 -0.0541
 1194SOL    HW115215   4.231   0.664   6.970  0.9863 -2.0086  2.6677
 1194SOL    HW215216   4.360   0.717   6.925  0.3626 -1.3098  0.6414
 1195SOL     OW15217   0.469   0.661   7.674  0.2422 -0.6442 -0.4730
 1195SOL    HW115218   0.454   0.585   7.618 -0.9072  0.5039 -1.7348
 1195SOL    HW215219   0.466   0.633   7.765  1.2576 -0.4698 -0.3959
 1196SOL     OW15220   2.622   4.179   7.259  0.1345  0.6822 -0.2600
 1196SOL    HW115221   2.632   4.225   7.343  0.1184  0.5605 -0.1911
 1196SOL    HW215222   2.545   4.125   7.274  2.1419 -1.5891  2.0058
 1197SOL     OW15223   4.694   4.445   2.987  0.2476 -0.1857 -0.2086
 1197SOL    HW115224   4.618   4.502   2.995 -0.6093 -1.3561  0.0725
 1197SOL    HW215225   4.653   4.359   2.993  2.5600 -1.3218 -0.3961
 1198SOL     OW15226   3.176   3.373   8.200 -0.6801 -0.1492 -0.4015
 1198SOL    HW115227   3.157   3.395   8.108  0.0193  0.1688 -0.4720
 1198SOL    HW215228   3.232   3.447   8.223 -0.7920  0.2660 -1.4561
 1199SOL     OW15229   1.764   0.920  12.373 -0.6534 -0.3197  0.3127
 1199SOL    HW115230   1.732   0.859  12.440  1.4078  0.1313  1.7144
 1199SOL    HW215231   1.820   0.854  12.332 -2.1664 -0.9561 -0.7403
 1200SOL     OW15232   0.905   3.169  10.089 -0.3267  0.5675  0.3640
 1200SOL    HW115233   0.973   3.103  10.086 -0.9419 -0.0365 -0.2680
 1200SOL    HW215234   0.952   3.244  10.050 -0.1218 -0.0098 -0.4995
 1201SOL     OW15235   1.801   0.230   6.022  0.3136  0.0405 -0.4847
 1201SOL    HW115236   1.866   0.160   6.017  0.2249 -0.2437  2.5203
 1201SOL    HW215237   1.832   0.289   6.091  1.4746 -0.4352 -0.5941
 1202SOL     OW15238   3.824   4.252  12.744 -0.0382  0.2408  0.0714
 1202SOL    HW115239   3.848   4.240  12.652 -2.0663  0.5442 -0.4972
 1202SOL    HW215240   3.742   4.204  12.755 -0.3889  1.0363  0.8520
 1203SOL     OW15241   0.214   2.477   2.613 -0.0389 -0.0274  0.1211
 1203SOL    HW115242   0.169   2.561   2.619 -2.0037 -0.8881 -2.2660
 1203SOL    HW215243   0.266   2.479   2.533 -0.4810 -2.5339 -0.2129
 1204SOL     OW15244   4.203   0.006   5.689  0.3854  0.1351  0.9638
 1204SOL    HW115245   4.188   0.095   5.722 -2.8137  0.2710 -0.8605
 1204SOL    HW215246   4.113   4.723   5.670  0.7124 -0.2497 -0.0173
 1205SOL     OW15247   3.031   4.347   9.288 -0.1906 -0.4486  0.3335
 1205SOL    HW115248   2.952   4.326   9.236  0.1018  0.3497 -0.4270
 1205SOL    HW215249   2.995   4.384   9.368  2.5132  1.6832  0.5475
 1206SOL     OW15250   1.488   3.369   9.570 -0.2063  0.2430 -0.5917
 1206SOL    HW115251   1.494   3.433   9.499 -0.5145  1.5721  0.5738
 1206SOL    HW215252   1.539   3.294   9.538 -0.8627  0.0584 -1.2002
 1207SOL     OW15253   0.921   0.974   0.830 -0.1219  0.5526 -0.2827
 1207SOL    HW115254   0.891   0.948   0.743  0.2191 -2.7065  0.5774
 1207SOL    HW215255   1.005   0.931   0.845 -0.4311 -0.2785 -0.9697
 1208SOL     OW15256   0.425   2.871  12.806 -0.3149 -0.0397 -0.0120
 1208SOL    HW115257   0.473   2.951  12.827 -1.9645  0.4738  1.8278
 1208SOL    HW215258   0.347   2.890  12.857 -1.3452 -1.0741 -1.2060
 1209SOL     OW15259   4.030   4.496   5.228  0.1793 -0.3113  0.6912
 1209SOL    HW115260   4.059   4.433   5.294 -1.5932 -1.6653  0.1859
 1209SOL    HW215261   3.966   4.548   5.276 -1.0644  0.4854 -1.8131
 1210SOL     OW15262   2.788   3.600   7.744 -0.0970  0.0552 -0.1903
 1210SOL    HW115263   2.789   3.524   7.802 -1.2773  0.8404  0.8372
 1210SOL    HW215264   2.712   3.585   7.688  1.2336  1.0144 -2.2950
 1211SOL     OW15265   3.282   0.488  11.692  0.2991  0.5309 -1.0498
 1211SOL    HW115266   3.227   0.541  11.750  0.1125 -1.0011  0.1582
 1211SOL    HW215267   3.329   0.557  11.645  1.6921 -0.6603 -1.4081
 1212SOL     OW15268   2.295   4.610   5.334 -0.6741  0.4407 -0.0087
 1212SOL    HW115269   2.334   4.673   5.275  0.3603  0.8869  1.1622
 1212SOL    HW215270   2.339   4.530   5.305  0.1550  0.4025  1.3348
 1213SOL     OW15271   2.326   4.148  15.096  0.3808 -0.2076  0.1668
 1213SOL    HW115272   2.350   4.216  15.159 -0.1574  1.3403 -1.2993
 1213SOL    HW215273   2.314   4.198  15.015  1.0430 -0.7327 -0.2521
 1214SOL     OW15274   2.334   0.541   1.241  0.2259 -0.2606 -0.3223
 1214SOL    HW115275   2.285   0.485   1.301 -0.3697  0.0294 -0.5426
 1214SOL    HW215276   2.382   0.593   1.305 -0.8580 -0.0182  0.2871
 1215SOL     OW15277   1.866   1.435   5.489  0.0256  0.0850  0.1812
 1215SOL    HW115278   1.879   1.485   5.408  0.3951  1.0168  0.8219
 1215SOL    HW215279   1.866   1.505   5.554 -2.9827  1.3256 -1.1574
 1216SOL     OW15280   1.698   0.781  15.463  0.2326 -0.4700  0.1437
 1216SOL    HW115281   1.765   0.789  15.531 -1.0668  2.4304  1.0777
 1216SOL    HW215282   1.733   0.719  15.399 -3.0066 -0.5710 -1.5116
 1217SOL     OW15283   3.547   0.103  15.241 -0.2733 -0.5253 -0.2670
 1217SOL    HW115284   3.531   0.131  15.151 -0.9544 -1.4080 -0.4248
 1217SOL    HW215285   3.566   0.009  15.234  0.9999 -0.2599 -0.4761
 1218SOL     OW15286   0.614   3.293   9.393 -0.4899  0.4863 -0.4080
 1218SOL    HW115287   0.668   3.371   9.377 -1.2924  1.2377  0.5982
 1218SOL    HW215288   0.661   3.243   9.460 -1.1366  0.1993 -0.1670
 1219SOL     OW15289   2.354   4.075   4.366 -0.2200 -0.4979  0.0262
 1219SOL    HW115290   2.259   4.082   4.377 -0.4408 -0.0712 -2.0614
 1219SOL    HW215291   2.364   4.040   4.277 -0.9515  0.5571 -0.4781
 1220SOL     OW15292   3.843   3.785   9.383  0.4038  0.2651 -0.2283
 1220SOL    HW115293   3.921   3.836   9.362  0.3861  1.3420  2.2960
 1220SOL    HW215294   3.809   3.769   9.295  0.9721 -3.0873  0.1304
 1221SOL     OW15295   2.232   1.098   2.867  0.0199 -0.2763  0.3007
 1221SOL    HW115296   2.187   1.179   2.892  0.4616 -0.0343  0.3151
 1221SOL    HW215297   2.317   1.105   2.911  0.4066  0.2916 -0.5335
 1222SOL     OW15298   2.617   4.105   6.299  0.0539 -0.0379 -0.7311
 1222SOL    HW115299   2.531   4.143   6.284 -0.0909  0.1461  0.5439
 1222SOL    HW215300   2.673   4.152   6.237  1.4947 -0.1801  0.4470
 1223SOL     OW15301   3.311   0.686  14.890 -0.4350 -0.2026  0.1233
 1223SOL    HW115302   3.371   0.756  14.864  0.9659 -1.2293  0.6143
 1223SOL    HW215303   3.318   0.627  14.815 -1.4953  0.6138 -0.6326
 1224SOL     OW15304   0.740   1.411   2.902  0.3782  0.0649  0.2919
 1224SOL    HW115305   0.824   1.392   2.943  1.0911  2.9851  0.1565
 1224SOL    HW215306   0.740   1.505   2.885  0.5660 -0.0958 -0.5788
 1225SOL     OW15307   4.254   1.573   0.153 -0.4681 -0.4641 -0.1913
 1225SOL    HW115308   4.216   1.643   0.101  1.4424 -0.1149 -1.1222
 1225SOL    HW215309   4.339   1.561   0.109 -0.0689  0.1685  0.4071
 1226SOL     OW15310   4.019   4.316   7.863 -0.0982 -0.0737 -0.1120
 1226SOL    HW115311   4.087   4.253   7.884 -0.5613 -0.0021  1.6310
 1226SOL    HW215312   4.072   4.390   7.835  1.0311 -0.8608 -0.0395
 1227SOL     OW15313   3.608   2.050   6.731  0.1892  0.3851 -0.2182
 1227SOL    HW115314   3.521   2.013   6.719  0.3747  0.1259 -0.7596
 1227SOL    HW215315   3.649   1.986   6.789  0.7088 -0.4259 -1.4829
 1228SOL     OW15316   2.972   1.489   3.898  0.7130  0.1777 -0.4573
 1228SOL    HW115317   3.056   1.485   3.944  0.1846  2.5557  0.6914
 1228SOL    HW215318   2.993   1.559   3.836 -0.7985  1.8603  0.9302
 1229SOL     OW15319   2.772   0.193  16.547  0.6575 -0.0147 -0.3340
 1229SOL    HW115320   2.818   0.182  16.464  0.7581  2.0798 -0.5601
 1229SOL    HW215321   2.825   0.129  16.595  0.7262  0.0171 -0.3684
 1230SOL     OW15322   2.229   0.620  10.658 -0.3685  0.4594 -0.3290
 1230SOL    HW115323   2.148   0.587  10.619 -1.1922  0.2302  1.5238
 1230SOL    HW215324   2.200   0.694  10.712  1.0160  1.5789 -1.1140
 1231SOL     OW15325   0.600   2.937  14.859 -0.3426 -0.5244 -0.1729
 1231SOL    HW115326   0.692   2.938  14.835 -0.6287  1.5337 -1.2530
 1231SOL    HW215327   0.595   2.867  14.924 -0.4652  0.2695  0.6848
 1232SOL     OW15328   3.548   0.377  13.965  0.5404  0.7807 -0.4260
 1232SOL    HW115329   3.562   0.286  13.992  1.0477  0.9709 -0.0385
 1232SOL    HW215330   3.455   0.385  13.944 -0.0200  1.6832  2.3390
 1233SOL     OW15331   4.662   3.134   9.157 -0.0132  0.2214 -0.8501
 1233SOL    HW115332   4.703   3.050   9.177 -0.4366 -0.2995 -2.2216
 1233SOL    HW215333   4.576   3.103   9.129 -0.7478  0.6676  0.8989
 1234SOL     OW15334   4.487   1.532  14.201 -0.3676  0.3194  0.6296
 1234SOL    HW115335   4.422   1.486  14.148  2.2625 -2.2553 -0.3466
 1234SOL    HW215336   4.460   1.507  14.289 -1.5817 -0.5301  0.0161
 1235SOL     OW15337   0.592   2.108   3.805  0.3046  0.1731 -0.2415
 1235SOL    HW115338   0.609   2.105   3.899  1.8764 -1.9593 -0.6214
 1235SOL    HW215339   0.556   2.020   3.795  3.2893 -0.9909 -0.5062
 1236SOL     OW15340   1.197   2.391  10.918  0.4221 -0.2995 -0.1399
 1236SOL    HW115341   1.292   2.385  10.928  0.4564  1.0137  0.2468
 1236SOL    HW215342   1.172   2.387  11.010 -0.0191 -0.9237 -0.2804
 1237SOL     OW15343   4.354   2.609   0.652 -0.1769  0.2723  0.5797
 1237SOL    HW115344   4.333   2.517   0.635 -0.0113  0.2658  0.4132
 1237SOL    HW215345   4.425   2.587   0.712  0.7227  0.6023 -0.3637
 1238SOL     OW15346   4.381   1.547   5.194  0.2974 -0.3273 -0.3960
 1238SOL    HW115347   4.289   1.523   5.208  0.7380 -0.5362  2.1755
 1238SOL    HW215348   4.369   1.599   5.115 -1.7045  0.4684  0.4354
 1239SOL     OW15349   1.048   2.899  15.554  0.4885 -0.4749 -0.3051
 1239SOL    HW115350   0.993   2.882  15.477 -0.0351 -2.4213  0.5080
 1239SOL    HW215351   1.004   2.845  15.620 -0.1597  0.5022  0.0687
 1240SOL     OW15352   0.158   1.756   2.976 -0.5292 -0.6509 -0.4069
 1240SOL    HW115353   0.095   1.737   2.907 -3.5356  0.0281  2.1517
 1240SOL    HW215354   0.232   1.793   2.928  0.8209 -3.1102 -0.1701
 1241SOL     OW15355   3.423   0.171   0.019 -0.4140 -0.0282 -0.1965
 1241SOL    HW115356   3.346   0.227   0.025  0.0500  0.4531  1.4087
 1241SOL    HW215357   3.415   0.119   0.100 -0.0167 -1.3631 -1.0194
 1242SOL     OW15358   2.928   2.268   5.257  0.0144  0.1198  0.1843
 1242SOL    HW115359   2.971   2.219   5.328  0.5719  1.8790  1.0569
 1242SOL    HW215360   2.877   2.327   5.312 -1.8772  0.8558 -2.3800
 1243SOL     OW15361   2.369   1.297   8.199  0.2999  0.0369 -0.2573
 1243SOL    HW115362   2.421   1.323   8.123  2.2454  0.3164  1.1562
 1243SOL    HW215363   2.281   1.321   8.172  1.2662  1.2014 -2.3264
 1244SOL     OW15364   0.423   0.958  14.703  0.4076 -0.3197  0.2634
 1244SOL    HW115365   0.426   0.895  14.775 -1.3099 -1.0894 -0.3163
 1244SOL    HW215366   0.335   0.953  14.666  0.1590  0.9566  0.6955
 1245SOL     OW15367   3.012   0.199   7.081  0.0510 -0.3918  0.1608
 1245SOL    HW115368   3.043   0.217   6.993 -0.6067 -1.8640 -0.3783
 1245SOL    HW215369   2.933   0.149   7.060 -1.0135  1.0323  0.7784
 1246SOL     OW15370   3.494   2.697  12.852 -0.6682  0.2069 -0.1432
 1246SOL    HW115371   3.525   2.668  12.938 -0.1034  3.0440  0.6143
 1246SOL    HW215372   3.537   2.642  12.787  0.1155  1.9619 -1.1132
 1247SOL     OW15373   1.449   2.223   8.272  0.5701  0.0530 -0.0650
 1247SOL    HW115374   1.528   2.271   8.250  1.4976 -1.5365 -0.2446
 1247SOL    HW215375   1.465   2.194   8.362  1.7051 -1.3791 -0.7232
 1248SOL     OW15376   4.328   2.541   7.845  0.1873  0.4366 -0.0922
 1248SOL    HW115377   4.258   2.580   7.791  0.7447  0.6745 -0.6414
 1248SOL    HW215378   4.299   2.450   7.842  0.2420  0.4012  0.5951
 1249SOL     OW15379   1.856   1.636   1.820  0.0933 -0.2278 -0.6682
 1249SOL    HW115380   1.813   1.583   1.888  1.2815 -1.4776 -0.8893
 1249SOL    HW215381   1.943   1.640   1.861 -1.0785  2.1377  1.5700
 1250SOL     OW15382   0.769   2.402   4.610  0.2667  0.4977 -1.0284
 1250SOL    HW115383   0.698   2.360   4.563  0.1615  0.7174 -1.0659
 1250SOL    HW215384   0.845   2.387   4.554 -0.6421 -2.8573 -1.3492
 1251SOL     OW15385   2.062   0.276  11.084 -0.3213  0.9659  0.1538
 1251SOL    HW115386   2.090   0.185  11.084 -1.6531  0.5484 -1.2337
 1251SOL    HW215387   2.060   0.301  11.176 -2.0912  1.4459  0.0007
 1252SOL     OW15388   4.302   3.338   4.564 -0.0024  0.1648 -0.3166
 1252SOL    HW115389   4.313   3.287   4.644  0.4998  1.7368  0.6229
 1252SOL    HW215390   4.345   3.423   4.576 -1.9624  1.3669 -1.8747
 1253SOL     OW15391   2.852   0.887   8.521 -0.0226 -0.0695  0.1812
 1253SOL    HW115392   2.826   0.830   8.594  2.1075 -3.1342 -1.4326
 1253SOL    HW215393   2.764   0.909   8.492  0.0203  0.0655  0.1570
 1254SOL     OW15394   2.456   1.562   4.785  0.0961  0.2006  0.2073
 1254SOL    HW115395   2.536   1.564   4.732 -1.7491  1.9850 -2.5018
 1254SOL    HW215396   2.443   1.654   4.807 -1.4054  0.4679 -1.8261
 1255SOL     OW15397   3.509   0.143   4.873 -0.5738 -0.0507  0.0778
 1255SOL    HW115398   3.498   0.237   4.859  1.5292  0.5952  2.7071
 1255SOL    HW215399   3.426   0.119   4.832 -0.4709 -0.2335 -0.0230
 1256SOL     OW15400   2.176   0.950   0.798  0.0084 -0.2475 -1.0299
 1256SOL    HW115401   2.247   1.003   0.762 -1.5874  3.1818  0.9081
 1256SOL    HW215402   2.219   0.909   0.873 -0.5207  1.5219  0.2278
 1257SOL     OW15403   2.425   3.373   3.700  0.4772 -0.2641 -0.2187
 1257SOL    HW115404   2.474   3.391   3.619  0.7212 -1.1687 -0.2737
 1257SOL    HW215405   2.427   3.278   3.705  3.7511 -0.1639  0.6107
 1258SOL     OW15406   3.110   3.733  17.564  0.0784  0.5536  0.4750
 1258SOL    HW115407   3.107   3.684  17.483 -0.7801 -0.7666  1.3082
 1258SOL    HW215408   3.183   3.679  17.595  0.4502  1.1981  0.7366
 1259SOL     OW15409   0.948   3.285   9.597 -0.1206 -0.2102 -0.3930
 1259SOL    HW115410   0.884   3.225   9.558 -0.3569 -0.4470  0.3503
 1259SOL    HW215411   0.965   3.244   9.683  0.5303  0.0650 -0.3910
 1260SOL     OW15412   0.628   0.550   6.036 -0.2985  0.1020  0.3676
 1260SOL    HW115413   0.574   0.601   5.975 -1.3650 -1.0832  0.3010
 1260SOL    HW215414   0.606   0.585   6.122 -0.1683  0.7333  0.1443
 1261SOL     OW15415   0.296   1.653   6.881  0.1790  0.1149  0.8598
 1261SOL    HW115416   0.321   1.630   6.791 -1.6945  2.9173 -0.3524
 1261SOL    HW215417   0.277   1.746   6.875 -0.7292 -0.1116  0.2028
 1262SOL     OW15418   2.456   0.863   3.300  0.3086  0.5857  0.0517
 1262SOL    HW115419   2.493   0.950   3.290 -1.1633  1.4248  2.0540
 1262SOL    HW215420   2.447   0.858   3.395  0.0150 -2.4505 -0.1241
 1263SOL     OW15421   1.734   4.473   8.809 -0.2547  0.5099  0.0326
 1263SOL    HW115422   1.648   4.514   8.804  0.0030  1.0501  0.0901
 1263SOL    HW215423   1.713   4.381   8.792  1.2219 -0.0082  0.9038
 1264SOL     OW15424   2.843   2.202   0.069 -0.2202 -0.1278 -0.2570
 1264SOL    HW115425   2.937   2.183   0.081 -0.0348  1.2654  0.4768
 1264SOL    HW215426   2.858   2.292   0.040 -0.9023 -0.1536 -0.6737
 1265SOL     OW15427   4.082   0.957   8.514  0.1049  0.3536 -0.3636
 1265SOL    HW115428   4.055   0.944   8.605  0.5767  0.8591 -0.1500
 1265SOL    HW215429   4.026   1.029   8.487  1.4426  1.5526  0.0334
 1266SOL     OW15430   3.654   1.374   8.681  0.2886  0.6452 -0.1172
 1266SOL    HW115431   3.649   1.325   8.764  1.8061 -1.2196 -1.1307
 1266SOL    HW215432   3.733   1.339   8.640 -0.0863 -1.2250  0.7566
 1267SOL     OW15433   1.183   3.319   3.083 -0.4062  0.0356 -0.4422
 1267SOL    HW115434   1.166   3.412   3.077 -1.7665 -0.3309 -2.3179
 1267SOL    HW215435   1.254   3.312   3.147  0.1628 -0.5658 -1.1329
 1268SOL     OW15436   4.108   4.482  11.254  0.5932  0.3302 -0.5669
 1268SOL    HW115437   4.195   4.520  11.245  0.8749 -0.2908 -0.4427
 1268SOL    HW215438   4.066   4.567  11.269  0.3222 -0.0203  0.6768
 1269SOL     OW15439   4.517   0.952   5.559  0.5321  0.4963  0.0835
 1269SOL    HW115440   4.607   0.924   5.543  1.2861  3.3008 -0.4764
 1269SOL    HW215441   4.506   1.011   5.485  0.9588  1.2345  0.6062
 1270SOL     OW15442   4.387   3.454  11.156 -0.2029  0.1141  0.1592
 1270SOL    HW115443   4.423   3.487  11.238  0.0391  1.5540 -0.5141
 1270SOL    HW215444   4.307   3.507  11.148 -0.4650  0.0450  2.2983
 1271SOL     OW15445   4.493   0.401   8.799 -0.2968  0.5772 -0.2925
 1271SOL    HW115446   4.452   0.472   8.849 -2.0615  0.6280 -1.8014
 1271SOL    HW215447   4.468   0.322   8.848 -1.4646  0.3545 -1.2295
 1272SOL     OW15448   0.921   3.170  11.592 -0.6333 -0.6174  0.2607
 1272SOL    HW115449   0.888   3.193  11.505  0.5931 -1.7191 -0.4960
 1272SOL    HW215450   0.856   3.212  11.648 -1.2882  0.8866 -1.6248
 1273SOL     OW15451   2.484   0.994   5.154  0.1172 -0.6197 -0.0559
 1273SOL    HW115452   2.455   0.904   5.142  0.8267 -0.7944 -0.4519
 1273SOL    HW215453   2.425   1.045   5.098 -1.1327 -2.4659 -0.4048
 1274SOL     OW15454   1.970   2.069   0.518  0.5699  0.1000 -0.1082
 1274SOL    HW115455   1.972   2.059   0.423 -0.7833  0.3008 -0.1553
 1274SOL    HW215456   1.975   1.978   0.547 -2.1678  0.1664  0.6009
 1275SOL     OW15457   3.572   0.889  14.383 -0.3771  0.2196 -0.0588
 1275SOL    HW115458   3.559   0.794  14.383  1.3205 -0.0196 -0.0246
 1275SOL    HW215459   3.640   0.895  14.316 -0.2876 -0.6270 -0.0546
 1276SOL     OW15460   3.601   4.569  13.546 -0.2061 -0.4807  0.2025
 1276SOL    HW115461   3.551   4.620  13.482  0.8551  0.2035 -0.0773
 1276SOL    HW215462   3.683   4.565  13.496  0.4350  1.5205  1.1171
 1277SOL     OW15463   3.890   2.342   1.479 -0.1470 -0.0715 -0.1328
 1277SOL    HW115464   3.934   2.278   1.535 -3.7882 -0.4281  2.3543
 1277SOL    HW215465   3.832   2.292   1.421  1.7141 -0.5252 -1.5911
 1278SOL     OW15466   3.019   0.019  12.619 -0.3888 -0.2401  0.1333
 1278SOL    HW115467   3.028   0.083  12.690 -0.1948  0.0750 -0.1760
 1278SOL    HW215468   3.035   4.687  12.675 -0.2195  0.0821  0.5224
 1279SOL     OW15469   4.174   3.970  10.579  0.4738  0.2241  0.6455
 1279SOL    HW115470   4.142   4.038  10.638  0.6761 -0.4257  1.5102
 1279SOL    HW215471   4.267   3.973  10.602  0.8900 -0.5961 -0.8803
 1280SOL     OW15472   3.363   0.279   5.700 -0.9213 -0.4127 -0.4829
 1280SOL    HW115473   3.418   0.276   5.622  1.1678 -2.6460  1.0934
 1280SOL    HW215474   3.321   0.362   5.678  2.0558  0.7795 -1.7446
 1281SOL     OW15475   4.499   4.088   9.133  0.3318  0.2004  0.0387
 1281SOL    HW115476   4.548   4.118   9.056  1.8732  2.8354  2.0795
 1281SOL    HW215477   4.563   4.093   9.203 -2.1697 -0.8348  2.3891
 1282SOL     OW15478   1.214   3.207   4.650  0.0919 -0.2035  0.2006
 1282SOL    HW115479   1.144   3.204   4.584  0.9011  1.3191 -0.7238
 1282SOL    HW215480   1.198   3.130   4.705  1.2315 -1.6089 -1.4445
 1283SOL     OW15481   0.179   1.895   8.876 -0.3829 -0.2264  0.2324
 1283SOL    HW115482   0.252   1.919   8.934  0.4122 -2.5440  0.2145
 1283SOL    HW215483   0.207   1.924   8.789 -0.6424 -0.2081  0.1541
 1284SOL     OW15484   4.289   3.829   8.485 -0.1933  0.4194 -0.1400
 1284SOL    HW115485   4.243   3.872   8.558  2.8908  1.3681  1.2389
 1284SOL    HW215486   4.381   3.848   8.503  0.1899 -0.8060 -0.8098
 1285SOL     OW15487   1.711   0.212   3.439 -1.2711 -0.2416  0.1146
 1285SOL    HW115488   1.779   0.212   3.507  0.2062 -0.3876 -1.3669
 1285SOL    HW215489   1.768   0.216   3.362  0.5259  3.3772  1.6460
 1286SOL     OW15490   3.464   3.657   3.328 -0.2694  0.0129  0.1102
 1286SOL    HW115491   3.448   3.751   3.321  0.2580 -0.1038 -2.5934
 1286SOL    HW215492   3.511   3.640   3.410 -1.8473 -1.7086  0.6549
 1287SOL     OW15493   1.706   3.628   8.950 -0.1233 -0.1094 -0.2869
 1287SOL    HW115494   1.712   3.655   9.041  0.5684 -2.5027  0.3764
 1287SOL    HW215495   1.610   3.631   8.945  0.0520  1.1725 -2.9948
 1288SOL     OW15496   4.386   2.810   2.113 -0.4547 -0.6489 -0.1813
 1288SOL    HW115497   4.381   2.864   2.192  3.6660  0.9615 -1.0130
 1288SOL    HW215498   4.472   2.849   2.096  0.6879 -3.4665 -0.8890
 1289SOL     OW15499   1.972   2.855  12.594 -0.7762  0.4742 -0.4437
 1289SOL    HW115500   1.970   2.816  12.507 -0.5900  1.6766 -0.9895
 1289SOL    HW215501   2.008   2.790  12.653 -1.3760  1.1470  0.6732
 1290SOL     OW15502   4.150   0.200   8.039 -0.2228  0.0720  0.2458
 1290SOL    HW115503   4.208   0.142   7.988  1.4033  1.4111  0.5611
 1290SOL    HW215504   4.107   0.255   7.973  0.8109 -1.5627 -1.8255
 1291SOL     OW15505   4.509   4.287   8.740 -0.1670  0.4033  0.5800
 1291SOL    HW115506   4.419   4.312   8.761 -0.4138  0.0026 -0.0368
 1291SOL    HW215507   4.515   4.309   8.648 -1.1196  0.9213  0.6415
 1292SOL     OW15508   3.048   2.999   7.330 -0.2198  0.1290  0.4190
 1292SOL    HW115509   3.100   3.025   7.254 -0.5154 -0.9024 -0.1323
 1292SOL    HW215510   3.045   2.904   7.319  1.1613 -0.0081  1.2085
 1293SOL     OW15511   2.000   4.601   9.124  0.6712  0.7502  0.5922
 1293SOL    HW115512   1.906   4.586   9.126  0.8471 -0.3780  0.3040
 1293SOL    HW215513   2.033   4.542   9.192  0.3414  0.6228  0.6392
 1294SOL     OW15514   2.258   3.764   1.948  0.0908  0.0610 -0.4397
 1294SOL    HW115515   2.312   3.771   1.869  3.9027  0.6338  2.2238
 1294SOL    HW215516   2.297   3.682   1.977 -1.2003  0.0760  1.3630
 1295SOL     OW15517   2.972   4.677   6.423  0.4657 -0.2648 -0.0781
 1295SOL    HW115518   2.937   0.008   6.375 -1.7709 -2.0664 -1.2833
 1295SOL    HW215519   2.943   4.608   6.363  2.9213 -0.7482 -0.7082
 1296SOL     OW15520   0.689   2.784   6.789  0.1012  0.4674  0.2613
 1296SOL    HW115521   0.764   2.842   6.799  0.7288 -0.6579  2.0164
 1296SOL    HW215522   0.720   2.718   6.727 -1.1529 -0.6572  0.8151
 1297SOL     OW15523   3.057   3.730   1.448  0.1772 -0.2191  0.0945
 1297SOL    HW115524   3.118   3.781   1.395 -0.2257  0.9485  0.7670
 1297SOL    HW215525   3.045   3.782   1.527 -2.2927 -1.0827  0.2833
 1298SOL     OW15526   0.392   3.806   7.715  0.9432  0.2086 -0.5789
 1298SOL    HW115527   0.452   3.780   7.645  0.9780  0.8973 -0.8070
 1298SOL    HW215528   0.435   3.768   7.791  0.3881  1.7881  0.5331
 1299SOL     OW15529   1.271   3.754   1.878 -0.2486  0.3459  0.3632
 1299SOL    HW115530   1.225   3.814   1.819  0.0708 -0.2920 -0.5354
 1299SOL    HW215531   1.340   3.733   1.815 -1.5944 -0.2132 -0.9098
 1300SOL     OW15532   2.189   4.148   8.177 -0.0742 -0.4116  0.3023
 1300SOL    HW115533   2.118   4.093   8.145  0.7906 -1.9546  1.0504
 1300SOL    HW215534   2.208   4.096   8.255  0.6174 -1.4755 -0.5839
 1301SOL     OW15535   3.594   3.352   8.780 -0.2452 -0.1750  0.0248
 1301SOL    HW115536   3.547   3.296   8.718 -0.6518  2.6839 -2.2340
 1301SOL    HW215537   3.543   3.337   8.860 -0.9602  0.9025 -0.2169
 1302SOL     OW15538   3.042   3.574   3.047  0.2445  0.1399  0.4597
 1302SOL    HW115539   3.137   3.580   3.039  0.1441  0.1610 -0.7414
 1302SOL    HW215540   3.028   3.504   2.983  2.0831  1.3949 -1.2851
 1303SOL     OW15541   4.098   0.613   2.644  0.0903  0.0066 -0.2241
 1303SOL    HW115542   4.067   0.541   2.698  1.4570  0.1612  0.7626
 1303SOL    HW215543   4.118   0.564   2.564 -0.8183  0.1223 -0.5152
 1304SOL     OW15544   1.894   2.991   4.556 -0.3969 -0.3374 -0.0111
 1304SOL    HW115545   1.829   2.994   4.486 -2.6112 -3.5589  1.9042
 1304SOL    HW215546   1.966   3.031   4.509 -0.0587  0.1377  0.9110
 1305SOL     OW15547   2.567   1.126  14.011 -0.4223 -1.2177 -0.0254
 1305SOL    HW115548   2.478   1.159  14.028 -0.0760  0.1273 -0.8005
 1305SOL    HW215549   2.590   1.185  13.940  1.1962 -2.0958 -0.2066
 1306SOL     OW15550   0.946   2.340  11.061 -0.8115  0.1803  0.4565
 1306SOL    HW115551   0.997   2.403  11.112  1.2919 -0.5994 -0.6737
 1306SOL    HW215552   0.994   2.260  11.084 -1.9368 -0.5993  0.1351
 1307SOL     OW15553   2.321   1.659   3.109 -0.7137  0.1580  0.2229
 1307SOL    HW115554   2.298   1.567   3.099 -0.7875  0.3415 -1.2442
 1307SOL    HW215555   2.289   1.667   3.199 -0.0062  1.0221  0.4065
 1308SOL     OW15556   0.973   4.038   8.105  0.5488  0.1638  0.5650
 1308SOL    HW115557   0.972   4.021   8.011  1.0168  1.0622  0.4011
 1308SOL    HW215558   1.002   3.956   8.146  1.9689  0.8638  0.9465
 1309SOL     OW15559   2.869   2.303   9.985 -0.1346 -0.0637  0.2683
 1309SOL    HW115560   2.939   2.269  10.040 -0.3068 -0.7499  0.0679
 1309SOL    HW215561   2.806   2.321  10.055 -0.4987  1.4809 -0.4541
 1310SOL     OW15562   0.971   1.863  10.972 -0.1009  0.1302  0.0582
 1310SOL    HW115563   0.948   1.774  10.947  1.1244 -0.5956  1.5249
 1310SOL    HW215564   1.047   1.883  10.916  0.1840 -1.4732 -0.1275
 1311SOL     OW15565   0.962   2.113   3.298  0.3767  0.5446 -0.0440
 1311SOL    HW115566   0.963   2.068   3.382 -1.4373 -0.1372 -0.3729
 1311SOL    HW215567   1.029   2.180   3.306  1.8186 -1.1379  1.7469
 1312SOL     OW15568   1.941   1.160   1.992  0.1803 -0.6374  0.0242
 1312SOL    HW115569   1.944   1.106   1.913  1.4496 -2.0455  1.0365
 1312SOL    HW215570   2.029   1.137   2.024 -0.5936 -1.9619  1.1930
 1313SOL     OW15571   1.254   4.717   9.684  0.0264  0.5255 -0.4215
 1313SOL    HW115572   1.320   4.706   9.753  1.3434  1.1783 -1.5863
 1313SOL    HW215573   1.177   4.671   9.719  0.4919 -0.8062 -1.1678
 1314SOL     OW15574   1.850   2.146   6.652 -0.0254  0.3939  0.0061
 1314SOL    HW115575   1.909   2.146   6.577  1.0454 -0.9485  0.8436
 1314SOL    HW215576   1.810   2.059   6.651  1.1861 -0.1580  0.1221
 1315SOL     OW15577   1.396   3.344   1.248 -0.0729 -0.2617 -0.0261
 1315SOL    HW115578   1.389   3.325   1.342 -0.9998 -0.1325 -0.0660
 1315SOL    HW215579   1.474   3.293   1.227 -0.4247  0.5812 -3.3941
 1316SOL     OW15580   1.681   0.768  15.055 -0.5388  0.1612 -0.6480
 1316SOL    HW115581   1.612   0.787  15.119  0.3159  0.3561  0.2230
 1316SOL    HW215582   1.701   0.858  15.029 -2.0842  0.1502 -1.8498
 1317SOL     OW15583   4.533   2.470   7.365 -0.3660 -0.1980 -0.5369
 1317SOL    HW115584   4.489   2.432   7.288 -1.5835  0.4622 -0.1589
 1317SOL    HW215585   4.562   2.555   7.332  0.4981 -0.7607 -1.2393
 1318SOL     OW15586   1.201   1.264   8.073 -0.3006  0.0885 -0.1957
 1318SOL    HW115587   1.161   1.231   7.992  2.1598 -1.9982 -0.5671
 1318SOL    HW215588   1.296   1.265   8.059 -0.1776  0.2502  0.6858
 1319SOL     OW15589   0.659   3.601   4.282 -0.0455 -0.1017 -0.2670
 1319SOL    HW115590   0.581   3.624   4.331  1.0423 -1.5496  2.1345
 1319SOL    HW215591   0.694   3.689   4.268  2.1660 -0.5307  2.8222
 1320SOL     OW15592   3.163   4.733  17.220  0.3077 -0.2789  0.3149
 1320SOL    HW115593   3.120   4.648  17.217 -0.6061  0.2409 -1.0444
 1320SOL    HW215594   3.149   0.020  17.131  1.1618 -2.3024 -0.4928
 1321SOL     OW15595   2.288   3.377   7.104 -0.6206 -0.6189 -0.2302
 1321SOL    HW115596   2.243   3.410   7.026 -0.1317  1.8480  0.5288
 1321SOL    HW215597   2.219   3.327   7.147  0.2217 -0.4017  1.3676
 1322SOL     OW15598   1.705   3.238   6.281  0.1389  0.2365 -0.1289
 1322SOL    HW115599   1.724   3.297   6.208  0.7560 -0.2791 -0.3828
 1322SOL    HW215600   1.780   3.258   6.337  0.9447 -0.8500 -0.8267
 1323SOL     OW15601   1.833   2.472   1.911  0.3078  0.0513  0.4816
 1323SOL    HW115602   1.768   2.483   1.841  0.6261 -2.2743 -0.1826
 1323SOL    HW215603   1.785   2.517   1.981  0.9851  3.0792 -1.0282
 1324SOL     OW15604   4.579   1.807   2.014  0.4593  0.3865 -0.2577
 1324SOL    HW115605   4.566   1.810   1.920  1.6370 -2.0410 -0.4868
 1324SOL    HW215606   4.560   1.714   2.024  2.2952 -0.1170 -1.5430
 1325SOL     OW15607   3.562   0.068   2.918 -0.4525  0.1710 -0.3193
 1325SOL    HW115608   3.603   0.145   2.957  0.1371 -0.0372 -0.5148
 1325SOL    HW215609   3.507   0.123   2.863  0.3637  0.6468 -0.6605
 1326SOL     OW15610   3.334   3.860  12.957  0.2750 -0.4680 -0.6330
 1326SOL    HW115611   3.348   3.894  13.045 -0.9376  0.0889 -0.6581
 1326SOL    HW215612   3.344   3.943  12.912 -3.5677 -0.4472 -1.4767
 1327SOL     OW15613   3.502   4.180   2.948 -0.0930 -0.2467 -0.2137
 1327SOL    HW115614   3.492   4.092   2.911  0.3007  0.4187 -1.9300
 1327SOL    HW215615   3.418   4.219   2.925 -0.0662 -0.5688 -0.8660
 1328SOL     OW15616   3.371   0.103   9.369  0.6856  0.0323  1.0297
 1328SOL    HW115617   3.307   0.165   9.403  1.2983  0.8093  0.7723
 1328SOL    HW215618   3.448   0.158   9.356  1.1682 -1.1828 -1.2050
 1329SOL     OW15619   1.363   4.718   3.397  0.0406 -0.1718  0.4254
 1329SOL    HW115620   1.276   0.010   3.381  0.4424  0.0941 -1.1540
 1329SOL    HW215621   1.397   4.675   3.319  1.2503 -0.4453  1.0932
 1330SOL     OW15622   3.621   2.805   7.880  0.4512  0.0889 -0.4624
 1330SOL    HW115623   3.534   2.842   7.864  0.4044 -0.3982 -1.2989
 1330SOL    HW215624   3.626   2.809   7.976 -1.2418 -2.3591 -0.2708
 1331SOL     OW15625   3.509   0.242   7.184  0.6705  0.0578 -0.0823
 1331SOL    HW115626   3.512   0.190   7.264  0.2729  1.0928  0.6018
 1331SOL    HW215627   3.428   0.220   7.138 -0.2099 -1.0044  1.9752
 1332SOL     OW15628   3.864   2.974  16.203 -0.2800  0.2398  0.1307
 1332SOL    HW115629   3.955   2.954  16.221  0.4261  1.4258 -2.0844
 1332SOL    HW215630   3.866   3.048  16.142 -1.5665  1.0881  1.1017
 1333SOL     OW15631   3.442   2.891   1.650 -0.3782  0.4677  0.1117
 1333SOL    HW115632   3.398   2.915   1.731 -2.1443  1.8924 -1.2796
 1333SOL    HW215633   3.400   2.958   1.595  1.1897 -0.4099 -2.1904
 1334SOL     OW15634   4.125   1.852   4.452  0.1861  0.4053 -0.0097
 1334SOL    HW115635   4.171   1.926   4.492 -0.4440  1.4209 -1.1608
 1334SOL    HW215636   4.173   1.781   4.494 -1.8252 -0.3507  1.0439
 1335SOL     OW15637   2.016   2.522   3.154  0.5634  0.5088 -0.4634
 1335SOL    HW115638   2.019   2.430   3.179 -0.2446  1.2444  2.3254
 1335SOL    HW215639   1.934   2.554   3.191  1.1224  3.1380 -1.4401
 1336SOL     OW15640   3.347   0.580  13.046  0.3090  0.1485  0.0832
 1336SOL    HW115641   3.341   0.494  13.088 -1.0560  0.5935  0.8086
 1336SOL    HW215642   3.267   0.564  12.995  0.6879 -2.0088  0.1759
 1337SOL     OW15643   2.600   1.549   0.956  0.0519  0.1945  0.4527
 1337SOL    HW115644   2.534   1.568   0.890  0.5984  0.3754 -0.0499
 1337SOL    HW215645   2.633   1.636   0.980  0.2309  0.5689 -1.1581
 1338SOL     OW15646   2.749   0.354  13.567 -0.0295 -0.1729 -0.1980
 1338SOL    HW115647   2.831   0.317  13.533  1.4125  2.4994  0.4314
 1338SOL    HW215648   2.790   0.378  13.650 -0.8195 -0.2987  0.2283
 1339SOL     OW15649   0.541   3.372  10.297 -0.5536  0.0924  0.1676
 1339SOL    HW115650   0.567   3.346  10.208 -1.0124 -2.4284  0.7755
 1339SOL    HW215651   0.533   3.463  10.269 -1.7102  0.2589  1.0736
 1340SOL     OW15652   3.068   2.909   3.467  0.2721  0.6832  0.1659
 1340SOL    HW115653   3.036   2.901   3.557  0.6015 -0.2754  0.2059
 1340SOL    HW215654   3.162   2.895   3.480 -0.1448 -2.5139 -0.1318
 1341SOL     OW15655   2.045   1.179  14.574 -0.2619  0.0003  0.0903
 1341SOL    HW115656   2.106   1.165  14.647  1.9622 -2.0181 -2.1518
 1341SOL    HW215657   1.976   1.120  14.605 -0.0793 -1.3069 -2.0023
 1342SOL     OW15658   3.260   2.277  15.197  0.0841 -0.2226  0.0886
 1342SOL    HW115659   3.343   2.286  15.243 -0.2164  4.0225 -0.1501
 1342SOL    HW215660   3.270   2.213  15.126  1.5724 -0.0393  0.1316
 1343SOL     OW15661   1.244   0.513   3.441  0.2781 -0.2344 -0.3813
 1343SOL    HW115662   1.332   0.513   3.478 -0.5407 -1.2544  1.5327
 1343SOL    HW215663   1.258   0.476   3.353  1.6966 -2.9741  0.9928
 1344SOL     OW15664   2.714   1.015  11.771 -0.0633  0.0685  0.0470
 1344SOL    HW115665   2.689   0.943  11.713  0.1365 -0.7271  0.9403
 1344SOL    HW215666   2.627   1.037  11.803  1.0029  1.5608  1.9235
 1345SOL     OW15667   0.498   3.891   1.758 -0.5194  0.4206  0.2032
 1345SOL    HW115668   0.454   3.958   1.810 -0.9745 -0.2814  0.7241
 1345SOL    HW215669   0.584   3.933   1.745 -0.3268  0.6740  2.2762
 1346SOL     OW15670   4.035   0.268   6.988  0.3997  0.4506  0.0494
 1346SOL    HW115671   4.073   0.242   7.072 -1.2398  0.8981  0.9255
 1346SOL    HW215672   3.984   0.191   6.964 -2.2863  2.4167 -0.4302
 1347SOL     OW15673   1.193   3.664  15.591 -0.2486  0.0335 -0.0363
 1347SOL    HW115674   1.120   3.605  15.573 -0.7384  0.5750  0.1728
 1347SOL    HW215675   1.200   3.725  15.518  2.5993 -0.6519 -0.3259
 1348SOL     OW15676   3.234   3.047   7.091 -0.6089  0.0540 -1.1275
 1348SOL    HW115677   3.292   3.070   7.019  1.4258  0.5530  0.6768
 1348SOL    HW215678   3.148   3.046   7.048 -1.3923  1.1109  0.4362
 1349SOL     OW15679   4.112   1.875   6.980 -0.2163 -0.8259  0.1743
 1349SOL    HW115680   4.148   1.952   6.936 -3.4520 -0.9044 -2.5834
 1349SOL    HW215681   4.022   1.900   7.004  0.5289  0.5997  1.5352
 1350SOL     OW15682   2.572   3.918  13.948  0.1166 -0.3070  0.1502
 1350SOL    HW115683   2.665   3.923  13.969 -0.1392 -0.3529  1.2950
 1350SOL    HW215684   2.541   3.914  14.038 -0.1141  0.0047  0.0815
 1351SOL     OW15685   1.024   2.083   1.766  0.5448 -0.0383  0.4382
 1351SOL    HW115686   0.999   2.032   1.689 -1.1447  0.0402  0.9466
 1351SOL    HW215687   1.034   2.171   1.730 -1.2494  0.3545  0.9395
 1352SOL     OW15688   0.229   3.879   5.876 -0.1896  0.2549 -0.2039
 1352SOL    HW115689   0.152   3.904   5.826  2.1610  2.6957 -2.5913
 1352SOL    HW215690   0.252   3.795   5.834 -1.6469  0.7167 -1.9189
 1353SOL     OW15691   4.631   1.048   0.991 -0.4322  0.0157  0.1110
 1353SOL    HW115692   4.710   1.026   1.040 -0.4848 -0.7769 -0.1601
 1353SOL    HW215693   4.576   0.971   1.008 -1.1609  0.5855  0.3238
 1354SOL     OW15694   1.557   2.025  11.074 -0.6941  0.1556 -0.0021
 1354SOL    HW115695   1.513   2.054  11.154  1.3403  1.2550  0.7200
 1354SOL    HW215696   1.476   2.027  11.025 -0.3341 -0.0823 -0.6027
 1355SOL     OW15697   1.009   3.209  13.253 -0.4149  0.1473  0.7623
 1355SOL    HW115698   1.096   3.221  13.214 -0.5066 -0.2060  0.4546
 1355SOL    HW215699   0.945   3.200  13.183  0.8184  0.9233 -0.4613
 1356SOL     OW15700   0.104   3.787   9.864  0.5356 -0.0201  0.1878
 1356SOL    HW115701   0.149   3.732   9.927 -0.1237 -1.0833 -0.2637
 1356SOL    HW215702   0.098   3.726   9.790 -0.9891  0.2985  0.0459
 1357SOL     OW15703   3.896   0.376   9.932 -0.3038  0.1146 -0.0931
 1357SOL    HW115704   3.885   0.394  10.025  3.5700 -3.1014  1.0174
 1357SOL    HW215705   3.905   0.280   9.933  0.2408  0.1503 -1.7536
 1358SOL     OW15706   2.159   3.433   4.956 -0.0189  0.6184  0.0172
 1358SOL    HW115707   2.065   3.437   4.970  0.1031  1.0344  0.7355
 1358SOL    HW215708   2.172   3.505   4.895 -2.5157  1.0417  0.0164
 1359SOL     OW15709   1.828   2.480   9.245  0.3242 -0.4420 -0.1314
 1359SOL    HW115710   1.830   2.563   9.198  1.0994 -0.0555  0.5758
 1359SOL    HW215711   1.737   2.455   9.234  0.3553 -0.9523  0.7616
 1360SOL     OW15712   1.597   1.322  15.373 -0.2134  0.2406 -0.1916
 1360SOL    HW115713   1.643   1.404  15.356 -0.6008  0.7462  1.1776
 1360SOL    HW215714   1.672   1.270  15.399 -0.0247 -0.3405 -1.8775
 1361SOL     OW15715   1.228   1.985   3.694 -0.1629  0.0060 -0.0207
 1361SOL    HW115716   1.296   1.984   3.627 -0.0683 -0.5858  0.0857
 1361SOL    HW215717   1.215   1.890   3.704 -0.7332  0.1475  0.5847
 1362SOL     OW15718   3.893   4.670   5.683 -0.0067  0.3374  0.0111
 1362SOL    HW115719   3.828   4.639   5.746 -0.8520  0.2662 -0.9134
 1362SOL    HW215720   3.899   0.018   5.711  0.5888  0.5344 -0.7872
 1363SOL     OW15721   1.090   3.866  13.536  0.3650 -0.2217  0.2692
 1363SOL    HW115722   1.039   3.889  13.459  0.1430 -3.8197 -0.6708
 1363SOL    HW215723   1.027   3.808  13.580 -2.6336  2.0222 -1.0578
 1364SOL     OW15724   2.725   4.617  16.873  0.1686 -0.5785 -0.1630
 1364SOL    HW115725   2.776   4.640  16.795  0.9239  1.0438  0.8017
 1364SOL    HW215726   2.735   4.523  16.863  1.6170 -0.4034 -0.3258
 1365SOL     OW15727   1.510   3.626   2.595  0.0822  0.4454  0.0619
 1365SOL    HW115728   1.419   3.602   2.579  0.2830 -0.0424 -0.3294
 1365SOL    HW215729   1.537   3.628   2.503 -0.9609 -4.2624 -0.3642
 1366SOL     OW15730   0.308   4.398  17.574 -0.0521 -0.0508 -0.2473
 1366SOL    HW115731   0.226   4.447  17.565 -0.8702 -1.5751 -1.1607
 1366SOL    HW215732   0.348   4.455  17.638 -0.5288 -0.0846  0.0811
 1367SOL     OW15733   3.392   4.258  15.796 -0.0253  0.0303  0.4132
 1367SOL    HW115734   3.324   4.323  15.817 -1.2529 -0.4983 -1.9479
 1367SOL    HW215735   3.409   4.274  15.703 -0.2446 -2.5536 -0.0528
 1368SOL     OW15736   0.285   0.461  14.846  0.2729 -0.1048 -0.5914
 1368SOL    HW115737   0.380   0.467  14.838  0.2527  0.0644 -0.7014
 1368SOL    HW215738   0.287   0.480  14.940 -0.2634 -3.4490  0.0654
 1369SOL     OW15739   4.009   0.156   9.814 -0.1128 -0.3275 -0.3267
 1369SOL    HW115740   4.101   0.134   9.830  0.0454 -0.0967 -0.9160
 1369SOL    HW215741   3.970   0.069   9.805 -1.2156 -0.0704  2.0080
 1370SOL     OW15742   2.444   0.870  17.378  0.5162  0.6977  0.5054
 1370SOL    HW115743   2.409   0.814  17.309  2.2746 -0.9037  0.8873
 1370SOL    HW215744   2.463   0.810  17.451  2.1104 -0.8056 -1.1498
 1371SOL     OW15745   3.306   2.021  16.890 -0.2461  0.0530  0.0947
 1371SOL    HW115746   3.239   1.981  16.946  0.8709 -1.6498  0.2355
 1371SOL    HW215747   3.318   2.106  16.932 -2.2357 -0.6227  2.0754
 1372SOL     OW15748   2.703   0.902   8.156  0.1882  0.3426  0.1858
 1372SOL    HW115749   2.720   0.934   8.068  0.5696  0.4827  0.3135
 1372SOL    HW215750   2.763   0.955   8.208  0.8952 -1.0131  0.7428
 1373SOL     OW15751   0.445   0.097   2.363 -0.0537 -0.3560 -0.0834
 1373SOL    HW115752   0.473   0.173   2.416 -0.6804  0.4094 -0.8559
 1373SOL    HW215753   0.433   0.133   2.275  1.3510  0.5454  0.0895
 1374SOL     OW15754   3.357   2.761   4.547 -0.0168  0.5507  0.8831
 1374SOL    HW115755   3.275   2.734   4.587  1.0852 -2.5087  1.1349
 1374SOL    HW215756   3.331   2.845   4.510 -1.7563  0.1471  1.2189
 1375SOL     OW15757   1.084   0.771  11.311  0.3222  0.1554  0.8046
 1375SOL    HW115758   1.044   0.684  11.309 -0.0085  0.3105  0.6869
 1375SOL    HW215759   1.025   0.813  11.374 -0.3003 -1.4528  1.3121
 1376SOL     OW15760   0.938   0.750   4.729  0.1687  0.2121  0.1766
 1376SOL    HW115761   0.888   0.692   4.787 -0.7171 -0.4629 -1.2628
 1376SOL    HW215762   0.874   0.770   4.661  0.0992  2.0375  0.7752
 1377SOL     OW15763   3.600   2.848   7.157 -0.0686 -0.1743 -0.0832
 1377SOL    HW115764   3.591   2.794   7.236 -1.0112  0.1087  0.0142
 1377SOL    HW215765   3.629   2.775   7.103 -1.7672 -0.2601 -0.8859
 1378SOL     OW15766   3.615   4.613  15.149  0.2168  0.3515  0.0721
 1378SOL    HW115767   3.548   4.545  15.160  1.0610 -0.5049 -0.0973
 1378SOL    HW215768   3.646   4.595  15.060  1.9113  1.2990  0.4642
 1379SOL     OW15769   3.876   3.674   7.279  0.0859 -0.1729  0.2023
 1379SOL    HW115770   3.959   3.707   7.314 -0.5578  1.4902  0.1663
 1379SOL    HW215771   3.852   3.635   7.363 -1.4217 -1.5069 -0.8420
 1380SOL     OW15772   1.497   4.103   4.776  0.6537  0.0418  0.0596
 1380SOL    HW115773   1.435   4.106   4.703 -1.1141 -0.5999  1.5327
 1380SOL    HW215774   1.576   4.136   4.734  1.7104 -1.9382  0.4809
 1381SOL     OW15775   4.043   2.037  12.579  0.9547 -0.0399  0.0345
 1381SOL    HW115776   4.074   1.947  12.573  0.7733  0.0674 -2.4613
 1381SOL    HW215777   3.948   2.022  12.585  0.6366  1.2284 -1.7825
 1382SOL     OW15778   0.626   4.019   0.983  0.3273  0.0540  0.2616
 1382SOL    HW115779   0.555   3.992   0.925 -2.6109  2.2455  2.8179
 1382SOL    HW215780   0.574   4.072   1.043 -0.6663 -0.3666 -0.2310
 1383SOL     OW15781   0.149   1.867   6.225  0.4721  0.8559  0.1081
 1383SOL    HW115782   0.061   1.856   6.188  0.1101 -0.5224  1.3871
 1383SOL    HW215783   0.194   1.838   6.146  0.5121  1.3569 -0.0549
 1384SOL     OW15784   4.224   3.317  11.820 -0.4908 -0.3084 -0.0104
 1384SOL    HW115785   4.181   3.399  11.844  1.5346  0.7348  0.0965
 1384SOL    HW215786   4.287   3.305  11.891  0.0915 -2.1105 -0.8134
 1385SOL     OW15787   2.928   0.351   6.031 -0.0364  0.0273 -0.0841
 1385SOL    HW115788   2.889   0.270   6.064  1.5000 -1.6056 -2.3012
 1385SOL    HW215789   2.853   0.384   5.982 -0.7323  0.2328  1.0962
 1386SOL     OW15790   1.780   1.470  14.232  0.2505 -0.1046 -0.6633
 1386SOL    HW115791   1.686   1.459  14.248  0.1655  0.1889 -0.9490
 1386SOL    HW215792   1.820   1.383  14.236 -0.4432 -0.3368  1.0486
 1387SOL     OW15793   3.147   1.588   2.020 -0.0828  0.1606  0.1354
 1387SOL    HW115794   3.091   1.620   1.950 -0.7454  0.0566  0.6120
 1387SOL    HW215795   3.085   1.546   2.079 -0.2652  0.3848  0.1036
 1388SOL     OW15796   4.301   2.416   9.131  0.0604 -0.0881 -0.7797
 1388SOL    HW115797   4.350   2.348   9.178 -1.9619 -0.5003  0.7200
 1388SOL    HW215798   4.374   2.472   9.103 -0.9299  1.2890 -0.6228
 1389SOL     OW15799   1.539   4.494   6.990 -0.0965  0.4747 -0.7597
 1389SOL    HW115800   1.571   4.426   7.049 -0.1527 -0.1944 -1.4983
 1389SOL    HW215801   1.494   4.439   6.926 -0.9973 -1.1139  1.2595
 1390SOL     OW15802   1.765   4.082   2.516  0.1330 -0.1467 -0.1045
 1390SOL    HW115803   1.739   4.174   2.511  0.5733 -0.0160  0.0576
 1390SOL    HW215804   1.857   4.094   2.538  0.5903  0.8721 -2.5433
 1391SOL     OW15805   3.719   0.962   7.731  0.0381  0.4031  0.0166
 1391SOL    HW115806   3.676   0.878   7.715  1.0570 -0.1789  0.3091
 1391SOL    HW215807   3.668   0.993   7.806 -2.0422 -2.2523 -0.2743
 1392SOL     OW15808   2.228   1.869   5.551  0.5361 -0.2590  0.0878
 1392SOL    HW115809   2.320   1.849   5.535  0.3618 -1.4466  0.6023
 1392SOL    HW215810   2.208   1.918   5.471  2.5255 -2.1480 -1.5581
 1393SOL     OW15811   0.096   3.278   8.965  0.3621 -0.1867 -0.2014
 1393SOL    HW115812   0.053   3.217   9.025 -1.0770  2.6361  1.6261
 1393SOL    HW215813   0.022   3.338   8.962 -1.1828 -2.0405  0.7821
 1394SOL     OW15814   3.447   2.457   0.998  0.4526  0.1645 -0.6232
 1394SOL    HW115815   3.523   2.504   1.031  0.9079 -1.8559  1.2112
 1394SOL    HW215816   3.401   2.439   1.080  0.2018 -0.0672 -0.8151
 1395SOL     OW15817   0.378   0.115   3.149 -0.0949  0.1592  0.1706
 1395SOL    HW115818   0.322   0.166   3.090  0.6985  3.0690  1.9262
 1395SOL    HW215819   0.403   0.050   3.083 -0.3017 -0.5706  0.8177
 1396SOL     OW15820   1.972   0.484   3.159  0.0940  0.1890  0.0277
 1396SOL    HW115821   1.925   0.516   3.082 -1.4032 -0.3607  0.7158
 1396SOL    HW215822   1.927   0.401   3.175  1.9463 -0.9794 -0.8331
 1397SOL     OW15823   1.176   1.119  10.714 -0.0078  0.6365 -0.5611
 1397SOL    HW115824   1.190   1.027  10.735 -0.8049  0.4584 -0.7936
 1397SOL    HW215825   1.207   1.129  10.624  0.1041  0.1059 -0.5821
 1398SOL     OW15826   4.229   4.594   2.751  0.2951  0.4303  0.4315
 1398SOL    HW115827   4.143   4.624   2.721  0.4217  0.3939  0.0370
 1398SOL    HW215828   4.211   4.549   2.834 -3.9766 -0.6101 -1.0842
 1399SOL     OW15829   2.261   3.754  16.614  0.1995  0.3596 -0.0034
 1399SOL    HW115830   2.302   3.753  16.700 -0.5350  0.1074  0.3407
 1399SOL    HW215831   2.273   3.843  16.582 -1.7246 -0.3007 -2.5709
 1400SOL     OW15832   4.093   2.111   5.819 -0.1708  0.3161  0.0677
 1400SOL    HW115833   4.111   2.192   5.771 -2.3015  0.2956 -0.7815
 1400SOL    HW215834   4.035   2.073   5.752 -1.7051  0.0111  1.5528
 1401SOL     OW15835   1.127   4.255   1.308 -0.5017 -0.3617  0.8055
 1401SOL    HW115836   1.094   4.322   1.368  0.8542  0.8289  0.2161
 1401SOL    HW215837   1.201   4.304   1.271  0.2682 -0.1058  2.6954
 1402SOL     OW15838   3.301   0.229  12.364  0.7153 -0.4781 -0.0921
 1402SOL    HW115839   3.344   0.271  12.289  2.5988 -1.5549  0.3995
 1402SOL    HW215840   3.350   0.268  12.437  0.5024 -0.7922  0.2189
 1403SOL     OW15841   3.946   0.812   2.706  0.1442  0.0728 -0.9298
 1403SOL    HW115842   3.999   0.735   2.683  1.0425  0.4410 -0.0869
 1403SOL    HW215843   3.866   0.760   2.699 -0.4431  0.7032  1.2540
 1404SOL     OW15844   4.406   2.948   8.621 -0.1176  0.5766 -0.0898
 1404SOL    HW115845   4.354   2.875   8.656  2.4269 -1.8308 -1.3488
 1404SOL    HW215846   4.362   2.973   8.539 -0.7067  2.0565  0.6714
 1405SOL     OW15847   1.971   0.389  13.124  0.1436  0.4165 -0.2265
 1405SOL    HW115848   1.977   0.324  13.054  0.3282 -1.2515  1.3561
 1405SOL    HW215849   1.914   0.458  13.088 -0.9412  0.6396  1.9131
 1406SOL     OW15850   0.243   3.814   4.204  0.1539 -0.0402  0.2336
 1406SOL    HW115851   0.267   3.761   4.280 -1.1806  1.2590  1.5656
 1406SOL    HW215852   0.324   3.824   4.154 -0.1990 -1.7825 -0.6943
 1407SOL     OW15853   4.358   0.739   2.932 -0.2771  0.4234 -0.0004
 1407SOL    HW115854   4.271   0.721   2.968 -0.8130 -0.4938 -1.7382
 1407SOL    HW215855   4.393   0.651   2.949  0.0587  0.6553  0.4880
 1408SOL     OW15856   1.392   4.300   8.643 -0.2630  0.2441  0.1875
 1408SOL    HW115857   1.485   4.283   8.656 -1.3642 -2.8503  4.0903
 1408SOL    HW215858   1.388   4.387   8.683  0.9603  0.4114 -0.0747
 1409SOL     OW15859   4.579   1.118   7.482  0.4454 -0.3349 -0.0545
 1409SOL    HW115860   4.509   1.176   7.452 -1.0922 -2.5434 -0.7256
 1409SOL    HW215861   4.618   1.160   7.559 -0.3665 -0.8339  0.6277
 1410SOL     OW15862   3.050   3.119   8.042 -0.2256 -0.3059  0.3962
 1410SOL    HW115863   2.955   3.127   8.048 -0.2546  0.3754 -1.0530
 1410SOL    HW215864   3.058   3.026   8.018 -1.4748 -0.6761  1.4082
 1411SOL     OW15865   3.721   3.827   5.850 -0.0088  0.1160 -0.1983
 1411SOL    HW115866   3.774   3.765   5.898 -2.4083 -0.8070  1.2315
 1411SOL    HW215867   3.644   3.772   5.834 -0.9742  1.3399  0.2043
 1412SOL     OW15868   0.730   2.765  15.122  0.0427  0.4461 -0.1341
 1412SOL    HW115869   0.728   2.820  15.200 -0.6895  2.2276 -1.4038
 1412SOL    HW215870   0.824   2.749  15.116  0.2403  1.6666 -0.3851
 1413SOL     OW15871   4.253   4.086  13.280 -0.0658 -0.1395  0.3697
 1413SOL    HW115872   4.210   4.106  13.363  0.8446  0.2977  0.7429
 1413SOL    HW215873   4.173   4.075  13.229 -0.6376  1.9005  0.8481
 1414SOL     OW15874   0.899   1.034   6.878  0.0674 -0.5260  0.2345
 1414SOL    HW115875   0.929   1.100   6.815  0.0615 -1.3386 -0.6208
 1414SOL    HW215876   0.977   1.015   6.930  1.7354 -1.1302 -2.5092
 1415SOL     OW15877   2.059   1.461   7.007  0.1336 -0.9311 -0.0856
 1415SOL    HW115878   2.044   1.401   7.080 -1.6812  2.9527  2.7314
 1415SOL    HW215879   2.103   1.405   6.942  0.3819  2.2161 -2.6362
 1416SOL     OW15880   0.053   0.559   8.314 -0.2086 -0.5651  0.6902
 1416SOL    HW115881   4.743   0.508   8.253  1.1237 -0.2619 -0.7398
 1416SOL    HW215882   4.727   0.600   8.365  0.4451  1.0807  0.2538
 1417SOL     OW15883   1.735   0.071   9.409 -0.1549 -0.5347 -0.4835
 1417SOL    HW115884   1.766   0.148   9.456  0.5133 -1.3221  0.3467
 1417SOL    HW215885   1.739   0.115   9.324  1.3709 -2.7411 -1.5504
 1418SOL     OW15886   0.644   1.933   7.148 -0.6072  0.4187 -0.0201
 1418SOL    HW115887   0.621   1.858   7.094 -1.4090 -0.1146  1.0799
 1418SOL    HW215888   0.692   1.900   7.223  0.4367  0.3960 -0.6910
 1419SOL     OW15889   0.112   0.668  16.678  0.7757  0.0676  0.1349
 1419SOL    HW115890   0.115   0.734  16.747 -0.7884  0.2884 -0.0136
 1419SOL    HW215891   0.047   0.714  16.625 -0.1206 -0.6024  0.6373
 1420SOL     OW15892   2.696   0.682   3.545 -0.3690  0.3732  0.1045
 1420SOL    HW115893   2.694   0.596   3.504  0.3491  0.6277 -0.4691
 1420SOL    HW215894   2.646   0.669   3.625  2.4445  0.3068  1.8157
 1421SOL     OW15895   0.078   3.955   4.659 -0.3712  0.3865 -0.2319
 1421SOL    HW115896   0.084   4.017   4.586  0.5168 -0.5897 -0.9841
 1421SOL    HW215897   0.104   3.872   4.620  2.3002  0.6825  0.8457
 1422SOL     OW15898   0.151   0.991   7.981  0.5308  0.0058  0.2651
 1422SOL    HW115899   0.062   0.992   7.946 -0.3586  0.5620  2.5750
 1422SOL    HW215900   0.161   0.897   7.993 -2.3759 -0.5579 -1.6958
 1423SOL     OW15901   0.174   3.101  13.367  0.3418 -0.2826 -0.0559
 1423SOL    HW115902   0.165   3.166  13.298  0.7239 -0.2720 -0.0984
 1423SOL    HW215903   0.122   3.033  13.324  1.8647 -1.5750  0.1493
 1424SOL     OW15904   0.420   0.207   5.470 -0.3366  0.2166  0.3282
 1424SOL    HW115905   0.446   0.261   5.544 -0.5696  1.2587 -0.3396
 1424SOL    HW215906   0.473   0.247   5.401 -1.1068 -0.8688 -0.8980
 1425SOL     OW15907   4.113   3.267   1.835 -0.3116 -0.4301  0.4158
 1425SOL    HW115908   4.030   3.290   1.876 -0.9524 -2.0296  0.0313
 1425SOL    HW215909   4.135   3.185   1.879  1.5005 -0.0268  0.2447
 1426SOL     OW15910   2.431   3.551   5.888 -0.4800  0.1943  0.2489
 1426SOL    HW115911   2.401   3.497   5.815 -2.2779 -0.2047  1.2592
 1426SOL    HW215912   2.500   3.596   5.840 -1.9543 -0.8141 -2.8400
 1427SOL     OW15913   0.297   2.168   5.742  0.0027  0.2873  0.1684
 1427SOL    HW115914   0.245   2.205   5.670 -0.5216 -0.2864  0.2499
 1427SOL    HW215915   0.380   2.140   5.704  0.1711 -0.2168  0.9109
 1428SOL     OW15916   0.967   3.375   3.889 -0.3861 -0.2458  0.3589
 1428SOL    HW115917   0.964   3.295   3.836 -1.9778  0.4107 -0.5707
 1428SOL    HW215918   0.945   3.451   3.834 -0.8146 -1.2509 -0.8636
 1429SOL     OW15919   3.684   3.482   5.982  0.0034  0.3681  0.3763
 1429SOL    HW115920   3.704   3.494   6.075 -0.1556 -4.0539  0.9809
 1429SOL    HW215921   3.592   3.456   5.989  0.2107 -0.5992 -0.4448
 1430SOL     OW15922   4.229   3.716   3.497  0.2085  0.5010  0.2225
 1430SOL    HW115923   4.161   3.658   3.463  2.2615 -0.4295 -2.3600
 1430SOL    HW215924   4.283   3.659   3.551 -0.2818  0.3934  0.5924
 1431SOL     OW15925   1.124   4.627   5.819  0.6240 -0.3103 -0.0063
 1431SOL    HW115926   1.198   4.606   5.762  1.5040 -2.1433  1.8163
 1431SOL    HW215927   1.091   4.704   5.773 -1.3442 -1.8750 -1.1884
 1432SOL     OW15928   4.606   2.681  14.062 -0.2663 -0.7218 -0.7403
 1432SOL    HW115929   4.613   2.751  14.127  1.2139 -0.3670 -1.2854
 1432SOL    HW215930   4.696   2.672  14.031  0.1653 -1.5373  0.7452
 1433SOL     OW15931   3.250   1.530   5.858 -0.2570 -0.1815 -0.1867
 1433SOL    HW115932   3.225   1.438   5.850  0.3662 -0.3495 -0.1841
 1433SOL    HW215933   3.173   1.578   5.828 -0.3081 -0.7683 -0.9818
 1434SOL     OW15934   3.942   0.948  10.840  0.2144 -0.8610  0.0056
 1434SOL    HW115935   3.966   0.984  10.925 -0.8413  0.9674 -0.4929
 1434SOL    HW215936   3.989   0.864  10.845 -0.0424 -0.9997  0.1131
 1435SOL     OW15937   0.784   2.744   9.453 -0.0827  0.2160  0.6203
 1435SOL    HW115938   0.745   2.729   9.367  0.5145 -1.8623  0.7204
 1435SOL    HW215939   0.860   2.801   9.441  0.4657 -0.4876  0.7591
 1436SOL     OW15940   0.349   3.588   9.843  0.1629  0.5034 -0.1727
 1436SOL    HW115941   0.273   3.595   9.785  1.0035  0.8703 -1.2199
 1436SOL    HW215942   0.306   3.591   9.928  2.0523  2.5592  0.6918
 1437SOL     OW15943   4.001   0.697  16.104  0.0217 -0.2755  0.0363
 1437SOL    HW115944   4.087   0.673  16.070 -0.2027 -3.7091  1.9341
 1437SOL    HW215945   4.024   0.715  16.196  1.2810  0.6553 -0.4497
 1438SOL     OW15946   4.109   2.463   5.027 -0.0631  0.3869 -0.1457
 1438SOL    HW115947   4.193   2.418   5.035 -0.8009 -0.7746  1.0011
 1438SOL    HW215948   4.131   2.543   4.979  1.8292 -0.0980 -0.0980
 1439SOL     OW15949   2.748   0.640  15.259  0.5080 -0.0953 -0.5228
 1439SOL    HW115950   2.663   0.643  15.215  1.4412 -0.9173 -2.3833
 1439SOL    HW215951   2.782   0.723  15.224 -4.4651  1.8138 -0.9255
 1440SOL     OW15952   0.704   1.759   3.514 -0.4097  0.5894 -0.1204
 1440SOL    HW115953   0.674   1.728   3.428 -1.4060 -0.0529  0.4555
 1440SOL    HW215954   0.645   1.834   3.522  0.4313  1.1171  0.9750
 1441SOL     OW15955   4.570   4.089   5.087 -0.2192 -0.6629  0.5137
 1441SOL    HW115956   4.568   4.057   5.178  1.1921  1.7804  1.4050
 1441SOL    HW215957   4.649   4.142   5.094 -0.3524 -0.2559 -1.2766
 1442SOL     OW15958   4.009   0.636   3.522  0.2139 -0.2528 -0.0633
 1442SOL    HW115959   4.008   0.551   3.479 -0.3839 -0.6377  0.7150
 1442SOL    HW215960   4.060   0.685   3.457  0.4240  1.2438  1.2117
 1443SOL     OW15961   3.784   0.280   7.141  0.3084  0.0778 -0.4841
 1443SOL    HW115962   3.806   0.216   7.073 -2.1797 -0.6499 -0.5886
 1443SOL    HW215963   3.690   0.269   7.151  0.5247 -0.9947  0.3545
 1444SOL     OW15964   4.003   2.166   8.994 -0.5611 -0.2168  0.1150
 1444SOL    HW115965   3.929   2.107   9.010 -1.0944  0.3612 -0.2304
 1444SOL    HW215966   4.031   2.196   9.081  1.0114 -0.7676 -0.1963
 1445SOL     OW15967   0.421   1.711   5.483  0.1396  0.1563 -0.0449
 1445SOL    HW115968   0.483   1.648   5.518  0.6437  1.5981  1.6369
 1445SOL    HW215969   0.458   1.797   5.503 -0.8259  0.4059  0.6628
 1446SOL     OW15970   3.118   2.289   7.088 -0.2990  0.4739  0.6369
 1446SOL    HW115971   3.194   2.346   7.097  1.2644 -1.6519  1.1266
 1446SOL    HW215972   3.161   2.219   7.137 -0.6124 -0.4001 -0.3286
 1447SOL     OW15973   1.292   0.755   9.330 -0.8047  0.0902  0.1742
 1447SOL    HW115974   1.220   0.754   9.267 -0.8971  2.3282  0.2284
 1447SOL    HW215975   1.282   0.671   9.375 -2.8786 -1.0177 -2.3836
 1448SOL     OW15976   3.456   0.196  11.683 -0.4743  0.3806  0.1924
 1448SOL    HW115977   3.480   0.160  11.769  2.6551  0.5661 -0.6052
 1448SOL    HW215978   3.462   0.291  11.699 -2.0986  0.1618  2.1398
 1449SOL     OW15979   0.762   2.814   2.040  0.9362  0.1744  0.1253
 1449SOL    HW115980   0.754   2.850   1.951  0.6472 -1.1777 -0.3916
 1449SOL    HW215981   0.811   2.882   2.086 -1.1850  0.8316  1.3717
 1450SOL     OW15982   2.081   4.248   9.457 -0.5985 -0.7026 -0.3395
 1450SOL    HW115983   2.102   4.192   9.381  1.1308 -0.2881 -0.1634
 1450SOL    HW215984   2.010   4.206   9.505  0.8016 -2.2708  0.3896
 1451SOL     OW15985   2.300   0.443  15.588 -0.3379 -0.4976 -0.3160
 1451SOL    HW115986   2.315   0.483  15.674 -1.2644  0.3013 -0.5248
 1451SOL    HW215987   2.213   0.478  15.567 -0.6141 -1.5443 -0.8784
 1452SOL     OW15988   3.315   3.487   5.703 -0.0161  0.1663  0.1049
 1452SOL    HW115989   3.245   3.493   5.638 -1.8994 -0.7232  2.0677
 1452SOL    HW215990   3.372   3.445   5.638  1.1577 -0.4583  1.5305
 1453SOL     OW15991   0.130   2.134   4.260  0.0847  0.1337  0.6888
 1453SOL    HW115992   0.073   2.211   4.267  0.6159  0.3941  2.1488
 1453SOL    HW215993   0.194   2.161   4.194  1.7143 -3.2062  0.9230
 1454SOL     OW15994   1.601   0.831   5.160 -0.2719  0.4089  0.0588
 1454SOL    HW115995   1.587   0.785   5.078 -2.4629  2.7646 -0.9145
 1454SOL    HW215996   1.592   0.753   5.215  2.6347 -0.6354 -0.9825
 1455SOL     OW15997   0.152   0.618   7.570  0.4043  0.4497  1.0118
 1455SOL    HW115998   0.179   0.610   7.662 -2.7471 -0.9484  1.8382
 1455SOL    HW215999   0.056   0.616   7.572  0.3990 -1.0357 -0.4681
 1456SOL     OW16000   1.752   3.595  13.332  0.4111 -0.3693 -0.2979
 1456SOL    HW116001   1.841   3.617  13.303  0.4408 -1.4923 -1.0853
 1456SOL    HW216002   1.736   3.651  13.408  0.9141 -1.5270  0.6729
 1457SOL     OW16003   3.790   1.318   6.183 -0.5520 -0.0687  0.2739
 1457SOL    HW116004   3.712   1.358   6.221 -0.4902  1.0026 -0.7137
 1457SOL    HW216005   3.801   1.232   6.223  0.8730 -0.9170 -1.9454
 1458SOL     OW16006   1.822   4.108  12.517  0.2539  0.3183  0.0887
 1458SOL    HW116007   1.792   4.083  12.430 -1.8043 -0.3077  0.9952
 1458SOL    HW216008   1.917   4.111  12.506  0.2154 -1.4133 -0.6494
 1459SOL     OW16009   1.307   0.450   8.643 -0.2628 -0.7670  0.4392
 1459SOL    HW116010   1.353   0.517   8.593  0.5322  0.1984  2.4303
 1459SOL    HW216011   1.218   0.450   8.610  0.4625  1.3745 -1.5660
 1460SOL     OW16012   1.140   1.186   2.267  0.1882  0.1692  0.3642
 1460SOL    HW116013   1.158   1.150   2.354  0.8107  0.5728  0.4014
 1460SOL    HW216014   1.225   1.222   2.241  1.3694 -2.8602 -0.0372
 1461SOL     OW16015   1.352   0.560  10.464 -0.2036  0.3346 -0.5101
 1461SOL    HW116016   1.380   0.594  10.549 -0.4062 -2.5122  0.6668
 1461SOL    HW216017   1.373   0.467  10.464 -1.6615 -0.0087 -3.0786
 1462SOL     OW16018   0.414   1.935   4.424 -0.1190 -0.5546 -0.0656
 1462SOL    HW116019   0.460   1.852   4.434 -0.3506 -0.3884  2.2982
 1462SOL    HW216020   0.367   1.912   4.344 -1.2026  0.3512  0.3099
 1463SOL     OW16021   1.535   0.405   4.385 -0.5662 -0.1781  0.5712
 1463SOL    HW116022   1.506   0.490   4.351  2.2172  0.3198 -0.5056
 1463SOL    HW216023   1.493   0.401   4.471  1.2295  1.0432  1.5071
 1464SOL     OW16024   2.191   0.963   3.385  0.3285  0.5562 -0.2255
 1464SOL    HW116025   2.181   0.893   3.449  0.7694  0.6447 -0.0619
 1464SOL    HW216026   2.278   0.954   3.347 -0.9160  1.9993 -3.4457
 1465SOL     OW16027   0.283   2.783   7.600  0.0425 -0.2371  0.3557
 1465SOL    HW116028   0.330   2.704   7.625  0.3571  0.3980  1.8141
 1465SOL    HW216029   0.216   2.768   7.667  0.1040 -0.5412  0.3491
 1466SOL     OW16030   1.587   0.319  16.866 -0.2546  0.1504 -0.4743
 1466SOL    HW116031   1.546   0.247  16.913  1.4826 -0.2636  0.4005
 1466SOL    HW216032   1.611   0.368  16.945  2.5862 -2.0736  0.0514
 1467SOL     OW16033   2.006   1.463   4.944 -0.1299  0.2662  0.3238
 1467SOL    HW116034   2.082   1.512   4.974  0.2978 -0.4739  0.4542
 1467SOL    HW216035   2.016   1.380   4.990  1.9283  1.2397  1.5914
 1468SOL     OW16036   0.559   0.203   4.356  0.4758 -0.0185  0.1428
 1468SOL    HW116037   0.621   0.217   4.285 -0.4862  1.7292 -0.3729
 1468SOL    HW216038   0.506   0.283   4.351  1.6956  0.7970  0.0991
 1469SOL     OW16039   1.270   3.752   5.429 -0.0750 -0.3882  0.2566
 1469SOL    HW116040   1.348   3.799   5.460  0.6396 -0.3624 -1.5222
 1469SOL    HW216041   1.290   3.704   5.349  0.8785  2.1608 -1.0664
 1470SOL     OW16042   2.168   2.341   1.015  0.4590 -0.2782 -0.4795
 1470SOL    HW116043   2.222   2.263   1.031 -1.4531 -0.9483  2.7333
 1470SOL    HW216044   2.085   2.300   0.993  0.1984 -0.9135  1.6852
 1471SOL     OW16045   4.290   1.854  14.825  0.1213  0.3668 -0.1696
 1471SOL    HW116046   4.374   1.826  14.863  0.7401  1.5776 -0.6441
 1471SOL    HW216047   4.250   1.900  14.899 -0.8336  0.4559 -0.7526
 1472SOL     OW16048   2.431   0.454  10.550 -0.1443 -0.1836  0.6621
 1472SOL    HW116049   2.355   0.506  10.578  1.9605  1.4042  3.3455
 1472SOL    HW216050   2.494   0.477  10.618 -0.3192  1.9397  0.1055
 1473SOL     OW16051   4.208   1.144   7.502 -0.8729  0.2167  0.5666
 1473SOL    HW116052   4.144   1.196   7.551 -0.5506 -2.1263  3.5213
 1473SOL    HW216053   4.279   1.204   7.482 -0.1865 -0.7664  0.0278
 1474SOL     OW16054   3.388   4.489   4.067  0.3956 -0.5460  0.2716
 1474SOL    HW116055   3.425   4.548   4.001  1.8451 -0.9359  0.7476
 1474SOL    HW216056   3.462   4.495   4.127  0.5316  0.7242 -0.0041
 1475SOL     OW16057   0.748   4.216   5.822 -0.4303 -0.2764 -0.0652
 1475SOL    HW116058   0.748   4.264   5.905  1.3902 -0.1570 -0.1476
 1475SOL    HW216059   0.787   4.135   5.854  1.0821  0.1076 -0.9582
 1476SOL     OW16060   3.758   3.680   9.608 -0.6417  0.0406  0.3485
 1476SOL    HW116061   3.778   3.732   9.530 -1.5904  0.5541  0.4545
 1476SOL    HW216062   3.694   3.622   9.567  1.1135 -2.0495  0.5482
 1477SOL     OW16063   0.141   2.302   5.557  0.4624  0.6323 -0.0698
 1477SOL    HW116064   0.096   2.278   5.476  2.8895 -1.6336 -0.7596
 1477SOL    HW216065   0.214   2.346   5.514  1.7980 -0.0456  1.5044
 1478SOL     OW16066   3.897   4.257  14.733 -0.0646  0.6016 -0.3482
 1478SOL    HW116067   3.831   4.221  14.792  0.4320  1.0085  0.4588
 1478SOL    HW216068   3.924   4.335  14.782 -1.6003  0.9849 -0.1147
 1479SOL     OW16069   2.764   0.427   6.646  0.4379 -0.4019 -0.2048
 1479SOL    HW116070   2.762   0.411   6.551  0.3227 -2.1086  0.0919
 1479SOL    HW216071   2.735   0.342   6.677  0.4206  0.1019  1.1394
 1480SOL     OW16072   3.466   2.901   8.464  1.0553  0.2317  0.4056
 1480SOL    HW116073   3.496   2.866   8.548  0.3056  1.3150  1.1115
 1480SOL    HW216074   3.540   2.957   8.443  0.3170  0.8243 -0.5886
 1481SOL     OW16075   1.800   0.642   2.151  0.4269  0.0434 -0.7186
 1481SOL    HW116076   1.855   0.600   2.085 -0.3194 -0.7385 -0.8475
 1481SOL    HW216077   1.768   0.724   2.113  0.6654  1.2965  1.7984
 1482SOL     OW16078   0.241   3.876   1.662  0.4344 -0.0155  0.2996
 1482SOL    HW116079   0.330   3.846   1.681  1.5206  4.3482  2.0393
 1482SOL    HW216080   0.266   3.934   1.590 -0.3476 -0.6046 -0.4410
 1483SOL     OW16081   2.820   4.677   2.611 -0.4810  0.1856  0.4949
 1483SOL    HW116082   2.792   4.732   2.538  0.0280  1.0796  0.9624
 1483SOL    HW216083   2.763   4.723   2.673 -1.4403 -1.2325  0.6569
 1484SOL     OW16084   3.122   1.983   8.296 -0.1741  0.2206 -0.1411
 1484SOL    HW116085   3.200   1.928   8.297  0.6667  1.3973 -0.8316
 1484SOL    HW216086   3.073   1.927   8.234  1.0069 -1.4019  0.4052
 1485SOL     OW16087   0.677   1.072  14.048 -0.4560 -0.3916 -0.3734
 1485SOL    HW116088   0.647   0.995  14.096  0.3269 -0.8151 -0.5570
 1485SOL    HW216089   0.595   1.105  14.011 -0.6123 -1.4031 -0.9283
 1486SOL     OW16090   4.505   0.395   9.988  0.0975 -0.0910 -0.4843
 1486SOL    HW116091   4.537   0.308  10.012  0.0575 -0.1591 -0.6770
 1486SOL    HW216092   4.492   0.434  10.075  3.7974  0.0690 -0.0235
 1487SOL     OW16093   2.141   2.795   2.827  0.2976  0.4384 -0.1994
 1487SOL    HW116094   2.072   2.839   2.877  0.9233  1.3763 -0.1535
 1487SOL    HW216095   2.216   2.852   2.809  0.5498  0.3203  0.4560
 1488SOL     OW16096   3.166   2.942   2.786  0.5540  0.4422 -0.0014
 1488SOL    HW116097   3.212   2.944   2.870  2.2146 -1.8707 -0.8828
 1488SOL    HW216098   3.130   3.031   2.792 -0.7640 -0.1435  0.8920
 1489SOL     OW16099   3.301   3.318   6.480  0.2746  0.0504 -0.0983
 1489SOL    HW116100   3.325   3.254   6.413 -0.8859 -0.3226 -0.1569
 1489SOL    HW216101   3.338   3.395   6.436 -0.2929 -0.0525 -0.7523
 1490SOL     OW16102   3.706   3.881   6.776  0.1632  0.5631 -0.3263
 1490SOL    HW116103   3.648   3.956   6.788 -1.0329 -0.3903 -0.1937
 1490SOL    HW216104   3.639   3.813   6.771  4.0198 -3.2996  0.0063
 1491SOL     OW16105   2.398   4.020   7.304  0.4434  0.2183  0.1109
 1491SOL    HW116106   2.408   3.950   7.240 -0.5364  1.0365 -0.9222
 1491SOL    HW216107   2.389   3.968   7.384 -1.1392 -0.7172 -0.6772
 1492SOL     OW16108   1.678   3.752   7.267 -0.2311  0.1372 -0.1698
 1492SOL    HW116109   1.772   3.755   7.286  0.0438  3.9114 -2.0905
 1492SOL    HW216110   1.660   3.665   7.301 -2.2658  0.5437 -0.1890
 1493SOL     OW16111   3.171   0.234   8.147  0.0966  0.0153 -0.0170
 1493SOL    HW116112   3.247   0.268   8.099 -2.0096  1.4765 -2.2665
 1493SOL    HW216113   3.180   0.144   8.116  3.3552  0.1801  0.4425
 1494SOL     OW16114   0.330   3.054  11.744 -0.2733 -0.0906 -0.0235
 1494SOL    HW116115   0.318   3.070  11.651 -0.9643  1.5645  0.3414
 1494SOL    HW216116   0.425   3.061  11.755 -0.2729 -0.8484  0.4380
 1495SOL     OW16117   3.446   0.250  11.979  0.4301 -0.6937  0.4715
 1495SOL    HW116118   3.515   0.304  11.940  1.7358 -2.6211  0.1298
 1495SOL    HW216119   3.453   0.268  12.073  0.5763  0.6143  0.2206
 1496SOL     OW16120   0.997   3.233   5.159  0.5712  0.0558 -0.2311
 1496SOL    HW116121   0.924   3.259   5.216  0.8689 -0.0879  0.2218
 1496SOL    HW216122   0.963   3.239   5.070 -0.1723  2.6588  0.2252
 1497SOL     OW16123   4.518   3.943   3.128  0.0224  1.2558 -0.0097
 1497SOL    HW116124   4.479   3.906   3.207 -0.1889  0.5182 -0.4628
 1497SOL    HW216125   4.507   3.874   3.063 -0.7086  0.2089  1.2333
 1498SOL     OW16126   4.683   3.934  10.015 -0.0373  0.0572  0.1957
 1498SOL    HW116127   0.006   3.884   9.968 -1.3871 -1.0295 -0.5508
 1498SOL    HW216128   4.612   3.872  10.031 -0.1891 -0.1969 -1.4354
 1499SOL     OW16129   0.853   2.309   6.428  0.5868 -0.4073  0.0595
 1499SOL    HW116130   0.857   2.312   6.524  0.0763 -0.1613  0.0715
 1499SOL    HW216131   0.939   2.347   6.410  1.3309 -1.6433  0.9550
 1500SOL     OW16132   2.985   3.987   7.309  0.2001 -0.1603  0.3386
 1500SOL    HW116133   2.928   4.011   7.382  2.9836  3.1227  1.3765
 1500SOL    HW216134   3.006   3.900   7.343 -0.4719 -1.3540 -2.2563
 1501SOL     OW16135   0.187   1.496   3.679  0.3817  0.0889  0.1288
 1501SOL    HW116136   0.101   1.525   3.648  0.8646 -1.1128 -2.3541
 1501SOL    HW216137   0.242   1.499   3.600  2.3815  0.9615  1.5764
 1502SOL     OW16138   1.276   4.650   6.760  0.3343  0.2843  0.4944
 1502SOL    HW116139   1.227   4.709   6.702 -0.1477 -0.9392 -0.3402
 1502SOL    HW216140   1.361   4.663   6.718  1.2478  0.6019  2.4590
 1503SOL     OW16141   4.133   4.742   9.339  0.0265 -0.4268 -0.3178
 1503SOL    HW116142   4.053   0.008   9.287 -0.5919 -0.8295  0.5745
 1503SOL    HW216143   4.163   0.088   9.353  2.1231 -0.9493 -1.3242
 1504SOL     OW16144   3.275   0.186   2.976 -0.0700 -0.3091  0.6190
 1504SOL    HW116145   3.337   0.239   3.028 -0.0620  1.8546 -1.6052
 1504SOL    HW216146   3.190   0.222   3.002 -0.9190 -0.7154 -1.6054
 1505SOL     OW16147   0.993   0.092  11.520 -0.3431  0.0649 -0.2089
 1505SOL    HW116148   1.000   0.130  11.607  1.3070 -0.3177 -0.1925
 1505SOL    HW216149   0.965   0.006  11.550 -1.9960  0.1257 -1.5640
 1506SOL     OW16150   4.422   4.253   5.304 -0.6556 -0.4465  0.3782
 1506SOL    HW116151   4.362   4.204   5.361 -1.0102 -0.5284 -0.0712
 1506SOL    HW216152   4.512   4.225   5.318 -0.3552 -0.8948 -2.5276
 1507SOL     OW16153   2.194   0.923  10.777 -0.2330 -0.2502  0.6654
 1507SOL    HW116154   2.132   0.936  10.706  0.4259  1.7468  0.4527
 1507SOL    HW216155   2.243   1.006  10.779 -0.4115 -0.0384 -3.6108
 1508SOL     OW16156   0.927   4.095   9.596  0.1178  0.5558  0.3922
 1508SOL    HW116157   0.973   4.155   9.537  3.3978 -1.0384  1.2877
 1508SOL    HW216158   0.952   4.135   9.679 -0.0409  0.3624  0.5337
 1509SOL     OW16159   4.675   3.234  13.909 -0.1683 -0.0029 -0.5564
 1509SOL    HW116160   4.728   3.223  13.989 -2.1969  0.2013  0.8252
 1509SOL    HW216161   4.643   3.144  13.905  0.5648 -0.4005  2.4170
 1510SOL     OW16162   4.348   0.224   6.119 -0.1344  0.2306  0.3137
 1510SOL    HW116163   4.407   0.172   6.065  1.2722 -0.7629  2.7743
 1510SOL    HW216164   4.352   0.312   6.082 -0.6316 -0.6084 -1.7450
 1511SOL     OW16165   2.739   2.864   3.911 -0.7019  0.1758 -0.3907
 1511SOL    HW116166   2.702   2.953   3.909  2.5046  1.5213  0.4820
 1511SOL    HW216167   2.656   2.824   3.937  0.7076 -1.1274  2.0285
 1512SOL     OW16168   2.894   3.005  15.622  0.3538 -0.1880 -0.0909
 1512SOL    HW116169   2.862   2.985  15.534  0.3876 -2.5669  0.4262
 1512SOL    HW216170   2.970   3.057  15.594 -0.1715 -0.6263 -2.2844
 1513SOL     OW16171   0.378   3.224   8.661  0.1619 -0.4055 -0.0773
 1513SOL    HW116172   0.317   3.151   8.649  0.5263 -1.2321  3.0675
 1513SOL    HW216173   0.346   3.278   8.589  0.9419 -0.5284 -0.5187
 1514SOL     OW16174   4.126   3.467   2.553  0.2622  0.0104 -0.2007
 1514SOL    HW116175   4.158   3.509   2.633  2.3488 -2.3554  0.1740
 1514SOL    HW216176   4.201   3.414   2.528  1.3807  1.0825  0.8443
 1515SOL     OW16177   0.941   2.126   3.573  0.2203 -0.1932 -0.2608
 1515SOL    HW116178   0.879   2.198   3.570  0.3452 -0.1563 -1.5899
 1515SOL    HW216179   0.888   2.062   3.622 -1.8108  1.4901 -0.2801
 1516SOL     OW16180   3.406   4.200   6.274 -0.0145  0.4257  0.2416
 1516SOL    HW116181   3.435   4.277   6.324 -0.4803 -0.4866  1.9270
 1516SOL    HW216182   3.334   4.240   6.225 -1.6032 -1.1173  1.3199
 1517SOL     OW16183   1.518   1.419   7.603 -0.1536 -0.5608 -0.2440
 1517SOL    HW116184   1.553   1.384   7.521  1.1251 -3.2774  1.4650
 1517SOL    HW216185   1.598   1.449   7.647  0.3174 -1.2885 -0.6099
 1518SOL     OW16186   4.614   2.239   8.880 -0.6683 -0.4067 -0.2417
 1518SOL    HW116187   4.677   2.302   8.916 -0.3990 -0.3033 -0.8777
 1518SOL    HW216188   4.560   2.237   8.958 -0.1410  1.1255  0.1752
 1519SOL     OW16189   0.007   1.675   9.339 -0.1948 -1.0026  0.2860
 1519SOL    HW116190   4.667   1.699   9.299  1.2716 -0.6191 -2.4880
 1519SOL    HW216191   4.741   1.581   9.321  0.7424 -1.1894  0.7673
 1520SOL     OW16192   3.170   1.015   5.740  0.0735 -0.2382 -0.1357
 1520SOL    HW116193   3.221   0.935   5.748 -0.3094 -0.5431 -0.7775
 1520SOL    HW216194   3.102   0.989   5.678  0.1725  1.0335 -0.7820
 1521SOL     OW16195   0.370   3.480   5.581  0.3950 -0.5107  0.4031
 1521SOL    HW116196   0.426   3.421   5.531  1.4859  0.3225  0.6524
 1521SOL    HW216197   0.328   3.534   5.514 -0.0723 -0.5508  0.6616
 1522SOL     OW16198   1.971   1.987   0.253  0.5796  0.3900  0.0082
 1522SOL    HW116199   1.953   2.023   0.166  0.9516 -0.0196 -0.2405
 1522SOL    HW216200   2.017   1.905   0.233  0.0461 -0.2182  1.2548
 1523SOL     OW16201   0.791   1.239   8.286 -0.1188 -0.2480 -0.4314
 1523SOL    HW116202   0.715   1.264   8.234  0.1634  2.4046  0.4630
 1523SOL    HW216203   0.804   1.318   8.337 -0.0569 -0.2051 -0.5139
 1524SOL     OW16204   0.832   4.376   3.786  0.4035  0.1907 -0.3346
 1524SOL    HW116205   0.804   4.379   3.695 -0.4921  0.0850 -0.0626
 1524SOL    HW216206   0.747   4.398   3.823  1.5361  1.4502  1.5364
 1525SOL     OW16207   0.577   0.523   6.883 -0.1425 -0.6865 -0.0533
 1525SOL    HW116208   0.568   0.613   6.853 -1.5447 -1.1459 -1.0194
 1525SOL    HW216209   0.490   0.481   6.877  0.4208 -1.5114 -2.4376
 1526SOL     OW16210   3.073   4.041  17.490  0.1158 -0.4996  0.5772
 1526SOL    HW116211   3.111   4.003  17.410 -1.0728 -1.7526  0.6003
 1526SOL    HW216212   3.107   3.977  17.553  1.9046 -0.7111 -0.6070
 1527SOL     OW16213   3.497   0.767   1.893 -0.4093  0.4146 -0.0246
 1527SOL    HW116214   3.479   0.695   1.953 -1.0919  0.1101 -0.6055
 1527SOL    HW216215   3.419   0.755   1.839  0.1722  1.3209 -1.0710
 1528SOL     OW16216   1.764   1.147   7.169  0.0067 -0.1189 -0.2784
 1528SOL    HW116217   1.748   1.056   7.195 -0.8349  0.2746  0.5515
 1528SOL    HW216218   1.690   1.166   7.112  0.8979  3.1305 -0.3510
 1529SOL     OW16219   3.741   2.333   4.350 -0.3261 -0.3009  0.2733
 1529SOL    HW116220   3.696   2.337   4.434 -0.9349 -1.6594  0.0123
 1529SOL    HW216221   3.833   2.343   4.374  0.0529 -0.9850 -0.8998
 1530SOL     OW16222   3.619   3.096   3.640 -0.0818  0.3243  0.2971
 1530SOL    HW116223   3.698   3.048   3.615 -0.3494 -0.6834  1.3883
 1530SOL    HW216224   3.562   3.023   3.667 -1.1104  0.3215 -1.8880
 1531SOL     OW16225   1.888   1.529   5.208  0.0076 -0.3915 -0.1509
 1531SOL    HW116226   1.969   1.564   5.171  0.5253 -0.3516  1.0229
 1531SOL    HW216227   1.884   1.451   5.152 -0.5317 -0.5921  0.1697
 1532SOL     OW16228   3.412   0.829   3.596  0.2058 -0.4766  0.5854
 1532SOL    HW116229   3.335   0.884   3.583  0.3205 -0.2707  0.7722
 1532SOL    HW216230   3.371   0.743   3.585  1.5372 -0.8307 -1.5231
 1533SOL     OW16231   4.053   1.855   3.462  0.0054  0.1476 -0.2560
 1533SOL    HW116232   4.102   1.821   3.537  0.4253  0.1349 -0.5354
 1533SOL    HW216233   4.003   1.919   3.514 -2.0940 -0.9774 -0.8728
 1534SOL     OW16234   3.745   2.105  14.192 -0.2702 -0.2958 -0.3736
 1534SOL    HW116235   3.706   2.152  14.265 -1.8703 -0.0455 -1.3721
 1534SOL    HW216236   3.790   2.031  14.232  0.0542 -1.8848 -3.6153
 1535SOL     OW16237   1.696   1.195   8.790 -0.3701  0.5880  0.2154
 1535SOL    HW116238   1.648   1.269   8.751 -0.2204 -0.4777 -1.9693
 1535SOL    HW216239   1.782   1.236   8.800 -0.9493  1.8780 -0.0211
 1536SOL     OW16240   3.540   0.133   7.431  0.4462  0.2535  0.2767
 1536SOL    HW116241   3.588   0.138   7.514 -1.2755 -1.5500  1.3874
 1536SOL    HW216242   3.558   0.043   7.406 -0.7008  0.1215 -0.0875
 1537SOL     OW16243   2.588   3.373   2.458  0.5967 -0.1623 -0.4759
 1537SOL    HW116244   2.607   3.403   2.369  1.5091  2.6340  0.6716
 1537SOL    HW216245   2.492   3.372   2.457  0.6052  0.1149 -1.6486
 1538SOL     OW16246   2.953   2.738  17.130 -0.0710 -0.8587  0.4740
 1538SOL    HW116247   2.865   2.710  17.106 -0.3103  0.5586 -0.3134
 1538SOL    HW216248   2.936   2.780  17.214 -1.2748 -1.9243  0.7506
 1539SOL     OW16249   4.633   4.075   0.261 -0.1570  0.3367  0.3986
 1539SOL    HW116250   4.654   3.988   0.296  4.5828  1.6838  0.8680
 1539SOL    HW216251   4.544   4.086   0.294 -0.3414 -0.0782  0.0422
 1540SOL     OW16252   0.024   1.504   7.500 -1.1321  0.0793 -0.1866
 1540SOL    HW116253   0.037   1.478   7.409  1.3044  0.1461  0.1250
 1540SOL    HW216254   4.673   1.501   7.512 -1.1039  3.4346  0.7331
 1541SOL     OW16255   3.362   0.625   2.868 -0.3497 -0.4999 -0.2119
 1541SOL    HW116256   3.413   0.544   2.866 -1.1079 -1.0044  0.7055
 1541SOL    HW216257   3.275   0.586   2.860 -1.9372  2.8857  0.4117
 1542SOL     OW16258   3.233   1.244  16.766 -0.0960  0.2559  0.6633
 1542SOL    HW116259   3.289   1.317  16.741  4.0616 -3.2468 -0.3816
 1542SOL    HW216260   3.242   1.193  16.686  2.7085  2.8411 -0.6285
 1543SOL     OW16261   1.315   3.834   4.686  0.4788  0.5286 -0.1079
 1543SOL    HW116262   1.402   3.794   4.683 -0.3822 -1.2682 -1.3110
 1543SOL    HW216263   1.268   3.758   4.722 -0.3624  0.7427 -0.7385
 1544SOL     OW16264   3.016   3.899   1.653 -0.1956 -0.0151 -0.1099
 1544SOL    HW116265   2.981   3.981   1.689 -0.3457 -0.4599  0.7457
 1544SOL    HW216266   3.106   3.930   1.651 -0.1607 -0.2049 -1.6699
 1545SOL     OW16267   3.928   3.128   8.979 -0.1458 -0.8687 -0.0278
 1545SOL    HW116268   3.876   3.064   8.930 -1.4637  2.1947 -2.6319
 1545SOL    HW216269   4.008   3.081   9.005  1.4093  1.7430 -0.1013
 1546SOL     OW16270   0.161   1.050   6.094  0.2928  0.8910 -1.0742
 1546SOL    HW116271   0.085   0.991   6.089 -0.5822  1.9186  0.0997
 1546SOL    HW216272   0.114   1.131   6.071  1.2053  2.1332  1.4568
 1547SOL     OW16273   2.367   2.582  16.070 -0.7170  0.4282 -0.5532
 1547SOL    HW116274   2.417   2.575  16.151 -1.6468 -0.5836 -0.0604
 1547SOL    HW216275   2.433   2.577  16.001  0.1072 -1.3521  0.3789
 1548SOL     OW16276   4.354   2.697  17.243  0.3701 -0.5689 -0.2744
 1548SOL    HW116277   4.294   2.757  17.287  0.5948  0.5456 -1.4521
 1548SOL    HW216278   4.403   2.767  17.199  0.4372 -0.6928 -0.3962
 1549SOL     OW16279   1.048   0.053   9.111 -0.2192 -0.5078 -0.1252
 1549SOL    HW116280   0.999   4.721   9.079 -0.2741  0.4581 -2.3727
 1549SOL    HW216281   0.984   0.108   9.156 -2.5201 -2.3366 -1.1460
 1550SOL     OW16282   0.592   3.520   9.138  0.1959  0.0817  0.7652
 1550SOL    HW116283   0.497   3.517   9.152 -0.2598  0.0983 -2.3192
 1550SOL    HW216284   0.626   3.577   9.207 -1.2481 -0.3945  1.8725
 1551SOL     OW16285   4.324   0.552  12.078 -0.0461  0.2059 -0.1217
 1551SOL    HW116286   4.265   0.495  12.028  0.2142  1.5833 -1.9999
 1551SOL    HW216287   4.299   0.541  12.170 -0.1527 -0.9655 -0.2842
 1552SOL     OW16288   4.339   0.715   7.366  0.3135  0.2720  0.0518
 1552SOL    HW116289   4.295   0.790   7.407  1.5377  0.8712  0.2855
 1552SOL    HW216290   4.264   0.690   7.311  1.5751 -1.8242 -0.7143
 1553SOL     OW16291   1.979   3.584  13.073  0.6512 -0.2365 -0.7100
 1553SOL    HW116292   2.019   3.510  13.025  0.9834 -1.0283  0.7796
 1553SOL    HW216293   1.890   3.550  13.061  1.2572 -2.0927 -0.0651
 1554SOL     OW16294   2.285   2.473  14.184 -0.0563  0.0009 -0.0138
 1554SOL    HW116295   2.338   2.545  14.150 -0.5322  0.5773  0.4782
 1554SOL    HW216296   2.228   2.515  14.248  2.4668  0.1247  2.1791
 1555SOL     OW16297   3.626   1.158   7.338  0.6341  0.0162  0.3896
 1555SOL    HW116298   3.682   1.169   7.415  0.1424  1.3488  0.5584
 1555SOL    HW216299   3.601   1.067   7.355 -1.0959  0.1001 -1.7798
 1556SOL     OW16300   3.029   2.841   4.390  0.2967  0.1754 -0.3591
 1556SOL    HW116301   3.109   2.891   4.403  1.0097 -1.6745  2.3510
 1556SOL    HW216302   2.979   2.874   4.464  0.1780  0.3434 -0.5167
 1557SOL     OW16303   0.330   0.846   5.562 -0.6426 -0.2710  0.4524
 1557SOL    HW116304   0.385   0.920   5.589 -0.7049 -0.6335  1.5743
 1557SOL    HW216305   0.359   0.821   5.475 -1.0455  0.5102  0.0881
 1558SOL     OW16306   2.026   0.619   7.910 -0.6131  0.0776  0.0203
 1558SOL    HW116307   2.018   0.525   7.925 -0.9916 -0.5460 -3.9749
 1558SOL    HW216308   2.021   0.649   8.001 -0.5177  1.0264 -0.2809
 1559SOL     OW16309   4.055   4.603  15.494 -0.7297 -0.2510  0.5265
 1559SOL    HW116310   4.069   4.510  15.475 -0.6296 -0.3172  0.9163
 1559SOL    HW216311   3.979   4.621  15.439  0.8006  1.9638 -0.8543
 1560SOL     OW16312   3.587   0.812   2.358  0.2366  0.5553 -0.1074
 1560SOL    HW116313   3.572   0.905   2.378  1.1207  0.9380 -1.2988
 1560SOL    HW216314   3.495   0.803   2.333  0.6123 -1.3734 -0.7766
 1561SOL     OW16315   3.598   2.531   3.721  0.9313 -0.2874 -0.0786
 1561SOL    HW116316   3.662   2.583   3.769 -2.1353  1.7866  1.7110
 1561SOL    HW216317   3.615   2.456   3.778  1.5327  0.8001  1.1680
 1562SOL     OW16318   1.695   4.219   3.647 -0.1194  0.5669 -0.6355
 1562SOL    HW116319   1.643   4.285   3.693  2.4658  1.4823  0.9807
 1562SOL    HW216320   1.743   4.272   3.582  1.8086 -0.6828 -0.2284
 1563SOL     OW16321   0.274   0.783   4.046 -0.4174 -0.1573 -0.3978
 1563SOL    HW116322   0.190   0.794   4.089 -0.5570  0.7388 -0.9054
 1563SOL    HW216323   0.338   0.820   4.107 -0.0814  0.3428 -1.0487
 1564SOL     OW16324   0.992   1.430  10.514  0.1208  0.2643 -0.0510
 1564SOL    HW116325   1.079   1.437  10.474  0.2596 -1.1610  0.0075
 1564SOL    HW216326   0.990   1.519  10.550 -1.9191 -0.2281  1.0279
 1565SOL     OW16327   0.463   0.210   7.804 -0.2544  0.4809  0.3269
 1565SOL    HW116328   0.424   0.213   7.891  2.7059 -2.4868  1.7491
 1565SOL    HW216329   0.543   0.263   7.813 -0.1493  0.0924  1.7219
 1566SOL     OW16330   2.959   3.522  13.965  0.0508  0.5938  0.3814
 1566SOL    HW116331   2.898   3.532  14.038 -1.7780 -1.8566 -0.7859
 1566SOL    HW216332   3.031   3.491  14.020 -0.3569  0.0488  0.6182
 1567SOL     OW16333   0.291   1.228   7.796  0.0468 -0.0048 -0.1795
 1567SOL    HW116334   0.320   1.308   7.841  0.2956 -0.6109  0.7399
 1567SOL    HW216335   0.293   1.248   7.702  0.1790 -1.0022 -0.3817
 1568SOL     OW16336   2.630   1.934   8.640  0.4860 -0.3444  0.8298
 1568SOL    HW116337   2.652   1.845   8.611  0.5840 -0.2780  0.7050
 1568SOL    HW216338   2.632   1.919   8.735  0.3437  1.6011  1.1303
 1569SOL     OW16339   3.731   2.232   3.511  0.2077 -0.2673  0.1862
 1569SOL    HW116340   3.826   2.233   3.497  0.0315  0.4784 -0.9161
 1569SOL    HW216341   3.721   2.205   3.602 -0.9740 -1.6179 -0.3534
 1570SOL     OW16342   2.153   2.329   6.569 -0.1468 -0.3600 -0.0799
 1570SOL    HW116343   2.171   2.272   6.644 -0.3786  1.0428  1.0378
 1570SOL    HW216344   2.223   2.296   6.512  0.3874  0.8307 -0.1162
 1571SOL     OW16345   0.899   4.670  15.648 -0.3084 -0.1356 -0.1683
 1571SOL    HW116346   0.899   0.018  15.621  3.3805  0.4051  1.6730
 1571SOL    HW216347   0.993   4.655  15.636 -0.5298 -1.4430 -0.3017
 1572SOL     OW16348   0.075   1.228   1.910 -0.3382  0.0904  0.2937
 1572SOL    HW116349   0.083   1.282   1.989  1.4273  1.5207 -0.8494
 1572SOL    HW216350   4.726   1.248   1.899 -0.6221  0.9620  4.1880
 1573SOL     OW16351   1.905   1.637   0.932  0.5763 -0.5324 -0.6593
 1573SOL    HW116352   1.880   1.709   0.873  0.4294  0.5306  0.7160
 1573SOL    HW216353   1.944   1.570   0.875 -0.2074 -1.6192  0.0665
 1574SOL     OW16354   1.503   0.852  15.290 -0.0758 -0.0156 -0.0334
 1574SOL    HW116355   1.558   0.832  15.366  0.5873  1.4461 -0.1197
 1574SOL    HW216356   1.423   0.887  15.329  0.7587  0.3895  1.2911
 1575SOL     OW16357   2.571   2.483   8.400  0.3167 -0.7066  0.1788
 1575SOL    HW116358   2.555   2.552   8.464 -2.4705 -0.1725 -1.1230
 1575SOL    HW216359   2.620   2.423   8.457 -0.2477  0.3017  1.7381
 1576SOL     OW16360   4.614   1.333   7.976  0.0832 -0.4140 -0.0351
 1576SOL    HW116361   4.577   1.371   7.896 -0.4714  0.9427  0.8789
 1576SOL    HW216362   4.542   1.280   8.012 -0.0617 -0.6958 -0.7236
 1577SOL     OW16363   1.035   2.945  10.081  0.1703  0.7206  0.7058
 1577SOL    HW116364   1.038   2.858  10.122  0.1716  0.3941  0.0194
 1577SOL    HW216365   1.126   2.946  10.051 -0.7367  2.0640 -1.9495
 1578SOL     OW16366   4.071   0.518   3.770 -0.4816  0.1731  0.2407
 1578SOL    HW116367   4.152   0.561   3.797 -0.1604 -0.4578  0.2954
 1578SOL    HW216368   4.056   0.554   3.683 -1.8899 -0.3011  0.2786
 1579SOL     OW16369   1.329   1.115   6.575  0.0088 -0.0377  0.0824
 1579SOL    HW116370   1.361   1.025   6.563  0.8242  0.0265  1.7611
 1579SOL    HW216371   1.241   1.114   6.537 -0.5767  1.7041  1.4037
 1580SOL     OW16372   1.705   1.243   2.114  0.0046  0.0912 -0.4782
 1580SOL    HW116373   1.799   1.232   2.098 -0.3017 -1.9038 -0.9648
 1580SOL    HW216374   1.669   1.275   2.032  0.6278 -1.7203 -1.4656
 1581SOL     OW16375   4.066   0.150   6.053 -0.1919  0.0232 -0.6951
 1581SOL    HW116376   4.074   0.235   6.096 -0.8991 -0.3132  0.0935
 1581SOL    HW216377   4.137   0.166   5.990  0.4748  0.2900  0.1358
 1582SOL     OW16378   2.976   4.192   2.163 -0.2272  0.3162  1.4094
 1582SOL    HW116379   2.965   4.267   2.104 -1.6196 -2.7159 -2.1912
 1582SOL    HW216380   2.967   4.116   2.106 -0.2054  0.9103  0.6034
 1583SOL     OW16381   1.224   0.872   2.458 -0.1029 -0.3582 -0.2939
 1583SOL    HW116382   1.288   0.856   2.389 -1.4699 -1.0788 -1.4076
 1583SOL    HW216383   1.259   0.952   2.495 -1.1897 -0.9345  2.0074
 1584SOL     OW16384   2.688   1.910   8.350 -0.4457  0.5349  0.3686
 1584SOL    HW116385   2.722   1.941   8.434 -3.4192  2.0191  1.0129
 1584SOL    HW216386   2.729   1.825   8.336  0.8701  1.2041  0.1621
 1585SOL     OW16387   2.110   2.212   8.641  0.2052  0.1473 -0.5724
 1585SOL    HW116388   2.156   2.139   8.682 -0.2880 -0.7864 -1.6653
 1585SOL    HW216389   2.047   2.170   8.583 -0.7747  2.8422 -1.4581
 1586SOL     OW16390   3.637   0.245  16.799 -0.2991 -0.6815  0.0856
 1586SOL    HW116391   3.642   0.241  16.704  0.3699  1.0592  0.0521
 1586SOL    HW216392   3.692   0.322  16.810 -0.6197 -0.7335  2.0700
 1587SOL     OW16393   0.702   0.003  13.259 -0.1253 -0.1124 -0.3128
 1587SOL    HW116394   0.674   4.659  13.287  1.1633 -0.5669 -0.4433
 1587SOL    HW216395   0.688   0.064  13.331 -2.0824 -0.1041 -0.6777
 1588SOL     OW16396   3.521   1.883  12.078  0.3088 -0.1789  0.2927
 1588SOL    HW116397   3.577   1.923  12.011 -0.3856 -0.1057 -0.2502
 1588SOL    HW216398   3.434   1.899  12.040  0.4634  0.9045  0.3973
 1589SOL     OW16399   2.845   0.167   2.861 -0.2096 -0.1214  0.3574
 1589SOL    HW116400   2.849   0.192   2.953  0.3293 -0.5104  0.4364
 1589SOL    HW216401   2.846   0.072   2.873  1.1828 -0.2445 -0.6750
 1590SOL     OW16402   4.148   0.405   9.026  0.2443  0.0811  0.6363
 1590SOL    HW116403   4.231   0.373   9.062 -0.1531 -3.4205 -1.5192
 1590SOL    HW216404   4.145   0.496   9.053  0.4188  0.5186 -0.8165
 1591SOL     OW16405   3.580   4.498  13.802 -0.3602  0.0521  0.4295
 1591SOL    HW116406   3.590   4.518  13.709 -0.2374  2.9297  1.0448
 1591SOL    HW216407   3.673   4.507  13.820  0.0309 -0.2694 -1.4000
 1592SOL     OW16408   1.553   0.747  14.348 -0.4267 -0.3568 -0.2584
 1592SOL    HW116409   1.515   0.682  14.408  1.2736 -0.1288  1.0814
 1592SOL    HW216410   1.482   0.809  14.330 -0.4146 -0.4362 -0.5660
 1593SOL     OW16411   4.675   2.610   1.562 -0.3321 -0.3520  0.9586
 1593SOL    HW116412   4.617   2.676   1.599  0.2172  0.0068  1.1857
 1593SOL    HW216413   4.720   2.567   1.636 -0.0501  0.5233  1.2908
 1594SOL     OW16414   0.633   2.082   8.000 -0.5559  0.1384  0.0750
 1594SOL    HW116415   0.574   2.075   7.925 -0.5854 -2.9101  0.3810
 1594SOL    HW216416   0.573   2.045   8.065 -1.0462 -2.4162 -1.8314
 1595SOL     OW16417   2.778   0.604   2.867 -0.1373  0.0754  0.1006
 1595SOL    HW116418   2.781   0.573   2.958 -1.0024 -2.8729 -0.8814
 1595SOL    HW216419   2.728   0.685   2.867 -1.0548 -0.4896  2.2655
 1596SOL     OW16420   2.310   1.790   2.012  0.2204  0.2712  0.0202
 1596SOL    HW116421   2.381   1.842   2.050  1.9618  0.4734 -3.5084
 1596SOL    HW216422   2.304   1.801   1.917 -0.0010  0.7337  0.0900
 1597SOL     OW16423   0.882   0.230   4.012  0.2136  0.3276 -0.1804
 1597SOL    HW116424   0.911   0.139   4.019 -0.7942  0.1456  1.5001
 1597SOL    HW216425   0.882   0.244   3.917 -0.4199  0.9509 -0.0885
 1598SOL     OW16426   4.267   1.071  15.111  0.1755 -0.1352 -0.3778
 1598SOL    HW116427   4.237   1.081  15.201 -0.5241 -0.8713 -0.5285
 1598SOL    HW216428   4.185   1.045  15.070 -0.3758 -0.7433  1.1435
 1599SOL     OW16429   0.750   4.077   3.052 -0.0280  0.4860 -0.1838
 1599SOL    HW116430   0.663   4.099   3.022  0.2040  1.4933 -0.1176
 1599SOL    HW216431   0.745   3.984   3.030  0.0002  0.5482 -0.4447
 1600SOL     OW16432   2.261   0.051   9.276  0.2083  0.3491  0.1635
 1600SOL    HW116433   2.182   0.079   9.323 -1.2820  3.2899 -4.0497
 1600SOL    HW216434   2.280   4.710   9.317 -1.8870  1.0941  2.7084
 1601SOL     OW16435   0.494   1.433   7.500  0.1636  0.4283 -0.4058
 1601SOL    HW116436   0.420   1.373   7.508  0.3777  0.2231 -0.0018
 1601SOL    HW216437   0.465   1.515   7.458  1.5121  0.7817 -0.6461
 1602SOL     OW16438   0.583   1.462   1.821 -0.2145 -0.1733  0.1474
 1602SOL    HW116439   0.551   1.378   1.854 -0.6530 -0.3471 -0.7165
 1602SOL    HW216440   0.525   1.474   1.746  0.4962  1.3361 -0.1677
 1603SOL     OW16441   3.084   4.005  15.289  0.5186 -0.0276 -0.6497
 1603SOL    HW116442   3.076   4.003  15.384  1.3278 -2.8541 -0.6547
 1603SOL    HW216443   3.056   3.916  15.269  0.4395 -0.2786  0.6094
 1604SOL     OW16444   0.845   0.273  16.600  0.0167 -1.0766 -0.1412
 1604SOL    HW116445   0.815   0.246  16.513  2.0893 -0.7284 -0.9631
 1604SOL    HW216446   0.801   0.213  16.660 -0.8875 -0.2070  0.0789
 1605SOL     OW16447   0.481   0.428   3.566 -0.2766 -0.6573  0.5873
 1605SOL    HW116448   0.490   0.513   3.522 -3.2920 -1.8725 -2.4501
 1605SOL    HW216449   0.463   0.366   3.495  0.7893  0.3066 -0.5206
 1606SOL     OW16450   2.629   1.088   0.362 -0.1846 -0.2785 -1.0315
 1606SOL    HW116451   2.668   1.109   0.278  1.8242  1.3360  0.2933
 1606SOL    HW216452   2.642   0.993   0.366 -0.6809 -0.2453  1.4429
 1607SOL     OW16453   3.029   2.260   6.120 -0.1881 -0.4708 -0.4048
 1607SOL    HW116454   3.094   2.225   6.181  0.9480  0.4656 -1.0627
 1607SOL    HW216455   3.029   2.353   6.144  1.5421 -0.4228 -0.5588
 1608SOL     OW16456   2.883   2.283   3.087 -0.0930 -0.1533 -0.0699
 1608SOL    HW116457   2.838   2.258   3.006 -0.2682 -1.1578  0.3386
 1608SOL    HW216458   2.820   2.340   3.131  0.4150  1.9046 -1.9842
 1609SOL     OW16459   2.293   0.805   5.524  0.2994  0.6579 -0.7082
 1609SOL    HW116460   2.265   0.732   5.579  0.4381  0.7917 -0.4611
 1609SOL    HW216461   2.269   0.883   5.575  1.2839 -0.3892  1.3436
 1610SOL     OW16462   3.787   3.346   7.466  0.6375 -0.1176 -0.2731
 1610SOL    HW116463   3.773   3.429   7.510  0.5772  0.5660 -1.5721
 1610SOL    HW216464   3.703   3.301   7.470  0.3427  0.6488  2.0318
 1611SOL     OW16465   1.914   0.104   2.229 -0.2617  0.0129 -0.0571
 1611SOL    HW116466   1.949   0.064   2.309 -1.1819  0.1672  0.4302
 1611SOL    HW216467   1.873   0.180   2.270 -0.6892  0.2474 -0.9334
 1612SOL     OW16468   4.174   4.000   9.837 -0.3593  0.7710  0.0031
 1612SOL    HW116469   4.125   4.041   9.908 -1.8155 -2.1967  0.7082
 1612SOL    HW216470   4.118   4.020   9.762  1.0127 -0.5785 -1.3867
 1613SOL     OW16471   4.261   2.968   7.136  0.1138 -0.3730 -0.0867
 1613SOL    HW116472   4.174   2.947   7.100  0.6694 -0.9142 -1.1154
 1613SOL    HW216473   4.242   3.041   7.195  1.3935  1.0881 -1.4795
 1614SOL     OW16474   1.529   2.483   9.172 -1.2316  0.3843  0.3926
 1614SOL    HW116475   1.461   2.511   9.111 -0.2439 -1.4341 -1.5454
 1614SOL    HW216476   1.542   2.559   9.228 -1.2300  0.5407  0.1809
 1615SOL     OW16477   1.009   3.271   4.184 -1.0321  0.4646  0.2447
 1615SOL    HW116478   0.934   3.231   4.139 -0.8146  0.7933 -0.3965
 1615SOL    HW216479   1.014   3.358   4.145 -1.0624 -1.2625 -3.6377
 1616SOL     OW16480   1.249   3.495   7.263  0.0045  0.1962  0.3868
 1616SOL    HW116481   1.336   3.453   7.260  0.9532  2.2803 -1.7973
 1616SOL    HW216482   1.256   3.551   7.185 -1.6209 -0.6951 -0.3773
 1617SOL     OW16483   0.812   0.103  10.590  0.3463  0.2068  0.2801
 1617SOL    HW116484   0.838   0.146  10.508  0.7850 -1.5731 -0.5075
 1617SOL    HW216485   0.840   0.166  10.657 -0.4595  1.7713 -0.8472
 1618SOL     OW16486   1.175   2.806   3.140  0.0164 -0.1366 -0.6059
 1618SOL    HW116487   1.258   2.787   3.098  0.2864  0.6865 -0.4523
 1618SOL    HW216488   1.177   2.738   3.208  0.1196 -0.1282 -0.6008
 1619SOL     OW16489   4.117   2.186  13.625 -0.1377 -0.2594  0.4078
 1619SOL    HW116490   4.063   2.195  13.704  0.0924  0.2068  0.5131
 1619SOL    HW216491   4.153   2.098  13.633  0.1036 -0.0867  1.2489
 1620SOL     OW16492   0.804   3.729  10.162  0.4582 -0.3938 -1.2355
 1620SOL    HW116493   0.718   3.749  10.198 -0.0447 -0.6103 -2.3166
 1620SOL    HW216494   0.854   3.721  10.244  1.9469  3.0568 -1.7759
 1621SOL     OW16495   1.798   1.609   1.336  0.1814  0.1084  0.1831
 1621SOL    HW116496   1.862   1.663   1.383  0.2385 -0.1520  0.4045
 1621SOL    HW216497   1.714   1.652   1.345 -0.9394 -2.1039  0.4284
 1622SOL     OW16498   3.726   2.803   5.020 -0.5143 -0.7798 -0.5039
 1622SOL    HW116499   3.780   2.852   5.083  0.0235 -1.8914 -0.1117
 1622SOL    HW216500   3.657   2.760   5.071 -1.6038  1.7010  0.1319
 1623SOL     OW16501   2.760   0.958   1.805 -0.2767 -0.7452  0.0409
 1623SOL    HW116502   2.741   0.896   1.735  0.1664 -1.3131  0.4173
 1623SOL    HW216503   2.853   0.950   1.825 -1.0805 -2.8245  2.9452
 1624SOL     OW16504   2.574   2.413  10.443 -0.5988 -0.1044  0.7029
 1624SOL    HW116505   2.542   2.486  10.497 -1.0340 -0.1080  0.4519
 1624SOL    HW216506   2.579   2.333  10.494 -1.0616  1.0730  2.6049
 1625SOL     OW16507   0.903   3.470   1.714 -0.2877  0.1794  0.1648
 1625SOL    HW116508   0.866   3.461   1.626  3.5467 -1.4328 -1.3320
 1625SOL    HW216509   0.873   3.554   1.749 -0.9207  0.4764 -1.1050
 1626SOL     OW16510   2.100   0.057   5.362 -0.0046 -0.1606  0.1440
 1626SOL    HW116511   2.051   0.083   5.285 -0.6097  2.4736  1.4101
 1626SOL    HW216512   2.127   4.710   5.346 -0.6111 -0.1865 -0.7033
 1627SOL     OW16513   4.244   1.165   6.434 -0.1244  0.0023  0.6640
 1627SOL    HW116514   4.206   1.118   6.507 -0.1248 -0.8637  0.1056
 1627SOL    HW216515   4.281   1.088   6.390  0.7415  0.1502  1.1232
 1628SOL     OW16516   1.767   3.981   8.573  0.5685 -0.0661  0.1250
 1628SOL    HW116517   1.733   3.893   8.589 -0.7475  0.5605  0.7166
 1628SOL    HW216518   1.747   3.979   8.479  0.0864  0.4250  0.2185
 1629SOL     OW16519   0.301   2.466   7.272 -0.1252  0.5670  0.4090
 1629SOL    HW116520   0.245   2.396   7.238  1.1955 -0.4252  0.2740
 1629SOL    HW216521   0.373   2.462   7.209 -1.4859 -1.0596 -1.0502
 1630SOL     OW16522   2.781   4.406   2.645  0.6320  0.1136 -0.4068
 1630SOL    HW116523   2.726   4.381   2.571  2.1822 -1.2611 -1.1046
 1630SOL    HW216524   2.807   4.494   2.618  1.2077 -0.1988 -0.8789
 1631SOL     OW16525   3.337   2.721   5.599 -0.0419 -0.4214  0.1658
 1631SOL    HW116526   3.344   2.795   5.659 -0.7050 -0.0830 -0.1747
 1631SOL    HW216527   3.428   2.697   5.578 -0.1065  1.0867 -1.8665
 1632SOL     OW16528   3.115   3.520   1.277 -0.3218 -0.0219 -0.4862
 1632SOL    HW116529   3.081   3.588   1.335 -0.6641 -2.4855  2.2728
 1632SOL    HW216530   3.143   3.454   1.342  1.2124  0.0951 -1.0193
 1633SOL     OW16531   4.686   0.546   8.640  0.4097 -0.2162  0.5626
 1633SOL    HW116532   4.680   0.637   8.670 -0.1927 -0.0759  0.0369
 1633SOL    HW216533   4.611   0.512   8.689 -0.5804 -0.5461 -1.1539
 1634SOL     OW16534   0.839   4.546   9.335 -0.0652  0.0489 -0.6912
 1634SOL    HW116535   0.776   4.607   9.374 -0.8873  0.6009 -2.8779
 1634SOL    HW216536   0.788   4.466   9.348  3.5773 -2.1248  0.1893
 1635SOL     OW16537   2.381   3.174  12.286  0.0919  0.5141 -0.0588
 1635SOL    HW116538   2.289   3.178  12.259 -0.2715 -2.3038  0.7686
 1635SOL    HW216539   2.374   3.179  12.382 -1.4287 -0.4235 -0.1172
 1636SOL     OW16540   0.347   0.601  15.103  0.0819 -0.3055  0.2173
 1636SOL    HW116541   0.291   0.641  15.170  2.4527  1.2814  1.2319
 1636SOL    HW216542   0.398   0.677  15.076 -0.4530  1.5217  4.2735
 1637SOL     OW16543   1.716   0.732   8.801  0.3368  0.0693  0.8380
 1637SOL    HW116544   1.730   0.718   8.895  1.3150  2.9975  1.1464
 1637SOL    HW216545   1.654   0.662   8.780  0.8148  0.0774 -0.6096
 1638SOL     OW16546   0.683   0.950   6.994 -0.6066  0.3845 -0.9038
 1638SOL    HW116547   0.724   0.907   7.070  0.1171  1.3555 -0.7492
 1638SOL    HW216548   0.765   0.980   6.956  0.0708 -1.8997 -1.2544
 1639SOL     OW16549   3.234   0.006  13.419  0.0991  0.3007  0.1451
 1639SOL    HW116550   3.202   0.082  13.370  1.8349  2.2512  2.0476
 1639SOL    HW216551   3.328   0.007  13.403  0.2025 -1.2452  0.6721
 1640SOL     OW16552   4.403   2.064   7.191 -0.2603 -0.0369 -0.1507
 1640SOL    HW116553   4.322   2.016   7.178  1.3509 -2.9729  0.5850
 1640SOL    HW216554   4.408   2.055   7.286 -0.3246  0.6104 -0.0853
 1641SOL     OW16555   2.157   1.757   5.800 -0.3797 -0.5501  0.0992
 1641SOL    HW116556   2.185   1.834   5.851 -0.4432 -1.4652  1.5148
 1641SOL    HW216557   2.192   1.773   5.712 -0.2911  0.8694  0.3825
 1642SOL     OW16558   0.770   2.606  12.248 -0.0549 -0.3757  0.1160
 1642SOL    HW116559   0.707   2.535  12.251  0.1283 -0.4916  1.4032
 1642SOL    HW216560   0.819   2.578  12.171  0.5985 -0.1320  0.4392
 1643SOL     OW16561   2.610   2.920   3.322 -0.3838  0.0034 -0.7875
 1643SOL    HW116562   2.560   2.999   3.301 -2.2810 -1.4038 -1.5119
 1643SOL    HW216563   2.682   2.957   3.372 -0.6444 -2.4009  1.3689
 1644SOL     OW16564   1.253   2.522   3.583  0.2348 -0.3276  0.3010
 1644SOL    HW116565   1.317   2.542   3.651 -1.6812  1.2487  1.6252
 1644SOL    HW216566   1.239   2.428   3.595 -1.8434 -0.1890 -0.9966
 1645SOL     OW16567   4.333   0.922   6.116 -0.4452 -0.0098  0.3143
 1645SOL    HW116568   4.406   0.979   6.138 -1.0961  0.1744  1.9716
 1645SOL    HW216569   4.378   0.841   6.091  0.1889  0.2446  0.6412
 1646SOL     OW16570   4.561   2.474  10.246 -0.1667 -0.2552 -0.2044
 1646SOL    HW116571   4.651   2.501  10.225 -0.8386  0.7466 -1.8189
 1646SOL    HW216572   4.559   2.511  10.334 -0.6257 -1.1312  0.1537
 1647SOL     OW16573   4.523   3.932  17.203  0.0278 -0.5593 -0.1445
 1647SOL    HW116574   4.447   3.989  17.215  0.6260  0.1045  0.5010
 1647SOL    HW216575   4.570   3.946  17.286  1.8270 -1.0472 -1.0767
 1648SOL     OW16576   1.169   4.336  13.507 -0.0115  0.5042 -0.6007
 1648SOL    HW116577   1.124   4.416  13.532 -1.8959 -0.0992 -2.0955
 1648SOL    HW216578   1.145   4.281  13.582 -0.2259  1.0261 -0.2834
 1649SOL     OW16579   2.656   3.140   3.905 -0.0208 -0.1497 -0.1739
 1649SOL    HW116580   2.650   3.161   3.812 -2.8937 -0.8813 -0.1407
 1649SOL    HW216581   2.574   3.184   3.924  0.3828  0.5870 -0.1280
 1650SOL     OW16582   3.663   4.334   1.627  0.4111  0.1658  0.1338
 1650SOL    HW116583   3.579   4.381   1.624  0.9010  0.9805 -1.1718
 1650SOL    HW216584   3.721   4.369   1.695 -0.5033  1.0362  0.4687
 1651SOL     OW16585   2.096   2.133  14.704  0.5273  0.3938 -0.1702
 1651SOL    HW116586   2.001   2.137  14.715  0.4749  0.7383 -0.7699
 1651SOL    HW216587   2.093   2.164  14.614 -2.1145  0.3354 -0.1163
 1652SOL     OW16588   3.496   2.821  12.281 -0.5826  0.1719  0.2117
 1652SOL    HW116589   3.466   2.887  12.219 -4.1688 -0.2579  1.4308
 1652SOL    HW216590   3.581   2.799  12.245 -1.3749 -1.1230 -0.8841
 1653SOL     OW16591   0.377   2.099   6.732 -0.6023  0.1753 -0.0334
 1653SOL    HW116592   0.437   2.125   6.662  0.6838  0.7013  1.2680
 1653SOL    HW216593   0.351   2.185   6.762 -0.3597  0.4677 -0.6488
 1654SOL     OW16594   2.062   1.529   8.602 -0.1119  0.4136  0.6442
 1654SOL    HW116595   2.155   1.510   8.600  0.2268  2.4065 -2.4838
 1654SOL    HW216596   2.027   1.440   8.603 -0.9725  0.7305 -1.7603
 1655SOL     OW16597   0.951   3.018   2.892  0.0230 -0.1163 -0.0124
 1655SOL    HW116598   0.893   3.001   2.818  0.0089 -1.5498  0.3348
 1655SOL    HW216599   1.020   3.059   2.841 -2.1059  2.0183 -1.1909
 1656SOL     OW16600   0.428   2.811   5.021 -0.3472  0.2265  0.2115
 1656SOL    HW116601   0.432   2.722   5.058  1.7365 -0.5436 -1.8247
 1656SOL    HW216602   0.497   2.807   4.954 -0.7219  0.9617 -0.2063
 1657SOL     OW16603   1.684   0.697  10.007 -0.4477 -0.0130  0.0811
 1657SOL    HW116604   1.609   0.755   9.997 -0.8787 -0.3467  1.3353
 1657SOL    HW216605   1.639   0.635  10.064 -1.9042 -0.1111 -1.1836
 1658SOL     OW16606   4.461   0.383   5.940 -0.4010 -0.4496 -0.6125
 1658SOL    HW116607   4.545   0.401   5.981  0.0673 -2.8415 -0.5376
 1658SOL    HW216608   4.484   0.379   5.847 -2.2280 -0.2824 -1.0675
 1659SOL     OW16609   1.533   2.281   7.553 -0.2141 -0.4448  0.0155
 1659SOL    HW116610   1.567   2.224   7.485 -1.0186  0.0783 -0.8210
 1659SOL    HW216611   1.439   2.260   7.551  0.6498 -4.2621  0.0476
 1660SOL     OW16612   0.777   3.286   5.837  0.2750 -0.7905 -0.4593
 1660SOL    HW116613   0.774   3.378   5.809  0.3856 -0.5984  0.1619
 1660SOL    HW216614   0.865   3.279   5.873  0.2696 -0.5720 -0.4064
 1661SOL     OW16615   1.327   2.103   8.781  0.4478  0.1978  0.6462
 1661SOL    HW116616   1.284   2.128   8.863  0.8619  0.1637  0.8705
 1661SOL    HW216617   1.274   2.033   8.743  2.3999 -0.9251 -0.0046
 1662SOL     OW16618   2.054   0.337   8.033 -0.5347 -0.3896 -0.1829
 1662SOL    HW116619   2.128   0.367   8.086 -1.9841 -0.6974  2.0350
 1662SOL    HW216620   2.097   0.265   7.989  1.4088  1.7587 -1.7936
 1663SOL     OW16621   0.718   4.633  13.009 -0.4265 -0.2619  0.4592
 1663SOL    HW116622   0.713   4.710  12.953 -2.7836  0.8953  2.2180
 1663SOL    HW216623   0.735   4.680  13.091 -0.4940  2.4270 -1.0620
 1664SOL     OW16624   1.410   1.175   1.250 -0.4571  0.6227 -0.8150
 1664SOL    HW116625   1.495   1.135   1.231 -1.4204 -1.3123 -1.1141
 1664SOL    HW216626   1.429   1.244   1.313  0.4386 -1.6126  1.3833
 1665SOL     OW16627   2.547   3.722  10.177 -0.5214 -0.5553 -0.2958
 1665SOL    HW116628   2.637   3.701  10.204 -1.0784 -2.0782  0.3248
 1665SOL    HW216629   2.564   3.783  10.105  1.8952  0.3601  1.0310
 1666SOL     OW16630   0.272   2.939  13.014  0.3319  0.3596  0.2450
 1666SOL    HW116631   0.228   3.021  13.038 -1.5906 -0.3308 -0.9044
 1666SOL    HW216632   0.336   2.934  13.085  0.8097  3.5847  0.0401
 1667SOL     OW16633   4.222   2.679   3.116 -0.0566 -0.0449 -0.0940
 1667SOL    HW116634   4.269   2.608   3.160  0.6964 -0.1298 -1.0211
 1667SOL    HW216635   4.291   2.704   3.053  0.2079 -2.5736 -0.8332
 1668SOL     OW16636   4.538   0.399  12.059  0.2422  0.1446 -0.0243
 1668SOL    HW116637   4.462   0.456  12.053 -0.1491 -0.4536 -0.7330
 1668SOL    HW216638   4.609   0.458  12.036  0.0821  0.0003 -0.8674
 1669SOL     OW16639   0.645   3.263  10.076  0.2996 -0.3670  0.0756
 1669SOL    HW116640   0.637   3.228   9.988 -1.5677  2.1668 -0.7572
 1669SOL    HW216641   0.736   3.236  10.089  0.5079  0.3226  0.0931
 1670SOL     OW16642   1.212   1.340  11.147 -0.2101  0.0021 -0.2840
 1670SOL    HW116643   1.148   1.356  11.078  0.6388  1.7202 -0.6744
 1670SOL    HW216644   1.223   1.245  11.143 -0.9001 -0.1049  0.4586
 1671SOL     OW16645   3.073   2.805   8.038 -0.1067 -0.0856 -0.0222
 1671SOL    HW116646   3.009   2.820   8.108  1.8045 -0.4155  1.7892
 1671SOL    HW216647   3.155   2.790   8.085 -0.7417 -2.8577  0.1762
 1672SOL     OW16648   0.342   4.402   7.858 -0.7177 -0.5983 -0.5753
 1672SOL    HW116649   0.404   4.329   7.864  0.0150 -0.0859 -1.9472
 1672SOL    HW216650   0.348   4.438   7.946  2.3522  0.8927 -1.3888
 1673SOL     OW16651   0.431   4.352   9.100 -0.3719  0.4126  0.6708
 1673SOL    HW116652   0.385   4.291   9.158 -0.9306  1.8116  1.7008
 1673SOL    HW216653   0.412   4.334   9.008 -0.0146  0.9002  0.5016
 1674SOL     OW16654   2.583   2.232   0.279  1.0501 -0.7850  0.2643
 1674SOL    HW116655   2.627   2.313   0.309 -0.9862  1.1867 -2.1112
 1674SOL    HW216656   2.656   2.199   0.227  0.4757 -0.7144 -0.5876
 1675SOL     OW16657   2.626   3.695   2.374 -0.0454  0.3654  0.5817
 1675SOL    HW116658   2.663   3.756   2.310  1.6759 -0.4448  0.8069
 1675SOL    HW216659   2.608   3.619   2.318 -1.6763  0.3287  1.1898
 1676SOL     OW16660   0.913   1.195  10.628 -0.1913  0.1373  0.7827
 1676SOL    HW116661   0.930   1.285  10.601 -0.1597  0.5643  2.2703
 1676SOL    HW216662   0.993   1.182  10.680  0.8955  0.4368 -0.7885
 1677SOL     OW16663   0.380   3.512   1.999  0.0253 -0.4438  0.1248
 1677SOL    HW116664   0.428   3.448   2.051  0.6523 -0.9474 -1.0566
 1677SOL    HW216665   0.308   3.520   2.061  0.7405  1.4696  0.6873
 1678SOL     OW16666   3.781   2.807   2.266  0.0389 -0.4602 -0.1486
 1678SOL    HW116667   3.770   2.712   2.277  1.6657 -0.6821 -0.3856
 1678SOL    HW216668   3.698   2.839   2.300 -0.4441 -1.7826 -0.0815
 1679SOL     OW16669   4.030   1.321   7.324 -0.0061 -0.7876  0.2135
 1679SOL    HW116670   3.977   1.241   7.324 -0.3123 -0.5816  0.4356
 1679SOL    HW216671   4.070   1.307   7.410  1.6289 -0.6694 -0.5168
 1680SOL     OW16672   2.121   0.123   1.092 -0.2072 -0.3213  0.7374
 1680SOL    HW116673   2.213   0.128   1.067 -0.4347 -1.9165 -0.3992
 1680SOL    HW216674   2.089   0.053   1.036  0.4813 -0.0574  0.0172
 1681SOL     OW16675   3.012   0.517   7.842 -0.4411  0.0117  0.1868
 1681SOL    HW116676   3.010   0.587   7.908 -0.6746  1.3435 -1.2420
 1681SOL    HW216677   2.980   0.561   7.764  0.8118 -2.6035 -1.8083
 1682SOL     OW16678   2.558   2.020   1.335  0.3471 -0.0891  0.8293
 1682SOL    HW116679   2.580   2.036   1.243  0.1415 -0.4657  0.7130
 1682SOL    HW216680   2.619   2.077   1.382 -0.8399  0.1587  2.0505
 1683SOL     OW16681   3.132   0.984  12.020  0.0942 -0.1234 -0.7768
 1683SOL    HW116682   3.042   0.956  12.004 -0.0316  1.5505 -3.0203
 1683SOL    HW216683   3.146   1.049  11.951  1.3988  1.5195  1.0043
 1684SOL     OW16684   3.782   1.056   4.973  0.1144 -1.1613 -0.2946
 1684SOL    HW116685   3.716   1.047   5.042  2.7752  0.0291  2.3905
 1684SOL    HW216686   3.726   1.088   4.903 -1.5796  0.6213  1.8714
 1685SOL     OW16687   3.465   1.080   4.256 -0.4963 -0.0414  0.0107
 1685SOL    HW116688   3.488   1.061   4.165  0.6298 -1.2802  0.5504
 1685SOL    HW216689   3.484   0.996   4.299 -1.6022  0.3560  1.2447
 1686SOL     OW16690   2.334   4.422   5.994  0.1214  0.1067  0.1124
 1686SOL    HW116691   2.261   4.484   5.991  0.0791  0.2327  3.9036
 1686SOL    HW216692   2.337   4.405   6.088 -0.5808 -0.9834 -0.0613
 1687SOL     OW16693   1.162   1.558   3.213 -0.2931 -0.6503  0.1626
 1687SOL    HW116694   1.117   1.596   3.137  0.6976 -0.3986 -0.2935
 1687SOL    HW216695   1.245   1.604   3.206 -1.3805  1.1262 -1.0652
 1688SOL     OW16696   4.684   0.129   1.901  0.1485 -0.8547  0.5588
 1688SOL    HW116697   4.732   0.203   1.864 -0.8188 -0.0655  0.9070
 1688SOL    HW216698   4.621   0.184   1.947  2.0432  0.5337  1.5016
 1689SOL     OW16699   3.836   3.855   4.478  0.2615  0.3086  0.3712
 1689SOL    HW116700   3.752   3.847   4.523  0.7391  2.3569  1.6156
 1689SOL    HW216701   3.805   3.860   4.388 -0.2250  1.0892  0.5819
 1690SOL     OW16702   2.114   0.820   8.847 -0.0899  0.9384 -0.2763
 1690SOL    HW116703   2.198   0.867   8.845 -0.9836  2.4709 -2.3839
 1690SOL    HW216704   2.135   0.747   8.905 -0.8853  0.6262 -0.3887
 1691SOL     OW16705   2.722   1.391  13.686  0.4007 -0.2381 -0.0988
 1691SOL    HW116706   2.634   1.361  13.708  0.3777  0.6918  1.0778
 1691SOL    HW216707   2.739   1.441  13.766  1.3063 -0.6325 -0.0505
 1692SOL     OW16708   3.702   2.676   6.965 -0.2478  0.2634 -0.0897
 1692SOL    HW116709   3.764   2.612   6.930 -0.1039 -1.5316  3.4021
 1692SOL    HW216710   3.731   2.749   6.910 -1.0194 -0.2036 -1.1034
 1693SOL     OW16711   4.243   2.714   1.483  0.4973 -0.0034  0.1519
 1693SOL    HW116712   4.278   2.755   1.404 -0.6992 -2.2512 -1.5421
 1693SOL    HW216713   4.201   2.792   1.522  0.0171  0.3503 -1.0777
 1694SOL     OW16714   4.565   4.385   2.064  0.0538  0.9128 -0.4930
 1694SOL    HW116715   4.522   4.379   1.979 -0.9680 -1.0712  0.1667
 1694SOL    HW216716   4.613   4.467   2.060 -0.2174  1.2809  3.6706
 1695SOL     OW16717   4.237   1.610   6.344 -0.1893  0.0124  0.1474
 1695SOL    HW116718   4.214   1.519   6.365 -1.5127  0.1806 -0.5465
 1695SOL    HW216719   4.275   1.639   6.427  0.7391 -1.7760  0.3427
 1696SOL     OW16720   0.042   3.382   3.785  0.4694  0.2015 -0.5554
 1696SOL    HW116721   4.712   3.372   3.724  0.5280 -1.3143 -0.3792
 1696SOL    HW216722   0.071   3.460   3.738  0.2776 -0.9153 -2.4874
 1697SOL     OW16723   4.356   3.624   9.635 -0.3690 -0.1403  0.6227
 1697SOL    HW116724   4.322   3.554   9.580 -0.6407  1.6358 -1.5107
 1697SOL    HW216725   4.287   3.692   9.632  0.8628  1.1014  0.2856
 1698SOL     OW16726   1.828   4.018   3.277  0.4008 -0.1852 -0.3415
 1698SOL    HW116727   1.739   4.045   3.255  0.5352  0.1852 -0.4274
 1698SOL    HW216728   1.811   3.924   3.286  2.1146 -0.6178 -1.5112
 1699SOL     OW16729   4.042   4.299   4.944  0.5168  0.2927  0.7692
 1699SOL    HW116730   4.080   4.387   4.946  1.9741 -0.3555  2.2025
 1699SOL    HW216731   4.057   4.268   4.855 -2.6383 -0.3621  0.4720
 1700SOL     OW16732   0.705   2.841  15.622 -0.0965 -0.1577 -0.0165
 1700SOL    HW116733   0.779   2.824  15.681  0.4218 -3.1911 -1.5460
 1700SOL    HW216734   0.655   2.765  15.652 -1.0393  1.2559  2.0255
 1701SOL     OW16735   4.303   4.497   6.439 -0.5051 -0.4687  0.5664
 1701SOL    HW116736   4.324   4.571   6.382  0.7423 -0.0489  1.5690
 1701SOL    HW216737   4.317   4.422   6.382  0.8647  1.3121 -1.4082
 1702SOL     OW16738   0.419   4.660   2.976 -0.1420  0.3856 -0.1475
 1702SOL    HW116739   0.401   4.651   2.882  1.3198 -2.0201 -0.2002
 1702SOL    HW216740   0.350   4.609   3.018 -0.2684  1.9086  1.4865
 1703SOL     OW16741   2.200   1.313   5.960  0.1506  0.0055  0.2195
 1703SOL    HW116742   2.236   1.347   5.878  0.7228 -1.2043 -0.0442
 1703SOL    HW216743   2.279   1.292   6.011  1.0094 -0.3277 -1.2250
 1704SOL     OW16744   0.779   0.569  14.195  0.2902  0.5258  0.3485
 1704SOL    HW116745   0.777   0.522  14.112  1.0814  0.2496  0.4880
 1704SOL    HW216746   0.807   0.503  14.258 -0.8170  0.4997  0.8271
 1705SOL     OW16747   0.830   0.611   4.043  0.3112  0.1178 -0.7751
 1705SOL    HW116748   0.848   0.676   3.975 -1.6343  0.9630 -0.4826
 1705SOL    HW216749   0.857   0.528   4.004 -1.3849 -0.0705 -1.5747
 1706SOL     OW16750   2.120   0.038   6.620  0.3265 -0.4412  0.3337
 1706SOL    HW116751   2.067   0.004   6.693  0.0118 -0.4026  0.1241
 1706SOL    HW216752   2.160   4.703   6.582 -1.2548 -0.9318 -0.3259
 1707SOL     OW16753   1.018   2.450  12.125  0.1455  0.0941 -0.3878
 1707SOL    HW116754   0.972   2.366  12.116 -0.1507  0.4094 -1.9119
 1707SOL    HW216755   1.089   2.429  12.064 -0.2110  3.6049 -2.0297
 1708SOL     OW16756   0.378   0.827  16.405 -0.3359 -0.8342  0.0274
 1708SOL    HW116757   0.353   0.814  16.314 -1.1635  3.1738 -0.2944
 1708SOL    HW216758   0.468   0.860  16.403 -0.5461 -0.2609  0.0717
 1709SOL     OW16759   1.621   3.365  13.285  0.4780 -0.4914 -0.4092
 1709SOL    HW116760   1.660   3.446  13.319  1.6690 -1.4468  0.5322
 1709SOL    HW216761   1.558   3.406  13.226  1.3436  0.0768 -0.9384
 1710SOL     OW16762   0.930   0.337   7.685 -0.3507 -0.4718 -0.5909
 1710SOL    HW116763   0.956   0.361   7.596  1.6570 -3.3282 -0.7741
 1710SOL    HW216764   0.981   0.256   7.689 -0.9398 -0.8939 -1.6470
 1711SOL     OW16765   2.600   4.741   9.324 -0.0929  0.5360 -0.0552
 1711SOL    HW116766   2.589   4.668   9.263  0.6549  1.6641 -1.5420
 1711SOL    HW216767   2.677   4.714   9.375 -2.3317 -1.7231  2.1768
 1712SOL     OW16768   3.106   1.901   7.550  0.3692 -0.3339 -0.1864
 1712SOL    HW116769   3.022   1.857   7.539  0.1474  0.2019 -0.6504
 1712SOL    HW216770   3.075   1.973   7.604 -1.1507  0.0949 -1.6329
 1713SOL     OW16771   3.577   1.370   3.275 -0.2441  0.6697 -0.5221
 1713SOL    HW116772   3.654   1.369   3.331  0.5486  1.0340 -1.5925
 1713SOL    HW216773   3.553   1.278   3.273 -0.0045  0.6146 -0.7308
 1714SOL     OW16774   3.250   2.516   5.431  0.0381  0.2114  0.3546
 1714SOL    HW116775   3.250   2.603   5.470 -1.3897  0.8158 -0.9577
 1714SOL    HW216776   3.184   2.472   5.485 -0.4367 -0.5933 -0.8573
 1715SOL     OW16777   1.484   2.520   1.931 -0.0062 -0.0786  0.2260
 1715SOL    HW116778   1.510   2.518   1.839 -1.0349 -1.7332 -0.0273
 1715SOL    HW216779   1.475   2.426   1.944 -0.5352  0.0700  0.9219
 1716SOL     OW16780   0.336   1.079   1.335 -0.3934 -0.0438 -0.1579
 1716SOL    HW116781   0.407   1.075   1.272  0.7707 -1.7311  1.2500
 1716SOL    HW216782   0.375   1.008   1.387 -0.1165  1.4117  1.6085
 1717SOL     OW16783   0.846   1.847   0.690 -0.5542  0.4191  0.2087
 1717SOL    HW116784   0.882   1.822   0.605 -1.8045  1.1720 -0.5428
 1717SOL    HW216785   0.920   1.856   0.750  1.3806  0.6209 -2.1894
 1718SOL     OW16786   0.779   1.369  10.333 -0.1574 -0.0163  0.0130
 1718SOL    HW116787   0.837   1.330  10.267 -1.7072  1.8864 -2.4585
 1718SOL    HW216788   0.843   1.383  10.403 -2.2178 -1.1891  2.1394
 1719SOL     OW16789   2.931   4.445  11.826 -0.5285  0.2518 -0.2254
 1719SOL    HW116790   2.873   4.431  11.752 -1.4092 -0.4372  0.5915
 1719SOL    HW216791   2.928   4.540  11.840 -0.6245  0.0440  1.2460
 1720SOL     OW16792   3.441   2.271  15.421 -0.6288  0.6969 -0.0945
 1720SOL    HW116793   3.355   2.292  15.459 -1.4920 -0.3017 -1.4978
 1720SOL    HW216794   3.454   2.185  15.462  0.5294  1.2476  0.6706
 1721SOL     OW16795   0.729   3.758   2.183 -0.1898  0.4484  0.1106
 1721SOL    HW116796   0.665   3.765   2.112 -0.1564  0.6542  0.1017
 1721SOL    HW216797   0.671   3.765   2.258 -0.8716  1.3811 -0.5017
 1722SOL     OW16798   4.166   0.809   3.373  0.6553 -0.0784  1.1533
 1722SOL    HW116799   4.212   0.807   3.289  0.1380  1.4844  0.8257
 1722SOL    HW216800   4.177   0.901   3.396  0.8189 -0.0279  0.8784
 1723SOL     OW16801   3.437   3.509   8.090 -0.1046 -0.4423 -0.7781
 1723SOL    HW116802   3.393   3.550   8.165  3.1599  2.3508 -0.3890
 1723SOL    HW216803   3.533   3.509   8.100  0.0011  2.7808 -1.8564
 1724SOL     OW16804   4.036   0.836   2.013 -0.1428  0.1785  0.9072
 1724SOL    HW116805   3.996   0.815   2.097  1.5103  0.4698  1.7709
 1724SOL    HW216806   3.972   0.899   1.980 -0.5971 -1.5709 -1.6244
 1725SOL     OW16807   1.936   2.086   9.716 -0.0641 -0.4044  0.3763
 1725SOL    HW116808   1.877   2.027   9.762 -1.0671  0.9320  0.8223
 1725SOL    HW216809   1.893   2.170   9.732  0.4986 -0.1097  0.3373
 1726SOL     OW16810   0.747   1.593   4.251 -0.0970 -0.1836 -0.1142
 1726SOL    HW116811   0.801   1.650   4.306  0.9600  0.0735 -1.3982
 1726SOL    HW216812   0.779   1.611   4.162  1.6950  1.7890  0.9212
 1727SOL     OW16813   3.085   3.829   4.501  0.1515 -0.5054  0.6162
 1727SOL    HW116814   3.092   3.769   4.426 -0.6297  0.5632 -0.3139
 1727SOL    HW216815   3.068   3.768   4.573  1.4057 -1.3515  0.2078
 1728SOL     OW16816   3.952   0.665  11.524 -0.2431  0.6023 -0.6249
 1728SOL    HW116817   3.989   0.722  11.592 -1.6827  1.4533 -0.5385
 1728SOL    HW216818   3.943   0.729  11.453 -2.4046  0.7707 -0.2170
 1729SOL     OW16819   0.913   4.280   9.849  0.6434  0.3190 -0.5267
 1729SOL    HW116820   0.855   4.336   9.797 -2.0491 -1.9204  0.0135
 1729SOL    HW216821   0.991   4.335   9.855 -0.0526  1.5789 -2.9143
 1730SOL     OW16822   3.099   2.540  16.714 -0.0891 -0.1816 -0.3232
 1730SOL    HW116823   3.106   2.448  16.686  0.4209 -0.6658  1.3913
 1730SOL    HW216824   3.189   2.574  16.714 -0.4494  0.7423  1.5256
 1731SOL     OW16825   3.776   0.786   4.470 -0.4435 -0.2046 -0.1077
 1731SOL    HW116826   3.700   0.840   4.493 -0.4180 -0.4447  0.5565
 1731SOL    HW216827   3.858   0.835   4.480 -1.6184  2.1855 -2.3364
 1732SOL     OW16828   1.714   0.903   4.788  0.2884 -0.2674  0.1935
 1732SOL    HW116829   1.684   0.868   4.872  3.1020 -2.7513  0.1634
 1732SOL    HW216830   1.789   0.844   4.776  0.3696  0.3440 -2.2010
 1733SOL     OW16831   4.660   2.713   2.489 -0.1799  0.0458 -0.1788
 1733SOL    HW116832   0.004   2.745   2.507 -0.0197 -1.7045  2.1182
 1733SOL    HW216833   4.665   2.681   2.398 -2.4337  2.4214 -1.1283
 1734SOL     OW16834   0.696   2.507   9.661 -0.0686 -0.0030 -0.1511
 1734SOL    HW116835   0.670   2.532   9.750  0.9101 -0.4792  0.2586
 1734SOL    HW216836   0.714   2.595   9.626  0.7750 -0.8927 -1.9625
 1735SOL     OW16837   3.237   1.261   3.178  0.2162  0.1661  0.0714
 1735SOL    HW116838   3.275   1.266   3.090 -0.0428  0.9532  0.0004
 1735SOL    HW216839   3.310   1.212   3.214  0.5767  0.2545 -0.5310
 1736SOL     OW16840   3.551   1.738   3.445 -0.2493  0.9406 -0.2123
 1736SOL    HW116841   3.590   1.802   3.504  1.8949  0.7437 -1.4178
 1736SOL    HW216842   3.562   1.661   3.501 -0.9598 -0.4398 -1.9567
 1737SOL     OW16843   0.295   2.830  17.655  0.4806 -0.1614 -0.2248
 1737SOL    HW116844   0.296   2.760  17.590 -2.0183 -0.1100 -0.3186
 1737SOL    HW216845   0.314   2.907  17.601  1.8149  1.3717  2.4398
 1738SOL     OW16846   4.339   3.202   5.909  0.5676  0.2101  0.3787
 1738SOL    HW116847   4.417   3.183   5.856  1.5192 -0.0055  1.8698
 1738SOL    HW216848   4.271   3.169   5.849  0.6869  0.8519 -0.1051
 1739SOL     OW16849   3.823   0.735   9.000 -0.4812 -0.0835 -0.0273
 1739SOL    HW116850   3.777   0.670   9.052  1.5573 -0.2554  1.5793
 1739SOL    HW216851   3.830   0.689   8.917 -2.4769 -1.0755  0.3684
 1740SOL     OW16852   0.068   4.500   8.717 -0.1618 -0.0100  0.5970
 1740SOL    HW116853   0.087   4.458   8.801 -0.9783  0.4326  1.0031
 1740SOL    HW216854   0.144   4.555   8.700 -0.9097  1.3662  1.7467
 1741SOL     OW16855   1.744   2.375   8.750  0.4020 -0.0424  0.2933
 1741SOL    HW116856   1.793   2.303   8.711 -2.7290 -2.0163  0.0516
 1741SOL    HW216857   1.688   2.320   8.805  1.5513 -0.9985  0.5023
 1742SOL     OW16858   1.690   3.605  13.002  0.0353 -0.1339  0.8539
 1742SOL    HW116859   1.622   3.610  13.070 -0.6636 -0.1752  0.1580
 1742SOL    HW216860   1.696   3.700  12.991 -0.1351 -0.2925 -0.5757
 1743SOL     OW16861   1.808   1.005   3.392 -0.0555  0.0542 -0.1569
 1743SOL    HW116862   1.726   0.973   3.354 -0.4501 -1.2959  1.8438
 1743SOL    HW216863   1.876   0.943   3.367  0.2705  0.5171 -0.4256
 1744SOL     OW16864   3.199   0.254   9.497 -0.1093 -0.1779 -0.4881
 1744SOL    HW116865   3.127   0.200   9.529  0.3031  0.2318  1.1428
 1744SOL    HW216866   3.156   0.339   9.507  0.8724  0.4715 -1.8199
 1745SOL     OW16867   0.323   2.140  10.531 -0.0750 -0.4706  0.1713
 1745SOL    HW116868   0.328   2.107  10.441 -0.5006 -0.1098  0.0156
 1745SOL    HW216869   0.287   2.227  10.515  0.2142 -0.5655 -1.0770
 1746SOL     OW16870   1.977   3.271  11.858  0.1468  0.1975 -0.6146
 1746SOL    HW116871   1.980   3.252  11.951 -0.4720 -2.8651 -1.2309
 1746SOL    HW216872   1.922   3.204  11.819 -0.9366 -0.4517  2.0417
 1747SOL     OW16873   1.299   1.204   6.881 -0.4571  0.4601  0.0983
 1747SOL    HW116874   1.268   1.294   6.873  1.4546  1.0607 -0.4955
 1747SOL    HW216875   1.284   1.181   6.789 -1.2267 -0.0707  0.3508
 1748SOL     OW16876   0.897   3.639   6.150 -0.0825 -0.1984  0.2971
 1748SOL    HW116877   0.983   3.601   6.169  0.6896  2.3703  2.0713
 1748SOL    HW216878   0.840   3.563   6.146  0.8080 -0.7934 -1.3207
 1749SOL     OW16879   3.095   3.045   3.242 -0.2593 -0.0298 -0.3486
 1749SOL    HW116880   3.101   2.996   3.324  2.1752  1.0564  0.1054
 1749SOL    HW216881   3.012   3.091   3.260  0.0259  0.5542 -0.5348
 1750SOL     OW16882   2.742   0.346   7.095 -0.2799 -0.2477  0.6513
 1750SOL    HW116883   2.743   0.251   7.102 -1.1425 -0.3032 -0.0429
 1750SOL    HW216884   2.829   0.357   7.058 -0.2448 -1.4582  0.3750
 1751SOL     OW16885   3.615   3.446   9.105  0.2073 -0.2592 -0.0695
 1751SOL    HW116886   3.548   3.381   9.085 -1.0088  0.4928  1.5913
 1751SOL    HW216887   3.691   3.391   9.087  0.9977  0.0520  2.2670
 1752SOL     OW16888   3.306   3.689   0.772 -0.2988 -0.0151  0.2384
 1752SOL    HW116889   3.300   3.684   0.868 -0.4920 -0.2860  0.2125
 1752SOL    HW216890   3.212   3.673   0.759 -0.0632 -0.1647 -1.1993
 1753SOL     OW16891   4.189   3.556   4.781 -0.1850  0.3961  0.0514
 1753SOL    HW116892   4.099   3.589   4.775 -0.3676 -0.3246 -1.1999
 1753SOL    HW216893   4.169   3.478   4.833  0.1201  0.1810 -0.1530
 1754SOL     OW16894   2.443   1.842   1.067  0.5302  0.6557  0.5666
 1754SOL    HW116895   2.387   1.916   1.045 -1.2615 -0.1845  2.2415
 1754SOL    HW216896   2.528   1.883   1.081 -0.1972  1.7972  1.6021
 1755SOL     OW16897   4.459   2.732   5.134  0.4964  0.2494 -0.0743
 1755SOL    HW116898   4.538   2.776   5.105 -0.1568  2.3997  1.3565
 1755SOL    HW216899   4.429   2.797   5.198 -0.4243 -0.8288  0.6019
 1756SOL     OW16900   0.536   3.385   7.456  0.4357 -0.6477  0.0902
 1756SOL    HW116901   0.613   3.430   7.491  0.2754 -1.4438  1.4538
 1756SOL    HW216902   0.517   3.426   7.371 -0.4490  1.0026  1.0791
 1757SOL     OW16903   0.882   2.544   1.364 -0.0623 -0.3991  0.1764
 1757SOL    HW116904   0.879   2.478   1.294  1.4963  0.7652 -0.9843
 1757SOL    HW216905   0.800   2.587   1.340  0.5219  0.7537  0.2816
 1758SOL     OW16906   2.546   1.762   1.391 -0.4295 -0.4606  0.3714
 1758SOL    HW116907   2.548   1.858   1.383  1.2313 -0.7697 -2.8071
 1758SOL    HW216908   2.637   1.738   1.374 -1.3473 -3.6661  0.0609
 1759SOL     OW16909   0.516   1.837   3.769 -0.3917  0.9304 -0.4053
 1759SOL    HW116910   0.468   1.812   3.690 -0.0412 -0.3016 -0.2311
 1759SOL    HW216911   0.511   1.754   3.817  1.1412  0.2946 -1.3786
 1760SOL     OW16912   0.163   2.584   1.399  0.0788 -0.7657 -0.0789
 1760SOL    HW116913   0.085   2.600   1.452  1.1750 -0.3701  1.4077
 1760SOL    HW216914   0.182   2.490   1.399  1.1179 -0.5567 -1.3918
 1761SOL     OW16915   1.818   4.058  10.740 -0.1235  0.1812 -0.3105
 1761SOL    HW116916   1.799   4.150  10.721 -0.5344  0.0445 -0.5642
 1761SOL    HW216917   1.911   4.066  10.759 -0.1347  0.1002 -0.2207
 1762SOL     OW16918   1.794   3.431   4.616 -0.1863 -0.0314 -0.2882
 1762SOL    HW116919   1.793   3.350   4.666 -0.8592  0.4961  0.5430
 1762SOL    HW216920   1.796   3.495   4.687 -3.7284 -0.3830  0.0994
 1763SOL     OW16921   4.033   2.501   2.156  0.1634  0.3930  0.2239
 1763SOL    HW116922   4.060   2.475   2.068  0.3849 -1.4416  0.8416
 1763SOL    HW216923   4.106   2.562   2.167  1.2684 -1.3724  2.7411
 1764SOL     OW16924   4.103   3.040  10.870  0.2418  0.2533 -0.0093
 1764SOL    HW116925   4.156   3.060  10.947 -3.2661  0.7998  2.2574
 1764SOL    HW216926   4.012   3.045  10.897  0.0543  0.1680 -0.6311
 1765SOL     OW16927   2.124   0.696  13.886 -0.2099  0.2380  0.1759
 1765SOL    HW116928   2.032   0.694  13.914 -0.0997 -1.7798  0.4249
 1765SOL    HW216929   2.127   0.619  13.829  0.5946  1.7641 -1.8271
 1766SOL     OW16930   3.452   0.238  10.016 -0.0255 -0.1638 -0.0571
 1766SOL    HW116931   3.460   0.323  10.060  0.7258  0.1271 -0.7556
 1766SOL    HW216932   3.449   0.273   9.927  0.7761  1.6337  0.6192
 1767SOL     OW16933   3.868   3.929   5.447  0.7548  0.2979  0.1744
 1767SOL    HW116934   3.828   3.978   5.519 -0.6425  1.1587 -1.2048
 1767SOL    HW216935   3.807   3.856   5.441 -0.1079  0.8517  2.2230
 1768SOL     OW16936   3.205   3.097   5.451 -0.7152  0.5489  1.2918
 1768SOL    HW116937   3.210   3.065   5.361 -0.7738  1.8583  0.8242
 1768SOL    HW216938   3.297   3.090   5.474 -0.2478  1.2210 -0.3363
 1769SOL     OW16939   3.082   1.000   3.325 -0.1509 -0.0403 -0.1613
 1769SOL    HW116940   3.127   1.024   3.245 -0.6595 -1.1159 -0.7631
 1769SOL    HW216941   2.993   0.995   3.291  0.7064 -1.4916 -2.1641
 1770SOL     OW16942   3.413   2.469   7.437 -0.3613  0.1775  0.3944
 1770SOL    HW116943   3.445   2.510   7.517  0.8701  0.9926 -0.5070
 1770SOL    HW216944   3.494   2.471   7.386 -1.1577 -0.2985 -0.8899
 1771SOL     OW16945   0.206   3.439  12.976 -0.0880  0.5845  0.0483
 1771SOL    HW116946   0.151   3.463  12.901 -1.0702  2.2275  1.2947
 1771SOL    HW216947   0.163   3.497  13.038  2.4283 -0.6164  2.9004
 1772SOL     OW16948   1.285   2.304   1.505 -0.3289 -0.0483 -0.6110
 1772SOL    HW116949   1.210   2.298   1.565 -0.6963  2.4637 -0.8187
 1772SOL    HW216950   1.242   2.297   1.420 -0.9367  1.1703 -0.3949
 1773SOL     OW16951   4.006   1.293   7.601 -0.3195 -0.4697 -0.1433
 1773SOL    HW116952   3.919   1.262   7.575 -1.3903  2.1826  0.2542
 1773SOL    HW216953   4.004   1.273   7.694  2.2273 -1.1805 -0.2566
 1774SOL     OW16954   1.567   4.438  13.405  0.4597 -0.1694  0.0876
 1774SOL    HW116955   1.656   4.404  13.401  0.6225  0.3863 -0.8881
 1774SOL    HW216956   1.519   4.368  13.449  0.5948 -0.0897  0.3606
 1775SOL     OW16957   0.124   3.969  16.560  0.2222 -0.8471  0.3093
 1775SOL    HW116958   0.038   3.963  16.602  1.2195  0.9280  2.5854
 1775SOL    HW216959   0.180   3.996  16.633 -0.7716  0.7001  0.4955
 1776SOL     OW16960   1.710   1.072  16.605  0.0404 -0.6053  0.1622
 1776SOL    HW116961   1.755   1.010  16.662 -0.1352 -0.2055  0.7296
 1776SOL    HW216962   1.686   1.023  16.526  0.6141 -1.0796  0.2857
 1777SOL     OW16963   2.435   2.367   2.339 -0.0996  0.3619  0.5775
 1777SOL    HW116964   2.348   2.339   2.366  0.2060  1.3602  2.6260
 1777SOL    HW216965   2.478   2.291   2.377  0.0799  0.0430 -0.2738
 1778SOL     OW16966   1.107   3.923  10.863 -0.5444 -0.0569  0.6064
 1778SOL    HW116967   1.182   3.932  10.922 -0.1587  1.0023 -0.0413
 1778SOL    HW216968   1.055   4.003  10.870 -0.3196  0.1286  0.1816
 1779SOL     OW16969   0.695   2.682   7.027 -0.7063  0.1596  0.2787
 1779SOL    HW116970   0.779   2.638   7.016  0.8079  3.0435  0.4622
 1779SOL    HW216971   0.693   2.729   6.944  2.1506 -0.6604 -0.2549
 1780SOL     OW16972   4.366   1.356   7.065  0.1724  1.0236  0.2024
 1780SOL    HW116973   4.307   1.423   7.097  1.5692  2.8452 -1.0001
 1780SOL    HW216974   4.326   1.325   6.984  1.0239 -0.6166  0.3961
 1781SOL     OW16975   1.506   3.907   7.119 -0.3350 -0.0495  0.6458
 1781SOL    HW116976   1.532   3.877   7.032  1.0197 -0.7982  1.3083
 1781SOL    HW216977   1.566   3.854   7.172  1.0687  1.1622  0.2613
 1782SOL     OW16978   2.968   0.727   5.129  0.0994  0.0272 -0.0207
 1782SOL    HW116979   2.965   0.823   5.122  0.1216 -0.0517 -1.1615
 1782SOL    HW216980   2.878   0.697   5.141 -0.4644  1.3918 -0.8009
 1783SOL     OW16981   0.175   0.277   3.717  0.4058  0.3462  0.1214
 1783SOL    HW116982   0.222   0.357   3.741  0.3102 -0.0271  1.5842
 1783SOL    HW216983   0.100   0.315   3.671 -0.8004 -1.5682  0.4932
 1784SOL     OW16984   1.192   1.129  10.413  0.2703  0.3179  0.1403
 1784SOL    HW116985   1.186   1.034  10.404  2.3630  0.1574  0.5629
 1784SOL    HW216986   1.138   1.151  10.337 -0.6826 -2.4367  0.0043
 1785SOL     OW16987   1.705   0.114  16.391 -0.7845  0.1374 -0.0535
 1785SOL    HW116988   1.690   0.132  16.484 -1.0361  2.0104 -0.4642
 1785SOL    HW216989   1.721   0.203  16.360 -2.1762  0.1976 -0.5793
 1786SOL     OW16990   4.249   0.878   5.842  0.2774 -0.2931 -0.1413
 1786SOL    HW116991   4.237   0.899   5.749 -2.6228 -2.3040 -0.1971
 1786SOL    HW216992   4.266   0.962   5.885  2.4286 -0.6515 -0.2705
 1787SOL     OW16993   1.290   3.880   7.860  0.2048 -0.4835 -0.7074
 1787SOL    HW116994   1.291   3.822   7.936  3.2469 -0.4578 -0.7278
 1787SOL    HW216995   1.332   3.821   7.798 -0.6452 -1.6847 -0.1323
 1788SOL     OW16996   0.876   3.466   3.643 -0.5082 -0.5178  0.3408
 1788SOL    HW116997   0.898   3.425   3.560  1.0620 -0.6220  0.8188
 1788SOL    HW216998   0.799   3.418   3.674 -1.7268  0.5707 -0.9345
 1789SOL     OW16999   4.210   1.673   7.666 -0.4079 -0.2667  0.5755
 1789SOL    HW117000   4.263   1.670   7.746  0.6492 -1.6389 -0.1852
 1789SOL    HW217001   4.179   1.764   7.672  0.3368  0.0289 -0.0264
 1790SOL     OW17002   4.656   2.253   2.379  0.3231  0.2657  0.4036
 1790SOL    HW117003   4.581   2.292   2.335 -0.3032  0.7031  1.8487
 1790SOL    HW217004   4.629   2.161   2.376 -1.0174  0.6907 -0.4103
 1791SOL     OW17005   4.589   0.568  11.686  0.3120 -0.6294 -0.5308
 1791SOL    HW117006   4.635   0.615  11.756 -1.4599 -0.8625  0.7911
 1791SOL    HW217007   4.613   0.475  11.684 -0.4574 -0.8207 -0.7574
 1792SOL     OW17008   2.445   3.084   3.002  0.4759  0.1497  0.2126
 1792SOL    HW117009   2.461   3.000   2.960 -0.6292  0.7214 -1.3508
 1792SOL    HW217010   2.415   3.137   2.929 -1.3642  0.5804  1.2733
 1793SOL     OW17011   3.797   3.556   4.335 -0.3505  0.3265  0.1240
 1793SOL    HW117012   3.780   3.636   4.285 -1.4213 -0.9076 -1.4812
 1793SOL    HW217013   3.892   3.555   4.350 -0.3530 -0.6898  0.0693
 1794SOL     OW17014   2.618   4.719   4.089 -0.2290  0.0998 -0.9579
 1794SOL    HW117015   2.585   4.632   4.111 -2.2638  0.8235 -1.1687
 1794SOL    HW217016   2.658   4.695   4.006 -1.4239 -0.5455 -1.3383
 1795SOL     OW17017   4.167   4.045   5.173  0.1563  0.0722  0.3558
 1795SOL    HW117018   4.226   4.037   5.097 -0.3045 -2.1062  0.2469
 1795SOL    HW217019   4.226   4.073   5.243  1.7818 -2.3953 -0.0516
 1796SOL     OW17020   2.908   4.712   5.839 -0.2314 -0.1852 -0.3726
 1796SOL    HW117021   2.998   4.733   5.813 -0.1164  1.3497  1.2954
 1796SOL    HW217022   2.867   0.044   5.798 -1.8435 -0.6764  0.3060
 1797SOL     OW17023   2.883   0.847  14.294 -0.0540  0.0084  0.1229
 1797SOL    HW117024   2.791   0.873  14.283 -0.5364 -1.8551 -0.1780
 1797SOL    HW217025   2.924   0.847  14.208  2.7744 -1.3959  1.4722
 1798SOL     OW17026   3.956   1.310  10.849  0.6147  0.1671 -0.5975
 1798SOL    HW117027   3.884   1.256  10.817  0.4522  1.0834 -1.7769
 1798SOL    HW217028   4.001   1.328  10.766  0.1353  1.0617 -0.6583
 1799SOL     OW17029   2.306   2.356  12.387  0.3941 -0.3131 -0.1403
 1799SOL    HW117030   2.227   2.377  12.337  0.3349 -0.4850 -0.1188
 1799SOL    HW217031   2.368   2.344  12.316  0.2718 -0.2820 -0.2529
 1800SOL     OW17032   2.453   1.364   0.713 -0.9085 -0.1486 -0.1846
 1800SOL    HW117033   2.538   1.349   0.672  0.0994 -0.1354  1.8865
 1800SOL    HW217034   2.453   1.460   0.711  2.6173 -0.1683 -1.8637
 1801SOL     OW17035   1.465   2.803   6.458  0.1294 -0.3394 -0.0454
 1801SOL    HW117036   1.532   2.859   6.419 -0.5075  1.0150  0.8098
 1801SOL    HW217037   1.499   2.715   6.442  1.7625  0.8934 -3.3223
 1802SOL     OW17038   1.548   0.619  11.195 -0.7133  0.2078  0.5536
 1802SOL    HW117039   1.619   0.569  11.156 -1.6191 -1.8824  1.5875
 1802SOL    HW217040   1.610   0.687  11.222  0.6825 -1.1863  0.7937
 1803SOL     OW17041   2.157   0.074  11.456  0.3235  0.0216  0.5753
 1803SOL    HW117042   2.238   0.109  11.492  0.7188 -0.4898  0.1714
 1803SOL    HW217043   2.099   0.051  11.528  0.6014  1.7280  1.3391
 1804SOL     OW17044   3.046   4.570  13.354 -0.1948  0.3484  0.5538
 1804SOL    HW117045   2.965   4.620  13.365  0.0006  0.7790  0.0519
 1804SOL    HW217046   3.108   4.631  13.392 -0.8462  1.6647 -0.4783
 1805SOL     OW17047   0.191   2.445  17.227 -0.1714 -0.4437  0.2458
 1805SOL    HW117048   0.171   2.352  17.230  1.0106 -0.6396  2.0918
 1805SOL    HW217049   0.165   2.484  17.144 -0.2960 -2.2055 -0.5412
 1806SOL     OW17050   1.627   3.936   2.239 -0.0490 -0.4156 -0.3083
 1806SOL    HW117051   1.532   3.941   2.249  0.0183  2.3111 -0.8505
 1806SOL    HW217052   1.653   4.023   2.271  1.1598 -1.0577  0.4223
 1807SOL     OW17053   3.907   2.344   1.088 -0.3280 -0.0288 -0.5611
 1807SOL    HW117054   3.903   2.252   1.061 -1.2849 -0.7586  2.1153
 1807SOL    HW217055   3.816   2.373   1.085  0.0447  1.4256  2.3085
 1808SOL     OW17056   0.112   2.077   6.402 -0.1710  0.2530 -0.1961
 1808SOL    HW117057   0.109   2.012   6.332  0.5765 -2.2821  2.1544
 1808SOL    HW217058   0.044   2.034   6.454  0.4326 -0.7056 -0.1990
 1809SOL     OW17059   0.361   2.693   9.104  0.1026  0.1221  0.1713
 1809SOL    HW117060   0.409   2.725   9.028  2.1098 -3.3031 -0.0087
 1809SOL    HW217061   0.347   2.774   9.153  1.5129  0.0936  0.6212
 1810SOL     OW17062   4.091   0.047  10.095 -0.3322  0.2252  0.4637
 1810SOL    HW117063   4.170   0.088  10.059 -1.3554  1.5951 -0.2156
 1810SOL    HW217064   4.080   0.102  10.173 -0.5167  0.9665 -0.0790
 1811SOL     OW17065   1.242   1.786   0.268  0.4666 -0.3920  0.1530
 1811SOL    HW117066   1.332   1.810   0.290  0.4362 -1.1723  1.1137
 1811SOL    HW217067   1.215   1.855   0.206 -0.8716 -0.6429  0.4474
 1812SOL     OW17068   4.386   2.471   5.203  0.3596  0.1951  0.4736
 1812SOL    HW117069   4.449   2.487   5.273  1.2021 -2.7012  0.4009
 1812SOL    HW217070   4.389   2.562   5.173 -1.5948  0.0369 -0.1994
 1813SOL     OW17071   2.199   2.574   8.992  0.3219 -0.3803 -0.1441
 1813SOL    HW117072   2.211   2.604   8.902  2.4842  0.8721  0.5890
 1813SOL    HW217073   2.140   2.641   9.026 -3.6534 -1.7380 -4.2538
 1814SOL     OW17074   1.073   0.538   9.711  0.5085 -0.4725 -0.3782
 1814SOL    HW117075   1.111   0.598   9.775  1.1160  1.7913 -2.8855
 1814SOL    HW217076   1.117   0.555   9.628 -2.1740  2.1485 -1.2968
 1815SOL     OW17077   3.063   2.479   1.255 -0.0269  0.4246  0.0125
 1815SOL    HW117078   3.017   2.551   1.296 -1.9922 -0.4200 -0.7232
 1815SOL    HW217079   3.015   2.407   1.296 -1.3472  0.7341 -1.0175
 1816SOL     OW17080   4.574   4.038   8.064 -0.3149 -0.2849 -0.0625
 1816SOL    HW117081   4.483   4.029   8.035 -0.5503  1.0567  0.2632
 1816SOL    HW217082   4.605   3.990   7.987  0.4442 -0.1798  0.1798
 1817SOL     OW17083   2.689   2.254   7.705 -0.3213 -0.1217 -0.4155
 1817SOL    HW117084   2.600   2.234   7.734  0.0001 -0.6570  0.2053
 1817SOL    HW217085   2.690   2.193   7.631  0.1467  1.4801 -1.7400
 1818SOL     OW17086   3.292   2.157   4.766 -0.1020 -0.0856  0.2645
 1818SOL    HW117087   3.222   2.114   4.816  0.0823 -2.1540 -1.2577
 1818SOL    HW217088   3.258   2.242   4.794  0.7934 -0.0365  1.1825
 1819SOL     OW17089   4.166   2.079   4.786 -0.4533 -0.2450 -0.1927
 1819SOL    HW117090   4.228   2.090   4.714 -0.9115  2.2773 -0.2050
 1819SOL    HW217091   4.131   1.994   4.759 -2.1368 -0.0590  1.3532
 1820SOL     OW17092   1.279   2.253   4.541 -0.2704 -0.0628  0.0202
 1820SOL    HW117093   1.241   2.230   4.626 -0.4548 -1.6845 -0.5082
 1820SOL    HW217094   1.328   2.330   4.572  1.9832 -1.5114  0.0167
 1821SOL     OW17095   4.719   0.857   6.019  0.0100 -0.0493 -0.3772
 1821SOL    HW117096   4.646   0.891   5.967  0.3434  0.2808 -0.6298
 1821SOL    HW217097   4.676   0.803   6.086  0.3893 -0.1649 -0.2280
 1822SOL     OW17098   0.164   2.190   2.953 -0.5956  0.0576  0.0609
 1822SOL    HW117099   0.203   2.186   3.040 -2.1865  0.8309  0.8126
 1822SOL    HW217100   0.159   2.285   2.953 -2.3767 -0.0284 -1.4138
 1823SOL     OW17101   2.653   0.423   2.302 -0.4120 -0.1877 -0.1464
 1823SOL    HW117102   2.571   0.440   2.349 -0.3865  1.0973 -0.5501
 1823SOL    HW217103   2.711   0.465   2.366  0.9101  2.1591 -2.8788
 1824SOL     OW17104   4.422   3.073   3.089  0.3429  0.6953 -0.0016
 1824SOL    HW117105   4.454   3.153   3.047  3.2150 -0.1526  0.5886
 1824SOL    HW217106   4.342   3.050   3.043  0.4675 -1.7344  0.9732
 1825SOL     OW17107   0.222   2.085   2.148  0.0584  0.3209  0.3995
 1825SOL    HW117108   0.216   2.179   2.165  0.4273  0.3697  0.2672
 1825SOL    HW217109   0.131   2.061   2.162  0.0431  1.5068  2.3287
 1826SOL     OW17110   4.023   3.886   2.070 -0.1834  0.1133  0.5144
 1826SOL    HW117111   4.015   3.811   2.011  0.5161  0.4750 -0.0479
 1826SOL    HW217112   4.117   3.900   2.063 -0.0935 -0.7205  0.0382
 1827SOL     OW17113   0.047   2.972   7.830 -0.1276  0.0600  0.4021
 1827SOL    HW117114   0.031   3.026   7.753  0.4336  0.0924  0.3100
 1827SOL    HW217115   4.708   2.984   7.877  0.4163  1.2089  1.0697
 1828SOL     OW17116   2.054   1.523  10.024  0.4074  0.5906 -0.4080
 1828SOL    HW117117   2.054   1.590   9.956 -2.0541  1.2831  0.2852
 1828SOL    HW217118   2.051   1.583  10.098  0.1989  1.7220 -1.3305
 1829SOL     OW17119   3.735   1.633   7.349 -0.1867 -0.2508  0.1558
 1829SOL    HW117120   3.802   1.627   7.416 -2.6737 -1.8909  2.5158
 1829SOL    HW217121   3.792   1.586   7.288 -1.5811 -1.9860  0.1790
 1830SOL     OW17122   1.477   0.950  11.280  0.0651  0.0403  0.4934
 1830SOL    HW117123   1.559   0.902  11.290 -1.1701 -1.9390  1.0328
 1830SOL    HW217124   1.451   0.953  11.372  0.9838 -0.1788  0.7661
 1831SOL     OW17125   0.777   3.259   5.360 -0.3599 -0.3578  0.0615
 1831SOL    HW117126   0.689   3.291   5.375 -0.4335 -1.2914  1.6693
 1831SOL    HW217127   0.779   3.184   5.421 -0.3969 -2.3694 -2.4016
 1832SOL     OW17128   3.323   0.799   7.226  0.4340  0.1354  0.3683
 1832SOL    HW117129   3.301   0.727   7.167  0.2047  1.8973 -1.7158
 1832SOL    HW217130   3.293   0.754   7.305 -1.0205 -1.6300 -1.2027
 1833SOL     OW17131   0.713   3.153  12.436  0.2076 -0.5751  0.8892
 1833SOL    HW117132   0.663   3.205  12.374  0.5042 -0.6929  0.5522
 1833SOL    HW217133   0.665   3.146  12.519 -1.4911 -0.3728 -0.0693
 1834SOL     OW17134   0.387   3.965   6.530  0.2509  0.0298  0.9820
 1834SOL    HW117135   0.330   4.042   6.519 -0.1566 -0.0860  2.3055
 1834SOL    HW217136   0.337   3.919   6.597  1.2431 -1.6533  0.5629
 1835SOL     OW17137   0.024   1.387   2.183 -0.2034 -0.4631 -0.1448
 1835SOL    HW117138   4.689   1.382   2.238 -0.4534 -1.6705 -0.6012
 1835SOL    HW217139   0.051   1.479   2.178 -0.6187 -0.4574 -2.3682
 1836SOL     OW17140   4.304   3.574   2.729  0.1066  0.2696  0.3639
 1836SOL    HW117141   4.336   3.660   2.702  0.0370  0.3488  0.5412
 1836SOL    HW217142   4.389   3.530   2.716  0.0894  0.8291 -1.6383
 1837SOL     OW17143   2.343   2.348  17.092 -0.4487  0.5793  0.7831
 1837SOL    HW117144   2.391   2.343  17.009 -0.3838  0.6417  0.8173
 1837SOL    HW217145   2.385   2.275  17.136  1.6671  1.7273  0.6457
 1838SOL     OW17146   1.411   0.616  14.564 -0.4772 -0.4187  0.4971
 1838SOL    HW117147   1.461   0.653  14.637  1.9816 -1.2493 -0.7462
 1838SOL    HW217148   1.337   0.576  14.610 -0.1733  0.0466  1.3743
 1839SOL     OW17149   1.328   4.544   1.424 -0.1411  0.2943 -0.2276
 1839SOL    HW117150   1.338   4.624   1.373 -1.2051  1.2967  1.1592
 1839SOL    HW217151   1.359   4.475   1.365  1.6847  1.1221 -0.2570
 1840SOL     OW17152   2.465   3.767   7.168 -0.0067 -0.0728 -0.2814
 1840SOL    HW117153   2.556   3.742   7.188  0.2260  0.7635 -0.3211
 1840SOL    HW217154   2.464   3.817   7.087 -0.0615  1.2537  0.5331
 1841SOL     OW17155   0.878   3.337   6.705 -0.6061 -0.1763 -0.0106
 1841SOL    HW117156   0.876   3.398   6.631  0.2529  0.6130  0.6045
 1841SOL    HW217157   0.793   3.295   6.694  0.5759 -2.0895 -1.6011
 1842SOL     OW17158   0.482   4.355  12.725  0.3354  0.5093 -0.1815
 1842SOL    HW117159   0.405   4.395  12.767  0.2325 -1.6275  1.6692
 1842SOL    HW217160   0.511   4.431  12.673  1.5850  1.8910  2.5170
 1843SOL     OW17161   2.317   0.024   3.796  0.1347  0.1022 -0.0845
 1843SOL    HW117162   2.399   4.738   3.758  0.2575 -0.1574  0.3859
 1843SOL    HW217163   2.255   0.002   3.727 -0.1217  0.4842  0.0214
 1844SOL     OW17164   3.364   3.255  11.962  0.0031 -0.9272  0.5300
 1844SOL    HW117165   3.453   3.283  11.940 -0.9781 -0.6822 -3.1911
 1844SOL    HW217166   3.329   3.324  12.018  1.0292  0.7284 -0.8644
 1845SOL     OW17167   0.420   3.472  15.328  0.0014 -0.0476  0.2959
 1845SOL    HW117168   0.356   3.403  15.343 -1.4147  0.3144 -4.0225
 1845SOL    HW217169   0.372   3.534  15.384  1.3046  1.5442 -0.3319
 1846SOL     OW17170   2.653   0.297  14.722  0.1012  0.0465 -0.1153
 1846SOL    HW117171   2.597   0.247  14.663 -3.2650 -0.0823  3.2085
 1846SOL    HW217172   2.660   0.373  14.664  1.6832 -1.0395 -1.3522
 1847SOL     OW17173   4.031   2.976   8.596  0.2170  0.3374  0.3070
 1847SOL    HW117174   4.093   2.984   8.668  0.5729  2.2214 -0.2157
 1847SOL    HW217175   4.006   3.066   8.580 -1.9732  0.0707  2.1807
 1848SOL     OW17176   4.461   1.593   1.100  0.5477  0.7315 -0.6016
 1848SOL    HW117177   4.390   1.532   1.117  2.1772 -0.9887  0.1260
 1848SOL    HW217178   4.533   1.531   1.087 -0.0182 -0.1825  0.6011
 1849SOL     OW17179   3.653   4.259   3.168  0.1411  0.2185  0.2108
 1849SOL    HW117180   3.610   4.257   3.082 -0.8418 -0.6234  0.7155
 1849SOL    HW217181   3.670   4.164   3.169  0.5813  0.3005  0.3313
 1850SOL     OW17182   3.327   0.841   3.901  0.2006 -0.4172  0.2862
 1850SOL    HW117183   3.273   0.883   3.968  1.0462 -0.6452  1.1076
 1850SOL    HW217184   3.301   0.895   3.826 -0.2727 -1.3618 -0.2158
 1851SOL     OW17185   1.584   0.109   4.718 -0.2556  0.1368  0.0143
 1851SOL    HW117186   1.612   0.195   4.687  0.2025  0.1375  0.4286
 1851SOL    HW217187   1.669   0.067   4.729 -1.3770 -2.7864 -2.2362
 1852SOL     OW17188   3.625   2.234  15.238 -0.7841 -0.1709 -0.9442
 1852SOL    HW117189   3.665   2.148  15.246  0.0338  0.2553 -0.4695
 1852SOL    HW217190   3.572   2.248  15.316  2.2746  2.0946  0.7125
 1853SOL     OW17191   3.265   1.477  14.379  0.4012  0.4240 -0.6382
 1853SOL    HW117192   3.293   1.418  14.309 -2.2490 -1.6458 -0.0048
 1853SOL    HW217193   3.345   1.525  14.400  0.8347 -1.3186  1.7738
 1854SOL     OW17194   1.484   4.168   7.126  0.5133  0.2197 -0.4440
 1854SOL    HW117195   1.480   4.073   7.111  1.5867  0.1775 -0.4610
 1854SOL    HW217196   1.499   4.195   7.036 -1.6923  2.8403 -0.0457
 1855SOL     OW17197   0.735   2.664  15.875 -0.6604  0.1432  0.0665
 1855SOL    HW117198   0.689   2.668  15.959  1.2812  0.4380  1.1128
 1855SOL    HW217199   0.775   2.577  15.884 -2.6806 -0.8176 -0.1004
 1856SOL     OW17200   2.581   3.321   7.479 -0.1553 -0.0322  0.0680
 1856SOL    HW117201   2.540   3.316   7.393  0.6858  1.0820 -0.4013
 1856SOL    HW217202   2.646   3.251   7.468 -0.8916 -1.0538  2.1162
 1857SOL     OW17203   4.182   4.045   6.424 -0.3895  0.5852  0.0371
 1857SOL    HW117204   4.177   3.992   6.344  0.8662 -1.0667  1.0330
 1857SOL    HW217205   4.180   3.978   6.494 -2.5913  0.1110 -0.4777
 1858SOL     OW17206   2.934   3.948  10.180 -0.1675 -0.0999 -0.1361
 1858SOL    HW117207   2.933   3.866  10.130 -0.1307 -1.2756  1.8019
 1858SOL    HW217208   2.868   3.936  10.248 -0.0838 -0.6036 -0.1389
 1859SOL     OW17209   2.909   1.554   5.387  0.0856  0.0746  0.4466
 1859SOL    HW117210   2.999   1.584   5.398 -0.2029  0.5045  1.6813
 1859SOL    HW217211   2.901   1.570   5.293  1.0383 -1.0759  0.1781
 1860SOL     OW17212   2.858   2.302   6.647 -0.2849 -0.4530 -0.0164
 1860SOL    HW117213   2.927   2.280   6.585  0.2148  0.2010  0.3069
 1860SOL    HW217214   2.896   2.296   6.735  1.0847 -0.6999 -0.6283
 1861SOL     OW17215   2.678   1.618   3.013 -0.1219 -0.7203  0.4831
 1861SOL    HW117216   2.657   1.710   3.027  1.0039 -0.3665 -0.2220
 1861SOL    HW217217   2.751   1.615   3.075  0.1664  2.4912  0.2785
 1862SOL     OW17218   2.731   2.932   2.359 -0.1955  0.0641 -0.6586
 1862SOL    HW117219   2.675   2.875   2.306  1.5791 -0.8864 -1.5080
 1862SOL    HW217220   2.792   2.868   2.396 -0.1979 -0.9606 -2.4327
 1863SOL     OW17221   3.462   0.532  16.831  0.3356  0.0954  0.3895
 1863SOL    HW117222   3.430   0.620  16.847  2.6186  0.8413  0.9424
 1863SOL    HW217223   3.551   0.555  16.802 -0.7062  2.5694 -0.8662
 1864SOL     OW17224   4.738   1.698   3.665  0.3003 -0.2023 -0.4041
 1864SOL    HW117225   0.078   1.743   3.678  0.5452 -1.2015  1.5717
 1864SOL    HW217226   4.697   1.723   3.748 -1.1449  1.1370 -1.5469
 1865SOL     OW17227   3.170   0.416   6.372 -0.0100 -0.2953 -0.1546
 1865SOL    HW117228   3.107   0.481   6.340  0.6276 -0.5508 -1.9425
 1865SOL    HW217229   3.137   0.346   6.316  0.0510 -1.4396  1.2272
 1866SOL     OW17230   0.013   2.081  11.612  0.4110  0.4293  0.0003
 1866SOL    HW117231   0.055   2.014  11.666  0.4129 -0.6667 -1.3712
 1866SOL    HW217232   4.668   2.047  11.608  0.6778  0.0498 -2.7603
 1867SOL     OW17233   0.649   2.788   4.861  0.1535  0.3547 -0.1035
 1867SOL    HW117234   0.659   2.694   4.876  2.2279  0.9029  1.9192
 1867SOL    HW217235   0.644   2.791   4.765 -0.5571 -2.6245 -0.1660
 1868SOL     OW17236   3.515   0.469   8.987  0.4191 -0.2243 -0.4244
 1868SOL    HW117237   3.498   0.379   9.016 -1.8666  0.3828  0.1339
 1868SOL    HW217238   3.442   0.486   8.928  1.1976 -0.0438 -1.3358
 1869SOL     OW17239   2.631   1.631   2.057  0.3322  0.0460  0.1662
 1869SOL    HW117240   2.580   1.588   1.988  1.0504 -0.5519  0.0049
 1869SOL    HW217241   2.600   1.570   2.124 -1.9247  0.8958 -0.1146
 1870SOL     OW17242   0.569   3.218  11.986 -0.0763  0.0559  0.3301
 1870SOL    HW117243   0.517   3.270  11.925 -0.6741 -1.5682 -0.5346
 1870SOL    HW217244   0.601   3.146  11.932  2.4414  1.2677  0.2111
 1871SOL     OW17245   1.449   1.246   6.214 -0.5505 -0.1379 -0.3972
 1871SOL    HW117246   1.485   1.286   6.135 -0.2884  0.9475  0.2713
 1871SOL    HW217247   1.524   1.189   6.230 -1.0649 -0.8706 -0.6114
 1872SOL     OW17248   1.288   1.825   6.149  0.0348 -0.0848  1.0382
 1872SOL    HW117249   1.381   1.835   6.172  0.0961 -0.4314  0.9326
 1872SOL    HW217250   1.294   1.761   6.079  1.5559  0.4765  0.6586
 1873SOL     OW17251   2.596   0.181   6.048  0.3911 -0.3969 -0.3095
 1873SOL    HW117252   2.519   0.237   6.047  1.0372  0.5259  2.5236
 1873SOL    HW217253   2.594   0.148   5.958 -0.6658  1.5330 -0.9894
 1874SOL     OW17254   3.337   2.662  14.011 -0.5135  0.1594  0.1460
 1874SOL    HW117255   3.354   2.674  14.104 -0.9544 -2.1753  0.5345
 1874SOL    HW217256   3.244   2.684  14.008 -0.6999 -0.3907  2.0451
 1875SOL     OW17257   3.607   0.067   9.810 -0.1487  0.0531 -0.7405
 1875SOL    HW117258   3.587   0.122   9.886  0.6080 -1.4162  0.5224
 1875SOL    HW217259   3.527   0.083   9.761 -0.1540 -0.3260 -0.8571
 1876SOL     OW17260   2.008   2.535  12.532  0.5597 -0.6014  0.2159
 1876SOL    HW117261   2.001   2.530  12.437 -3.7743 -1.7374  0.6208
 1876SOL    HW217262   1.990   2.442  12.548  0.7831 -0.4915  1.1371
 1877SOL     OW17263   0.642   1.146   1.899 -0.0942  0.5969 -0.2351
 1877SOL    HW117264   0.707   1.216   1.895  0.3286  0.1290 -1.4358
 1877SOL    HW217265   0.677   1.090   1.969  1.4981  1.0447 -0.6795
 1878SOL     OW17266   1.607   1.369   9.394 -0.4471 -0.3250 -0.5151
 1878SOL    HW117267   1.607   1.392   9.301  2.9991  1.8648  0.0071
 1878SOL    HW217268   1.638   1.451   9.432  0.6065 -1.2866  0.7359
 1879SOL     OW17269   2.178   2.200   2.962 -0.2118  0.4679 -0.1620
 1879SOL    HW117270   2.183   2.247   2.879 -0.2416  0.8259  0.0372
 1879SOL    HW217271   2.259   2.228   3.003  0.7036  0.0691 -1.6907
 1880SOL     OW17272   0.015   1.045   0.720 -0.0440 -0.2569  0.5304
 1880SOL    HW117273   4.678   1.068   0.766 -0.1286 -1.3449  0.9383
 1880SOL    HW217274   0.074   1.092   0.778  0.0360  0.0637  0.1870
 1881SOL     OW17275   0.004   3.498  11.420 -0.0001  0.2325 -0.1437
 1881SOL    HW117276   4.665   3.502  11.372 -1.4396 -2.3508  2.1196
 1881SOL    HW217277   0.001   3.582  11.467 -0.8954  0.7682 -1.1646
 1882SOL     OW17278   3.306   1.397   1.899 -0.3196  0.0846  0.1216
 1882SOL    HW117279   3.315   1.444   1.817 -1.7770  0.0591 -0.0564
 1882SOL    HW217280   3.270   1.476   1.940 -0.3400 -0.0534  0.3756
 1883SOL     OW17281   2.116   1.791   1.066  0.2880 -0.4838  0.3687
 1883SOL    HW117282   2.098   1.863   1.006 -1.9137 -1.7841 -0.5441
 1883SOL    HW217283   2.033   1.743   1.063  0.7237 -1.3707  2.1299
 1884SOL     OW17284   0.552   1.448   9.547  0.3497  0.8860 -0.0792
 1884SOL    HW117285   0.585   1.398   9.622  0.9320  2.3305  0.6280
 1884SOL    HW217286   0.465   1.459   9.584  0.0628 -0.9676 -0.1881
 1885SOL     OW17287   4.540   1.664   2.528 -0.3587 -0.0452  0.0384
 1885SOL    HW117288   4.465   1.714   2.496  1.0379 -0.0422 -3.2630
 1885SOL    HW217289   4.601   1.736   2.547 -2.0985  0.9232  1.9437
 1886SOL     OW17290   2.951   4.261   7.942 -0.1628 -0.3188  0.2231
 1886SOL    HW117291   2.910   4.290   7.861  0.1182 -0.6467 -0.0371
 1886SOL    HW217292   2.932   4.337   7.997  0.5527  0.0896 -0.0947
 1887SOL     OW17293   3.857   0.945   2.929 -0.3736  0.0238  0.5858
 1887SOL    HW117294   3.866   0.908   2.841 -0.8754 -2.1776  1.4717
 1887SOL    HW217295   3.789   0.894   2.973 -0.7160  0.0544  0.0933
 1888SOL     OW17296   3.716   0.360   2.569 -0.2922  0.0453 -0.2584
 1888SOL    HW117297   3.666   0.425   2.519 -0.1650 -0.1925 -0.6979
 1888SOL    HW217298   3.753   0.311   2.496 -0.8393 -2.3206  1.0436
 1889SOL     OW17299   1.753   3.562   4.387 -0.1347 -0.7287  0.3971
 1889SOL    HW117300   1.697   3.639   4.383 -1.8890 -2.0018  0.3454
 1889SOL    HW217301   1.766   3.538   4.479  2.6937 -3.5922 -0.7109
 1890SOL     OW17302   0.385   1.093   6.743 -0.3658  0.1752  1.0062
 1890SOL    HW117303   0.311   1.037   6.766 -1.9295  1.8154 -0.0041
 1890SOL    HW217304   0.414   1.043   6.666 -1.9528  0.6181  0.1095
 1891SOL     OW17305   3.202   0.416   7.232  0.1532 -0.6674 -0.2242
 1891SOL    HW117306   3.233   0.342   7.284  1.2494 -0.8666 -1.1384
 1891SOL    HW217307   3.137   0.365   7.185  0.3243 -1.4548  0.3994
 1892SOL     OW17308   2.632   4.563  11.661  0.0466  0.2750 -0.1296
 1892SOL    HW117309   2.724   4.558  11.636  0.3607  2.3746  0.5560
 1892SOL    HW217310   2.631   4.654  11.692 -0.4765 -0.6920  2.6889
 1893SOL     OW17311   1.497   2.449   3.418 -0.5104  0.1864  0.1163
 1893SOL    HW117312   1.427   2.512   3.435 -0.4200  0.1200  0.7650
 1893SOL    HW217313   1.561   2.477   3.484 -0.6607  0.9695 -0.0635
 1894SOL     OW17314   0.343   0.782   2.133  0.0655  0.8088  0.2450
 1894SOL    HW117315   0.308   0.714   2.191 -0.6350  2.3052  1.5650
 1894SOL    HW217316   0.416   0.820   2.182  0.9992  0.8053 -1.1553
 1895SOL     OW17317   0.501   1.699   6.146  0.3361  0.6686  0.1252
 1895SOL    HW117318   0.430   1.750   6.108 -0.2007  1.8199  2.7096
 1895SOL    HW217319   0.567   1.768   6.146  2.1541 -1.0405 -0.6556
 1896SOL     OW17320   4.431   4.601   9.958 -0.0240 -0.2065 -0.1989
 1896SOL    HW117321   4.446   4.520   9.909 -1.3515  0.7168 -2.1295
 1896SOL    HW217322   4.335   4.601   9.964 -0.1882  1.1406 -3.0853
 1897SOL     OW17323   1.862   3.778   1.664  0.0414  0.3339  0.2258
 1897SOL    HW117324   1.861   3.771   1.568  1.1489 -0.5716  0.2704
 1897SOL    HW217325   1.863   3.873   1.673  0.8019  0.3790 -0.2988
 1898SOL     OW17326   4.460   0.303   3.317  0.3293 -0.1606 -0.2187
 1898SOL    HW117327   4.473   0.263   3.231  1.5817  0.1729 -0.1892
 1898SOL    HW217328   4.382   0.258   3.350  0.7687 -0.7881 -0.0331
 1899SOL     OW17329   2.792   1.835  11.202 -0.4739  0.0691  0.2550
 1899SOL    HW117330   2.838   1.912  11.235 -0.7598  0.6413 -0.6625
 1899SOL    HW217331   2.714   1.836  11.256 -0.9715 -0.2491 -0.4509
 1900SOL     OW17332   1.158   2.661   3.374 -0.1432 -0.2515  0.4809
 1900SOL    HW117333   1.068   2.668   3.406 -0.6272 -2.2464 -0.4776
 1900SOL    HW217334   1.194   2.613   3.449  2.5223  0.6846 -0.2012
 1901SOL     OW17335   3.330   0.810   2.279  0.2801  0.1380 -0.1656
 1901SOL    HW117336   3.273   0.844   2.348  0.2624 -2.9672  1.3717
 1901SOL    HW217337   3.267   0.754   2.233  1.3941  0.1520 -1.6954
 1902SOL     OW17338   2.244   2.429  13.893  0.8096 -0.8910  0.4554
 1902SOL    HW117339   2.241   2.403  13.985 -0.9217 -0.8403  0.4131
 1902SOL    HW217340   2.217   2.345  13.856 -1.4336  0.0484 -0.0671
 1903SOL     OW17341   1.808   0.696   0.166 -0.2843  0.1918  0.1483
 1903SOL    HW117342   1.810   0.764   0.098 -2.8617  1.0777  0.9926
 1903SOL    HW217343   1.753   0.735   0.233  1.6711  0.5609  1.5388
 1904SOL     OW17344   0.026   0.772   0.689 -0.2046 -0.0329  0.3265
 1904SOL    HW117345   0.095   0.806   0.746 -2.8769  0.8835  2.9702
 1904SOL    HW217346   4.734   0.860   0.678 -0.7053 -0.5014 -1.9064
 1905SOL     OW17347   0.057   4.206   5.149 -0.8156 -0.1017 -0.2685
 1905SOL    HW117348   0.024   4.255   5.225  0.8541  0.2022  0.2544
 1905SOL    HW217349   0.111   4.273   5.108  0.0683  0.6835  2.1895
 1906SOL     OW17350   1.589   0.374   9.544 -0.5352  0.0220 -0.1515
 1906SOL    HW117351   1.613   0.368   9.636 -0.5075 -0.2082 -0.1735
 1906SOL    HW217352   1.592   0.279   9.531  1.2685  0.2142 -1.1776
 1907SOL     OW17353   2.829   1.075   2.977  0.5302 -0.4099  0.6333
 1907SOL    HW117354   2.809   1.059   3.069  1.1154  0.3872  0.8976
 1907SOL    HW217355   2.751   1.046   2.929  0.1711 -0.7319  1.4102
 1908SOL     OW17356   2.394   0.521   2.726  0.0221  0.3552  0.1090
 1908SOL    HW117357   2.336   0.489   2.795 -0.6933 -0.4828 -0.8757
 1908SOL    HW217358   2.461   0.454   2.743 -1.0758 -1.5142 -2.8432
 1909SOL     OW17359   4.111   3.492   5.474  0.5470 -0.0198  0.4819
 1909SOL    HW117360   4.104   3.477   5.380 -2.3947  1.6586  0.4301
 1909SOL    HW217361   4.159   3.575   5.476 -1.4582  1.2193 -2.2176
 1910SOL     OW17362   2.767   3.544   5.039 -0.0555  0.0505  0.0306
 1910SOL    HW117363   2.767   3.636   5.066 -0.5865  0.4514 -1.3597
 1910SOL    HW217364   2.860   3.530   5.026 -0.3256 -1.2641 -0.5454
 1911SOL     OW17365   0.927   4.663   5.993  0.3694  0.2106  0.6999
 1911SOL    HW117366   1.012   4.651   5.951  0.5992  2.3611  0.5314
 1911SOL    HW217367   0.934   0.012   6.018  0.5796  0.8417 -1.6796
 1912SOL     OW17368   1.772   1.812   2.641 -0.3629  0.1866  0.1115
 1912SOL    HW117369   1.737   1.759   2.569  3.1611 -0.7759 -0.8961
 1912SOL    HW217370   1.813   1.749   2.701 -0.0927  1.2260  1.0227
 1913SOL     OW17371   0.820   2.694   4.505  0.0260  0.2433 -0.5661
 1913SOL    HW117372   0.741   2.734   4.540  0.0592 -0.0166 -0.1837
 1913SOL    HW217373   0.878   2.682   4.580 -1.8027 -2.7556  0.4014
 1914SOL     OW17374   4.683   3.331   2.529  0.5209 -0.1018  0.4479
 1914SOL    HW117375   4.662   3.242   2.503  1.3777 -0.1237 -0.1792
 1914SOL    HW217376   4.709   3.372   2.446  0.6986 -0.0239  0.5404
 1915SOL     OW17377   0.893   1.979   2.549  0.5056  0.0113  0.3981
 1915SOL    HW117378   0.920   2.040   2.618 -1.2389  0.9910  0.2191
 1915SOL    HW217379   0.798   1.990   2.551  0.7992  2.3358  1.7419
 1916SOL     OW17380   0.698   4.616   4.977 -0.5092  0.2533 -0.0399
 1916SOL    HW117381   0.767   4.554   4.954  0.9264  1.0933  2.0218
 1916SOL    HW217382   0.663   4.579   5.058 -4.1205  1.5765 -0.9575
 1917SOL     OW17383   0.291   4.189  10.579 -0.1836 -0.0127 -0.0984
 1917SOL    HW117384   0.317   4.103  10.547  1.4104 -0.2141  1.7285
 1917SOL    HW217385   0.209   4.206  10.533 -0.4882  0.4194  0.6066
 1918SOL     OW17386   4.397   4.314   3.181  0.0352  0.0204  0.1267
 1918SOL    HW117387   4.473   4.275   3.138 -0.6008  0.1020 -1.0751
 1918SOL    HW217388   4.355   4.238   3.222 -2.2863  0.6659 -1.0351
 1919SOL     OW17389   2.053   0.498   2.785  0.2241 -0.7090 -0.2494
 1919SOL    HW117390   2.013   0.534   2.864 -2.6654 -1.9134 -1.1973
 1919SOL    HW217391   2.041   0.571   2.724 -0.7557 -1.0535 -0.4603
 1920SOL     OW17392   2.160   2.467   8.562  0.0677  0.7150  0.3023
 1920SOL    HW117393   2.184   2.501   8.648  1.4772  0.9697 -0.1892
 1920SOL    HW217394   2.154   2.372   8.575 -1.5961  0.8015  0.1325
 1921SOL     OW17395   1.118   2.044  14.507 -0.0641  0.2398  0.3871
 1921SOL    HW117396   1.064   1.967  14.488  1.3058 -0.3394 -1.1574
 1921SOL    HW217397   1.106   2.091  14.424  2.7295  0.3591  0.0447
 1922SOL     OW17398   0.303   2.963   2.289 -0.1228 -0.0149 -0.1163
 1922SOL    HW117399   0.383   2.919   2.263 -0.4107 -0.7905  0.3170
 1922SOL    HW217400   0.245   2.938   2.217  0.3757 -0.1536 -0.4687
 1923SOL     OW17401   0.753   4.235   8.935 -0.1300  0.2451  0.2589
 1923SOL    HW117402   0.829   4.235   8.993  0.9409  0.7372 -1.1430
 1923SOL    HW217403   0.780   4.179   8.862 -0.0761  2.4925 -1.4650
 1924SOL     OW17404   0.297   1.770  17.427 -0.0885 -0.9834 -0.3518
 1924SOL    HW117405   0.228   1.729  17.479 -0.8699  1.2070  0.3222
 1924SOL    HW217406   0.374   1.764  17.482 -0.0485  2.3962 -0.0566
 1925SOL     OW17407   1.426   4.247   2.814  0.3890 -0.0901 -0.5449
 1925SOL    HW117408   1.338   4.240   2.850  1.2627 -0.6610  1.5033
 1925SOL    HW217409   1.409   4.223   2.723 -1.3779  0.3357 -0.3102
 1926SOL     OW17410   2.303   2.702  13.789 -0.1946  0.0729  0.4461
 1926SOL    HW117411   2.276   2.636  13.853  2.7248  0.4239  2.0235
 1926SOL    HW217412   2.238   2.698  13.719 -1.4912 -1.7047  1.7399
 1927SOL     OW17413   3.436   0.122  15.832 -0.0136  0.4005 -0.4272
 1927SOL    HW117414   3.380   0.199  15.843  1.4592  1.7669 -2.5891
 1927SOL    HW217415   3.384   0.077  15.765  0.3956  0.1624 -0.5812
 1928SOL     OW17416   3.177   3.169  11.771 -0.0019  0.4327  0.4180
 1928SOL    HW117417   3.159   3.252  11.726  2.1586  0.5887 -0.1514
 1928SOL    HW217418   3.243   3.211  11.826  0.8108 -0.8430  0.3994
 1929SOL     OW17419   1.771   2.639  15.584 -0.5482  0.6876 -0.2863
 1929SOL    HW117420   1.836   2.598  15.527  0.7544 -0.2091  1.8405
 1929SOL    HW217421   1.698   2.577  15.591 -1.9063  2.0614 -2.4831
 1930SOL     OW17422   0.171   3.260   8.099 -0.4794 -0.1759 -0.1217
 1930SOL    HW117423   0.189   3.184   8.044  1.2925  0.4191 -0.3705
 1930SOL    HW217424   0.147   3.330   8.038  0.9339  0.6551  0.2623
 1931SOL     OW17425   1.072   4.103  10.050  1.0056  0.1352  0.0148
 1931SOL    HW117426   1.033   4.159   9.983 -0.6092  0.7637  1.4723
 1931SOL    HW217427   1.099   4.175  10.108  3.0796  1.0356 -2.0894
 1932SOL     OW17428   4.601   0.218   4.998 -0.5362 -0.0171 -0.2430
 1932SOL    HW117429   4.610   0.279   5.071  0.8949 -0.1949 -0.2737
 1932SOL    HW217430   4.625   0.131   5.027 -1.2548  0.1625  0.8824
 1933SOL     OW17431   1.776   3.219   0.697  0.4700 -0.1697  0.3553
 1933SOL    HW117432   1.868   3.221   0.725  0.7470  0.6299 -0.6125
 1933SOL    HW217433   1.726   3.276   0.755 -1.4786  0.5067 -2.0346
 1934SOL     OW17434   0.186   3.276   6.385  0.4891 -0.2064  0.5719
 1934SOL    HW117435   0.121   3.332   6.342  0.4621 -0.2956  0.4974
 1934SOL    HW217436   0.240   3.329   6.444  2.2234  0.6917 -1.8093
 1935SOL     OW17437   0.843   3.262   7.192  0.1754 -0.7196 -0.4168
 1935SOL    HW117438   0.880   3.212   7.119 -0.9154 -0.2077 -1.3153
 1935SOL    HW217439   0.825   3.188   7.250 -2.1959  0.8490  0.8555
 1936SOL     OW17440   3.664   1.950   6.304  0.3113  0.4844 -0.3561
 1936SOL    HW117441   3.657   1.906   6.389  0.5230  1.2587  0.0750
 1936SOL    HW217442   3.600   1.905   6.249 -1.4172  2.6345 -0.1102
 1937SOL     OW17443   2.842   0.263   0.616 -0.0818  0.0068 -0.4015
 1937SOL    HW117444   2.871   0.175   0.591  0.5070 -0.6203  2.4561
 1937SOL    HW217445   2.761   0.282   0.570 -2.2060 -0.4927  3.1020
 1938SOL     OW17446   2.331   0.946   1.502 -0.4479  0.0993 -0.1129
 1938SOL    HW117447   2.255   0.927   1.447 -0.3032  0.3201 -0.3888
 1938SOL    HW217448   2.287   0.994   1.572  0.8111  0.3034  0.5417
 1939SOL     OW17449   1.543   2.829   3.673 -0.5553  0.2998 -0.3239
 1939SOL    HW117450   1.507   2.909   3.636 -1.0162 -0.2288 -1.0090
 1939SOL    HW217451   1.474   2.804   3.735  0.2243 -0.3268  0.3023
 1940SOL     OW17452   2.912   1.888   1.421 -0.2815 -0.5392  0.3709
 1940SOL    HW117453   2.928   1.834   1.498  0.8624  1.8689  1.8261
 1940SOL    HW217454   2.989   1.941   1.403 -0.6279  0.1364  0.8802
 1941SOL     OW17455   0.480   1.641   4.947  0.1248  1.0523 -0.3208
 1941SOL    HW117456   0.392   1.653   4.981 -0.5957  2.5265 -2.7220
 1941SOL    HW217457   0.530   1.690   5.012  0.9375 -2.5761  1.7936
 1942SOL     OW17458   0.914   2.807   7.537 -0.4701  0.0391 -0.0351
 1942SOL    HW117459   0.976   2.780   7.605  1.3140  1.0048 -1.2709
 1942SOL    HW217460   0.848   2.863   7.577 -0.7877 -1.0508  0.9427
 1943SOL     OW17461   2.903   1.994   5.139 -0.2725  0.1766  0.2299
 1943SOL    HW117462   2.888   2.083   5.172  1.1586 -0.3819  2.3774
 1943SOL    HW217463   2.930   1.945   5.217  1.1148 -0.4640 -0.6486
 1944SOL     OW17464   2.243   3.542   9.252  0.0089  0.2858  0.2715
 1944SOL    HW117465   2.213   3.451   9.243  4.0642 -1.1867  1.8180
 1944SOL    HW217466   2.180   3.559   9.322 -0.5873 -0.9884  0.0639
 1945SOL     OW17467   1.022   0.474  13.119 -0.2662  0.5394 -0.8371
 1945SOL    HW117468   0.961   0.400  13.115  1.5077 -0.9635 -0.2240
 1945SOL    HW217469   0.981   0.526  13.050 -0.9801  1.0687  0.0057
 1946SOL     OW17470   3.900   1.033   3.326  0.2150 -0.7769  0.2200
 1946SOL    HW117471   3.991   1.023   3.298  0.2924  0.2262  0.0942
 1946SOL    HW217472   3.874   1.092   3.255  2.0212  0.6347  0.7423
 1947SOL     OW17473   0.776   1.345   7.232 -0.1810 -0.2355  0.0791
 1947SOL    HW117474   0.806   1.436   7.238 -0.2936 -0.2322  0.5524
 1947SOL    HW217475   0.844   1.286   7.199 -1.2509 -0.3637 -1.9379
 1948SOL     OW17476   0.897   2.835   9.766  0.8504  0.0040 -0.3359
 1948SOL    HW117477   0.961   2.778   9.807 -0.0948 -1.8115 -1.3914
 1948SOL    HW217478   0.883   2.790   9.682  0.2077  0.0887 -0.2763
 1949SOL     OW17479   2.902   2.911  10.723  0.3850 -0.3009  0.2317
 1949SOL    HW117480   2.833   2.844  10.728  1.4838 -1.5903 -1.8116
 1949SOL    HW217481   2.935   2.916  10.812 -2.5053 -1.1239  1.3353
 1950SOL     OW17482   2.180   1.091   2.107 -0.1197  0.4057  0.2332
 1950SOL    HW117483   2.219   1.111   2.192  2.5397  0.1323 -0.9364
 1950SOL    HW217484   2.224   1.007   2.096  0.7268  0.5244  2.7921
 1951SOL     OW17485   4.242   1.199  13.558  0.2139 -0.3628  0.6041
 1951SOL    HW117486   4.179   1.257  13.516  1.6599  2.0349  1.7223
 1951SOL    HW217487   4.290   1.157  13.487 -0.6719 -0.5562  0.1282
 1952SOL     OW17488   4.452   3.937   6.764 -0.2138  0.3437  0.1003
 1952SOL    HW117489   4.543   3.960   6.748 -0.0133 -0.5757 -0.0529
 1952SOL    HW217490   4.407   3.925   6.681 -2.9907  0.6878  1.5378
 1953SOL     OW17491   3.641   0.623   7.362  0.1269  0.6565  0.0710
 1953SOL    HW117492   3.696   0.548   7.387 -1.5301 -0.5523  0.1393
 1953SOL    HW217493   3.559   0.580   7.388 -0.1199  1.2442  0.2585
 1954SOL     OW17494   1.301   0.802   5.270  0.0566 -0.1934  0.0174
 1954SOL    HW117495   1.324   0.777   5.181  1.1571  0.4693  0.1203
 1954SOL    HW217496   1.239   0.875   5.256  1.2184  0.8652  0.3887
 1955SOL     OW17497   2.434   0.375   3.698 -0.0631  0.0001 -0.2911
 1955SOL    HW117498   2.487   0.314   3.750  0.5627  0.4835 -0.3556
 1955SOL    HW217499   2.347   0.362   3.735 -0.3031 -1.8831 -1.4994
 1956SOL     OW17500   2.182   2.235  13.743  0.7930  0.3439  0.6464
 1956SOL    HW117501   2.167   2.286  13.663  0.9009 -1.4187 -0.4967
 1956SOL    HW217502   2.197   2.145  13.714  0.2832  1.2882 -2.6397
 1957SOL     OW17503   0.126   4.308  13.109 -0.1583  0.3981 -0.2824
 1957SOL    HW117504   0.107   4.215  13.122  2.3359  0.3933  3.2523
 1957SOL    HW217505   0.164   4.334  13.193 -0.4738 -0.0839  0.0125
 1958SOL     OW17506   1.518   0.713   7.850  0.2421 -0.2480  0.2164
 1958SOL    HW117507   1.489   0.703   7.941 -1.7443 -2.1487 -0.6279
 1958SOL    HW217508   1.612   0.695   7.862  0.2743 -0.0760  0.2216
 1959SOL     OW17509   3.072   0.907   3.039 -0.0857 -0.3790 -0.3547
 1959SOL    HW117510   3.003   0.973   3.034  0.8740  0.6430 -0.1877
 1959SOL    HW217511   3.082   0.871   2.951  0.0495 -0.6857 -0.2148
 1960SOL     OW17512   4.519   1.785   7.382 -0.3071  0.1079 -0.0339
 1960SOL    HW117513   4.614   1.783   7.373 -0.3360 -0.2863 -0.2686
 1960SOL    HW217514   4.507   1.874   7.414 -1.0554  0.2989 -0.8328
 1961SOL     OW17515   2.273   0.842   2.169  0.5729 -0.0368  0.3749
 1961SOL    HW117516   2.350   0.789   2.189  1.8205  1.9543  0.8602
 1961SOL    HW217517   2.224   0.842   2.251 -1.5047  1.7700 -0.8716
 1962SOL     OW17518   4.651   0.055  15.307 -0.3137  0.2097  0.0323
 1962SOL    HW117519   4.652   4.712  15.266 -0.8616  0.1226  0.1960
 1962SOL    HW217520   4.587   0.099  15.251  0.6798  0.2965 -1.0367
 1963SOL     OW17521   4.397   1.202  11.327 -0.1979 -0.0879  0.7740
 1963SOL    HW117522   4.447   1.169  11.402 -0.8332  0.4580  1.4411
 1963SOL    HW217523   4.357   1.280  11.365  0.3121  0.3199  0.4813
 1964SOL     OW17524   0.789   2.459   6.731  0.1581 -0.1161 -0.0861
 1964SOL    HW117525   0.700   2.474   6.697 -0.1528 -0.8439  0.4081
 1964SOL    HW217526   0.835   2.512   6.666  0.8013 -1.2016 -0.5190
 1965SOL     OW17527   1.771   2.927   8.747 -0.3006  0.2319  0.4601
 1965SOL    HW117528   1.802   2.836   8.743 -1.2985 -0.1253  0.9346
 1965SOL    HW217529   1.848   2.977   8.774 -0.5065  2.5941 -3.3190
 1966SOL     OW17530   4.122   0.700  14.969  0.0688  0.2517  0.1253
 1966SOL    HW117531   4.202   0.725  15.015  0.2125  0.6460 -0.3371
 1966SOL    HW217532   4.053   0.742  15.021 -0.4440  0.6794 -0.8930
 1967SOL     OW17533   2.406   0.549   7.900 -0.0116 -0.0761  0.7840
 1967SOL    HW117534   2.352   0.566   7.977 -0.3708 -0.4044  0.6082
 1967SOL    HW217535   2.441   0.460   7.910 -0.9950 -0.8001 -2.3309
 1968SOL     OW17536   3.801   3.668   3.221 -0.0666  0.2792  0.0855
 1968SOL    HW117537   3.718   3.679   3.175 -0.1955 -1.2412 -0.0439
 1968SOL    HW217538   3.857   3.739   3.189 -0.3775 -0.5682 -2.4114
 1969SOL     OW17539   1.973   2.692   3.635  0.1760 -0.1632  0.2305
 1969SOL    HW117540   1.893   2.699   3.583 -0.5900 -1.3597  1.2484
 1969SOL    HW217541   2.032   2.657   3.568 -1.6314 -1.2771 -0.7853
 1970SOL     OW17542   0.265   4.494   2.415  0.6208  0.1955  0.4267
 1970SOL    HW117543   0.209   4.563   2.379  1.8794  2.6916  3.2076
 1970SOL    HW217544   0.350   4.536   2.426 -0.2013  1.6647  1.1160
 1971SOL     OW17545   0.101   3.877   0.366 -0.2371 -0.2135  0.0068
 1971SOL    HW117546   0.084   3.928   0.446 -1.4632 -0.2001 -0.2696
 1971SOL    HW217547   0.032   3.811   0.373 -0.7370  0.2907 -0.2166
 1972SOL     OW17548   4.071   0.381   4.139 -0.1373  0.3274 -0.2059
 1972SOL    HW117549   4.057   0.470   4.106 -0.7241  0.7101  1.0565
 1972SOL    HW217550   4.136   0.407   4.205 -0.3186 -0.2064  0.1871
 1973SOL     OW17551   3.114   4.680   8.514 -0.9873 -0.2150 -0.0335
 1973SOL    HW117552   3.020   4.699   8.510 -0.4153  1.4977 -4.5652
 1973SOL    HW217553   3.109   4.584   8.507  3.0818 -0.5534  1.6148
 1974SOL     OW17554   4.558   2.230   4.797  0.4419 -0.1648  0.2584
 1974SOL    HW117555   4.567   2.325   4.798 -1.2172 -0.0098  0.9177
 1974SOL    HW217556   4.640   2.205   4.755  0.5686 -0.8412  0.9018
 1975SOL     OW17557   1.981   1.487  17.699  0.2934  0.2873  0.3596
 1975SOL    HW117558   2.030   1.455   0.003  0.6635 -2.8035 -1.1966
 1975SOL    HW217559   2.046   1.552  17.671  1.5703 -1.5192 -0.8507
 1976SOL     OW17560   1.326   2.560   4.311 -0.1655  0.4656  0.4713
 1976SOL    HW117561   1.252   2.499   4.318 -1.5378  2.1102  0.1209
 1976SOL    HW217562   1.377   2.540   4.390  0.1075  0.9161  0.4081
 1977SOL     OW17563   2.408   1.242   5.651  0.4796  0.3581  0.4505
 1977SOL    HW117564   2.324   1.287   5.648  1.0205  1.4743  1.9830
 1977SOL    HW217565   2.403   1.207   5.562  1.3408  0.4263  0.3792
 1978SOL     OW17566   3.661   1.334   8.240 -0.1115  0.1333 -0.3477
 1978SOL    HW117567   3.612   1.398   8.188 -0.2194  2.3912  2.5686
 1978SOL    HW217568   3.664   1.379   8.324 -2.0062 -0.0933 -0.1754
 1979SOL     OW17569   3.677   3.882  14.387  0.0842  0.2316  0.1364
 1979SOL    HW117570   3.643   3.955  14.336 -2.8173 -0.9890  0.3703
 1979SOL    HW217571   3.765   3.914  14.405 -0.0185  0.3652  0.3907
 1980SOL     OW17572   1.936   2.341  13.878  0.1298  0.5019  0.1499
 1980SOL    HW117573   2.013   2.301  13.839  0.2255  1.2213 -0.3932
 1980SOL    HW217574   1.870   2.304  13.818  1.3666 -3.1501  1.0680
 1981SOL     OW17575   0.615   1.897   9.180  0.1814  0.0213 -0.2952
 1981SOL    HW117576   0.566   1.924   9.103 -0.2215 -1.1364 -0.4560
 1981SOL    HW217577   0.595   1.803   9.174  0.5896  0.0465 -1.9889
 1982SOL     OW17578   2.742   0.701   6.518  0.2456  0.4555  0.6857
 1982SOL    HW117579   2.791   0.622   6.543 -0.9072  0.1320  1.9149
 1982SOL    HW217580   2.765   0.760   6.590 -0.1140  1.2885  0.1152
 1983SOL     OW17581   0.556   1.253   2.410  0.0738  0.4403  0.3183
 1983SOL    HW117582   0.596   1.252   2.497 -0.7164 -0.6144  0.6676
 1983SOL    HW217583   0.463   1.229   2.419  0.8784 -2.3060  1.1100
 1984SOL     OW17584   0.305   4.282   8.376 -0.3590 -0.5606 -0.3546
 1984SOL    HW117585   0.252   4.360   8.395  0.9509  1.4490 -4.9171
 1984SOL    HW217586   0.394   4.319   8.382 -0.1745 -1.4473  2.0971
 1985SOL     OW17587   3.665   0.507  12.056  0.0884  0.0552  0.1080
 1985SOL    HW117588   3.747   0.533  12.098 -1.0659 -1.3536  3.1685
 1985SOL    HW217589   3.631   0.590  12.021  2.1361  1.2019  0.8429
 1986SOL     OW17590   3.328   1.732   7.448 -0.3072  0.0782 -0.1694
 1986SOL    HW117591   3.271   1.809   7.452  0.9714  0.9477  1.4825
 1986SOL    HW217592   3.266   1.663   7.472 -1.4084  1.3229  0.5830
 1987SOL     OW17593   4.318   4.161   9.564  0.6288  0.4995  0.7410
 1987SOL    HW117594   4.279   4.199   9.643 -1.8578 -1.3441  0.3750
 1987SOL    HW217595   4.401   4.208   9.558  0.8999 -0.0953 -0.1226
 1988SOL     OW17596   2.219   4.510  14.199  0.1506 -0.4647  0.4410
 1988SOL    HW117597   2.214   4.589  14.252 -0.9690 -2.4247  3.2003
 1988SOL    HW217598   2.308   4.520  14.165  0.0820  1.9421  0.9852
 1989SOL     OW17599   3.834   4.147   7.764 -0.6889  0.7300 -0.2144
 1989SOL    HW117600   3.856   4.055   7.782 -0.8757  1.0364  1.6110
 1989SOL    HW217601   3.908   4.198   7.794  0.1480 -0.6028 -0.0069
 1990SOL     OW17602   4.067   2.478  17.047  0.2337  0.2427 -0.2357
 1990SOL    HW117603   4.160   2.459  17.052 -0.1643 -1.7585 -0.3508
 1990SOL    HW217604   4.062   2.562  17.002 -0.3079  0.0889 -0.4697
 1991SOL     OW17605   1.892   4.594   3.077  0.4115  0.4150  0.1704
 1991SOL    HW117606   1.917   4.642   3.155  2.0217  1.7771 -1.1752
 1991SOL    HW217607   1.945   4.516   3.094  1.8613  0.7066 -3.0481
 1992SOL     OW17608   4.462   0.721   6.786 -0.3944 -0.9346  0.0364
 1992SOL    HW117609   4.446   0.708   6.693  1.5222 -0.5816 -0.3419
 1992SOL    HW217610   4.546   0.766   6.776  0.0712 -1.8317 -0.0482
 1993SOL     OW17611   3.070   1.099   6.430 -0.1380  0.0644  0.3409
 1993SOL    HW117612   2.983   1.111   6.393 -0.3007 -0.5032  0.5362
 1993SOL    HW217613   3.111   1.022   6.390 -0.7578 -0.7586  1.2992
 1994SOL     OW17614   0.275   0.710   0.448  0.5842  0.1591 -0.6744
 1994SOL    HW117615   0.194   0.674   0.411 -0.0933  2.4428 -1.4422
 1994SOL    HW217616   0.239   0.795   0.475  0.6144 -0.1983  0.5038
 1995SOL     OW17617   1.136   4.436   9.941 -0.0720 -0.1267 -0.2022
 1995SOL    HW117618   1.184   4.355   9.927  2.1673  1.0582  0.5368
 1995SOL    HW217619   1.157   4.449  10.033 -1.4050  0.7389 -0.0176
 1996SOL     OW17620   2.381   3.243  12.538  0.1927 -0.5503 -0.4395
 1996SOL    HW117621   2.398   3.160  12.583 -2.2089 -1.7471 -1.7543
 1996SOL    HW217622   2.291   3.257  12.566  0.7675  0.6740  0.7886
 1997SOL     OW17623   4.720   1.760   5.118 -0.0290  0.2215  0.1570
 1997SOL    HW117624   4.649   1.824   5.122 -1.0485 -0.8580 -0.5632
 1997SOL    HW217625   0.020   1.795   5.040 -2.0868 -1.0579 -1.5963
 1998SOL     OW17626   0.518   0.745  15.977  0.7566  0.7622  0.2375
 1998SOL    HW117627   0.447   0.747  15.913  0.5620 -2.4481  0.3753
 1998SOL    HW217628   0.467   0.720  16.054  2.8309 -2.6966  0.4838
 1999SOL     OW17629   0.460   1.715   2.753 -1.0647  0.2109 -0.3436
 1999SOL    HW117630   0.473   1.723   2.659  0.8328 -0.0380 -0.1040
 1999SOL    HW217631   0.417   1.797   2.775  1.2229  1.0829  0.8885
 2000SOL     OW17632   3.928   2.548  10.508  0.0487  0.5573 -0.0272
 2000SOL    HW117633   3.970   2.542  10.594 -0.7087 -1.7490  0.1861
 2000SOL    HW217634   3.881   2.465  10.504  1.1764 -0.0784  0.1422
 2001SOL     OW17635   2.772   1.518  10.391 -0.2537 -0.7850  0.5098
 2001SOL    HW117636   2.682   1.487  10.402 -1.3945  2.6426  0.8192
 2001SOL    HW217637   2.765   1.602  10.346  0.7776 -1.1207 -0.2621
 2002SOL     OW17638   2.013   0.946   5.481  0.3949 -0.0838  0.6150
 2002SOL    HW117639   1.967   1.020   5.442  0.8569 -0.3284 -0.3755
 2002SOL    HW217640   2.069   0.917   5.409 -2.0408 -0.9430 -0.9261
 2003SOL     OW17641   0.842   0.493   9.031  0.1706 -0.1755  0.0407
 2003SOL    HW117642   0.856   0.587   9.018  0.1859  0.1397  2.2280
 2003SOL    HW217643   0.932   0.460   9.037 -0.2086 -1.6746 -2.6329
 2004SOL     OW17644   3.287   3.241   2.835  0.4736 -0.1385 -0.5193
 2004SOL    HW117645   3.260   3.165   2.886  3.5134 -0.2301  0.9388
 2004SOL    HW217646   3.345   3.274   2.904 -0.3116  0.1832 -0.0197
 2005SOL     OW17647   4.550   3.716   2.961 -0.4186  0.8862 -0.5674
 2005SOL    HW117648   4.613   3.708   2.890 -1.6477 -0.4505 -1.4952
 2005SOL    HW217649   4.560   3.633   3.008 -0.2115  0.8888 -0.6071
 2006SOL     OW17650   1.554   3.039   7.879  0.0515 -0.4985  0.2346
 2006SOL    HW117651   1.647   3.040   7.899  0.1182 -0.7875 -0.0632
 2006SOL    HW217652   1.533   2.949   7.854  0.1019  0.2978 -2.7416
 2007SOL     OW17653   2.843   4.180  15.206 -0.4899 -0.0231  0.1376
 2007SOL    HW117654   2.830   4.178  15.111 -0.5069  2.0726  0.1100
 2007SOL    HW217655   2.881   4.096  15.234  0.6098  0.3137 -0.3195
 2008SOL     OW17656   1.346   4.719   9.304  0.0861  0.2165 -0.1957
 2008SOL    HW117657   1.266   4.696   9.350 -0.5708 -1.7372 -2.3528
 2008SOL    HW217658   1.376   0.040   9.369 -1.5588  0.1487  0.6227
 2009SOL     OW17659   0.868   0.841   8.272  0.6182  0.0764  0.6331
 2009SOL    HW117660   0.893   0.862   8.361 -1.4784  0.7209  1.0630
 2009SOL    HW217661   0.907   0.904   8.212  0.1293 -1.3702 -1.2241
 2010SOL     OW17662   2.671   2.555   7.915 -1.1654 -0.1140  0.3695
 2010SOL    HW117663   2.648   2.489   7.980  0.4090 -1.7725 -0.7746
 2010SOL    HW217664   2.765   2.548   7.932 -1.0401  0.8826  0.0558
 2011SOL     OW17665   1.213   4.229   6.241 -0.1887 -0.4527  0.0498
 2011SOL    HW117666   1.276   4.161   6.220  0.3728 -0.1099  0.6310
 2011SOL    HW217667   1.160   4.222   6.162 -2.8669  4.1282  1.4287
 2012SOL     OW17668   3.371   3.794   4.277 -0.5488 -0.2114  1.0857
 2012SOL    HW117669   3.294   3.742   4.296  0.5348 -1.5776  1.7160
 2012SOL    HW217670   3.345   3.881   4.307 -0.4761  0.9364 -2.1710
 2013SOL     OW17671   4.217   4.354   7.059 -0.1325  0.3635 -0.6804
 2013SOL    HW117672   4.267   4.294   7.004 -0.0651 -1.1652  1.0625
 2013SOL    HW217673   4.258   4.345   7.145  0.2485  0.2742 -0.8723
 2014SOL     OW17674   2.451   2.647   2.362 -0.3280 -0.2164  0.2766
 2014SOL    HW117675   2.478   2.604   2.443  0.0389 -1.6108 -0.5940
 2014SOL    HW217676   2.445   2.566   2.312 -2.0402 -0.3605  0.7216
 2015SOL     OW17677   0.326   4.151   9.271  0.2332 -0.1780  0.4692
 2015SOL    HW117678   0.373   4.118   9.348 -0.4069  0.7829  1.2759
 2015SOL    HW217679   0.303   4.069   9.227  3.8064 -0.9230 -0.0125
 2016SOL     OW17680   3.343   2.849   5.312 -0.1708  0.0955  0.4698
 2016SOL    HW117681   3.340   2.855   5.407  2.4994  0.5153  0.5136
 2016SOL    HW217682   3.438   2.855   5.314 -0.0726 -0.7415 -1.5133
 2017SOL     OW17683   2.302   1.904   7.665 -0.3549 -0.1398 -0.3637
 2017SOL    HW117684   2.374   1.952   7.707  1.0205 -1.4594 -1.1921
 2017SOL    HW217685   2.237   1.973   7.674  1.0473  1.0651  0.5623
 2018SOL     OW17686   2.815   4.516   4.639 -0.3093  0.1673 -0.2437
 2018SOL    HW117687   2.899   4.516   4.594  0.3118  1.9533  0.9110
 2018SOL    HW217688   2.790   4.608   4.632  1.0009  0.5423  0.0575
 2019SOL     OW17689   3.607   1.854  12.345  0.0350  0.0159 -0.2456
 2019SOL    HW117690   3.675   1.916  12.371  0.4897 -0.0624 -1.2554
 2019SOL    HW217691   3.590   1.883  12.255  0.2263  0.2996 -0.1907
 2020SOL     OW17692   2.062   4.379   3.167 -0.4597 -0.0462 -0.2565
 2020SOL    HW117693   2.097   4.331   3.242  0.4838  1.1551  0.0592
 2020SOL    HW217694   2.123   4.353   3.098  0.9757  0.6704  0.7508
 2021SOL     OW17695   4.490   2.567  15.509 -0.5863 -0.5488  0.1387
 2021SOL    HW117696   4.397   2.547  15.508 -1.1753  2.1849  0.0863
 2021SOL    HW217697   4.487   2.660  15.487 -1.6851 -0.9606 -1.4516
 2022SOL     OW17698   1.052   3.410   7.456  0.1557 -0.2556 -0.2579
 2022SOL    HW117699   1.014   3.340   7.402  1.7916 -1.6211  0.3932
 2022SOL    HW217700   1.127   3.434   7.402 -2.1334  1.4471 -2.7213
 2023SOL     OW17701   1.966   3.912   2.722  0.1589  0.3507 -0.3779
 2023SOL    HW117702   2.019   3.954   2.655  1.2724 -0.8470 -0.2629
 2023SOL    HW217703   2.035   3.880   2.781 -3.4206 -1.0053  3.0408
 2024SOL     OW17704   2.342   2.491  15.196  0.0554  0.1539  0.0846
 2024SOL    HW117705   2.421   2.504  15.143 -0.3049 -0.2663 -0.5580
 2024SOL    HW217706   2.304   2.409  15.165  1.2102 -0.4276  0.2402
 2025SOL     OW17707   3.501   1.988  15.538  0.1446  0.3503 -0.3541
 2025SOL    HW117708   3.544   1.913  15.579  0.3541 -0.6393 -2.3410
 2025SOL    HW217709   3.502   1.962  15.446  2.9514  0.3477 -0.3034
 2026SOL     OW17710   1.668   2.908   6.682  0.3418 -0.6057  0.1236
 2026SOL    HW117711   1.761   2.929   6.688 -0.1710  1.7215  0.1359
 2026SOL    HW217712   1.665   2.927   6.589 -0.0855 -2.0307 -0.1517
 2027SOL     OW17713   2.839   0.996  15.555  0.7383 -0.0465  0.3065
 2027SOL    HW117714   2.802   1.020  15.640 -0.8970 -1.1302 -0.1070
 2027SOL    HW217715   2.783   0.921  15.539  0.9849  0.3836 -2.5463
 2028SOL     OW17716   0.476   1.898  12.934  0.2821 -0.0679  0.1539
 2028SOL    HW117717   0.381   1.912  12.937  0.1102 -0.8006 -2.3751
 2028SOL    HW217718   0.485   1.819  12.988  0.6628  0.5307  0.9630
 2029SOL     OW17719   2.837   2.052   7.300 -0.0016 -0.2276  0.2396
 2029SOL    HW117720   2.889   2.130   7.282  0.7785 -0.6302  0.7121
 2029SOL    HW217721   2.883   1.983   7.252  2.8172  1.2981  0.7561
 2030SOL     OW17722   0.466   4.463   7.367  0.3684  0.1650  0.6230
 2030SOL    HW117723   0.380   4.478   7.407  0.2162  0.6727  0.1108
 2030SOL    HW217724   0.485   4.555   7.351  0.2771  0.1204  0.2482
 2031SOL     OW17725   2.581   3.340   7.820 -0.0183  0.3085  0.4375
 2031SOL    HW117726   2.544   3.394   7.891  1.3113  0.9354  0.6629
 2031SOL    HW217727   2.512   3.333   7.755  0.2920  1.9865 -0.0825
 2032SOL     OW17728   2.110   2.823   7.895 -0.2194  0.2937  0.4377
 2032SOL    HW117729   2.125   2.864   7.810  2.6401 -3.5945 -0.9175
 2032SOL    HW217730   2.141   2.733   7.899  0.1489  0.3653 -1.2136
 2033SOL     OW17731   2.752   4.557  14.927 -0.1432 -0.3528  0.7130
 2033SOL    HW117732   2.671   4.594  14.964 -0.4417  0.2296 -0.5216
 2033SOL    HW217733   2.801   4.530  15.004 -1.0225 -2.0139  0.6992
 2034SOL     OW17734   4.637   0.210   6.672 -0.3419  0.3781 -0.0688
 2034SOL    HW117735   4.549   0.190   6.704 -0.5359  0.4839 -0.5252
 2034SOL    HW217736   4.676   0.220   6.758  0.5664 -1.1290 -0.2920
 2035SOL     OW17737   3.497   1.818   3.001 -0.3997 -0.3249 -0.6330
 2035SOL    HW117738   3.463   1.728   2.995 -1.3948 -0.0287  0.5523
 2035SOL    HW217739   3.574   1.806   3.056  0.1157 -1.0477 -1.5040
 2036SOL     OW17740   4.002   4.059   3.308 -0.0315 -0.2882 -0.0782
 2036SOL    HW117741   4.005   3.991   3.240  0.0763 -3.6984  3.3620
 2036SOL    HW217742   4.092   4.075   3.337 -0.1591 -1.0077  0.7052
 2037SOL     OW17743   1.477   1.124   8.069 -0.1160 -0.1573  0.4336
 2037SOL    HW117744   1.468   1.186   7.996 -0.2583 -2.3557 -1.4006
 2037SOL    HW217745   1.572   1.127   8.080 -0.0967  0.5955  0.0661
 2038SOL     OW17746   0.830   4.266   4.447  0.0229  0.5249  0.2645
 2038SOL    HW117747   0.873   4.220   4.519 -2.3305 -0.6465  0.9424
 2038SOL    HW217748   0.794   4.190   4.400 -1.6130  2.3252 -1.4439
 2039SOL     OW17749   3.921   0.120   5.347 -0.0195  0.4880  0.1551
 2039SOL    HW117750   3.898   0.029   5.364 -1.1764  0.9382  0.9770
 2039SOL    HW217751   3.930   0.157   5.435  0.9536 -1.6638  0.9484
 2040SOL     OW17752   1.025   0.617   0.552  0.0505  0.0935 -0.0286
 2040SOL    HW117753   1.042   0.604   0.459  0.3518 -1.1638  0.2075
 2040SOL    HW217754   1.078   0.549   0.593 -2.0041 -1.5243 -0.0815
 2041SOL     OW17755   4.199   0.281  12.905  0.2413 -0.5900  0.4706
 2041SOL    HW117756   4.290   0.300  12.930  0.7275  0.6992 -2.2393
 2041SOL    HW217757   4.207   0.185  12.910 -2.8515 -0.9263 -1.4851
 2042SOL     OW17758   1.761   1.935   3.043 -0.1855 -0.0265  0.5719
 2042SOL    HW117759   1.850   1.969   3.039 -0.6195  0.7543 -2.1422
 2042SOL    HW217760   1.728   2.016   3.080  2.5124  1.7771 -0.9734
 2043SOL     OW17761   1.129   2.793   7.705  0.1018 -0.8567  0.0526
 2043SOL    HW117762   1.177   2.713   7.686  1.8702  0.2237 -0.0949
 2043SOL    HW217763   1.191   2.862   7.679 -0.0565 -0.4846  0.6436
 2044SOL     OW17764   1.334   1.545   0.194  0.0476  0.2212  0.6255
 2044SOL    HW117765   1.312   1.628   0.236 -1.7501  0.0877 -0.0515
 2044SOL    HW217766   1.249   1.506   0.176 -0.0912  1.1524 -0.7582
 2045SOL     OW17767   0.792   0.155  16.146 -0.4996  0.2205 -0.0919
 2045SOL    HW117768   0.737   0.127  16.073  0.8795  0.9413 -1.4214
 2045SOL    HW217769   0.877   0.155  16.101 -0.9852 -0.3709 -1.0117
 2046SOL     OW17770   1.277   3.074   2.233 -0.6467 -0.5968 -0.3774
 2046SOL    HW117771   1.260   3.135   2.162 -1.0504  1.7191  1.7449
 2046SOL    HW217772   1.330   3.128   2.291  0.0352 -1.0717 -0.5582
 2047SOL     OW17773   0.195   0.483   2.070  0.5582  0.4536  0.1224
 2047SOL    HW117774   0.175   0.390   2.086 -1.5805  0.7771 -0.6514
 2047SOL    HW217775   0.272   0.491   2.126  1.0905  1.3384 -0.7437
 2048SOL     OW17776   1.603   3.359   2.237  0.4925  0.1242  0.2251
 2048SOL    HW117777   1.664   3.335   2.167  0.9947 -1.4059  1.1828
 2048SOL    HW217778   1.665   3.362   2.309 -0.6218  0.7103  1.1577
 2049SOL     OW17779   2.057   0.045   1.835 -0.3508 -0.5207 -0.5542
 2049SOL    HW117780   2.092   0.012   1.918 -1.2136 -3.8152 -1.5188
 2049SOL    HW217781   2.130   0.016   1.780  0.6071  0.6542  0.0983
 2050SOL     OW17782   0.930   3.247   2.082 -0.0873  0.5983  0.0755
 2050SOL    HW117783   1.009   3.293   2.109  0.9704  1.0502 -3.7927
 2050SOL    HW217784   0.873   3.286   2.148 -0.8740  0.8750 -0.7697
 2051SOL     OW17785   0.720   1.882  13.521  0.0907  0.1393  0.2072
 2051SOL    HW117786   0.779   1.936  13.470 -0.7499  1.9006  1.1097
 2051SOL    HW217787   0.773   1.818  13.569  1.2554  0.7123 -0.3181
 2052SOL     OW17788   1.938   3.281   6.431  0.2587  0.2510 -0.2337
 2052SOL    HW117789   1.984   3.259   6.512  0.3266 -0.5833 -0.4990
 2052SOL    HW217790   2.006   3.337   6.394 -0.7029  2.6078  1.5775
 2053SOL     OW17791   2.397   2.884  17.208 -0.0317  0.4128  0.3860
 2053SOL    HW117792   2.302   2.875  17.199  0.3758  0.0056 -3.4921
 2053SOL    HW217793   2.412   2.791  17.220 -0.7921  0.3595  0.9258
 2054SOL     OW17794   1.938   3.830   7.363 -0.2360 -0.3598 -0.4338
 2054SOL    HW117795   1.967   3.919   7.384  1.4874 -1.0555  0.1073
 2054SOL    HW217796   1.887   3.820   7.443 -1.4466  2.2600 -0.8648
 2055SOL     OW17797   3.939   4.286   9.446  0.7055 -0.8521  0.2111
 2055SOL    HW117798   3.901   4.258   9.362 -0.0425 -1.7390  0.8421
 2055SOL    HW217799   3.917   4.377   9.465  0.0208 -0.3474 -2.9728
 2056SOL     OW17800   0.616   3.653   9.867 -0.3765 -0.1595  0.6226
 2056SOL    HW117801   0.528   3.632   9.836 -0.7386  0.3162  1.3344
 2056SOL    HW217802   0.658   3.642   9.782  1.7119 -0.3371  1.6762
 2057SOL     OW17803   2.918   2.862  10.995 -0.6080 -0.1118  0.3259
 2057SOL    HW117804   2.824   2.870  11.011 -0.2325  6.0563 -0.4751
 2057SOL    HW217805   2.950   2.927  11.058  0.0986  0.2885 -0.4483
 2058SOL     OW17806   1.742   4.426  15.702  0.4065  0.2863 -0.2792
 2058SOL    HW117807   1.699   4.399  15.621  0.6357  0.4483 -0.4535
 2058SOL    HW217808   1.757   4.519  15.687  0.1027  0.7192  2.1315
 2059SOL     OW17809   0.424   4.343  10.748 -0.2376  0.4120  0.2881
 2059SOL    HW117810   0.378   4.426  10.764 -0.7633  0.0652  0.5724
 2059SOL    HW217811   0.378   4.305  10.674  0.9065  2.0150 -1.2362
 2060SOL     OW17812   4.044   3.549  11.885 -0.5311  0.1776  0.3484
 2060SOL    HW117813   4.002   3.552  11.971 -2.8736  1.0572 -0.8131
 2060SOL    HW217814   4.107   3.621  11.892 -2.1247  1.5784  0.2425
 2061SOL     OW17815   2.686   0.288   3.399  0.6610 -0.4409 -0.0138
 2061SOL    HW117816   2.742   0.323   3.468 -0.8511  2.1452 -0.0905
 2061SOL    HW217817   2.637   0.365   3.370  0.8273 -0.9899 -1.7537
 2062SOL     OW17818   2.973   0.264  10.661 -0.2152 -0.1826  0.0325
 2062SOL    HW117819   3.027   0.186  10.647  0.6429  0.4824 -0.3964
 2062SOL    HW217820   3.028   0.313  10.722  1.2163 -1.4371 -0.2459
 2063SOL     OW17821   0.877   2.303   9.020  0.4488 -0.2063 -0.2338
 2063SOL    HW117822   0.782   2.302   9.031  0.4177 -0.0540 -0.4970
 2063SOL    HW217823   0.897   2.210   9.025  0.2188 -0.3360 -1.9620
 2064SOL     OW17824   1.684   0.331   5.267 -0.1571 -0.1959 -0.1593
 2064SOL    HW117825   1.596   0.293   5.266 -0.2863 -0.0247  3.1937
 2064SOL    HW217826   1.706   0.280   5.345 -0.8992 -1.1617 -0.5702
 2065SOL     OW17827   4.715   0.224   8.671  0.7088 -0.0920 -0.0971
 2065SOL    HW117828   4.669   0.307   8.679  0.7486  0.0000 -0.7854
 2065SOL    HW217829   4.648   0.162   8.642  2.0663 -2.1462  1.1900
 2066SOL     OW17830   3.778   3.380   3.016  0.1162  0.4218  0.2418
 2066SOL    HW117831   3.702   3.428   2.981 -0.1276 -0.8342 -0.9591
 2066SOL    HW217832   3.752   3.373   3.108  1.3175 -0.5002  0.4991
 2067SOL     OW17833   4.328   1.607   3.062  0.0954 -0.1045  0.2485
 2067SOL    HW117834   4.358   1.697   3.079 -1.1800  0.6107 -1.2436
 2067SOL    HW217835   4.279   1.596   3.144 -1.3556 -0.7452 -0.7083
 2068SOL     OW17836   3.520   1.686   8.340  0.0477 -0.1239 -0.2313
 2068SOL    HW117837   3.425   1.690   8.334 -0.0013 -0.3507  0.3546
 2068SOL    HW217838   3.518   1.602   8.387  3.4078  0.0690  0.2846
 2069SOL     OW17839   4.326   0.477   4.310  0.0006  0.0544 -0.7093
 2069SOL    HW117840   4.361   0.388   4.301  0.0010  0.0185 -0.3547
 2069SOL    HW217841   4.286   0.471   4.396 -0.9694 -0.5552 -1.2155
 2070SOL     OW17842   3.085   2.397   0.977  0.2931  0.4024 -0.3011
 2070SOL    HW117843   3.082   2.491   0.961  2.6878  0.7590  1.2865
 2070SOL    HW217844   3.093   2.403   1.073  1.3384 -0.9089 -0.2999
 2071SOL     OW17845   0.562   1.387  12.940 -1.0455 -0.7599 -0.6195
 2071SOL    HW117846   0.584   1.379  12.847  0.8349  0.6361 -0.2927
 2071SOL    HW217847   0.623   1.332  12.988 -2.3045 -0.2328  1.5864
 2072SOL     OW17848   1.330   1.466  14.645 -0.4599  0.1588  0.0309
 2072SOL    HW117849   1.416   1.467  14.603 -0.3268 -0.6943  0.2816
 2072SOL    HW217850   1.296   1.548  14.612 -0.4453  0.6830  1.3138
 2073SOL     OW17851   2.356   2.630   8.215  0.3108  0.0749  0.2886
 2073SOL    HW117852   2.416   2.603   8.284  0.9358  0.8859  0.0713
 2073SOL    HW217853   2.282   2.662   8.267 -1.3216 -0.2533 -1.8057
 2074SOL     OW17854   1.115   3.099  12.197  0.0721 -0.6639 -0.6083
 2074SOL    HW117855   1.194   3.136  12.158 -0.4689  0.4491 -0.6587
 2074SOL    HW217856   1.131   3.085  12.290  1.2267 -0.6914 -0.8062
 2075SOL     OW17857   2.534   3.555  11.779 -0.0236 -0.2393  0.2365
 2075SOL    HW117858   2.462   3.522  11.833  0.2503  0.2475  0.9031
 2075SOL    HW217859   2.596   3.483  11.792  1.1309  0.5982 -0.5708
 2076SOL     OW17860   2.064   3.253   8.190 -0.4584  0.3287 -0.6222
 2076SOL    HW117861   2.085   3.194   8.118 -0.6311 -1.1119  0.5016
 2076SOL    HW217862   1.970   3.254   8.172 -0.8500 -0.1883  1.3886
 2077SOL     OW17863   0.576   2.832   6.175  0.3359  0.2665  0.3207
 2077SOL    HW117864   0.612   2.892   6.109 -1.3220  2.2884  1.2741
 2077SOL    HW217865   0.569   2.884   6.255  0.5140 -2.0754  1.8479
 2078SOL     OW17866   3.002   4.220   2.563  0.4407  0.0953 -0.1686
 2078SOL    HW117867   2.955   4.159   2.506 -0.2907  1.6587 -1.2543
 2078SOL    HW217868   2.921   4.267   2.584 -0.2348 -0.6343 -1.0929
 2079SOL     OW17869   1.179   2.927   5.088 -0.4032 -0.0937 -0.2926
 2079SOL    HW117870   1.256   2.972   5.052 -0.9139 -0.5610 -1.9400
 2079SOL    HW217871   1.211   2.837   5.098 -0.0092 -0.0834 -1.4690
 2080SOL     OW17872   2.089   3.811   7.843  0.0864  0.0333  0.1427
 2080SOL    HW117873   2.176   3.776   7.826  1.1188  2.3005  0.7373
 2080SOL    HW217874   2.042   3.734   7.875  0.1274 -0.0981 -0.1108
 2081SOL     OW17875   2.389   2.318  15.430 -0.1520 -0.4531  0.0030
 2081SOL    HW117876   2.377   2.386  15.363  1.7657 -0.5855 -0.4750
 2081SOL    HW217877   2.338   2.249  15.388 -1.8403  1.8685 -1.7588
 2082SOL     OW17878   1.730   1.662   3.853 -0.0135 -0.0213 -0.2351
 2082SOL    HW117879   1.741   1.599   3.782  0.8274  0.7844 -0.8223
 2082SOL    HW217880   1.708   1.606   3.927  0.8230 -0.0084  0.0221
 2083SOL     OW17881   0.987   0.193   5.971  0.1472 -0.0473 -0.0208
 2083SOL    HW117882   1.000   0.179   5.877 -0.6966  1.0484 -0.3022
 2083SOL    HW217883   0.956   0.284   5.969 -0.1076 -0.1383 -0.1909
 2084SOL     OW17884   1.049   4.604   1.759  0.3137  0.3466 -0.2943
 2084SOL    HW117885   0.983   4.537   1.778  1.3101 -0.3512  0.7382
 2084SOL    HW217886   0.995   4.667   1.712  1.1392  2.4551  1.5283
 2085SOL     OW17887   0.867   2.123  12.633  0.0282  0.1719  0.2769
 2085SOL    HW117888   0.829   2.067  12.701  1.0052  0.2588  0.8899
 2085SOL    HW217889   0.875   2.053  12.569  2.9994 -1.5495  2.5281
 2086SOL     OW17890   2.896   3.809  16.704  0.4690 -0.2387  0.3682
 2086SOL    HW117891   2.859   3.726  16.676 -1.1855  0.3548  0.8173
 2086SOL    HW217892   2.814   3.847  16.733  0.4792 -1.5115  2.0265
 2087SOL     OW17893   0.240   0.956   5.197 -0.1184 -0.1934 -0.0704
 2087SOL    HW117894   0.215   1.029   5.140  0.4947 -1.2298 -1.6814
 2087SOL    HW217895   0.154   0.918   5.217 -0.2427  1.2234  2.0691
 2088SOL     OW17896   2.273   0.338   4.631 -0.7328 -0.1840 -0.2535
 2088SOL    HW117897   2.311   0.426   4.623  0.5289 -0.5857  1.1721
 2088SOL    HW217898   2.355   0.289   4.622  0.6344  2.4844 -2.2212
 2089SOL     OW17899   0.885   1.744   3.218  0.0756  0.3845  0.0455
 2089SOL    HW117900   0.934   1.720   3.139 -2.0178  2.0053 -1.7325
 2089SOL    HW217901   0.800   1.708   3.193 -0.0799  1.5976 -1.1632
 2090SOL     OW17902   2.509   1.405   7.991  0.3214  0.8337  0.0931
 2090SOL    HW117903   2.485   1.317   7.962  2.0052 -0.2889  2.1724
 2090SOL    HW217904   2.577   1.423   7.925 -0.9366 -0.7923 -1.6600
 2091SOL     OW17905   3.516   0.214   8.283 -0.8720  0.1787 -0.0390
 2091SOL    HW117906   3.436   0.168   8.309 -2.6195  2.4416 -1.4038
 2091SOL    HW217907   3.526   0.268   8.361  0.1228 -2.7627  1.8768
 2092SOL     OW17908   2.374   1.963   2.668  0.4228  0.0011 -0.1396
 2092SOL    HW117909   2.420   1.905   2.729  0.9283  2.2134  1.5773
 2092SOL    HW217910   2.305   1.900   2.646  0.6847  0.2817 -1.7089
 2093SOL     OW17911   0.589   4.379  11.552  0.5839  0.4733  0.2690
 2093SOL    HW117912   0.569   4.362  11.460 -0.7460 -0.5111  0.7513
 2093SOL    HW217913   0.659   4.316  11.565 -0.7557 -0.7009  1.7502
 2094SOL     OW17914   4.542   0.467   5.197 -0.3047  0.0516 -0.2222
 2094SOL    HW117915   4.488   0.482   5.120 -2.1324 -1.7683  0.6876
 2094SOL    HW217916   4.631   0.489   5.170  0.7000 -1.8814  1.4751
 2095SOL     OW17917   0.231   4.635   3.727  0.1847  0.1641  0.8054
 2095SOL    HW117918   0.300   4.690   3.688 -0.5321  1.3216  1.1884
 2095SOL    HW217919   0.280   4.573   3.781 -0.7343  0.2963  1.7886
 2096SOL     OW17920   3.331   3.853   6.019  0.7325 -0.4955  0.1493
 2096SOL    HW117921   3.334   3.791   6.091 -0.7542 -0.2435  0.4147
 2096SOL    HW217922   3.252   3.907   6.025 -0.0584 -1.9241  2.3282
 2097SOL     OW17923   0.710   4.728   7.569 -0.2471  0.6177 -0.4764
 2097SOL    HW117924   0.696   0.072   7.532  3.7146  0.0324 -3.3727
 2097SOL    HW217925   0.618   4.703   7.579 -0.4194  1.2495 -0.4599
 2098SOL     OW17926   1.989   0.781  10.343  0.5367  0.3033  0.3302
 2098SOL    HW117927   1.901   0.787  10.305  0.1138  1.0050  1.4278
 2098SOL    HW217928   2.027   0.865  10.318 -2.1433  1.5018  0.1884
 2099SOL     OW17929   3.882   1.267  12.514  0.4557  0.4938  0.5643
 2099SOL    HW117930   3.868   1.225  12.599  0.3897  0.2316  0.4213
 2099SOL    HW217931   3.975   1.287  12.513  0.7064 -0.7458  0.4239
 2100SOL     OW17932   2.502   3.621   3.845 -0.0106 -0.0408 -0.1948
 2100SOL    HW117933   2.466   3.701   3.807  0.1746  0.6155  1.0345
 2100SOL    HW217934   2.440   3.554   3.817  1.0229 -0.8638 -0.5398
 2101SOL     OW17935   4.264   1.784  10.516  0.0753  0.0052  0.1938
 2101SOL    HW117936   4.353   1.817  10.530  1.1211 -3.3434  1.3017
 2101SOL    HW217937   4.249   1.781  10.422  0.9986  0.0771  0.0439
 2102SOL     OW17938   4.026   3.889   0.635  0.1698 -0.0150  0.6270
 2102SOL    HW117939   3.958   3.825   0.657  1.2385 -1.2791  0.1873
 2102SOL    HW217940   4.009   3.910   0.543 -0.5954 -1.4593  0.4345
 2103SOL     OW17941   4.443   1.002  10.722 -0.1302 -0.3490 -0.1646
 2103SOL    HW117942   4.515   1.020  10.662 -1.8529  1.3170 -1.7377
 2103SOL    HW217943   4.424   0.909  10.709 -1.8625  0.0017 -0.1559
 2104SOL     OW17944   0.688   4.495   4.603  0.3278 -0.0417  0.1267
 2104SOL    HW117945   0.742   4.419   4.624 -0.2998 -0.3131  0.7501
 2104SOL    HW217946   0.757   4.562   4.600  0.5739 -0.3531 -1.2036
 2105SOL     OW17947   2.711   4.526   7.667  0.0538  0.1516 -0.2549
 2105SOL    HW117948   2.723   4.571   7.584 -3.0347  1.0796 -0.2003
 2105SOL    HW217949   2.643   4.576   7.713 -0.3125  1.0351 -1.7544
 2106SOL     OW17950   2.979   4.370   1.860  0.5519  0.2143  0.0769
 2106SOL    HW117951   3.063   4.327   1.874  0.2422 -0.3432  0.2327
 2106SOL    HW217952   2.957   4.401   1.947  1.4203  0.2184  0.2934
 2107SOL     OW17953   2.075   2.965  13.022  0.3551  0.1164  0.5994
 2107SOL    HW117954   2.062   3.028  12.951  0.3934  2.4234  2.6030
 2107SOL    HW217955   2.093   3.013  13.103 -0.0105  0.5087  0.4518
 2108SOL     OW17956   4.059   3.570   4.388  0.5493 -0.6956 -0.4533
 2108SOL    HW117957   4.129   3.629   4.416 -0.2269 -0.7149  1.5518
 2108SOL    HW217958   4.095   3.526   4.311 -0.0875 -1.8132 -0.1147
 2109SOL     OW17959   3.622   3.901   9.761  0.3381 -0.1946 -0.4199
 2109SOL    HW117960   3.666   3.827   9.720 -1.8947  0.5492 -4.1885
 2109SOL    HW217961   3.587   3.863   9.842  0.7310  1.8602  0.7004
 2110SOL     OW17962   1.350   3.303   3.301 -0.0497  0.4957  0.2892
 2110SOL    HW117963   1.445   3.312   3.290  0.2550 -2.8708  0.0664
 2110SOL    HW217964   1.345   3.220   3.348  0.7125 -1.0400 -2.3376
 2111SOL     OW17965   3.627   1.479   2.844  0.1566  0.1386 -0.1683
 2111SOL    HW117966   3.700   1.535   2.869 -0.2744 -0.1871  1.7736
 2111SOL    HW217967   3.571   1.477   2.922  1.5119  0.3070  0.8075
 2112SOL     OW17968   2.387   1.213   2.600  0.6780 -0.5326  0.0625
 2112SOL    HW117969   2.345   1.175   2.677 -1.3067  0.6220 -0.4573
 2112SOL    HW217970   2.477   1.217   2.633  0.7172  1.5463 -0.3076
 2113SOL     OW17971   0.605   3.131   6.945 -0.4594 -0.5285 -0.1360
 2113SOL    HW117972   0.697   3.105   6.955 -0.9466 -1.6798  1.3229
 2113SOL    HW217973   0.604   3.169   6.857 -2.1482 -0.0957  0.0665
 2114SOL     OW17974   3.446   0.220   9.087  0.0636 -0.0110  0.0542
 2114SOL    HW117975   3.428   0.269   9.168  1.3542 -0.3478  0.5347
 2114SOL    HW217976   3.358   0.199   9.057  0.8394  0.9738 -2.8886
 2115SOL     OW17977   4.371   2.691   9.756 -0.1344  0.0390  0.2218
 2115SOL    HW117978   4.417   2.755   9.810 -0.6827 -1.0787  2.0168
 2115SOL    HW217979   4.390   2.617   9.814 -1.8501 -0.1125  0.5924
 2116SOL     OW17980   1.305   1.633   7.660  0.3102  0.6827  0.2235
 2116SOL    HW117981   1.242   1.591   7.718 -1.2321  2.4183 -0.1956
 2116SOL    HW217982   1.378   1.571   7.653 -0.6388 -0.7602  2.9439
 2117SOL     OW17983   4.703   3.217   5.589 -0.2461 -0.4234 -0.1080
 2117SOL    HW117984   4.633   3.194   5.528  0.9320 -1.1232 -1.1842
 2117SOL    HW217985   4.673   3.176   5.670 -1.3415  0.1371 -0.2310
 2118SOL     OW17986   2.648   1.179   4.057  0.1152 -0.2767 -0.5237
 2118SOL    HW117987   2.607   1.195   4.142  1.2850  0.5616 -0.1165
 2118SOL    HW217988   2.578   1.212   4.002 -1.4089 -2.5065  0.0825
 2119SOL     OW17989   1.893   2.571   1.267 -0.7921  0.1313  0.4997
 2119SOL    HW117990   1.955   2.586   1.195 -2.7894  1.4024 -0.9402
 2119SOL    HW217991   1.952   2.578   1.342  0.8825  0.9610 -0.8920
 2120SOL     OW17992   1.080   0.877   1.220  0.2251  0.2253 -0.0969
 2120SOL    HW117993   1.052   0.926   1.298 -2.0182  1.9122 -1.9833
 2120SOL    HW217994   1.173   0.871   1.242  0.2636  0.1972 -0.2715
 2121SOL     OW17995   1.483   0.296   8.770 -0.0603  0.5102  0.3531
 2121SOL    HW117996   1.441   0.362   8.716  0.8872  0.5865 -0.2817
 2121SOL    HW217997   1.416   0.228   8.756  0.3096  0.6159 -1.9746
 2122SOL     OW17998   3.882   2.663   9.564  0.0052 -0.1151  0.5652
 2122SOL    HW117999   3.790   2.666   9.589  0.5546  1.9672  2.3960
 2122SOL    HW218000   3.935   2.670   9.644  0.2028 -3.3697  0.7054
 2123SOL     OW18001   0.991   3.806   0.951 -0.3280 -0.8187 -0.0127
 2123SOL    HW118002   1.019   3.894   0.924  0.9963 -0.8038  1.3857
 2123SOL    HW218003   1.068   3.750   0.958 -0.2410 -0.7261 -0.2013
 2124SOL     OW18004   0.040   4.357  12.874 -0.4890 -0.1528  0.3067
 2124SOL    HW118005   4.697   4.378  12.909 -0.4283 -0.8441  0.8603
 2124SOL    HW218006   0.090   4.334  12.952 -1.0946 -1.4070  0.3254
 2125SOL     OW18007   1.999   1.376  10.434 -0.0325 -0.6647  0.0396
 2125SOL    HW118008   1.920   1.390  10.381  0.6525 -1.6083 -1.2273
 2125SOL    HW218009   1.968   1.308  10.493 -1.5158  0.5446  0.6599
 2126SOL     OW18010   3.449   1.164   8.035  0.1297 -0.5577 -0.2828
 2126SOL    HW118011   3.487   1.226   8.097  0.0626  1.0606 -1.8675
 2126SOL    HW218012   3.480   1.213   7.959  2.2535 -0.2631  0.7551
 2127SOL     OW18013   3.441   0.364   6.299  0.2219 -0.2094 -0.0410
 2127SOL    HW118014   3.354   0.397   6.321 -0.4084 -0.9655 -1.4376
 2127SOL    HW218015   3.441   0.376   6.204  2.3215  0.6892  0.0694
 2128SOL     OW18016   2.605   0.080   5.504  0.3349  0.2848 -0.3688
 2128SOL    HW118017   2.610   0.081   5.409 -1.4252 -1.3918 -0.4911
 2128SOL    HW218018   2.694   0.046   5.514  1.1746  3.6623  3.7359
 2129SOL     OW18019   3.988   1.457   5.454 -0.3498 -0.1347  0.5507
 2129SOL    HW118020   3.956   1.471   5.543 -0.8279 -1.0058  0.5165
 2129SOL    HW218021   4.000   1.549   5.431  1.8262 -0.5852 -0.0793
 2130SOL     OW18022   2.983   2.369   2.310  0.1185  0.4090  0.5364
 2130SOL    HW118023   2.981   2.429   2.235  2.5197  1.3917  1.2516
 2130SOL    HW218024   2.905   2.382   2.364 -0.8521 -2.5885 -0.1429
 2131SOL     OW18025   1.200   0.330   0.515 -0.0687  0.1662 -0.0936
 2131SOL    HW118026   1.273   0.390   0.531  0.3341 -0.2625 -0.3037
 2131SOL    HW218027   1.171   0.320   0.606  0.0321  2.4865  0.2025
 2132SOL     OW18028   4.238   4.072   2.867  0.3661 -0.3273 -0.1632
 2132SOL    HW118029   4.146   4.068   2.843  0.0979 -0.2846  0.8502
 2132SOL    HW218030   4.275   4.153   2.833  1.9145 -1.3423 -0.8930
 2133SOL     OW18031   3.419   0.509   7.446  1.0518 -0.1754  0.0808
 2133SOL    HW118032   3.372   0.502   7.529  1.1874 -0.5992  0.1254
 2133SOL    HW218033   3.394   0.423   7.413 -1.1865  0.5241 -0.0507
 2134SOL     OW18034   2.786   2.334  15.062  0.2132  0.1872  0.4567
 2134SOL    HW118035   2.882   2.334  15.063  0.2443 -0.5288 -2.0124
 2134SOL    HW218036   2.767   2.245  15.091 -0.4300  0.2362  0.1838
 2135SOL     OW18037   1.719   1.674  16.083 -0.4596 -0.6936  0.6094
 2135SOL    HW118038   1.784   1.671  16.153  0.9192  0.1661 -0.6171
 2135SOL    HW218039   1.686   1.762  16.098  2.0194  0.1549  1.0205
 2136SOL     OW18040   2.918   2.492   3.452  0.2575  0.0709  0.1967
 2136SOL    HW118041   2.969   2.459   3.378  1.7108 -1.9494  2.0789
 2136SOL    HW218042   2.967   2.445   3.519 -0.8622 -2.3753 -0.6833
 2137SOL     OW18043   4.735   0.783   3.416  0.5257 -0.4411  0.2757
 2137SOL    HW118044   4.725   0.807   3.508 -1.3360  0.5107 -0.1690
 2137SOL    HW218045   4.743   0.688   3.427  2.4775 -0.2035  0.8263
 2138SOL     OW18046   2.454   2.580   4.278  0.0203  0.3722  0.1583
 2138SOL    HW118047   2.523   2.522   4.309 -0.0574  0.8039  1.1604
 2138SOL    HW218048   2.390   2.512   4.257  1.7932 -0.7752 -1.4157
 2139SOL     OW18049   0.445   3.662   3.451  0.0792 -0.2956 -0.0013
 2139SOL    HW118050   0.453   3.753   3.425 -0.4841 -1.3811 -3.9545
 2139SOL    HW218051   0.482   3.616   3.376 -0.9569 -2.8046  0.9975
 2140SOL     OW18052   0.971   1.701   8.158  1.1894  0.8602 -0.7092
 2140SOL    HW118053   1.031   1.690   8.232  0.5979 -0.5615 -0.4256
 2140SOL    HW218054   0.911   1.767   8.191 -1.5003 -1.7035 -0.4729
 2141SOL     OW18055   3.786   4.500   9.331  0.6284  0.5179  0.5283
 2141SOL    HW118056   3.727   4.567   9.296 -0.5988 -1.6163 -1.4802
 2141SOL    HW218057   3.780   4.438   9.259 -0.2997 -1.1915  2.0875
 2142SOL     OW18058   2.181   3.168   0.202 -0.2358 -0.1605  0.7320
 2142SOL    HW118059   2.231   3.202   0.276  0.2239 -1.0166  0.8161
 2142SOL    HW218060   2.209   3.077   0.196 -0.8397 -0.2906 -0.1377
 2143SOL     OW18061   0.570   2.704   8.894  0.0636 -0.6468 -0.2574
 2143SOL    HW118062   0.590   2.788   8.934 -0.3544 -0.9801  0.6628
 2143SOL    HW218063   0.659   2.678   8.873  0.6439 -0.5995  2.1556
 2144SOL     OW18064   1.229   2.483   3.022  0.0645  0.4805 -0.4793
 2144SOL    HW118065   1.180   2.522   2.950 -0.5161  0.5673 -0.0423
 2144SOL    HW218066   1.292   2.554   3.034 -0.3429  0.1849  3.7500
 2145SOL     OW18067   2.363   0.066  14.807 -0.2738 -0.6087  0.0576
 2145SOL    HW118068   2.411   0.102  14.732 -0.5869 -0.0364  0.1296
 2145SOL    HW218069   2.293   0.011  14.773 -2.2448  2.1082 -0.2645
 2146SOL     OW18070   4.266   1.064  10.931  0.5006 -0.4109  0.6065
 2146SOL    HW118071   4.266   1.015  11.014 -3.0937  0.2944  1.0071
 2146SOL    HW218072   4.307   1.004  10.868 -1.6012 -2.4288  1.1471
 2147SOL     OW18073   4.274   2.605   7.474  0.2607 -0.9557 -0.6458
 2147SOL    HW118074   4.264   2.610   7.379  0.7611  1.6332 -0.5623
 2147SOL    HW218075   4.302   2.694   7.498 -1.0177 -0.9880  0.9139
 2148SOL     OW18076   2.171   0.548  12.270 -0.5303  0.7470 -0.5061
 2148SOL    HW118077   2.255   0.590  12.254 -0.2137  1.1786  2.3216
 2148SOL    HW218078   2.178   0.528  12.363  2.2731 -3.3972 -1.5946
 2149SOL     OW18079   4.245   2.290   7.893 -0.5081  0.2373  0.5868
 2149SOL    HW118080   4.182   2.232   7.851  0.1813  0.4259 -0.6963
 2149SOL    HW218081   4.266   2.238   7.971 -0.7192 -0.6370  0.0622
 2150SOL     OW18082   3.975   0.447   4.961 -0.1135 -0.2268  0.1173
 2150SOL    HW118083   3.950   0.375   4.903  1.4728  1.3573 -2.5554
 2150SOL    HW218084   3.929   0.423   5.041  2.1013  0.1183  1.5043
 2151SOL     OW18085   1.909   3.864  13.718 -0.0822  0.2274  0.1676
 2151SOL    HW118086   1.861   3.923  13.659 -3.0058 -0.4241  1.8935
 2151SOL    HW218087   1.945   3.813  13.646  2.4229  2.3424 -0.0807
 2152SOL     OW18088   0.064   3.697   4.431 -0.4687  0.0900  0.2984
 2152SOL    HW118089   4.732   3.707   4.489 -0.3490 -1.0958  0.6500
 2152SOL    HW218090   0.029   3.656   4.352 -0.6151  4.0266 -1.6779
 2153SOL     OW18091   4.579   2.127   3.095  0.3769  0.2908  0.3234
 2153SOL    HW118092   4.600   2.201   3.039  1.4700  0.2746  0.7109
 2153SOL    HW218093   4.585   2.052   3.036  1.6330  0.7545 -0.1339
 2154SOL     OW18094   4.676   4.655  16.442  0.3215  0.7359  0.3106
 2154SOL    HW118095   4.740   4.719  16.475  0.1071  0.1389  1.8946
 2154SOL    HW218096   4.707   4.569  16.472  0.8644  1.4614  1.8385
 2155SOL     OW18097   0.302   2.451   5.353 -0.2208  0.5405  0.5550
 2155SOL    HW118098   0.214   2.475   5.324  0.4711  0.3573 -1.7141
 2155SOL    HW218099   0.331   2.541   5.362 -1.3902  0.8255  1.4896
 2156SOL     OW18100   1.551   2.380   5.650  0.2926  0.3676  0.1751
 2156SOL    HW118101   1.495   2.303   5.663 -0.0404  0.7854  1.1925
 2156SOL    HW218102   1.638   2.346   5.671 -0.7768 -1.9207  0.9386
 2157SOL     OW18103   0.094   2.232   3.654 -0.0007 -0.3831 -0.7740
 2157SOL    HW118104   0.161   2.210   3.719  0.3751 -2.3569 -1.8331
 2157SOL    HW218105   0.038   2.291   3.705 -0.1646  0.7820 -2.3089
 2158SOL     OW18106   2.431   0.886   3.562 -0.1367 -0.2379 -0.4435
 2158SOL    HW118107   2.475   0.873   3.646  1.7427  0.6400 -1.2838
 2158SOL    HW218108   2.385   0.803   3.550 -0.5503 -0.2185  0.9992
 2159SOL     OW18109   0.178   2.883   2.037 -0.4491 -0.1143 -0.0013
 2159SOL    HW118110   0.240   2.810   2.027 -0.5258 -0.4750  2.1795
 2159SOL    HW218111   0.215   2.947   1.976 -0.6171  0.0235  0.0425
 2160SOL     OW18112   2.702   2.063  15.169 -0.1614 -0.1847  0.4483
 2160SOL    HW118113   2.757   1.986  15.182  0.6604  0.4984  1.0910
 2160SOL    HW218114   2.616   2.027  15.150 -0.6952  1.5688 -0.4468
 2161SOL     OW18115   2.906   2.531   2.122  0.0015  0.0237  0.0110
 2161SOL    HW118116   2.856   2.602   2.083  0.3710  1.1112  1.5401
 2161SOL    HW218117   2.903   2.471   2.047 -2.1354  3.0461 -2.2882
 2162SOL     OW18118   4.431   1.589   3.480  0.2259 -0.0990  0.2975
 2162SOL    HW118119   4.369   1.517   3.467 -0.3364  0.0106  2.3862
 2162SOL    HW218120   4.491   1.542   3.537  2.2605  0.8100 -1.1166
 2163SOL     OW18121   3.107   2.109   0.973  0.8313 -0.2355  0.5276
 2163SOL    HW118122   3.075   2.095   0.883  0.4868 -0.0826  0.6228
 2163SOL    HW218123   3.134   2.200   0.959  2.0286 -0.8746 -1.3488
 2164SOL     OW18124   4.590   1.829  10.231 -0.4700 -0.0932 -0.0945
 2164SOL    HW118125   4.634   1.751  10.265  1.1015  0.1498 -1.5495
 2164SOL    HW218126   4.671   1.879  10.217 -0.2757 -0.0339  1.3363
 2165SOL     OW18127   0.766   4.479   9.696 -0.4941 -0.4980  0.3461
 2165SOL    HW118128   0.704   4.547   9.721 -0.4128 -0.7100  1.1361
 2165SOL    HW218129   0.710   4.419   9.645  1.0555 -1.0582 -0.6833
 2166SOL     OW18130   0.156   4.171   7.420 -0.2928  0.1823  0.1533
 2166SOL    HW118131   0.252   4.174   7.423 -0.3647  1.8658  1.0736
 2166SOL    HW218132   0.128   4.208   7.504  0.4442 -1.1873  0.9967
 2167SOL     OW18133   0.725   0.683   1.767  0.1890 -0.0488 -0.0387
 2167SOL    HW118134   0.650   0.732   1.801  0.0373  0.4188 -1.0442
 2167SOL    HW218135   0.760   0.752   1.710 -0.8155  0.0616 -0.5316
 2168SOL     OW18136   0.830   0.424   5.555 -0.6850  0.1178  0.6790
 2168SOL    HW118137   0.848   0.463   5.470 -0.7371 -1.5451 -0.0915
 2168SOL    HW218138   0.910   0.443   5.604 -0.0876 -1.1217  0.1819
 2169SOL     OW18139   4.021   0.432   5.375 -0.2824  0.3451 -0.1537
 2169SOL    HW118140   4.103   0.383   5.375  0.8291  2.2071 -1.1689
 2169SOL    HW218141   4.037   0.492   5.448 -0.4328 -1.4028  1.3314
 2170SOL     OW18142   4.408   1.442   8.677  0.0452  0.3476  0.0580
 2170SOL    HW118143   4.452   1.524   8.698  1.9527 -0.7090  0.2093
 2170SOL    HW218144   4.459   1.407   8.604 -4.8393  0.1139 -3.2813
 2171SOL     OW18145   3.992   1.014  12.025  0.1740  0.2131  0.4279
 2171SOL    HW118146   3.945   1.036  12.106 -0.1271 -0.9549  0.5738
 2171SOL    HW218147   4.058   0.951  12.054 -1.8188 -0.8242  2.7071
 2172SOL     OW18148   1.140   0.450   2.345  0.0014  0.2920 -0.4296
 2172SOL    HW118149   1.202   0.389   2.305  0.8442  0.8656  0.0056
 2172SOL    HW218150   1.080   0.471   2.273 -0.6703 -1.3449 -0.3497
 2173SOL     OW18151   2.893   0.180  14.806  0.2720 -0.2420  0.0635
 2173SOL    HW118152   2.813   0.233  14.800  0.3279 -0.1595  0.0580
 2173SOL    HW218153   2.946   0.195  14.728  0.2570 -3.5065 -0.5886
 2174SOL     OW18154   4.475   3.526  16.799 -0.3323 -0.2770  0.2943
 2174SOL    HW118155   4.530   3.543  16.722 -0.4097  3.2390  0.9984
 2174SOL    HW218156   4.513   3.444  16.829 -2.1380 -0.7252  1.3585
 2175SOL     OW18157   3.511   2.439   1.916  0.2049 -0.0946  0.0737
 2175SOL    HW118158   3.603   2.424   1.937  0.7036  1.3646 -1.0200
 2175SOL    HW218159   3.533   2.526   1.881 -2.2038  0.1593 -0.8165
 2176SOL     OW18160   2.011   3.956   8.134  0.1197  0.4825  0.4199
 2176SOL    HW118161   2.068   3.888   8.168 -1.5486 -2.0103 -1.7547
 2176SOL    HW218162   1.941   3.898   8.104  0.4732 -1.2900  2.9739
 2177SOL     OW18163   0.684   1.430   3.493  0.2324 -0.5757  0.1211
 2177SOL    HW118164   0.762   1.487   3.493  1.6052 -2.4408 -2.0522
 2177SOL    HW218165   0.721   1.343   3.478 -0.3073 -0.2161 -3.2551
 2178SOL     OW18166   4.721   2.446   3.762  0.6466 -0.0337  0.2098
 2178SOL    HW118167   0.014   2.435   3.850 -0.3136 -1.6448  0.4117
 2178SOL    HW218168   4.628   2.434   3.783  0.5393  0.9021  0.2929
 2179SOL     OW18169   1.095   3.848   9.265  0.2266 -0.2767  0.7605
 2179SOL    HW118170   1.022   3.788   9.248  1.3408 -1.8393  1.5057
 2179SOL    HW218171   1.124   3.817   9.350  2.9810  3.3186  1.1269
 2180SOL     OW18172   2.849   3.511   6.940 -0.2728  0.1294  0.0215
 2180SOL    HW118173   2.901   3.591   6.935 -0.2438  0.2637  2.3782
 2180SOL    HW218174   2.827   3.511   7.033  0.8878  1.1519  0.2987
 2181SOL     OW18175   2.391   3.168   7.597  0.6235 -0.6734 -0.3046
 2181SOL    HW118176   2.468   3.208   7.556 -0.3825  1.7735  0.1580
 2181SOL    HW218177   2.321   3.213   7.548 -0.4752  1.1940  2.9574
 2182SOL     OW18178   0.029   2.257   7.846 -0.1499 -0.4042  0.6532
 2182SOL    HW118179   0.049   2.318   7.776 -0.1297  2.6126  3.3163
 2182SOL    HW218180   4.680   2.239   7.830 -0.2466  0.8505 -0.1442
 2183SOL     OW18181   1.245   2.817  12.547  0.5163 -0.0926  0.0371
 2183SOL    HW118182   1.292   2.784  12.624  1.9310 -2.4766 -1.8617
 2183SOL    HW218183   1.265   2.753  12.478 -1.2906  0.4395 -0.9879
 2184SOL     OW18184   0.643   0.966  15.572  0.0438 -0.2080 -0.7923
 2184SOL    HW118185   0.663   0.931  15.659  1.4763  2.4295 -0.0602
 2184SOL    HW218186   0.606   0.886  15.534  0.1206 -0.3890 -0.4831
 2185SOL     OW18187   0.957   1.630   3.477 -0.0790  0.1950 -0.0825
 2185SOL    HW118188   0.884   1.678   3.515  1.4831 -0.3838  3.6584
 2185SOL    HW218189   0.947   1.664   3.388  1.4127  0.3617 -0.1878
 2186SOL     OW18190   0.738   2.360  10.889 -0.7073  0.1444 -0.2109
 2186SOL    HW118191   0.821   2.363  10.936 -0.0990  0.5470 -1.3116
 2186SOL    HW218192   0.697   2.285  10.934  2.0108 -0.7646  0.7178
 2187SOL     OW18193   0.753   1.105   6.537 -0.8135 -0.1260 -0.3508
 2187SOL    HW118194   0.752   1.148   6.623  3.0764 -0.5520 -0.0902
 2187SOL    HW218195   0.768   1.182   6.482 -1.0726 -0.4977 -0.9389
 2188SOL     OW18196   4.009   2.484   6.949 -0.6131  0.5198 -0.4544
 2188SOL    HW118197   3.980   2.425   7.019 -0.2223 -0.5063 -1.1487
 2188SOL    HW218198   4.029   2.417   6.883  1.4175  2.3366 -1.6788
 2189SOL     OW18199   1.088   2.017   3.915 -0.1791  0.1058 -0.5319
 2189SOL    HW118200   1.013   1.996   3.860 -0.7970  0.4667  0.1599
 2189SOL    HW218201   1.157   2.015   3.849 -0.1048  2.3617 -0.5262
 2190SOL     OW18202   0.675   0.619   8.801 -0.3556 -0.2500  0.1115
 2190SOL    HW118203   0.593   0.607   8.754 -0.8898  0.4458  0.8652
 2190SOL    HW218204   0.655   0.589   8.890 -2.2383  0.7842  0.0270
 2191SOL     OW18205   4.051   2.348   4.090  0.7907  0.2191 -0.2852
 2191SOL    HW118206   4.033   2.325   3.999  4.4485 -0.8223 -0.7265
 2191SOL    HW218207   4.032   2.442   4.088 -0.3532  0.0194  0.6583
 2192SOL     OW18208   4.063   2.476   6.032 -0.2281  0.9664 -0.0661
 2192SOL    HW118209   4.155   2.453   6.046 -0.2698 -0.8997 -2.9141
 2192SOL    HW218210   4.017   2.418   6.092  2.5755 -0.9024  0.2880
 2193SOL     OW18211   4.627   0.403   3.727 -0.2018 -0.6828  0.0808
 2193SOL    HW118212   4.557   0.380   3.666 -0.0263  1.4982 -0.9724
 2193SOL    HW218213   4.639   0.497   3.712  1.6099 -1.0143 -0.5148
 2194SOL     OW18214   2.853   0.398   1.650  0.2256 -0.1770 -0.2533
 2194SOL    HW118215   2.837   0.382   1.557 -0.0876  1.8680 -0.5463
 2194SOL    HW218216   2.803   0.333   1.699 -1.5770  1.0031 -0.5054
 2195SOL     OW18217   4.644   2.163  14.263  0.2684  0.1278 -0.3813
 2195SOL    HW118218   4.643   2.185  14.356 -1.5729 -1.4438 -0.0450
 2195SOL    HW218219   4.675   2.073  14.257 -0.6342 -0.2319  0.2835
 2196SOL     OW18220   0.866   2.215  17.485 -0.6436 -0.5165 -0.7419
 2196SOL    HW118221   0.853   2.123  17.460 -0.6689 -0.0458 -2.4457
 2196SOL    HW218222   0.775   2.236  17.463 -0.9914 -0.6344  0.5597
 2197SOL     OW18223   1.545   3.815   9.984 -0.1812  0.0861  0.2306
 2197SOL    HW118224   1.619   3.784   9.933  1.1057 -1.0863  2.8034
 2197SOL    HW218225   1.518   3.731  10.021  0.0949 -0.3394 -0.5229
 2198SOL     OW18226   0.705   0.651  15.002  0.2505 -0.2262 -0.3229
 2198SOL    HW118227   0.630   0.668  14.945 -1.3290 -0.9679  1.5204
 2198SOL    HW218228   0.742   0.738  15.019  0.0513 -0.0645 -0.7133
 2199SOL     OW18229   0.479   0.014   0.568  0.6273  0.4820  0.0993
 2199SOL    HW118230   0.490   0.060   0.651 -0.9036  2.6167 -0.8987
 2199SOL    HW218231   0.399   0.052   0.532  0.9471  1.5806  0.5600
 2200SOL     OW18232   1.952   4.602   3.346 -0.4486 -0.2173 -0.7022
 2200SOL    HW118233   1.996   4.521   3.317  2.1407  0.8802  0.1213
 2200SOL    HW218234   1.897   4.563   3.413 -1.9585 -0.3723 -2.0321
 2201SOL     OW18235   0.628   1.703  16.404 -0.0032  0.2618 -0.7053
 2201SOL    HW118236   0.572   1.629  16.428  3.3466 -1.4125  1.9035
 2201SOL    HW218237   0.697   1.684  16.468 -1.1881 -0.3349  0.3930
 2202SOL     OW18238   0.435   0.056   7.582 -0.4638  0.4671 -0.0836
 2202SOL    HW118239   0.460   0.117   7.513 -0.0262  0.5315  0.1278
 2202SOL    HW218240   0.449   0.109   7.661  2.2653  1.7162 -1.4004
 2203SOL     OW18241   3.906   1.578   4.888 -0.2149  0.2724  0.4644
 2203SOL    HW118242   3.895   1.673   4.893  1.5068  0.6076 -1.8846
 2203SOL    HW218243   3.870   1.551   4.803  0.0138 -0.3723  0.5732
 2204SOL     OW18244   3.218   1.468   7.808  0.0561 -0.2095 -0.0449
 2204SOL    HW118245   3.204   1.479   7.714  0.0640 -0.1377 -0.0374
 2204SOL    HW218246   3.204   1.373   7.815 -0.4614 -0.2403 -1.5315
 2205SOL     OW18247   3.765   4.369   2.858  0.1299 -0.2269 -0.0558
 2205SOL    HW118248   3.732   4.450   2.819  0.1781 -0.3997 -0.4550
 2205SOL    HW218249   3.683   4.338   2.897  0.3732 -0.2454  0.4332
 2206SOL     OW18250   3.873   0.820   2.253 -0.2287 -0.5673  0.3055
 2206SOL    HW118251   3.873   0.725   2.254  2.9686 -0.5415  1.7076
 2206SOL    HW218252   3.783   0.835   2.283 -1.2467 -1.0644 -2.4482
 2207SOL     OW18253   0.001   0.689   0.430  0.0487 -0.1728  0.0415
 2207SOL    HW118254   0.019   0.688   0.524  0.0897  0.7746  0.0461
 2207SOL    HW218255   4.650   0.696   0.434  0.0953  0.7887 -0.4442
 2208SOL     OW18256   2.131   0.663   1.486 -0.1819 -0.5562 -0.1648
 2208SOL    HW118257   2.128   0.735   1.423  1.8736  2.0554  2.7092
 2208SOL    HW218258   2.038   0.641   1.488 -0.5627  1.0217 -0.3321
 2209SOL     OW18259   4.211   2.926  17.330  0.6069 -0.5475  0.3569
 2209SOL    HW118260   4.291   2.976  17.314 -0.7056  1.3987 -0.1483
 2209SOL    HW218261   4.167   2.985  17.391 -0.5599 -0.4546 -0.5841
 2210SOL     OW18262   0.501   2.812  10.250 -0.0004  0.2918  0.1048
 2210SOL    HW118263   0.467   2.822  10.339 -0.8534  1.6735 -0.3670
 2210SOL    HW218264   0.595   2.826  10.257  0.0753 -1.0294  1.6544
 2211SOL     OW18265   3.496   4.276   2.102  0.4742  0.1318 -0.6403
 2211SOL    HW118266   3.519   4.358   2.058 -2.0681  2.4003  2.2391
 2211SOL    HW218267   3.425   4.308   2.157 -0.4462 -0.0646 -1.7204
 2212SOL     OW18268   2.466   1.843   5.201  0.1256 -0.1480  0.0152
 2212SOL    HW118269   2.398   1.898   5.239  1.4048  0.6156  1.1954
 2212SOL    HW218270   2.450   1.848   5.107 -0.3300 -0.9223  0.0484
 2213SOL     OW18271   2.150   2.286   8.996 -0.3590 -0.6651 -0.7684
 2213SOL    HW118272   2.166   2.374   8.961 -1.2843  0.1883  0.9552
 2213SOL    HW218273   2.169   2.303   9.088  1.8375 -1.8151 -1.0043
 2214SOL     OW18274   1.889   0.063   8.451 -0.2913 -0.1181 -0.1130
 2214SOL    HW118275   1.801   0.098   8.460 -0.2540  0.1353 -0.7850
 2214SOL    HW218276   1.913   0.050   8.543  0.1568  0.1753 -0.1829
 2215SOL     OW18277   4.259   0.566  11.577 -0.2210 -0.3509  0.0951
 2215SOL    HW118278   4.246   0.642  11.633 -1.3573  0.2573 -0.9966
 2215SOL    HW218279   4.343   0.533  11.608 -1.7656 -2.5255  1.9858
 2216SOL     OW18280   0.593   2.690   3.849  0.4518  0.5560  0.1980
 2216SOL    HW118281   0.620   2.729   3.932  0.4317  0.0255  0.4552
 2216SOL    HW218282   0.604   2.597   3.866  0.5507  0.5327  0.0047
 2217SOL     OW18283   3.936   3.994   8.225 -0.1221  0.2253 -0.0786
 2217SOL    HW118284   3.900   3.986   8.137  0.8105  2.4700 -0.6754
 2217SOL    HW218285   3.991   3.916   8.232  0.3427  0.7032  1.5011
 2218SOL     OW18286   0.356   1.157  16.333  0.2232  0.0560  0.1738
 2218SOL    HW118287   0.345   1.076  16.282  0.9230  0.3957 -0.5097
 2218SOL    HW218288   0.419   1.128  16.399  1.4596  2.5802  0.0937
 2219SOL     OW18289   1.139   1.021   5.332 -0.2007  0.0704  0.4914
 2219SOL    HW118290   1.188   1.063   5.261 -0.5654 -0.9863 -0.3972
 2219SOL    HW218291   1.061   1.075   5.326 -0.1252  0.2138  0.7992
 2220SOL     OW18292   1.098   0.617  16.908 -0.3415  0.4617 -0.2722
 2220SOL    HW118293   1.184   0.578  16.926 -1.2539 -1.6968 -0.6101
 2220SOL    HW218294   1.068   0.581  16.825  2.1476 -1.0853 -0.5060
 2221SOL     OW18295   4.430   2.589   8.869  0.5780  0.0917  0.4432
 2221SOL    HW118296   4.340   2.609   8.893  0.3015 -1.8907  1.0886
 2221SOL    HW218297   4.418   2.529   8.795 -1.3388  0.9653  0.0491
 2222SOL     OW18298   0.386   2.719   5.378  0.4809 -0.5218 -0.6987
 2222SOL    HW118299   0.422   2.712   5.466 -1.2016  0.1999  0.0388
 2222SOL    HW218300   0.328   2.794   5.387  0.9477 -0.3122  0.4745
 2223SOL     OW18301   4.233   2.825  12.496  0.0546  0.3093  0.1337
 2223SOL    HW118302   4.207   2.788  12.580 -0.6971  0.2650 -0.1181
 2223SOL    HW218303   4.154   2.877  12.478  0.8010  1.0476 -1.0024
 2224SOL     OW18304   1.266   3.584   6.023 -0.0507 -0.6449  0.2460
 2224SOL    HW118305   1.194   3.560   6.082 -0.6034 -2.1434 -1.0261
 2224SOL    HW218306   1.296   3.499   5.992  1.9053  0.1821 -0.1167
 2225SOL     OW18307   0.144   3.638  13.819  0.1721 -0.2010 -0.4526
 2225SOL    HW118308   0.232   3.598  13.822  0.0258 -0.5536 -0.8352
 2225SOL    HW218309   0.091   3.562  13.794  0.4062 -0.6252  0.3400
 2226SOL     OW18310   3.935   1.667   7.542 -0.1006 -0.4126 -0.2064
 2226SOL    HW118311   4.024   1.643   7.515  0.4587  0.6383  0.6948
 2226SOL    HW218312   3.934   1.762   7.544 -0.4443 -0.4046 -1.1003
 2227SOL     OW18313   0.264   2.018  10.265 -0.2186 -0.3286  0.2151
 2227SOL    HW118314   0.313   2.100  10.262 -0.8227  0.0749  1.2641
 2227SOL    HW218315   0.283   2.001  10.173 -1.2674  0.9328 -0.2251
 2228SOL     OW18316   0.751   0.739  12.602  0.6493  0.0722  0.4805
 2228SOL    HW118317   0.753   0.833  12.620 -0.9058  0.1588  0.2309
 2228SOL    HW218318   0.819   0.735  12.535  0.9679  3.0973  0.5854
 2229SOL     OW18319   2.294   2.695  16.892  0.1101  0.2084  0.5020
 2229SOL    HW118320   2.246   2.681  16.810 -1.1309  0.0429  1.2529
 2229SOL    HW218321   2.227   2.730  16.950  1.1556  0.4555  1.5667
 2230SOL     OW18322   2.098   4.727   4.703  0.1675  0.3865 -0.1812
 2230SOL    HW118323   2.101   0.053   4.638 -3.1066  0.6804 -0.0254
 2230SOL    HW218324   2.044   4.661   4.659  1.7122 -0.3848 -0.9284
 2231SOL     OW18325   1.056   3.508   6.884  0.0356  0.2342  0.2062
 2231SOL    HW118326   0.997   3.436   6.860 -0.5308  1.2364 -1.3475
 2231SOL    HW218327   1.106   3.466   6.954  0.6072  0.0366 -0.3221
 2232SOL     OW18328   4.027   0.681   5.202  0.0124 -0.0553 -0.4558
 2232SOL    HW118329   4.013   0.591   5.232 -2.2508  0.8062  1.1325
 2232SOL    HW218330   3.964   0.718   5.264  0.2976  0.2937 -0.3783
 2233SOL     OW18331   4.356   0.861   4.869 -0.0379  0.6566 -0.4852
 2233SOL    HW118332   4.388   0.827   4.785  2.1021  0.8076  0.2773
 2233SOL    HW218333   4.264   0.835   4.860  0.4951 -1.1068 -0.7246
 2234SOL     OW18334   0.185   0.980   9.559 -0.3171 -0.0425  0.4793
 2234SOL    HW118335   0.132   1.039   9.504 -1.3947 -0.3530  1.1963
 2234SOL    HW218336   0.113   0.943   9.610  1.4513 -2.3533  1.2535
 2235SOL     OW18337   4.662   3.790  16.201 -0.7411  0.1034  0.0632
 2235SOL    HW118338   4.666   3.712  16.257 -0.3955  0.2239  0.2019
 2235SOL    HW218339   0.008   3.808  16.173 -0.4809  0.3257  1.0688
 2236SOL     OW18340   1.600   2.083   5.971 -0.1907  0.3283 -1.3071
 2236SOL    HW118341   1.562   2.170   5.959 -1.2578 -0.0244 -0.4826
 2236SOL    HW218342   1.608   2.078   6.067 -0.4770  0.2512 -1.2872
 2237SOL     OW18343   4.115   4.036   2.332 -0.5975  0.1443  0.4638
 2237SOL    HW118344   4.089   4.058   2.422 -0.7506 -0.4125  0.5607
 2237SOL    HW218345   4.058   3.961   2.311 -0.4480  0.4639 -1.0263
 2238SOL     OW18346   1.122   2.826  14.749  0.0059  0.0806 -0.2026
 2238SOL    HW118347   1.171   2.887  14.694  0.1875  0.6120  0.5540
 2238SOL    HW218348   1.176   2.821  14.827 -0.1175  0.4016 -0.0935
 2239SOL     OW18349   1.192   0.612   8.374 -0.3904 -0.7437 -0.2069
 2239SOL    HW118350   1.179   0.613   8.279  0.4197  1.5328 -0.2940
 2239SOL    HW218351   1.126   0.552   8.409 -1.3036 -0.7925 -1.9961
 2240SOL     OW18352   1.081   2.763  10.595 -0.7052  0.2840  0.1510
 2240SOL    HW118353   1.050   2.853  10.583  0.4335  0.4947 -1.2681
 2240SOL    HW218354   1.167   2.781  10.556  0.2194  0.2771  2.1860
 2241SOL     OW18355   1.090   4.386   3.917  0.3765 -0.1133 -0.3615
 2241SOL    HW118356   1.075   4.431   4.000 -0.2007 -0.0394 -0.5084
 2241SOL    HW218357   1.001   4.372   3.884 -0.0558 -0.9552  1.1831
 2242SOL     OW18358   0.952   4.402  15.377  0.3480 -0.4235  0.0736
 2242SOL    HW118359   1.042   4.435  15.381  1.2344 -2.9995  1.4830
 2242SOL    HW218360   0.963   4.322  15.429 -0.6066 -0.2735  0.5116
 2243SOL     OW18361   2.183   2.661   2.368  0.5514  0.2702  0.1287
 2243SOL    HW118362   2.279   2.667   2.371  0.6556 -1.2288 -0.1229
 2243SOL    HW218363   2.159   2.747   2.334  4.0057  1.4789  0.7146
 2244SOL     OW18364   0.480   3.836   6.886 -0.2368  0.2844  0.2166
 2244SOL    HW118365   0.548   3.801   6.944  0.2018 -0.6121 -0.8580
 2244SOL    HW218366   0.406   3.819   6.945 -0.1281 -2.6099 -0.5204
 2245SOL     OW18367   0.457   0.627   8.652 -0.3523  1.0052  0.3126
 2245SOL    HW118368   0.442   0.719   8.670  1.4537  1.7822 -2.0904
 2245SOL    HW218369   0.379   0.607   8.601 -0.1634 -0.4199  0.5627
 2246SOL     OW18370   1.225   2.188   9.060  0.5609 -0.7486 -0.0117
 2246SOL    HW118371   1.175   2.266   9.081 -1.2921 -2.0570  0.4436
 2246SOL    HW218372   1.252   2.169   9.150  0.4887  0.5467  0.2741
 2247SOL     OW18373   0.038   1.213   4.315  0.0667  0.3201 -0.1939
 2247SOL    HW118374   0.128   1.181   4.307 -1.3170 -3.1918 -1.7719
 2247SOL    HW218375   0.041   1.273   4.389  2.4634 -1.6491  1.3205
 2248SOL     OW18376   1.561   3.290   8.262  0.0161 -0.3934 -0.3205
 2248SOL    HW118377   1.640   3.317   8.309 -0.2983 -0.9219  0.5076
 2248SOL    HW218378   1.576   3.197   8.247 -3.5273 -0.9087 -0.7152
 2249SOL     OW18379   2.697   1.290  10.894 -0.2849  0.0011 -0.0411
 2249SOL    HW118380   2.620   1.252  10.936 -0.1267  0.5163  0.7184
 2249SOL    HW218381   2.668   1.305  10.804 -2.2306  1.9197  0.9243
 2250SOL     OW18382   2.908   2.631  13.319 -0.7244  0.0269  0.0715
 2250SOL    HW118383   2.979   2.650  13.381 -1.7247  1.5237  0.7624
 2250SOL    HW218384   2.876   2.721  13.317 -1.1286 -0.1044  0.6221
 2251SOL     OW18385   4.224   3.778   8.220  0.0916 -0.1289  0.4202
 2251SOL    HW118386   4.296   3.722   8.191  0.3948  0.2738  0.3963
 2251SOL    HW218387   4.259   3.807   8.304  0.0216  0.5747  0.2032
 2252SOL     OW18388   1.733   0.925  11.750  0.2047 -0.7103 -0.0860
 2252SOL    HW118389   1.761   0.910  11.660 -0.5276  0.6042 -0.5413
 2252SOL    HW218390   1.732   1.020  11.764  0.3828 -0.4783 -1.7072
 2253SOL     OW18391   1.758   0.101   2.501 -0.2602  0.2528 -0.2216
 2253SOL    HW118392   1.792   0.188   2.481  0.8994 -0.2229 -0.3533
 2253SOL    HW218393   1.795   0.080   2.587 -1.8582 -0.5529  0.2667
 2254SOL     OW18394   3.440   1.180   3.662 -0.1318 -0.4110  0.3011
 2254SOL    HW118395   3.360   1.131   3.643  0.0390 -1.2222  1.7001
 2254SOL    HW218396   3.503   1.134   3.607  0.4652  0.1136  0.5425
 2255SOL     OW18397   3.282   4.286   7.826  0.0469  0.1029 -0.2328
 2255SOL    HW118398   3.230   4.323   7.754  0.4951  2.8868  0.8957
 2255SOL    HW218399   3.309   4.356   7.885  0.7839 -1.3536  1.1531
 2256SOL     OW18400   0.055   0.086   3.334 -0.9314 -0.6593  0.3726
 2256SOL    HW118401   0.038   0.037   3.254 -3.7973  0.8982  0.0121
 2256SOL    HW218402   0.053   0.014   3.397  1.6349 -0.5069  0.6273
 2257SOL     OW18403   0.501   2.853   3.343 -0.7024 -0.3389  0.4152
 2257SOL    HW118404   0.545   2.898   3.271  0.5085  1.0955  2.0330
 2257SOL    HW218405   0.499   2.772   3.292  0.4973  2.0510 -3.3989
 2258SOL     OW18406   2.859   0.012   8.577 -0.9151 -0.3681  0.0696
 2258SOL    HW118407   2.770   4.729   8.603 -0.5870 -0.0013  1.6005
 2258SOL    HW218408   2.883   0.079   8.641 -2.2784  2.1877 -2.1099
 2259SOL     OW18409   1.815   3.955   6.704 -0.0172 -0.2172 -0.2295
 2259SOL    HW118410   1.796   4.003   6.624  0.6766  1.7032  0.7608
 2259SOL    HW218411   1.825   4.028   6.765  0.1484 -0.0115 -0.5017
 2260SOL     OW18412   3.796   0.164   2.379  0.3539  0.2216  0.0029
 2260SOL    HW118413   3.764   0.077   2.401  1.8186 -0.7598 -1.7776
 2260SOL    HW218414   3.757   0.184   2.294 -0.1096  0.7113  0.3294
 2261SOL     OW18415   1.036   3.934   0.193  0.1748  0.3903  0.0744
 2261SOL    HW118416   0.994   3.937   0.107  0.8306  1.8869 -0.1974
 2261SOL    HW218417   0.987   4.004   0.235 -0.8150  0.8398 -1.8228
 2262SOL     OW18418   4.103   0.773   3.006  0.4998  0.1221  0.3633
 2262SOL    HW118419   4.019   0.803   2.972 -1.0500 -2.3059  2.0201
 2262SOL    HW218420   4.077   0.722   3.083  0.6787 -2.1713 -1.0944
 2263SOL     OW18421   1.123   0.598  12.565 -0.4447 -0.2395  0.0049
 2263SOL    HW118422   1.211   0.562  12.555 -0.2307 -0.2097  1.8627
 2263SOL    HW218423   1.129   0.669  12.501  1.5802  0.7095  1.2388
 2264SOL     OW18424   3.043   3.716  12.097 -0.4122  0.1148 -0.0119
 2264SOL    HW118425   3.016   3.672  12.016  1.0392 -1.1577  0.1792
 2264SOL    HW218426   3.139   3.718  12.094 -0.4344  0.5149 -0.4012
 2265SOL     OW18427   3.356   3.939   4.913  0.0886  0.1073  0.0188
 2265SOL    HW118428   3.262   3.926   4.905  0.3213 -0.9446 -0.9568
 2265SOL    HW218429   3.365   4.030   4.944  1.8528  0.5413 -1.7270
 2266SOL     OW18430   0.916   4.085   4.671  0.0864  0.4263 -0.1994
 2266SOL    HW118431   0.883   4.159   4.720 -0.3083  0.4695 -0.5284
 2266SOL    HW218432   0.977   4.047   4.733  0.8638  3.4015  0.8430
 2267SOL     OW18433   3.304   0.054   8.355  0.4282 -0.3624 -0.0629
 2267SOL    HW118434   3.242   0.047   8.283  0.6074  1.4016 -0.3900
 2267SOL    HW218435   3.249   0.023   8.426 -0.6525 -0.7416 -1.0725
 2268SOL     OW18436   1.123   0.578   6.632  0.1475 -0.5169  0.3285
 2268SOL    HW118437   1.029   0.578   6.651 -0.0863  0.8402 -0.8482
 2268SOL    HW218438   1.164   0.585   6.718 -0.5722  1.1988  0.5323
 2269SOL     OW18439   4.502   0.468   6.968 -0.6146  0.1007  0.3911
 2269SOL    HW118440   4.501   0.556   6.930  1.7159  0.4045  0.9944
 2269SOL    HW218441   4.560   0.502   7.037 -0.7684  0.7550  0.1958
 2270SOL     OW18442   0.009   1.545   3.435  0.1093 -0.1059  0.0723
 2270SOL    HW118443   4.725   1.602   3.507 -1.5848 -0.6643 -0.1432
 2270SOL    HW218444   0.004   1.602   3.358  0.6997 -0.2420 -0.0664
 2271SOL     OW18445   3.787   2.392   6.353  0.4665  0.2203  0.4625
 2271SOL    HW118446   3.739   2.467   6.317 -2.3091 -0.9166  1.7536
 2271SOL    HW218447   3.745   2.398   6.439  0.1162 -1.4034  0.4066
 2272SOL     OW18448   2.547   4.670   3.729 -0.5983 -0.7169 -0.3600
 2272SOL    HW118449   2.567   4.654   3.637 -1.1841  2.4548 -1.0300
 2272SOL    HW218450   2.628   4.634   3.765 -1.5043 -1.4627  0.9398
 2273SOL     OW18451   2.216   2.732  13.036  0.7506 -0.2361  0.0034
 2273SOL    HW118452   2.165   2.809  13.009  0.4077 -0.2402  0.6451
 2273SOL    HW218453   2.251   2.700  12.952 -0.2362 -1.8863  0.2294
 2274SOL     OW18454   1.778   0.368   4.084 -0.8594  0.2746 -0.0782
 2274SOL    HW118455   1.707   0.388   4.144 -1.0219  1.0272 -0.5279
 2274SOL    HW218456   1.735   0.386   4.000 -0.1169  1.1655 -0.2672
 2275SOL     OW18457   4.236   0.959   2.124  0.1453 -0.2947  0.5971
 2275SOL    HW118458   4.147   0.936   2.098  1.0255 -3.6403  0.4952
 2275SOL    HW218459   4.267   0.868   2.125  1.7423  0.2134 -2.5264
 2276SOL     OW18460   0.316   0.840   4.450 -0.0101 -0.3546  0.1393
 2276SOL    HW118461   0.345   0.807   4.535 -0.8874 -0.4450  0.4078
 2276SOL    HW218462   0.288   0.920   4.494 -1.7322 -1.1065  0.3921
 2277SOL     OW18463   2.019   1.622   2.479 -0.6847 -0.1023  0.3086
 2277SOL    HW118464   1.926   1.636   2.468 -0.7142 -0.3234  0.2808
 2277SOL    HW218465   2.049   1.693   2.422 -2.1099 -1.4485 -2.0725
 2278SOL     OW18466   4.439   0.852   1.022  0.3413 -0.3597 -0.2606
 2278SOL    HW118467   4.392   0.890   1.096  0.1884  0.4912 -0.8025
 2278SOL    HW218468   4.449   0.760   1.047 -1.7558 -1.4480 -3.3418
 2279SOL     OW18469   3.417   0.339   3.158 -0.4025 -0.5585 -0.3078
 2279SOL    HW118470   3.340   0.384   3.191 -0.6005 -1.5253  0.5550
 2279SOL    HW218471   3.461   0.313   3.239  1.3346 -0.5152 -1.2391
 2280SOL     OW18472   2.799   3.148  17.089  0.4218  0.5486  0.1499
 2280SOL    HW118473   2.715   3.107  17.068 -0.5457  1.1036  2.9143
 2280SOL    HW218474   2.868   3.110  17.035  1.0985  0.3385  1.1569
 2281SOL     OW18475   0.580   3.703   1.950 -0.3153 -0.1844 -0.3271
 2281SOL    HW118476   0.515   3.635   1.961 -0.7177  0.3834  0.8590
 2281SOL    HW218477   0.548   3.740   1.868 -0.0256  1.1168  0.1315
 2282SOL     OW18478   2.285   0.021   7.399 -0.0630 -0.8781 -0.0255
 2282SOL    HW118479   2.252   0.052   7.483 -1.0459  1.3549 -1.2253
 2282SOL    HW218480   2.211   4.718   7.359 -1.5820  0.0666  1.6456
 2283SOL     OW18481   2.334   0.641   4.505 -0.0657  0.6254  0.3846
 2283SOL    HW118482   2.316   0.626   4.412  2.5508 -1.7153  0.2413
 2283SOL    HW218483   2.417   0.596   4.518 -0.6821 -0.4608  0.4735
 2284SOL     OW18484   4.104   4.434  17.472  0.1038 -0.2920  0.2519
 2284SOL    HW118485   4.185   4.383  17.463 -0.1009 -0.5102 -0.4396
 2284SOL    HW218486   4.128   4.519  17.507 -1.5509  1.6102 -3.2822
 2285SOL     OW18487   0.263   3.736   2.573  0.1616  0.0756 -0.1326
 2285SOL    HW118488   0.300   3.773   2.654  0.7516 -1.4570  0.2944
 2285SOL    HW218489   0.227   3.652   2.601  0.5979 -0.1483 -0.2402
 2286SOL     OW18490   2.489   1.926   4.142 -0.0224  0.2246 -0.2267
 2286SOL    HW118491   2.483   2.021   4.150  2.4778  0.1100  3.2085
 2286SOL    HW218492   2.417   1.897   4.199  1.4678 -1.7035  0.6656
 2287SOL     OW18493   2.379   2.279   1.213  0.2846  0.0849  0.1050
 2287SOL    HW118494   2.467   2.306   1.189 -0.0079  2.9190  2.2351
 2287SOL    HW218495   2.357   2.351   1.271  0.2739  0.0361  0.1623
 2288SOL     OW18496   4.188   0.167   3.380  0.0835  0.1999 -0.7484
 2288SOL    HW118497   4.169   0.153   3.472  1.1277 -1.4291 -0.7880
 2288SOL    HW218498   4.167   0.081   3.344  0.7230 -0.7481  1.1597
 2289SOL     OW18499   1.009   1.290   9.591 -0.0808  0.0118  0.1749
 2289SOL    HW118500   0.989   1.380   9.616 -0.6988  0.3204 -1.4264
 2289SOL    HW218501   0.967   1.285   9.505  0.2636  0.8663 -0.0444
 2290SOL     OW18502   4.566   3.380   6.129  0.5164  0.1109 -0.1118
 2290SOL    HW118503   4.599   3.370   6.040 -0.9995  1.1659 -0.7894
 2290SOL    HW218504   4.496   3.444   6.116  2.0245  1.6479 -0.6359
 2291SOL     OW18505   2.525   2.871   5.104 -0.6174  0.3856  0.3058
 2291SOL    HW118506   2.439   2.873   5.063 -0.4327  1.2979 -0.0324
 2291SOL    HW218507   2.529   2.962   5.133 -0.4960 -0.1247  1.9263
 2292SOL     OW18508   3.768   0.526   0.979 -0.0824  0.2567 -0.1592
 2292SOL    HW118509   3.849   0.497   0.938  0.7600  1.7180  0.5081
 2292SOL    HW218510   3.717   0.551   0.902  1.2818  0.0187 -1.1397
 2293SOL     OW18511   3.348   3.510   4.574 -0.4699 -0.6062  0.6789
 2293SOL    HW118512   3.390   3.431   4.539 -2.8647 -1.5100 -0.1759
 2293SOL    HW218513   3.256   3.484   4.577 -0.3489 -1.1217 -0.2786
 2294SOL     OW18514   0.179   1.099   9.850  0.7540 -1.2603 -0.2356
 2294SOL    HW118515   0.148   1.023   9.800  1.2736 -1.5173 -0.1666
 2294SOL    HW218516   0.272   1.079   9.866  0.8826 -0.3612  0.1216
 2295SOL     OW18517   3.084   3.416   6.661  0.6113  0.3492 -0.0452
 2295SOL    HW118518   3.158   3.435   6.603 -0.2513  1.2795 -0.8315
 2295SOL    HW218519   3.057   3.503   6.691 -0.0306 -0.4682  1.7740
 2296SOL     OW18520   0.125   0.997   7.382  0.4204  0.5442  0.3199
 2296SOL    HW118521   0.036   1.032   7.373  1.1715  2.3624 -0.0963
 2296SOL    HW218522   0.151   1.037   7.465  0.5169  0.9817  0.0784
 2297SOL     OW18523   3.571   3.555   2.899  0.0305  0.4264  0.0942
 2297SOL    HW118524   3.510   3.576   2.971 -0.6940  0.5533 -0.5515
 2297SOL    HW218525   3.513   3.587   2.830 -0.2347  2.6093  1.3412
 2298SOL     OW18526   2.457   3.103   6.351 -0.2127 -0.4856 -0.0433
 2298SOL    HW118527   2.504   3.054   6.418 -0.5215 -1.0300 -0.2247
 2298SOL    HW218528   2.534   3.117   6.296 -0.0940 -0.2229  0.1879
 2299SOL     OW18529   4.492   4.545   3.276  0.1916  0.0637  0.3609
 2299SOL    HW118530   4.525   4.532   3.365 -1.6746 -0.1237  1.0341
 2299SOL    HW218531   4.451   4.460   3.256 -0.6366  0.2404  1.3395
 2300SOL     OW18532   3.883   1.984   5.667 -0.3607  0.1731 -0.1500
 2300SOL    HW118533   3.811   1.946   5.616  0.1616 -0.2454 -0.5757
 2300SOL    HW218534   3.860   1.938   5.747  2.4313 -0.6721  0.1652
 2301SOL     OW18535   2.929   1.973   7.785 -0.7615  0.5892 -0.3302
 2301SOL    HW118536   2.838   1.949   7.765 -0.2253 -1.7864  0.1778
 2301SOL    HW218537   2.912   2.032   7.859  0.1807  1.4960 -0.8425
 2302SOL     OW18538   0.237   1.302  15.908  0.5293 -0.1897 -0.2172
 2302SOL    HW118539   0.282   1.298  15.993  2.3990  0.0600 -1.1929
 2302SOL    HW218540   0.236   1.393  15.879 -0.1132  0.0474  0.5556
 2303SOL     OW18541   1.311   0.848  10.338 -0.3993 -0.4194 -0.0658
 2303SOL    HW118542   1.271   0.819  10.256 -0.5991  1.7901 -0.7612
 2303SOL    HW218543   1.327   0.763  10.379  2.0389  1.2209  2.3962
 2304SOL     OW18544   2.110   4.478   7.826  0.2421  0.0277 -0.2150
 2304SOL    HW118545   2.103   4.413   7.756 -1.1688  0.6228 -0.6375
 2304SOL    HW218546   2.037   4.534   7.800  0.1912 -0.6466 -1.5251
 2305SOL     OW18547   0.471   0.154   8.718 -0.3533  0.0085  0.0894
 2305SOL    HW118548   0.429   0.238   8.735  0.2277  0.1862  0.6208
 2305SOL    HW218549   0.391   0.112   8.685 -0.3804  1.6293 -1.8970
 2306SOL     OW18550   2.417   2.697   7.330 -0.5115  0.1462  0.3538
 2306SOL    HW118551   2.469   2.773   7.301 -1.7962  1.3124  1.1288
 2306SOL    HW218552   2.485   2.646   7.374  0.2345  1.3344  0.5800
 2307SOL     OW18553   4.603   2.968   9.564  0.2950  0.2767 -0.4189
 2307SOL    HW118554   4.541   3.012   9.506 -2.5083 -1.3499  1.3695
 2307SOL    HW218555   4.680   2.999   9.516  0.8605 -2.8751 -1.5189
 2308SOL     OW18556   1.650   2.117   5.470  0.1150  0.5310 -0.0174
 2308SOL    HW118557   1.556   2.105   5.460  0.6285 -2.5855 -1.0793
 2308SOL    HW218558   1.651   2.124   5.565 -0.3826 -2.3338  0.1884
 2309SOL     OW18559   0.972   3.763   3.695 -0.4587  0.0188 -0.6599
 2309SOL    HW118560   1.063   3.738   3.710 -0.0980  1.0922 -1.1406
 2309SOL    HW218561   0.924   3.681   3.679 -1.4967  0.1922  1.6095
 2310SOL     OW18562   4.140   1.605   2.849 -0.3611  0.5264  0.2135
 2310SOL    HW118563   4.198   1.618   2.924 -1.6781 -0.6604  1.4414
 2310SOL    HW218564   4.075   1.540   2.876  0.6948 -0.1540  1.1033
 2311SOL     OW18565   1.553   3.257   5.155  0.4696 -0.0032 -0.5981
 2311SOL    HW118566   1.469   3.243   5.198  1.1631 -0.5340  0.5688
 2311SOL    HW218567   1.602   3.181   5.186  0.2808 -0.1374 -0.6266
 2312SOL     OW18568   3.204   0.395   8.889 -0.3019  0.1092  0.2642
 2312SOL    HW118569   3.224   0.381   8.797  0.3006  3.0573 -0.0595
 2312SOL    HW218570   3.177   0.306   8.912 -0.1577  0.1989  0.7787
 2313SOL     OW18571   4.549   1.703  16.974 -0.2166 -0.3079 -0.6873
 2313SOL    HW118572   4.502   1.625  16.948 -2.4568  0.4662  1.0675
 2313SOL    HW218573   4.637   1.692  16.938 -0.5657 -1.0234 -1.3015
 2314SOL     OW18574   1.737   0.202   8.757  0.0626 -0.3347  0.6373
 2314SOL    HW118575   1.771   0.290   8.743 -0.4390 -0.2430 -0.0410
 2314SOL    HW218576   1.648   0.235   8.766 -0.5786 -1.6180 -0.8810
 2315SOL     OW18577   1.310   4.311   5.784  0.1579  0.0753  0.2439
 2315SOL    HW118578   1.243   4.329   5.718 -0.2460  0.6775  0.8248
 2315SOL    HW218579   1.280   4.233   5.830  1.2417 -0.5265 -0.0827
 2316SOL     OW18580   2.809   2.146   4.275 -0.0871  0.3471 -0.4039
 2316SOL    HW118581   2.738   2.085   4.295  0.0514  0.2002 -0.3476
 2316SOL    HW218582   2.770   2.188   4.199 -2.0255  0.1023  0.4566
 2317SOL     OW18583   1.132   3.548  17.475  0.1351 -0.1594 -0.4427
 2317SOL    HW118584   1.224   3.535  17.498  0.0151  0.8463  0.6100
 2317SOL    HW218585   1.137   3.629  17.425 -0.8694 -0.9315 -1.7977
 2318SOL     OW18586   1.677   1.105  16.949  0.6974  0.1519  0.1639
 2318SOL    HW118587   1.748   1.169  16.942  1.5424 -0.6532  1.5141
 2318SOL    HW218588   1.688   1.057  16.866 -1.5487  0.5209 -0.3310
 2319SOL     OW18589   0.131   1.065   6.566 -0.6644  0.1623 -0.0371
 2319SOL    HW118590   0.138   0.972   6.585  1.6459  0.0083 -1.6113
 2319SOL    HW218591   0.040   1.088   6.549 -0.7471  0.3075  0.5736
 2320SOL     OW18592   1.939   1.914   0.796 -0.0130  0.1094  0.0145
 2320SOL    HW118593   2.028   1.949   0.789  0.9795 -2.0208  2.1717
 2320SOL    HW218594   1.897   1.998   0.816 -1.0522 -0.2370 -0.7175
 2321SOL     OW18595   2.894   3.013   5.310  0.2356  0.1310  0.4263
 2321SOL    HW118596   2.930   3.044   5.227 -3.7024 -1.4945 -1.8573
 2321SOL    HW218597   2.830   3.080   5.330  1.1402  1.2380 -0.3923
 2322SOL     OW18598   1.992   1.239  11.716  0.5015 -0.6788 -0.8541
 2322SOL    HW118599   1.947   1.206  11.638 -1.9359 -0.8958  0.6520
 2322SOL    HW218600   1.919   1.241  11.777  2.5866  2.3779  1.5631
 2323SOL     OW18601   0.142   0.918  16.817 -0.1009 -0.0769 -0.4598
 2323SOL    HW118602   0.168   0.958  16.900  0.7053 -0.2495 -0.6267
 2323SOL    HW218603   0.101   0.998  16.783  3.8134  2.0615 -0.1435
 2324SOL     OW18604   0.653   3.985   6.069  0.0750 -0.0137 -0.0335
 2324SOL    HW118605   0.731   3.972   6.017  0.5125 -0.7129  0.7947
 2324SOL    HW218606   0.696   4.025   6.145  2.0181 -1.1867 -0.5350
 2325SOL     OW18607   4.108   2.534   7.672  0.1585  0.0706 -0.0455
 2325SOL    HW118608   4.064   2.451   7.687 -0.2807  0.4521  0.7867
 2325SOL    HW218609   4.122   2.537   7.577 -1.2239 -2.2004 -0.3208
 2326SOL     OW18610   2.653   2.761  11.073 -0.5016 -0.3454 -0.8388
 2326SOL    HW118611   2.631   2.744  10.981 -1.1209  0.8630 -0.9178
 2326SOL    HW218612   2.652   2.672  11.109  0.9587 -1.1744 -2.8643
 2327SOL     OW18613   0.186   0.087   6.479  0.2896 -0.4781 -0.0954
 2327SOL    HW118614   0.225   0.005   6.507 -0.7855 -1.3192 -1.0667
 2327SOL    HW218615   0.224   0.151   6.539 -1.1351 -0.2346  0.5478
 2328SOL     OW18616   2.258   2.101  15.319 -0.0548 -0.4188 -0.3186
 2328SOL    HW118617   2.168   2.125  15.295 -0.1860 -0.5058  0.0859
 2328SOL    HW218618   2.237   2.025  15.373  0.2817  0.4710  1.0614
 2329SOL     OW18619   2.840   2.634   8.699  0.2649 -0.1589 -0.9681
 2329SOL    HW118620   2.777   2.589   8.755  1.9764 -1.6236 -0.2451
 2329SOL    HW218621   2.924   2.633   8.745 -0.1688 -0.8358 -0.1891
 2330SOL     OW18622   3.377   1.765   1.469 -0.0653 -0.6523 -0.3645
 2330SOL    HW118623   3.454   1.805   1.508 -0.9102  0.7637 -0.1412
 2330SOL    HW218624   3.307   1.811   1.515  0.1410 -0.1263 -0.5716
 2331SOL     OW18625   0.728   1.549   6.365  0.6119 -0.8094 -0.3883
 2331SOL    HW118626   0.641   1.587   6.375  1.4445  1.1473 -0.6793
 2331SOL    HW218627   0.781   1.608   6.418 -0.8799  0.3521 -0.2021
 2332SOL     OW18628   2.348   4.715   5.074 -0.2837 -0.6975  0.0719
 2332SOL    HW118629   2.269   0.024   5.060  0.2669 -0.2723 -1.3903
 2332SOL    HW218630   2.350   4.646   5.008 -1.3614  1.2751 -2.0154
 2333SOL     OW18631   4.381   3.574   9.901  0.1563  0.6113 -0.3773
 2333SOL    HW118632   4.387   3.563   9.806  0.2202  0.2751 -0.3343
 2333SOL    HW218633   4.286   3.575   9.909  0.1760 -1.9006  0.0055
 2334SOL     OW18634   3.569   1.696   1.236  0.0818 -0.0403 -0.1986
 2334SOL    HW118635   3.566   1.604   1.263 -3.0055  0.4115  0.9746
 2334SOL    HW218636   3.569   1.688   1.140 -0.5118  2.0702 -0.3852
 2335SOL     OW18637   4.141   4.290   2.629  0.3380  0.2445 -0.1345
 2335SOL    HW118638   4.070   4.274   2.566 -0.0538 -1.2709  0.6892
 2335SOL    HW218639   4.096   4.301   2.713  0.4385  2.0639 -0.3079
 2336SOL     OW18640   3.415   0.519   0.524 -0.0163  0.5862  0.0479
 2336SOL    HW118641   3.352   0.590   0.524 -0.9707 -0.2636  0.0311
 2336SOL    HW218642   3.470   0.555   0.454 -1.0153 -0.1522 -1.1074
 2337SOL     OW18643   4.059   2.462   5.344 -0.2222  0.2442  0.3520
 2337SOL    HW118644   3.995   2.506   5.289 -0.2955 -1.2961 -0.8062
 2337SOL    HW218645   4.097   2.396   5.285  0.1302  0.2126  0.6093
 2338SOL     OW18646   1.954   1.245   3.907  0.4756 -0.3091  0.7018
 2338SOL    HW118647   1.954   1.318   3.970 -0.2019 -1.1925  1.7236
 2338SOL    HW218648   1.965   1.281   3.819  1.6291 -0.2905  0.8488
 2339SOL     OW18649   1.280   2.374  11.974 -0.1326 -0.3968  0.1023
 2339SOL    HW118650   1.235   2.393  11.892 -1.2258 -0.5225  0.6769
 2339SOL    HW218651   1.358   2.429  11.960 -0.7542  0.3659 -0.3507
 2340SOL     OW18652   0.244   2.133   1.164 -0.1901 -0.1745  0.1264
 2340SOL    HW118653   0.162   2.132   1.114 -0.1681  0.0685  0.0828
 2340SOL    HW218654   0.226   2.205   1.224  0.4098  0.2145 -0.1597
 2341SOL     OW18655   3.368   4.271  12.086  0.8011 -0.3966 -0.3998
 2341SOL    HW118656   3.432   4.323  12.135 -0.7329 -1.3104  2.5620
 2341SOL    HW218657   3.310   4.250  12.158  0.9279 -1.3627 -0.5812
 2342SOL     OW18658   0.696   1.989   4.125  0.3411 -0.1736 -0.0548
 2342SOL    HW118659   0.765   2.056   4.119  0.7595 -0.6322 -0.4503
 2342SOL    HW218660   0.742   1.908   4.102 -0.3333 -0.0761 -1.7427
 2343SOL     OW18661   2.396   2.844   7.737 -0.3064 -0.4683 -0.0127
 2343SOL    HW118662   2.405   2.773   7.800  0.9397  1.9121  2.5043
 2343SOL    HW218663   2.462   2.803   7.681  1.1168  1.1532  0.4620
 2344SOL     OW18664   1.784   0.937   3.785  0.0646  0.1701 -0.1520
 2344SOL    HW118665   1.714   0.966   3.843  0.8996  0.0361  0.9188
 2344SOL    HW218666   1.814   0.854   3.822 -2.1169 -0.3849  0.3508
 2345SOL     OW18667   1.019   2.759  12.856 -0.4662 -0.0890  0.4119
 2345SOL    HW118668   1.049   2.690  12.914  1.0677  1.2264  1.1853
 2345SOL    HW218669   0.994   2.704  12.782 -0.2490 -2.5418  2.1777
 2346SOL     OW18670   0.095   1.680  17.561  0.0483 -0.1855  0.4157
 2346SOL    HW118671   4.743   1.691  17.559  0.5491  4.0934 -0.0165
 2346SOL    HW218672   0.110   1.655  17.652 -0.6099 -2.4372 -0.0957
 2347SOL     OW18673   2.763   2.745   5.406 -0.1389 -0.1476  0.0804
 2347SOL    HW118674   2.714   2.739   5.488 -0.5639 -2.8865 -0.3598
 2347SOL    HW218675   2.717   2.817   5.363  0.4525 -1.2043 -2.3806
 2348SOL     OW18676   0.413   2.559   7.693 -0.2571  0.0796  0.5255
 2348SOL    HW118677   0.489   2.563   7.636 -0.8643  1.0865 -0.2199
 2348SOL    HW218678   0.353   2.503   7.643  1.7421  0.0877 -1.8516
 2349SOL     OW18679   3.080   3.517   7.995 -0.3270  0.0368 -0.1548
 2349SOL    HW118680   3.125   3.570   7.929 -1.1667  1.2234  0.2187
 2349SOL    HW218681   3.017   3.465   7.944  0.3845  0.6689 -1.6936
 2350SOL     OW18682   3.042   3.323  13.799 -0.2815 -0.5876 -0.0442
 2350SOL    HW118683   2.986   3.320  13.721 -1.3128 -1.4507  0.7274
 2350SOL    HW218684   2.997   3.390  13.851  0.5726  0.9949 -1.3599
 2351SOL     OW18685   3.892   0.131  13.294  0.1602  0.4799  0.2627
 2351SOL    HW118686   3.880   0.113  13.200 -0.8855 -5.2824  1.4815
 2351SOL    HW218687   3.930   0.218  13.300 -1.1426  1.1770 -1.5206
 2352SOL     OW18688   3.556   2.913  17.598  0.3156 -0.5006 -0.5985
 2352SOL    HW118689   3.573   2.955  17.683 -0.1377 -0.5013 -0.5056
 2352SOL    HW218690   3.544   2.991  17.544 -0.9357  1.0763  1.9449
 2353SOL     OW18691   0.330   4.253   1.520 -0.8766 -0.6389  0.0219
 2353SOL    HW118692   0.367   4.231   1.434 -2.7025  1.5852 -1.3433
 2353SOL    HW218693   0.394   4.213   1.579  0.3271  0.5108 -0.4967
 2354SOL     OW18694   1.561   0.682   1.675 -0.3813  0.1543  0.2513
 2354SOL    HW118695   1.610   0.609   1.714 -0.2675 -0.2708 -0.6787
 2354SOL    HW218696   1.473   0.654   1.698 -1.4105  1.2187 -2.4248
 2355SOL     OW18697   3.865   2.755   5.647 -0.1772 -1.1112 -0.1030
 2355SOL    HW118698   3.881   2.662   5.628  3.1506 -0.5917  0.1353
 2355SOL    HW218699   3.897   2.761   5.737 -1.1011  2.0792 -0.0114
 2356SOL     OW18700   2.954   1.209  10.849  0.5595  0.0545 -0.2569
 2356SOL    HW118701   2.939   1.126  10.895  2.8411  0.1282  0.6227
 2356SOL    HW218702   2.876   1.261  10.869 -0.1653 -0.4567 -1.7428
 2357SOL     OW18703   0.850   3.458  13.966 -0.2569  0.2364 -0.2383
 2357SOL    HW118704   0.798   3.498  14.036  0.9657 -1.9686  1.9296
 2357SOL    HW218705   0.815   3.374  13.997  2.0172 -0.7281 -0.2751
 2358SOL     OW18706   0.713   2.808   4.080 -0.1862 -0.0055  0.0315
 2358SOL    HW118707   0.677   2.887   4.042 -0.1944  1.3002  2.7380
 2358SOL    HW218708   0.807   2.826   4.079 -0.3741  0.9912  0.5409
 2359SOL     OW18709   1.074   2.865  15.979 -0.0186 -0.5396  0.0544
 2359SOL    HW118710   1.149   2.860  16.038  1.1902  0.6365 -1.3887
 2359SOL    HW218711   0.995   2.842  16.028 -0.4356  3.4514  1.2392
 2360SOL     OW18712   1.380   4.233  14.643  0.4014 -0.1959  0.5943
 2360SOL    HW118713   1.449   4.229  14.708  0.9076 -2.9470 -0.0805
 2360SOL    HW218714   1.428   4.287  14.580  1.4492 -1.8484 -0.0283
 2361SOL     OW18715   0.693   1.942  11.411 -1.0454  0.3292 -0.2485
 2361SOL    HW118716   0.737   2.007  11.357 -1.5786 -0.9870 -2.2451
 2361SOL    HW218717   0.704   1.990  11.493 -2.2025  0.8574 -0.4047
 2362SOL     OW18718   2.205   2.033   9.363 -0.1696 -0.6845  0.6719
 2362SOL    HW118719   2.232   2.079   9.442 -0.1572  1.2215 -0.4560
 2362SOL    HW218720   2.282   2.048   9.308 -0.6151  0.8102  0.4650
 2363SOL     OW18721   3.844   0.861  17.757 -0.0443  0.2887 -0.2675
 2363SOL    HW118722   3.853   0.781  17.706 -1.2664  0.5072 -0.8248
 2363SOL    HW218723   3.795   0.914  17.694  3.2899  0.8849 -2.3363
 2364SOL     OW18724   4.226   4.032   0.837  0.2948 -0.3316  0.4535
 2364SOL    HW118725   4.246   3.938   0.836 -0.6327 -0.5272  0.0115
 2364SOL    HW218726   4.140   4.019   0.798 -0.0974  0.0362  1.1931
 2365SOL     OW18727   1.362   2.235   6.437  0.1257 -0.0146  0.5118
 2365SOL    HW118728   1.313   2.156   6.414 -0.1474  0.0755  0.7871
 2365SOL    HW218729   1.435   2.195   6.485  0.6972  0.4721  0.0604
 2366SOL     OW18730   1.283   0.753   0.730 -0.4769 -0.1373  0.1816
 2366SOL    HW118731   1.317   0.733   0.817  0.5459  0.6621 -0.0309
 2366SOL    HW218732   1.190   0.758   0.753 -0.4086  0.0172  0.4265
 2367SOL     OW18733   1.370   0.667   6.211 -0.5655 -0.8908 -0.1045
 2367SOL    HW118734   1.315   0.660   6.133 -0.9659  0.3680  0.0504
 2367SOL    HW218735   1.299   0.662   6.275 -1.0925 -0.9637 -0.6952
 2368SOL     OW18736   4.380   0.742  10.881  0.4095  0.1361 -0.5679
 2368SOL    HW118737   4.363   0.648  10.880  0.3553  0.1378  1.8393
 2368SOL    HW218738   4.475   0.742  10.889  0.4622 -0.4878 -1.2126
 2369SOL     OW18739   2.731   1.203   7.781 -0.3008 -0.3056  0.0808
 2369SOL    HW118740   2.640   1.211   7.809 -0.6676  0.2229 -1.2610
 2369SOL    HW218741   2.733   1.232   7.689  0.3969 -2.2709 -0.5302
 2370SOL     OW18742   3.675   1.914   2.547  0.4198 -0.0992  0.5705
 2370SOL    HW118743   3.705   2.004   2.534  0.1381 -0.0698  0.0957
 2370SOL    HW218744   3.581   1.931   2.558  0.1308 -1.2137 -0.1004
 2371SOL     OW18745   1.981   1.194   5.695 -0.0259  0.2785  0.2509
 2371SOL    HW118746   1.971   1.284   5.663 -1.0089 -0.4972 -1.6292
 2371SOL    HW218747   2.042   1.149   5.637 -0.0612 -0.1054  0.5174
 2372SOL     OW18748   3.014   0.167   9.693  0.8586 -0.6182  0.4556
 2372SOL    HW118749   3.055   0.228   9.754 -1.8189  1.3935  0.2252
 2372SOL    HW218750   3.051   0.086   9.730  1.6242  0.1501  1.3762
 2373SOL     OW18751   4.563   1.267   8.879 -0.0013 -0.3928 -0.5572
 2373SOL    HW118752   4.514   1.288   8.959 -1.2299  1.0409 -1.6678
 2373SOL    HW218753   4.523   1.301   8.799 -1.9485  0.5165  0.7970
 2374SOL     OW18754   4.334   0.022   7.522  0.0657 -0.1954 -0.5376
 2374SOL    HW118755   4.255   0.021   7.576 -0.2229  3.0057 -0.8991
 2374SOL    HW218756   4.356   0.115   7.531  0.2441 -0.1230 -1.8431
 2375SOL     OW18757   4.392   4.418   2.354 -0.2227 -0.3059  0.5484
 2375SOL    HW118758   4.368   4.491   2.412 -0.0260 -0.1001  0.3734
 2375SOL    HW218759   4.315   4.363   2.368 -0.7080  0.0183 -0.8713
 2376SOL     OW18760   4.525   0.921   7.283  0.4398 -0.3141 -0.8300
 2376SOL    HW118761   4.438   0.882   7.280  0.4359 -0.5102  1.5386
 2376SOL    HW218762   4.518   0.989   7.350 -0.8351  0.2650 -1.5793
 2377SOL     OW18763   4.174   3.239   6.155 -0.1721  0.1942  0.0043
 2377SOL    HW118764   4.148   3.174   6.220 -0.8992 -1.8558 -2.3292
 2377SOL    HW218765   4.235   3.186   6.103  3.6624  1.2483  3.3630
 2378SOL     OW18766   1.090   3.464   7.726 -0.2447 -0.5239  0.1842
 2378SOL    HW118767   1.108   3.552   7.692  0.0467 -0.2384  1.0746
 2378SOL    HW218768   1.055   3.426   7.645  0.9202 -2.2511  0.5003
 2379SOL     OW18769   3.481   2.534   8.450  0.1564 -0.1749  0.2766
 2379SOL    HW118770   3.546   2.595   8.414 -2.8426  1.8881 -1.6854
 2379SOL    HW218771   3.407   2.594   8.460  0.3681 -0.1282  1.4890
 2380SOL     OW18772   3.316   2.448  12.004 -0.5679  0.3612 -0.5943
 2380SOL    HW118773   3.357   2.489  11.927  1.6061  0.0754  0.4070
 2380SOL    HW218774   3.302   2.530  12.052  2.5865  0.7908 -0.4049
 2381SOL     OW18775   1.149   3.392   8.520 -0.0256 -0.4405 -0.1436
 2381SOL    HW118776   1.097   3.330   8.571 -1.1011  1.5018  1.1299
 2381SOL    HW218777   1.226   3.341   8.496 -0.0625 -0.2182 -0.7365
 2382SOL     OW18778   4.701   0.566   6.409  0.2426 -0.7387 -0.7237
 2382SOL    HW118779   0.047   0.557   6.442 -0.5730 -3.2876  0.8031
 2382SOL    HW218780   4.710   0.527   6.322  1.3141 -0.8681 -0.5622
 2383SOL     OW18781   4.137   2.031  11.936 -0.1537 -0.0319  0.9914
 2383SOL    HW118782   4.083   2.099  11.897 -2.7533 -0.9774  2.9184
 2383SOL    HW218783   4.085   1.986  12.002  0.7063  0.9283  2.3178
 2384SOL     OW18784   3.669   0.976  14.122  0.1664  0.5340 -0.3990
 2384SOL    HW118785   3.613   0.914  14.074  0.5023  0.1164 -0.2533
 2384SOL    HW218786   3.704   1.031  14.053 -0.3447 -2.7849 -3.3027
 2385SOL     OW18787   2.851   1.529   4.162  0.8144 -0.3220 -0.2685
 2385SOL    HW118788   2.836   1.623   4.171  1.0991 -0.1636 -1.3793
 2385SOL    HW218789   2.857   1.517   4.067  1.1387 -0.9744 -0.1695
 2386SOL     OW18790   3.007   0.634  11.345  0.0486  0.1867 -0.0017
 2386SOL    HW118791   3.060   0.656  11.421  1.4014  1.5880 -1.3376
 2386SOL    HW218792   3.071   0.614  11.276  0.1281 -0.2512  0.1977
 2387SOL     OW18793   3.902   3.663  16.771 -0.1700  0.4342  0.0787
 2387SOL    HW118794   3.887   3.612  16.850  0.9288  1.2508  0.8157
 2387SOL    HW218795   3.958   3.732  16.807  0.0642  1.4131 -2.1892
 2388SOL     OW18796   1.772   1.904   2.278  0.7307  0.0239  0.3026
 2388SOL    HW118797   1.700   1.922   2.338  0.2886  0.1607 -0.2679
 2388SOL    HW218798   1.731   1.896   2.192 -2.2104 -0.2870  1.7603
 2389SOL     OW18799   1.716   2.000   4.859 -0.1455  0.6575 -0.3086
 2389SOL    HW118800   1.730   1.979   4.951 -0.4152 -1.1177 -0.6724
 2389SOL    HW218801   1.671   1.925   4.821 -0.8922  0.4636  0.9492
 2390SOL     OW18802   3.294   4.119  16.609 -0.5888 -0.3102 -0.0609
 2390SOL    HW118803   3.247   4.189  16.564  0.6254  0.5207 -0.0257
 2390SOL    HW218804   3.342   4.068  16.543 -1.8795 -2.5071  0.6924
 2391SOL     OW18805   1.946   0.038   2.687  0.2348  0.2398  0.9932
 2391SOL    HW118806   2.019   4.724   2.663  0.2109  1.2801 -1.6480
 2391SOL    HW218807   2.004   0.115   2.688 -0.1570  0.5197  1.9163
 2392SOL     OW18808   0.030   4.597   4.229  0.2079 -0.0493 -0.3616
 2392SOL    HW118809   0.070   4.664   4.173 -1.2519 -0.4355 -1.8783
 2392SOL    HW218810   4.688   4.635   4.249 -0.9380 -3.0367  0.3823
 2393SOL     OW18811   1.376   0.327   4.602  0.4612  0.4068  0.9932
 2393SOL    HW118812   1.377   0.356   4.693 -0.9263  2.1743  0.4482
 2393SOL    HW218813   1.299   0.272   4.613  0.1870  0.4009 -0.8958
 2394SOL     OW18814   3.623   1.287   9.832  0.3893 -0.5658 -0.1543
 2394SOL    HW118815   3.652   1.268   9.743 -1.0133  0.6586 -0.8782
 2394SOL    HW218816   3.682   1.231   9.882  0.2248 -1.0260 -0.4790
 2395SOL     OW18817   0.329   0.150   5.878 -0.0364 -0.1784 -0.2817
 2395SOL    HW118818   0.391   0.083   5.906  0.5732 -0.0842 -1.4107
 2395SOL    HW218819   0.387   0.220   5.849 -2.0305  1.4765 -0.3082
 2396SOL     OW18820   0.171   2.570  17.466  0.7104  0.1463  0.1218
 2396SOL    HW118821   0.146   2.506  17.399 -1.7232  2.5763 -1.3110
 2396SOL    HW218822   0.177   2.512  17.542 -0.4483 -1.1396 -0.7385
 2397SOL     OW18823   2.078   4.570   8.341 -0.2389 -0.1851 -0.0006
 2397SOL    HW118824   2.062   4.507   8.411  1.3671  1.0371  1.4651
 2397SOL    HW218825   1.992   4.583   8.300 -0.3490 -0.7020  0.0692
 2398SOL     OW18826   1.304   2.071  10.977  0.5225 -0.0183  0.6067
 2398SOL    HW118827   1.262   1.995  10.938 -1.2905  1.7611 -0.9178
 2398SOL    HW218828   1.233   2.101  11.034  1.8082  4.1123  0.0749
 2399SOL     OW18829   4.702   1.533   4.841 -0.3381  0.1262 -0.0676
 2399SOL    HW118830   0.040   1.491   4.815  0.4413  2.2983 -1.1543
 2399SOL    HW218831   4.739   1.618   4.866  0.4737  0.6592 -3.0605
 2400SOL     OW18832   0.283   3.833   7.112  0.0080  0.4239 -0.4842
 2400SOL    HW118833   0.354   3.859   7.171 -1.1698  1.6148  0.4095
 2400SOL    HW218834   0.216   3.888   7.152  1.2388  1.0639  0.6875
 2401SOL     OW18835   3.048   0.723  11.701  0.2250 -0.0598 -0.0112
 2401SOL    HW118836   2.953   0.707  11.700 -0.2609  2.8325  2.1501
 2401SOL    HW218837   3.063   0.703  11.793 -1.2035  2.3034  0.7170
 2402SOL     OW18838   0.873   0.170   4.751  0.3808 -0.2824  0.5276
 2402SOL    HW118839   0.798   0.136   4.799 -1.6366  2.1969 -0.8698
 2402SOL    HW218840   0.828   0.224   4.685  1.0338 -0.5742 -0.1585
 2403SOL     OW18841   2.994   0.442   4.485  0.4760  0.1581 -0.0764
 2403SOL    HW118842   2.937   0.493   4.427 -1.8745 -0.5279  1.6026
 2403SOL    HW218843   3.076   0.435   4.437  0.3444  1.1585 -0.4437
 2404SOL     OW18844   3.390   0.515   4.282 -0.3298  0.3674  0.0433
 2404SOL    HW118845   3.299   0.487   4.278 -0.0527 -0.6153  0.7842
 2404SOL    HW218846   3.427   0.470   4.206 -1.4093  2.0812 -1.5131
 2405SOL     OW18847   2.922   3.839   5.746  0.8631  0.0003 -0.5782
 2405SOL    HW118848   2.985   3.813   5.813 -1.5297 -0.6467  1.4137
 2405SOL    HW218849   2.958   3.802   5.665  3.9743  2.0550 -0.1319
 2406SOL     OW18850   3.365   2.857   2.626  0.1245 -0.1013 -0.1578
 2406SOL    HW118851   3.348   2.763   2.634  0.0489 -0.1031 -0.3405
 2406SOL    HW218852   3.281   2.884   2.664  0.5157 -0.0056  0.6331
 2407SOL     OW18853   2.728   1.763  10.280  0.2818 -0.3411 -0.1992
 2407SOL    HW118854   2.656   1.781  10.221 -0.8107 -1.4926  0.7807
 2407SOL    HW218855   2.795   1.827  10.256  1.7890 -1.6180  0.5765
 2408SOL     OW18856   3.743   1.158  10.741 -0.2052 -0.3054 -0.2262
 2408SOL    HW118857   3.765   1.083  10.685  0.8951  0.5294 -0.9292
 2408SOL    HW218858   3.648   1.149  10.751 -0.4503  1.2292 -1.2775
 2409SOL     OW18859   2.306   2.955   8.861 -0.1010  0.2639  0.7699
 2409SOL    HW118860   2.332   3.037   8.818 -1.6428  0.5145  0.3143
 2409SOL    HW218861   2.392   2.924   8.888 -0.0549 -1.7890 -1.6629
 2410SOL     OW18862   0.714   4.243  13.846 -0.7097 -0.0943 -0.2550
 2410SOL    HW118863   0.710   4.287  13.931 -1.7502 -1.8483  0.6086
 2410SOL    HW218864   0.624   4.211  13.842 -0.7901 -0.0643  1.3228
 2411SOL     OW18865   1.721   3.147  10.691  0.0036  0.0997  0.2202
 2411SOL    HW118866   1.766   3.134  10.775  2.0947 -0.1444 -0.9580
 2411SOL    HW218867   1.642   3.094  10.704 -1.8978  2.7679 -0.2963
 2412SOL     OW18868   3.366   2.130   1.418 -0.3582  0.5097  0.1646
 2412SOL    HW118869   3.433   2.125   1.350 -1.7305  1.7563 -1.2502
 2412SOL    HW218870   3.377   2.217   1.456 -1.1888  0.8325 -0.3419
 2413SOL     OW18871   1.457   2.416   6.259 -0.5352 -0.1462 -0.2600
 2413SOL    HW118872   1.543   2.386   6.287 -0.9896 -0.7935  0.4301
 2413SOL    HW218873   1.408   2.372   6.328 -1.9478  1.1193 -0.4683
 2414SOL     OW18874   1.529   2.814  14.132  0.2188  0.2123 -0.1865
 2414SOL    HW118875   1.444   2.779  14.158  0.1364 -0.4572 -1.3796
 2414SOL    HW218876   1.532   2.805  14.037 -0.1101 -0.7953 -0.0952
 2415SOL     OW18877   2.956   2.032  14.969  0.5402 -0.1897 -0.2996
 2415SOL    HW118878   2.955   1.959  15.032  1.8547 -0.4074 -0.5287
 2415SOL    HW218879   2.892   2.015  14.900  0.9401  1.2554 -1.0248
 2416SOL     OW18880   1.904   3.411   2.265  0.3106 -0.1920  0.2126
 2416SOL    HW118881   1.935   3.493   2.303  0.0885  1.8841 -4.1092
 2416SOL    HW218882   1.911   3.427   2.171 -0.9288 -2.1723 -0.2231
 2417SOL     OW18883   3.031   3.441   1.025 -0.5462 -0.4975  0.1390
 2417SOL    HW118884   3.107   3.383   1.023 -0.7050 -0.6732 -0.4723
 2417SOL    HW218885   3.059   3.499   1.097  1.1887  0.5300 -1.3489
 2418SOL     OW18886   3.169   0.640   7.399 -0.0683 -0.2008  0.0710
 2418SOL    HW118887   3.200   0.616   7.486  1.4625 -3.4118 -1.3416
 2418SOL    HW218888   3.197   0.568   7.342  0.3369 -1.2034  1.5278
 2419SOL     OW18889   0.935   0.396   6.437 -0.6826  0.4879 -0.1263
 2419SOL    HW118890   0.880   0.381   6.360  0.3106 -1.0397 -0.5491
 2419SOL    HW218891   1.015   0.349   6.416 -1.2111 -1.5604  2.4656
 2420SOL     OW18892   1.683   0.795  14.082 -0.3810  0.7064  0.4298
 2420SOL    HW118893   1.652   0.775  14.170  2.1961  1.7536  1.5680
 2420SOL    HW218894   1.633   0.872  14.057 -0.1761  0.2348 -1.4334
 2421SOL     OW18895   3.523   1.292   4.467  0.3077  0.6840  0.3127
 2421SOL    HW118896   3.507   1.219   4.407 -0.0862  1.6520 -0.7411
 2421SOL    HW218897   3.590   1.335   4.414 -0.3857  0.8604 -0.4186
 2422SOL     OW18898   0.448   3.620  13.842 -0.1605 -0.2197  0.4609
 2422SOL    HW118899   0.472   3.543  13.893  0.4411 -0.2548  0.1265
 2422SOL    HW218900   0.492   3.591  13.762 -2.1097 -0.3455 -0.5896
 2423SOL     OW18901   0.309   1.487   2.693  0.4107  0.2978  0.5222
 2423SOL    HW118902   0.245   1.516   2.627 -0.4590 -1.5863  0.5248
 2423SOL    HW218903   0.364   1.563   2.708  2.3311 -0.8802 -0.5433
 2424SOL     OW18904   4.303   1.876   5.543  0.1110 -0.3092 -0.4768
 2424SOL    HW118905   4.358   1.831   5.479  0.0391 -2.2864  0.8424
 2424SOL    HW218906   4.235   1.917   5.490 -0.4965 -1.6706 -0.7385
 2425SOL     OW18907   0.181   0.471   4.627  0.2888 -0.5890 -0.2126
 2425SOL    HW118908   0.256   0.479   4.686 -0.2455 -0.8490  0.4999
 2425SOL    HW218909   0.223   0.412   4.564  0.5918  0.9531 -1.4495
 2426SOL     OW18910   0.323   0.462  11.369 -0.0382 -0.0517  0.4436
 2426SOL    HW118911   0.273   0.435  11.291  1.4052  0.5835 -0.7114
 2426SOL    HW218912   0.371   0.540  11.341 -0.7997 -0.4991 -2.0900
 2427SOL     OW18913   0.013   4.233   8.078 -0.1838 -0.1672  0.0380
 2427SOL    HW118914   0.093   4.185   8.097  0.8860  2.4313  2.1052
 2427SOL    HW218915   4.685   4.169   8.081  0.6786 -1.1049  0.7344
 2428SOL     OW18916   2.226   1.983  13.313 -0.3487  0.0119 -0.2688
 2428SOL    HW118917   2.246   2.075  13.326 -0.3598  0.0173 -0.2904
 2428SOL    HW218918   2.286   1.975  13.239  2.0390 -1.7592  1.8324
 2429SOL     OW18919   1.067   1.134   6.429  0.2899 -0.4364 -0.4115
 2429SOL    HW118920   1.046   1.065   6.366  2.9275  1.3322 -3.2214
 2429SOL    HW218921   0.997   1.115   6.492  0.2151 -0.3554 -0.4686
 2430SOL     OW18922   0.457   2.911   9.782  0.0445  0.7025  0.1337
 2430SOL    HW118923   0.404   2.921   9.703  0.8462 -0.3753 -0.5332
 2430SOL    HW218924   0.414   2.835   9.820  0.6579  1.4658  2.4023
 2431SOL     OW18925   2.793   0.346  15.164 -0.0837  0.4183 -0.4378
 2431SOL    HW118926   2.776   0.423  15.219  0.2589  1.0302 -1.1881
 2431SOL    HW218927   2.721   0.331  15.103 -0.8526 -1.0414  0.8321
 2432SOL     OW18928   3.187   1.842  15.338  0.1562  0.0247 -0.1813
 2432SOL    HW118929   3.201   1.789  15.417 -1.3545  0.9200  0.6953
 2432SOL    HW218930   3.140   1.917  15.374  1.9984 -0.0133  2.3153
 2433SOL     OW18931   0.771   1.329  14.749  0.1621  0.4827 -0.0689
 2433SOL    HW118932   0.809   1.271  14.684 -2.1504 -1.8080  0.6180
 2433SOL    HW218933   0.689   1.281  14.762  1.0696 -1.0714 -0.2422
 2434SOL     OW18934   2.520   2.059   7.083 -0.2196  0.6555  0.1805
 2434SOL    HW118935   2.540   2.151   7.101 -1.3065  0.5705  1.8983
 2434SOL    HW218936   2.605   2.016   7.083  0.0150  1.1112 -1.2734
 2435SOL     OW18937   1.603   0.528   6.284 -0.1991 -0.1394 -0.1052
 2435SOL    HW118938   1.519   0.572   6.275  1.1932  2.8808  1.7181
 2435SOL    HW218939   1.621   0.512   6.191 -3.7071 -3.4320 -0.2302
 2436SOL     OW18940   3.595   0.480   3.558 -0.1288  0.0278  0.4432
 2436SOL    HW118941   3.601   0.412   3.490 -0.7513  1.5561 -1.1364
 2436SOL    HW218942   3.631   0.432   3.632  3.5555  1.4478 -0.4196
 2437SOL     OW18943   0.998   3.543   0.235  0.2466  0.0271 -0.4305
 2437SOL    HW118944   0.902   3.537   0.236  0.2241  0.9841  2.7358
 2437SOL    HW218945   1.017   3.541   0.141 -1.0464 -2.1040 -0.6488
 2438SOL     OW18946   1.713   4.302  15.934 -0.1005  0.3569  0.1014
 2438SOL    HW118947   1.727   4.342  15.848  0.0742 -2.2530 -1.0737
 2438SOL    HW218948   1.736   4.384  15.977 -1.9838  0.1750  1.4020
 2439SOL     OW18949   1.403   1.269   2.203  0.2855  0.3825 -0.1167
 2439SOL    HW118950   1.482   1.223   2.232  0.7503  1.3535  0.1506
 2439SOL    HW218951   1.415   1.273   2.108 -0.4726  0.6345 -0.2064
 2440SOL     OW18952   1.292   3.844   6.117 -0.0986 -0.2576  0.2590
 2440SOL    HW118953   1.197   3.851   6.128 -0.2620 -0.5136 -0.9693
 2440SOL    HW218954   1.296   3.754   6.084  0.0641  0.5638 -1.9884
 2441SOL     OW18955   2.656   2.026   7.513 -0.0737 -0.5404 -0.6175
 2441SOL    HW118956   2.718   2.046   7.442  0.0733 -1.7848 -0.8420
 2441SOL    HW218957   2.571   2.002   7.475 -1.1647  0.9623  0.8981
 2442SOL     OW18958   3.199   1.224   6.171  0.1308 -0.3911  0.1346
 2442SOL    HW118959   3.210   1.305   6.220 -1.0942 -0.7817  1.0453
 2442SOL    HW218960   3.105   1.211   6.170  0.0810 -0.0204 -0.6055
 2443SOL     OW18961   4.606   1.747   3.899 -0.1154 -0.1217 -0.2369
 2443SOL    HW118962   4.548   1.820   3.921 -1.5521 -1.4257  0.3185
 2443SOL    HW218963   4.633   1.717   3.986 -0.7544  1.6974  0.5796
 2444SOL     OW18964   1.086   2.695   8.512  0.1873  0.4479 -0.4605
 2444SOL    HW118965   1.168   2.647   8.513  0.0191  0.1932  1.8123
 2444SOL    HW218966   1.024   2.640   8.464 -0.3596  2.6955 -2.3549
 2445SOL     OW18967   1.633   0.392   3.074 -0.0382  0.0503 -0.0217
 2445SOL    HW118968   1.666   0.341   3.148  0.1448  2.7382  1.7637
 2445SOL    HW218969   1.554   0.433   3.109 -0.9254 -0.8067 -1.0438
 2446SOL     OW18970   3.690   0.118   8.576 -0.1695  0.2584 -0.3106
 2446SOL    HW118971   3.619   0.055   8.561 -0.2038 -0.0244  1.0479
 2446SOL    HW218972   3.712   0.108   8.668 -1.6741  0.7631  0.1063
 2447SOL     OW18973   1.221   1.294   8.690 -0.0204  0.1053  0.0141
 2447SOL    HW118974   1.295   1.261   8.638 -0.2464  2.5011 -1.8805
 2447SOL    HW218975   1.144   1.260   8.644 -0.8351  2.3074 -0.2875
 2448SOL     OW18976   2.454   1.612   3.681 -0.1079  0.0369  0.1444
 2448SOL    HW118977   2.387   1.621   3.748 -1.4709 -0.7655 -1.1213
 2448SOL    HW218978   2.530   1.665   3.704  0.5338 -0.7524 -0.1544
 2449SOL     OW18979   1.424   3.299   7.353  0.2042 -1.1123  0.1535
 2449SOL    HW118980   1.469   3.307   7.269  0.0191  1.8580  0.3360
 2449SOL    HW218981   1.339   3.269   7.321  0.2275  0.0490 -1.0350
 2450SOL     OW18982   1.300   3.748  11.947 -0.6085 -0.1528  0.4077
 2450SOL    HW118983   1.205   3.730  11.947 -0.7781  0.7438 -0.9780
 2450SOL    HW218984   1.303   3.804  12.024  0.8318  1.4511 -0.8343
 2451SOL     OW18985   3.079   1.173  12.210 -0.0712  0.4399 -0.3453
 2451SOL    HW118986   3.124   1.256  12.196  0.9850 -0.3168 -1.4361
 2451SOL    HW218987   3.122   1.128  12.137  1.3678  1.6983 -0.2737
 2452SOL     OW18988   3.133   3.659   8.509  0.0436  0.2406 -0.4688
 2452SOL    HW118989   3.067   3.598   8.544  0.0795  0.1743 -0.5161
 2452SOL    HW218990   3.110   3.670   8.417 -1.5645  0.6278 -0.0266
 2453SOL     OW18991   1.254   4.118  16.270 -0.5609 -0.0211  0.0518
 2453SOL    HW118992   1.258   4.182  16.341  0.9795  2.4396 -2.2487
 2453SOL    HW218993   1.247   4.039  16.323 -1.7046  0.9298  1.3422
 2454SOL     OW18994   1.276   3.636  15.264  0.0092 -0.4395 -0.2702
 2454SOL    HW118995   1.259   3.679  15.181 -2.7408 -2.4747 -0.7770
 2454SOL    HW218996   1.281   3.547  15.229 -2.0213 -0.5440 -0.3051
 2455SOL     OW18997   2.909   4.187   3.935  0.2686  0.3553  0.4305
 2455SOL    HW118998   2.979   4.128   3.964  0.2979  0.1191 -0.1157
 2455SOL    HW218999   2.840   4.121   3.941  1.5695 -1.0080  0.3938
 2456SOL     OW19000   1.003   0.107   5.709 -0.0338 -0.2400 -0.3137
 2456SOL    HW119001   0.964   0.185   5.671  0.4651  1.6493  3.0036
 2456SOL    HW219002   1.079   0.113   5.651  0.2071 -0.6284 -0.0424
 2457SOL     OW19003   1.911   0.595   3.447 -0.6865  0.2972 -0.1218
 2457SOL    HW119004   1.956   0.511   3.435  0.5964  0.8090  1.1068
 2457SOL    HW219005   1.846   0.567   3.510 -0.4838  0.9051  0.3573
 2458SOL     OW19006   0.535   2.877   8.299  0.2293 -0.4837 -0.2460
 2458SOL    HW119007   0.578   2.881   8.385 -1.6047  2.0462  0.5592
 2458SOL    HW219008   0.609   2.867   8.240 -0.0545 -2.3314 -0.2611
 2459SOL     OW19009   3.299   3.084   8.193  0.5032  0.7378  0.2630
 2459SOL    HW119010   3.327   3.154   8.134 -2.3594  2.5362  1.0536
 2459SOL    HW219011   3.205   3.086   8.174  0.4884 -1.0240  0.0688
 2460SOL     OW19012   2.868   4.104   1.802  0.2334 -0.0120 -0.3336
 2460SOL    HW119013   2.891   4.194   1.778  2.6793 -0.9102 -1.3545
 2460SOL    HW219014   2.775   4.105   1.778  0.0250 -0.4602  0.4607
 2461SOL     OW19015   0.608   1.518   5.502  0.5484 -0.4476 -0.4192
 2461SOL    HW119016   0.611   1.437   5.553  2.8544 -0.8195 -1.1158
 2461SOL    HW219017   0.652   1.571   5.568 -2.8723  2.2832 -0.3890
 2462SOL     OW19018   3.678   2.125   8.319 -0.2535  0.3383 -0.1009
 2462SOL    HW119019   3.626   2.145   8.397 -0.5131 -0.0474 -0.1723
 2462SOL    HW219020   3.614   2.084   8.262  0.9716 -0.7481 -0.7071
 2463SOL     OW19021   0.270   3.803   6.713  0.6251 -0.4751 -0.2775
 2463SOL    HW119022   0.346   3.843   6.758 -0.8146  3.2100 -1.0998
 2463SOL    HW219023   0.257   3.727   6.770  0.0255  0.4567  0.8376
 2464SOL     OW19024   3.476   1.686   0.363  1.2652  0.0431  0.1448
 2464SOL    HW119025   3.397   1.668   0.313  1.1574 -0.3153  0.4442
 2464SOL    HW219026   3.473   1.617   0.429 -0.6330  0.0893  0.0893
 2465SOL     OW19027   2.871   1.285   2.380 -0.4698 -0.3378  0.1894
 2465SOL    HW119028   2.856   1.339   2.458  2.1333  2.4399 -1.2138
 2465SOL    HW219029   2.794   1.229   2.375 -0.8000 -0.0065  1.7286
 2466SOL     OW19030   4.594   4.479   6.191  0.6138 -0.2786  0.5989
 2466SOL    HW119031   4.524   4.414   6.185  0.8371 -0.4738  0.1366
 2466SOL    HW219032   4.542   4.547   6.235  1.0956 -0.5665  1.6122
 2467SOL     OW19033   4.655   1.449   2.660  0.2073 -0.3235 -0.1941
 2467SOL    HW119034   4.573   1.475   2.618  0.7225 -0.5318 -1.3520
 2467SOL    HW219035   4.608   1.397   2.725 -0.8055 -0.7998 -1.2990
 2468SOL     OW19036   3.584   0.468   7.837 -0.0967  0.0186  0.3827
 2468SOL    HW119037   3.640   0.391   7.827 -1.8559 -1.2723  0.3953
 2468SOL    HW219038   3.502   0.446   7.793 -1.0968  1.0589  1.7327
 2469SOL     OW19039   0.711   0.689   6.306 -0.2525  0.3132  0.1940
 2469SOL    HW119040   0.761   0.757   6.351 -3.0026  2.2430  0.3206
 2469SOL    HW219041   0.672   0.645   6.382  1.8586 -0.6899  0.7183
 2470SOL     OW19042   3.546   3.879   8.267  0.0033  0.2419  0.1016
 2470SOL    HW119043   3.589   3.955   8.229 -0.7339  0.9767  0.7181
 2470SOL    HW219044   3.602   3.811   8.231  0.6244  1.5650 -1.3949
 2471SOL     OW19045   1.607   3.252   5.537  0.3403  0.4455  0.5686
 2471SOL    HW119046   1.559   3.236   5.455  0.7445 -1.3948  0.6788
 2471SOL    HW219047   1.634   3.165   5.567 -0.1678 -0.3006 -1.1269
 2472SOL     OW19048   0.422   1.508   3.470  0.0118  0.4619 -0.4706
 2472SOL    HW119049   0.390   1.438   3.413 -0.3330 -1.2297  1.8110
 2472SOL    HW219050   0.517   1.497   3.459 -0.5365 -2.9529 -1.7427
 2473SOL     OW19051   2.761   0.674   9.290 -0.1999 -0.2866 -0.2177
 2473SOL    HW119052   2.779   0.610   9.359 -0.4419  0.8159  0.8796
 2473SOL    HW219053   2.739   0.620   9.215  1.0569 -1.7489  0.4707
 2474SOL     OW19054   2.593   0.212   8.069 -0.4124  0.2451 -0.1934
 2474SOL    HW119055   2.652   0.280   8.101  1.5984 -0.9161 -1.4228
 2474SOL    HW219056   2.634   0.126   8.083  3.1208  2.1555  1.1093
 2475SOL     OW19057   0.028   0.878   5.536  0.1725 -0.0962 -0.1924
 2475SOL    HW119058   0.123   0.877   5.529  0.1662  1.8748 -0.6228
 2475SOL    HW219059   0.006   0.832   5.617 -0.2469 -1.0031 -0.8299
 2476SOL     OW19060   4.360   2.204   3.248  0.1645 -0.1435 -0.0542
 2476SOL    HW119061   4.300   2.130   3.253 -1.8720  1.6469  2.0411
 2476SOL    HW219062   4.443   2.167   3.219  0.0931 -0.6362  0.3665
 2477SOL     OW19063   3.410   3.918   3.333 -0.1547  0.1624  0.0427
 2477SOL    HW119064   3.333   3.968   3.308  0.5188  1.4224  0.5184
 2477SOL    HW219065   3.403   3.919   3.428  2.4984  0.2854  0.2461
 2478SOL     OW19066   2.207   0.613  11.419  0.0526 -0.5422 -0.1899
 2478SOL    HW119067   2.294   0.593  11.454  0.0916 -0.8628 -0.4736
 2478SOL    HW219068   2.185   0.522  11.402 -0.3071 -0.4751 -0.0847
 2479SOL     OW19069   4.019   2.244  13.877 -0.2020 -0.3784 -0.2795
 2479SOL    HW119070   4.061   2.229  13.962 -1.2359 -1.7011  0.0014
 2479SOL    HW219071   3.999   2.338  13.880  1.4036 -0.0870  1.3962
 2480SOL     OW19072   3.438   0.641  11.195  0.0221 -0.0239  0.0969
 2480SOL    HW119073   3.398   0.616  11.279 -0.2511 -3.5894 -1.1177
 2480SOL    HW219074   3.476   0.727  11.213 -1.7192  0.1128  3.2783
 2481SOL     OW19075   3.025   1.805   4.746 -0.3278  0.5366  0.6748
 2481SOL    HW119076   3.025   1.848   4.661 -0.1884  2.5582  1.7175
 2481SOL    HW219077   3.065   1.874   4.798 -0.2231 -0.7319  2.2642
 2482SOL     OW19078   0.132   4.060   6.096  0.3058  0.2158 -0.0754
 2482SOL    HW119079   0.227   4.052   6.097  0.3102  0.2937  0.1642
 2482SOL    HW219080   0.107   3.969   6.109 -0.4182  0.0414 -2.6927
 2483SOL     OW19081   0.101   2.751   4.294  0.4282  0.3153 -0.0320
 2483SOL    HW119082   0.118   2.751   4.200  0.7292 -1.1103  0.0245
 2483SOL    HW219083   0.137   2.837   4.315 -0.7570  1.2497 -1.8596
 2484SOL     OW19084   2.123   0.804   8.484 -0.2754 -0.4784 -0.0137
 2484SOL    HW119085   2.211   0.766   8.475 -0.6584 -1.6009  0.9433
 2484SOL    HW219086   2.159   0.892   8.498 -1.3750 -0.2246  1.1275
 2485SOL     OW19087   0.696   3.177   6.424 -0.5328 -0.1540  0.3263
 2485SOL    HW119088   0.615   3.170   6.373  1.0433 -2.4121 -1.8961
 2485SOL    HW219089   0.754   3.224   6.364 -1.9233 -1.3590 -1.9530
 2486SOL     OW19090   3.450   4.180   8.309 -0.1346 -0.0481 -0.0277
 2486SOL    HW119091   3.444   4.127   8.389 -1.1677  1.8255  1.1272
 2486SOL    HW219092   3.357   4.189   8.290 -0.2481 -0.7853  0.1705
 2487SOL     OW19093   0.959   4.322   1.632 -0.1217  0.0337 -0.1800
 2487SOL    HW119094   0.983   4.244   1.581  0.4891 -0.0868  0.2989
 2487SOL    HW219095   0.981   4.391   1.569  0.7738 -0.4615 -0.4088
 2488SOL     OW19096   2.455   1.536  14.966  0.1492 -0.2498  0.2723
 2488SOL    HW119097   2.386   1.603  14.967 -0.2613 -0.6238 -3.0854
 2488SOL    HW219098   2.403   1.468  14.923  0.5728 -1.0293  1.0137
 2489SOL     OW19099   3.583   3.800   4.455 -0.3997 -0.4807  0.2832
 2489SOL    HW119100   3.549   3.809   4.366 -0.1300 -2.1826  0.0233
 2489SOL    HW219101   3.501   3.783   4.501 -0.6381 -2.9027 -1.0678
 2490SOL     OW19102   0.175   0.064   5.650 -0.4171  0.8243  0.1832
 2490SOL    HW119103   0.231   0.082   5.726 -0.0030  0.3569 -0.0170
 2490SOL    HW219104   0.236   0.015   5.594 -2.2631  0.8680 -1.8602
 2491SOL     OW19105   2.455   4.616   1.384 -0.9133  0.4755 -0.0351
 2491SOL    HW119106   2.411   4.533   1.405 -1.8739  0.7133 -1.1089
 2491SOL    HW219107   2.497   4.598   1.300  0.2894  0.6619  0.5302
 2492SOL     OW19108   1.930   1.762   7.348  0.0626  0.5003  0.0555
 2492SOL    HW119109   1.907   1.669   7.355  1.9318 -0.0333 -0.7631
 2492SOL    HW219110   1.919   1.803   7.434 -0.0026  2.0705 -0.7004
 2493SOL     OW19111   2.036   0.314   9.162 -0.2011  0.0753  0.3184
 2493SOL    HW119112   2.056   0.404   9.189 -0.0688  0.3201 -0.5829
 2493SOL    HW219113   2.118   0.306   9.114 -0.8084  0.7340 -0.8570
 2494SOL     OW19114   1.277   2.730  13.038  0.0994  0.1197 -0.4767
 2494SOL    HW119115   1.226   2.802  13.076  1.0204 -0.3407  1.6650
 2494SOL    HW219116   1.225   2.654  13.062 -1.7335  1.3883 -0.4442
 2495SOL     OW19117   2.456   4.068   1.295  0.3176  0.4372 -0.5815
 2495SOL    HW119118   2.475   4.006   1.366 -0.3039 -1.0727 -1.7211
 2495SOL    HW219119   2.398   4.131   1.337 -0.0864  0.4600 -1.1743
 2496SOL     OW19120   1.249   0.525   9.468  0.0302 -0.1746  0.3787
 2496SOL    HW119121   1.295   0.462   9.525  0.2973 -0.6139 -0.3288
 2496SOL    HW219122   1.217   0.470   9.397 -1.8047  2.7589 -1.0523
 2497SOL     OW19123   0.418   3.012   6.333 -0.9320  0.0570  0.1499
 2497SOL    HW119124   0.356   3.006   6.406 -1.8618 -0.5874 -0.7039
 2497SOL    HW219125   0.355   3.034   6.265  2.1698  1.3374 -2.2871
 2498SOL     OW19126   3.017   0.956   9.539  0.0969 -0.1640  0.1725
 2498SOL    HW119127   3.021   0.950   9.444  0.2581 -1.6547  0.2665
 2498SOL    HW219128   2.923   0.963   9.552 -0.0262 -1.3350 -0.0130
 2499SOL     OW19129   4.437   3.280   7.263  0.6536  0.6094  0.2150
 2499SOL    HW119130   4.385   3.357   7.241 -1.4088 -0.9854 -0.5940
 2499SOL    HW219131   4.422   3.240   7.177 -2.6353 -1.4001  1.7076
 2500SOL     OW19132   1.121   0.119  10.445 -0.2740 -0.2162 -0.2099
 2500SOL    HW119133   1.057   0.070  10.394  1.7287 -2.1354 -0.8945
 2500SOL    HW219134   1.173   0.048  10.482  0.0013  0.3109  0.4055
 2501SOL     OW19135   4.207   1.633   5.665  0.5774 -0.3043  0.3301
 2501SOL    HW119136   4.248   1.719   5.664  1.7613 -0.8659  1.1904
 2501SOL    HW219137   4.134   1.640   5.727  1.4439 -2.0369  1.5394
 2502SOL     OW19138   2.668   4.015  17.661 -0.1751  0.1831 -0.0406
 2502SOL    HW119139   2.737   3.956  17.693  0.3272  1.2997  0.9084
 2502SOL    HW219140   2.634   4.048  17.744 -1.2906 -1.0347 -0.0000
 2503SOL     OW19141   2.892   4.660   4.972 -0.1602  0.6627  0.2342
 2503SOL    HW119142   2.909   4.654   5.066  1.2539  0.2114 -0.0438
 2503SOL    HW219143   2.951   4.731   4.947  0.9083 -0.0066  0.8415
 2504SOL     OW19144   2.996   2.425   4.697 -0.3370 -0.1334 -0.2937
 2504SOL    HW119145   3.041   2.346   4.667 -1.2244 -1.3794  1.6564
 2504SOL    HW219146   2.918   2.382   4.732 -0.4844  0.2892 -0.1017
 2505SOL     OW19147   2.189   2.033   9.870  0.3260 -0.3025  0.1367
 2505SOL    HW119148   2.164   2.098   9.937 -1.5642 -2.2528  1.3087
 2505SOL    HW219149   2.101   2.006   9.847  1.1156 -0.5971 -2.5569
 2506SOL     OW19150   0.153   0.815   4.948  0.3864 -0.3865  0.1487
 2506SOL    HW119151   0.061   0.799   4.930  0.5659 -1.1713 -0.0874
 2506SOL    HW219152   0.176   0.908   4.950  0.3179 -0.3229 -1.7299
 2507SOL     OW19153   1.451   2.837   2.637  0.2131  0.3785  0.1102
 2507SOL    HW119154   1.535   2.838   2.593  0.8984 -1.7571  1.3518
 2507SOL    HW219155   1.402   2.888   2.573  2.0172  0.6923 -1.0023
 2508SOL     OW19156   3.363   3.135   3.548 -0.0882 -0.6720  0.2994
 2508SOL    HW119157   3.446   3.153   3.591  0.4164  0.0240 -0.9939
 2508SOL    HW219158   3.373   3.062   3.487  0.4234 -1.1147  0.9125
 2509SOL     OW19159   3.793   2.737   4.782  0.0552 -0.6111  0.5932
 2509SOL    HW119160   3.721   2.782   4.739  0.5590  0.5442  0.9556
 2509SOL    HW219161   3.771   2.742   4.875  1.0051  0.1367  0.7845
 2510SOL     OW19162   1.777   0.472  11.143 -0.3318  0.7541 -0.2693
 2510SOL    HW119163   1.811   0.441  11.060 -0.7865 -0.7792  0.1118
 2510SOL    HW219164   1.842   0.473  11.213  0.0662 -0.6044 -0.6342
 2511SOL     OW19165   0.380   0.130   4.596 -0.0450  0.5356 -0.3811
 2511SOL    HW119166   0.299   0.097   4.556 -0.4635  2.3887 -1.0402
 2511SOL    HW219167   0.439   0.151   4.524 -0.9430  2.3002 -0.5818
 2512SOL     OW19168   2.296   1.551   2.372  0.3016  0.1442 -0.6090
 2512SOL    HW119169   2.382   1.566   2.334  0.9911 -1.5873  0.2782
 2512SOL    HW219170   2.239   1.594   2.308 -0.8561 -2.1226 -1.1183
 2513SOL     OW19171   3.985   4.434   3.558 -0.7165  0.0775 -0.3346
 2513SOL    HW119172   4.030   4.464   3.636 -0.2156 -1.5442  0.0097
 2513SOL    HW219173   4.032   4.477   3.487  0.0083  0.5021  0.4046
 2514SOL     OW19174   0.016   2.863  15.396 -0.2759 -0.3592 -0.7023
 2514SOL    HW119175   0.049   2.780  15.430  0.3113  0.6321  1.0970
 2514SOL    HW219176   4.664   2.855  15.396 -0.4890  2.1467  0.1231
 2515SOL     OW19177   4.212   3.937   8.714 -0.6747  0.5348  0.2881
 2515SOL    HW119178   4.220   4.001   8.784 -1.2890  2.6366 -1.5606
 2515SOL    HW219179   4.140   3.882   8.742 -0.3263 -1.4681 -2.7224
 2516SOL     OW19180   0.955   0.415   2.575 -0.1948  0.4022 -0.8055
 2516SOL    HW119181   1.024   0.444   2.516  0.1038 -0.1277 -0.7148
 2516SOL    HW219182   0.987   0.325   2.577 -0.3588  0.3019 -2.3974
 2517SOL     OW19183   3.576   3.465  11.192  0.1835 -0.2037 -0.0636
 2517SOL    HW119184   3.495   3.470  11.142 -0.9192 -0.0137  1.7444
 2517SOL    HW219185   3.626   3.537  11.153 -1.9285  3.3595  3.7560
 2518SOL     OW19186   2.428   3.203   5.924  0.1369 -0.1591 -0.5190
 2518SOL    HW119187   2.512   3.244   5.903  0.1593 -0.3523 -0.8066
 2518SOL    HW219188   2.379   3.271   5.971 -1.9542 -1.4391 -0.8325
 2519SOL     OW19189   1.318   4.549  10.844 -0.3172 -0.5598 -0.4246
 2519SOL    HW119190   1.303   4.467  10.891  0.1739 -0.5762 -0.2944
 2519SOL    HW219191   1.266   4.610  10.896 -0.4478 -0.2943 -0.8716
 2520SOL     OW19192   2.593   1.468   1.214  0.5530  0.1482  1.1924
 2520SOL    HW119193   2.587   1.505   1.126  1.8175 -1.4552  0.4171
 2520SOL    HW219194   2.632   1.536   1.268 -1.1382  0.8932  1.4736
 2521SOL     OW19195   4.058   3.795  16.927 -0.0757 -0.2199  0.0009
 2521SOL    HW119196   4.116   3.869  16.946  0.2486 -0.1960 -1.0857
 2521SOL    HW219197   4.006   3.796  17.008  1.4225 -3.0408  1.0146
 2522SOL     OW19198   0.842   4.107  15.552 -0.3249 -0.0803 -0.6132
 2522SOL    HW119199   0.851   4.146  15.639 -0.6227  0.5425 -0.8545
 2522SOL    HW219200   0.929   4.110  15.513 -0.4977  1.3426 -0.9210
 2523SOL     OW19201   4.615   3.760  14.741 -0.9667  0.1625 -0.3934
 2523SOL    HW119202   4.629   3.845  14.698 -1.8779 -0.0174 -1.0576
 2523SOL    HW219203   4.646   3.772  14.831 -0.5534 -1.9729 -0.2562
 2524SOL     OW19204   1.770   2.071  13.535 -0.2389  0.6214  0.0172
 2524SOL    HW119205   1.784   2.143  13.474  2.9244 -0.4057 -0.4939
 2524SOL    HW219206   1.781   2.119  13.617 -1.5928  0.0416  0.5255
 2525SOL     OW19207   2.521   0.067   3.362 -0.1847 -0.1341 -0.0955
 2525SOL    HW119208   2.563   4.733   3.399  1.7355  0.6567 -0.6747
 2525SOL    HW219209   2.597   0.124   3.365 -2.7258  3.2747 -1.4738
 2526SOL     OW19210   1.765   0.722  17.584  0.1673  0.0282  0.0099
 2526SOL    HW119211   1.827   0.760  17.521  0.1010 -0.2965 -0.2560
 2526SOL    HW219212   1.764   0.787  17.654 -0.9756 -2.4135  2.2389
 2527SOL     OW19213   0.467   3.257   1.664 -0.1693 -0.2442 -0.4211
 2527SOL    HW119214   0.446   3.225   1.576 -1.8657 -0.3274 -0.0006
 2527SOL    HW219215   0.562   3.261   1.665 -0.1957 -0.1214  1.8564
 2528SOL     OW19216   3.514   2.704   1.867  0.1014  0.0052  0.3270
 2528SOL    HW119217   3.419   2.720   1.873  0.1577  0.0955  1.0438
 2528SOL    HW219218   3.545   2.769   1.931  1.7359  1.4647 -1.9792
 2529SOL     OW19219   4.467   2.760   1.630 -0.0628 -0.2019 -0.1591
 2529SOL    HW119220   4.393   2.743   1.573 -1.2105 -1.0110  1.5922
 2529SOL    HW219221   4.422   2.734   1.710 -2.4689  0.1999 -1.3754
 2530SOL     OW19222   1.459   0.454   3.650 -0.1391  0.1686  0.1348
 2530SOL    HW119223   1.383   0.433   3.705 -0.2969  1.3753  0.3939
 2530SOL    HW219224   1.475   0.548   3.665  2.6014  0.1461 -2.7180
 2531SOL     OW19225   0.460   3.627   3.755  0.5583  0.2807 -0.0073
 2531SOL    HW119226   0.510   3.708   3.767 -0.6609  0.5360  3.4577
 2531SOL    HW219227   0.431   3.633   3.664  1.8506 -0.8504 -0.4993
 2532SOL     OW19228   4.523   2.151   1.106  0.1069  0.6219  0.2080
 2532SOL    HW119229   4.462   2.186   1.170 -0.7988  0.4975 -0.5858
 2532SOL    HW219230   4.591   2.218   1.116  1.8099 -1.3257  1.6762
 2533SOL     OW19231   4.380   3.814   3.311 -0.7376 -0.5106 -0.2247
 2533SOL    HW119232   4.327   3.792   3.387  0.3056 -0.6669  0.4525
 2533SOL    HW219233   4.324   3.764   3.251 -0.9336  1.2294 -1.5156
 2534SOL     OW19234   4.359   0.351   7.171  0.3788  0.0499  0.5299
 2534SOL    HW119235   4.365   0.414   7.099 -0.7021 -1.0331 -0.5046
 2534SOL    HW219236   4.454   0.346   7.179  0.5897  3.0239  0.1918
 2535SOL     OW19237   1.585   3.194   1.126 -0.4425 -0.0613  0.1053
 2535SOL    HW119238   1.622   3.254   1.062  1.0516 -1.6702 -0.5398
 2535SOL    HW219239   1.569   3.116   1.072 -1.4354 -0.6033  1.1690
 2536SOL     OW19240   0.602   3.147   9.836 -0.3782  0.0381  0.2456
 2536SOL    HW119241   0.559   3.193   9.763 -1.9902  1.0390  1.8155
 2536SOL    HW219242   0.549   3.067   9.828  0.0772 -0.2609  0.2181
 2537SOL     OW19243   4.170   2.715   0.437  0.0756  0.1015 -0.1822
 2537SOL    HW119244   4.091   2.709   0.492  0.1569 -0.0906 -0.0881
 2537SOL    HW219245   4.235   2.664   0.486  0.9515  2.1611  0.7754
 2538SOL     OW19246   0.685   4.222  15.357  0.4098  0.2671 -0.4916
 2538SOL    HW119247   0.731   4.166  15.419 -0.8141  0.3739  0.5077
 2538SOL    HW219248   0.673   4.161  15.284 -0.8141  0.8353 -0.7635
 2539SOL     OW19249   1.263   1.073   5.552  0.4545  0.7222  0.5127
 2539SOL    HW119250   1.186   1.048   5.604 -0.3105  2.6066  0.3091
 2539SOL    HW219251   1.231   1.055   5.464 -0.2792  0.5697  0.8101
 2540SOL     OW19252   2.759   2.554   6.585  0.6440 -0.2954 -0.0650
 2540SOL    HW119253   2.846   2.581   6.555  0.4661 -1.8658 -2.0013
 2540SOL    HW219254   2.781   2.463   6.607 -0.1223  0.1394  2.5405
 2541SOL     OW19255   3.845   0.372   5.196 -0.6103  0.3763  0.8693
 2541SOL    HW119256   3.903   0.372   5.272  0.0880  0.2703  0.3350
 2541SOL    HW219257   3.814   0.282   5.186 -1.7739  0.7991  0.6485
 2542SOL     OW19258   4.244   0.942   5.576  0.0057 -0.0397  0.1943
 2542SOL    HW119259   4.335   0.929   5.550 -0.3359 -3.0647  0.5159
 2542SOL    HW219260   4.222   1.020   5.526 -0.4883 -0.4474 -0.2224
 2543SOL     OW19261   4.081   2.644   8.570 -0.5763  0.1793 -0.4710
 2543SOL    HW119262   4.136   2.640   8.492  0.4093  0.7082  0.1972
 2543SOL    HW219263   4.002   2.689   8.538 -1.5926  0.0199  1.7999
 2544SOL     OW19264   2.226   1.061   7.378 -0.6475 -1.1626 -0.2592
 2544SOL    HW119265   2.201   0.974   7.346  1.5866 -2.1965  0.8244
 2544SOL    HW219266   2.204   1.118   7.304  0.7163  2.8902  2.4856
 2545SOL     OW19267   0.349   4.113   4.841  0.2100 -0.1934  0.4942
 2545SOL    HW119268   0.305   4.194   4.816  2.8794  0.9350 -0.5695
 2545SOL    HW219269   0.291   4.049   4.800  0.5368  0.1185 -0.4509
 2546SOL     OW19270   2.427   1.905   0.235 -0.3008 -0.6230 -0.2854
 2546SOL    HW119271   2.515   1.903   0.273 -0.6124 -1.8024  0.4049
 2546SOL    HW219272   2.439   1.977   0.174 -0.6894  0.2131  0.6355
 2547SOL     OW19273   2.962   2.460   8.244  1.0658 -0.1837 -0.0247
 2547SOL    HW119274   2.991   2.370   8.259  1.0812 -0.3289 -0.9323
 2547SOL    HW219275   2.867   2.458   8.254  0.9797  0.3589 -0.7274
 2548SOL     OW19276   0.749   0.856   0.241 -0.1395 -0.3220  0.6160
 2548SOL    HW119277   0.663   0.849   0.283  0.2082 -2.3660  0.9788
 2548SOL    HW219278   0.717   0.880   0.154  1.3788 -0.0905  0.1229
 2549SOL     OW19279   2.126   0.962   5.207 -0.2956 -0.2346 -0.6421
 2549SOL    HW119280   2.076   0.897   5.159  0.1425 -2.1295  1.4429
 2549SOL    HW219281   2.165   1.010   5.134  0.6094 -1.9071 -1.2735
 2550SOL     OW19282   1.198   4.301  10.182 -0.2277 -0.1850 -0.3674
 2550SOL    HW119283   1.161   4.358  10.249 -2.1082 -0.3932 -1.2156
 2550SOL    HW219284   1.286   4.292  10.218 -0.7020  0.9278  1.0623
 2551SOL     OW19285   2.818   0.048  17.168  0.0691  0.1405  0.4759
 2551SOL    HW119286   2.805   0.050  17.263  3.7113 -1.5862  0.9926
 2551SOL    HW219287   2.749   4.731  17.140 -1.1293  1.1313  1.2390
 2552SOL     OW19288   4.427   0.907   0.711  0.0218 -0.8817  0.4854
 2552SOL    HW119289   4.426   0.934   0.803  0.0269  3.2451 -0.7464
 2552SOL    HW219290   4.339   0.930   0.681 -0.7605 -0.0080  3.4687
 2553SOL     OW19291   1.433   2.149  13.570 -0.2365  0.0775  0.4120
 2553SOL    HW119292   1.428   2.126  13.477 -0.2234  0.9117  0.2007
 2553SOL    HW219293   1.470   2.237  13.565  0.1562  0.1020  3.5422
 2554SOL     OW19294   0.364   1.460   8.187 -0.1987 -0.3903  0.3612
 2554SOL    HW119295   0.284   1.430   8.144 -1.4459  1.3627  1.4268
 2554SOL    HW219296   0.359   1.401   8.262  2.2687 -1.6970 -0.5278
 2555SOL     OW19297   1.823   2.521   5.052  0.0633 -0.1770 -0.5717
 2555SOL    HW119298   1.790   2.564   4.973  0.1485  2.7318  0.9901
 2555SOL    HW219299   1.829   2.433   5.014  0.3079 -0.9064  1.1786
 2556SOL     OW19300   1.974   3.246   9.948 -0.0655  0.4552 -0.2435
 2556SOL    HW119301   2.044   3.293   9.994 -0.0553 -0.6951  0.9288
 2556SOL    HW219302   1.899   3.245  10.008 -0.4956  1.0576 -0.7744
 2557SOL     OW19303   0.557   1.125   6.288 -0.3542  0.1765  0.1320
 2557SOL    HW119304   0.474   1.173   6.288  0.0358  0.8440  0.7694
 2557SOL    HW219305   0.618   1.191   6.319  0.8331 -0.6228 -0.5019
 2558SOL     OW19306   0.442   4.077   5.928 -0.0234  0.1566 -0.0513
 2558SOL    HW119307   0.505   4.031   5.983 -0.9146 -0.1124  0.7550
 2558SOL    HW219308   0.382   4.004   5.913 -1.0052  0.6463  1.5157
 2559SOL     OW19309   3.214   1.228  10.056  0.1939  0.0781 -0.0576
 2559SOL    HW119310   3.275   1.166  10.016  0.7304  1.0777 -0.7780
 2559SOL    HW219311   3.135   1.209  10.006  0.4165  0.6604 -0.6355
 2560SOL     OW19312   4.590   1.173   3.715 -0.6957 -0.2653 -0.3823
 2560SOL    HW119313   4.644   1.148   3.789  0.2657 -0.9009 -1.2917
 2560SOL    HW219314   4.555   1.257   3.744 -0.5304  0.7939 -3.2123
 2561SOL     OW19315   0.096   0.425   3.233  0.3883  0.0510  0.3990
 2561SOL    HW119316   0.146   0.408   3.153 -0.4964 -0.7489  0.0059
 2561SOL    HW219317   0.082   0.335   3.265  1.0912 -0.2801 -0.2296
 2562SOL     OW19318   1.271   2.709  14.146 -0.1377 -0.6921 -0.0503
 2562SOL    HW119319   1.255   2.692  14.239 -0.2002  0.2288  0.1052
 2562SOL    HW219320   1.184   2.707  14.106  0.3597  1.7021 -1.2399
 2563SOL     OW19321   3.931   4.055   2.854 -0.6127 -0.1656  0.4073
 2563SOL    HW119322   3.867   3.985   2.840 -0.0397 -0.2012 -2.0765
 2563SOL    HW219323   3.909   4.095   2.938  0.2871  0.6522  0.2566
 2564SOL     OW19324   2.913   4.733   3.564  0.1378  0.7098  0.0105
 2564SOL    HW119325   2.973   4.686   3.621  0.6214  0.5705 -0.6136
 2564SOL    HW219326   2.955   4.735   3.478  1.2675  0.2773  0.5502
 2565SOL     OW19327   2.235   1.909   1.786  0.2201  0.1228  0.1470
 2565SOL    HW119328   2.265   1.954   1.707  1.3758 -2.0481 -0.6307
 2565SOL    HW219329   2.173   1.967   1.831 -1.0250 -0.2805 -1.0652
 2566SOL     OW19330   3.906   2.566   1.284  0.1275 -0.1039  0.3281
 2566SOL    HW119331   3.889   2.472   1.271  0.7213 -0.4582  2.0804
 2566SOL    HW219332   3.880   2.576   1.376 -0.6611 -1.9968  0.3060
 2567SOL     OW19333   0.672   2.720   2.909 -0.2353 -0.0039  0.4346
 2567SOL    HW119334   0.611   2.751   2.976 -2.0783 -0.9521 -0.8200
 2567SOL    HW219335   0.754   2.744   2.952 -0.4635  1.7725 -0.1075
 2568SOL     OW19336   2.326   1.414   7.271  0.2700 -0.7057 -0.4799
 2568SOL    HW119337   2.413   1.425   7.309  0.5209 -1.9022 -0.6907
 2568SOL    HW219338   2.263   1.458   7.328  2.1225 -0.1181  1.0959
 2569SOL     OW19339   4.623   1.771   8.775 -0.4421 -0.0570 -0.8754
 2569SOL    HW119340   4.696   1.815   8.819  0.4082  0.2707 -2.6287
 2569SOL    HW219341   4.641   1.677   8.779  1.3630  0.3204 -0.3620
 2570SOL     OW19342   0.725   3.641   9.349 -0.3983 -0.4245 -0.7583
 2570SOL    HW119343   0.779   3.716   9.375  1.1062 -0.8778 -2.6835
 2570SOL    HW219344   0.677   3.618   9.429  0.4203  0.6888  0.0513
 2571SOL     OW19345   0.456   2.997   7.671 -0.5379  0.0679 -0.3670
 2571SOL    HW119346   0.391   2.930   7.650  0.5831 -1.6313  1.6133
 2571SOL    HW219347   0.496   3.004   7.584 -0.5358  1.8246 -0.2279
 2572SOL     OW19348   1.809   4.616   4.097  0.0251 -0.0203  0.0270
 2572SOL    HW119349   1.880   4.676   4.074 -1.7854  1.7466 -1.0041
 2572SOL    HW219350   1.749   4.622   4.022  2.6091 -0.3613 -2.0933
 2573SOL     OW19351   2.183   4.737   2.105 -0.5729  0.0401 -0.4668
 2573SOL    HW119352   2.104   0.008   2.157 -0.4569  0.4653 -0.4125
 2573SOL    HW219353   2.219   4.651   2.124  1.6675  0.4604 -2.8157
 2574SOL     OW19354   1.227   1.201   1.528 -0.2177 -0.5378 -0.0767
 2574SOL    HW119355   1.180   1.186   1.611 -1.0632  0.1777 -0.4274
 2574SOL    HW219356   1.307   1.149   1.537  1.3143  2.2120  1.9661
 2575SOL     OW19357   0.806   1.480   2.193  0.2476 -0.5669  0.1604
 2575SOL    HW119358   0.811   1.474   2.098  2.2960  2.2287  0.0936
 2575SOL    HW219359   0.845   1.565   2.209  1.2184 -0.9266 -0.3144
 2576SOL     OW19360   2.823   2.493  10.987 -0.4521  0.1957 -0.0734
 2576SOL    HW119361   2.782   2.506  11.073  0.0855  0.3337  0.1663
 2576SOL    HW219362   2.913   2.521  11.006 -0.9179 -0.3113  2.9026
 2577SOL     OW19363   1.686   2.932   9.035  0.2827 -0.4197  0.1096
 2577SOL    HW119364   1.693   2.929   8.940 -0.4983 -0.9513  0.0667
 2577SOL    HW219365   1.593   2.956   9.040  0.9535  1.9384  1.2982
 2578SOL     OW19366   1.996   3.000   8.075 -0.0621 -0.2379 -0.1026
 2578SOL    HW119367   1.941   2.952   8.137  0.9743 -1.8328 -0.4224
 2578SOL    HW219368   2.030   2.924   8.027 -1.1847 -0.9793  0.2689
 2579SOL     OW19369   0.842   0.302  10.376 -0.7136 -0.2894 -0.1449
 2579SOL    HW119370   0.785   0.323  10.302  0.0262  0.6813 -0.4411
 2579SOL    HW219371   0.905   0.371  10.396 -2.7429  1.4836  0.1406
 2580SOL     OW19372   1.268   0.075   2.405 -0.4336  0.7535  0.2608
 2580SOL    HW119373   1.187   0.115   2.434  1.6398  3.5102  2.2232
 2580SOL    HW219374   1.330   0.101   2.474 -0.1335  1.4800 -0.2943
 2581SOL     OW19375   3.727   3.681   2.601 -0.4711  0.6272  0.5609
 2581SOL    HW119376   3.807   3.694   2.551 -0.6028 -1.5932 -0.1925
 2581SOL    HW219377   3.753   3.610   2.660  1.6445 -1.5163 -2.9548
 2582SOL     OW19378   2.844   0.641  12.312  0.0909 -0.8501  0.1965
 2582SOL    HW119379   2.755   0.672  12.332  0.9370  1.2601  0.6497
 2582SOL    HW219380   2.834   0.621  12.219 -0.8674  1.1230 -0.1329
 2583SOL     OW19381   0.518   1.685   6.469 -0.3329  0.0197  0.3359
 2583SOL    HW119382   0.476   1.742   6.405 -0.8421  0.9969  1.5633
 2583SOL    HW219383   0.563   1.749   6.524  1.8971 -2.4150  1.3581
 2584SOL     OW19384   4.597   2.723   8.724 -0.5227 -0.6272  0.3691
 2584SOL    HW119385   4.535   2.686   8.788  0.4512  0.9209  2.2162
 2584SOL    HW219386   4.599   2.655   8.657 -1.7789  0.3434 -0.6475
 2585SOL     OW19387   1.013   2.864   6.235 -0.4698 -0.3894 -0.1406
 2585SOL    HW119388   0.930   2.878   6.279 -0.4852  1.4905 -0.7658
 2585SOL    HW219389   1.059   2.825   6.309  0.0106 -0.3679 -0.4227
 2586SOL     OW19390   0.911   4.151   5.474  0.2597  0.4681  0.2825
 2586SOL    HW119391   0.905   4.058   5.495 -0.2445  0.2787 -0.6948
 2586SOL    HW219392   0.834   4.145   5.418 -1.0954  1.1628  2.0896
 2587SOL     OW19393   4.572   3.539   2.666  0.3362  0.4254 -0.1077
 2587SOL    HW119394   4.630   3.484   2.614  1.2153  0.4569  0.8373
 2587SOL    HW219395   4.624   3.616   2.687  2.1365 -0.9837  0.6145
 2588SOL     OW19396   0.388   0.403   6.281  0.0146 -0.2847 -0.0320
 2588SOL    HW119397   0.363   0.315   6.251 -2.2011  0.0214  0.9393
 2588SOL    HW219398   0.350   0.440   6.201 -1.1669  0.6177  0.9491
 2589SOL     OW19399   3.210   3.251   2.002 -0.6052 -0.3171 -0.1657
 2589SOL    HW119400   3.153   3.328   2.000 -2.1167 -1.4224  0.9170
 2589SOL    HW219401   3.242   3.244   2.093 -0.0360 -0.5804 -0.3860
 2590SOL     OW19402   1.028   4.199  13.051 -0.4869  0.1264  0.4192
 2590SOL    HW119403   1.062   4.156  13.129 -1.4468 -1.8132 -0.2177
 2590SOL    HW219404   1.086   4.274  13.046 -0.2593 -0.2153 -1.8035
 2591SOL     OW19405   0.474   2.304   2.412 -0.4878 -0.3294 -0.6420
 2591SOL    HW119406   0.421   2.234   2.449  1.0939 -0.8251  0.6864
 2591SOL    HW219407   0.403   2.344   2.362 -0.1621  0.8078 -0.2038
 2592SOL     OW19408   2.939   1.939  15.875 -0.4245  0.2902  0.3027
 2592SOL    HW119409   3.015   1.953  15.820  0.8115 -0.2308  1.8911
 2592SOL    HW219410   2.984   1.876  15.931  0.7742  0.9338  0.0661
 2593SOL     OW19411   0.451   4.616  11.868  0.3757 -0.5782  0.4291
 2593SOL    HW119412   0.543   4.637  11.851  0.9319 -1.0436  2.8402
 2593SOL    HW219413   0.418   4.689  11.815  2.1323 -0.7301 -0.8634
 2594SOL     OW19414   3.724   4.510  16.941 -0.2219 -0.6598 -0.3152
 2594SOL    HW119415   3.649   4.568  16.953 -0.4802 -1.4028  1.6781
 2594SOL    HW219416   3.756   4.500  17.031  0.5569  0.1540 -0.4979
 2595SOL     OW19417   1.974   3.934   4.539 -0.1562 -0.2504 -0.7969
 2595SOL    HW119418   2.044   3.950   4.603  0.0309  0.7124 -1.2345
 2595SOL    HW219419   2.010   3.865   4.484  0.0104 -1.0220  0.2981
 2596SOL     OW19420   1.306   2.627  14.421 -0.3660  0.0272  0.1583
 2596SOL    HW119421   1.376   2.630  14.486 -0.0254 -0.6399 -0.1830
 2596SOL    HW219422   1.231   2.629  14.481 -0.9272  1.2004 -0.5979
 2597SOL     OW19423   1.845   1.329  16.890  0.6517 -0.1502 -0.5564
 2597SOL    HW119424   1.807   1.404  16.936  1.2664 -1.1300  1.5394
 2597SOL    HW219425   1.863   1.367  16.804  1.2435  2.4826  0.7218
 2598SOL     OW19426   2.821   4.401   3.472 -0.3926 -0.3491 -0.7625
 2598SOL    HW119427   2.829   4.400   3.568  1.6684  0.9276 -0.9057
 2598SOL    HW219428   2.890   4.347   3.434  0.4485 -0.0734  0.3306
 2599SOL     OW19429   4.364   3.473   5.910 -0.2581  0.2385 -0.7650
 2599SOL    HW119430   4.459   3.464   5.915 -0.2793  0.3425 -0.1315
 2599SOL    HW219431   4.347   3.381   5.887 -2.4246  0.9604 -2.0368
 2600SOL     OW19432   0.377   3.741   9.473  0.2178  0.1774 -0.1623
 2600SOL    HW119433   0.326   3.713   9.397 -2.1636 -0.0592  1.5238
 2600SOL    HW219434   0.415   3.825   9.446  2.2996 -0.6814  0.0880
 2601SOL     OW19435   2.365   0.554   6.170 -0.7022 -0.1948  0.1998
 2601SOL    HW119436   2.391   0.492   6.238  0.3635 -0.4441 -0.4347
 2601SOL    HW219437   2.400   0.632   6.213 -0.5606  0.4706 -1.1188
 2602SOL     OW19438   4.672   3.678   9.105 -0.1677 -0.1427  0.1418
 2602SOL    HW119439   4.743   3.702   9.045 -0.3328  1.9374  0.7564
 2602SOL    HW219440   4.717   3.690   9.189 -0.2782  2.2884 -0.1505
 2603SOL     OW19441   2.193   3.562   4.219 -0.3044  0.1153 -0.5583
 2603SOL    HW119442   2.231   3.475   4.222  0.0269  0.1395 -3.9657
 2603SOL    HW219443   2.147   3.562   4.135 -2.8365  1.0888  0.8294
 2604SOL     OW19444   3.811   4.091  16.608  0.8426  0.1287 -0.0487
 2604SOL    HW119445   3.867   4.062  16.535 -0.9572 -2.2216 -0.4955
 2604SOL    HW219446   3.835   4.183  16.618 -1.3089  0.6675  0.1511
 2605SOL     OW19447   1.297   2.385   4.845  0.3939 -0.1702 -0.2823
 2605SOL    HW119448   1.351   2.306   4.846 -0.1080 -0.5163 -0.4758
 2605SOL    HW219449   1.210   2.347   4.843  0.2636  0.1486 -0.8385
 2606SOL     OW19450   2.053   4.632   0.912  0.2147 -0.7002 -0.1258
 2606SOL    HW119451   2.127   4.616   0.971 -0.0639  2.0769  0.9720
 2606SOL    HW219452   2.089   4.699   0.854 -2.2672  0.2826 -0.5443
 2607SOL     OW19453   2.295   0.335   1.657 -0.3293  0.0127 -0.2768
 2607SOL    HW119454   2.274   0.268   1.593  0.6483 -0.6824  0.1167
 2607SOL    HW219455   2.295   0.416   1.607 -1.2745 -0.3286 -0.8174
 2608SOL     OW19456   3.857   3.509   8.353  0.4225 -0.0081  0.7160
 2608SOL    HW119457   3.827   3.561   8.428 -0.3542  2.3705 -1.2517
 2608SOL    HW219458   3.818   3.552   8.277  2.1079  0.8088  0.3220
 2609SOL     OW19459   0.704   2.644   7.791 -0.4078  0.3393  0.2064
 2609SOL    HW119460   0.625   2.634   7.843 -1.1834  1.4708 -0.7472
 2609SOL    HW219461   0.685   2.731   7.757 -0.7685  0.3295  0.3818
 2610SOL     OW19462   2.789   4.289  12.091  0.2486  0.8921 -0.1693
 2610SOL    HW119463   2.750   4.371  12.120  1.5033  1.9443 -1.4577
 2610SOL    HW219464   2.868   4.319  12.046 -0.4813  0.3334 -1.8078
 2611SOL     OW19465   2.315   3.444   8.857  0.1012  0.0528 -0.2169
 2611SOL    HW119466   2.371   3.471   8.930  1.5714 -2.8720 -0.2652
 2611SOL    HW219467   2.233   3.490   8.879  1.2488  2.5779 -1.2987
 2612SOL     OW19468   0.900   3.298   6.294  0.3623 -0.3032  0.1203
 2612SOL    HW119469   0.867   3.381   6.330 -0.1755 -0.8407  0.8648
 2612SOL    HW219470   0.972   3.285   6.356 -0.7317  0.1179  1.4839
 2613SOL     OW19471   0.748   1.156   3.105  0.1244  0.6370  0.3187
 2613SOL    HW119472   0.801   1.215   3.159  0.4313  1.3303 -0.7252
 2613SOL    HW219473   0.796   1.170   3.024  0.1000 -1.4073 -0.0537
 2614SOL     OW19474   2.268   2.063   1.072  0.5204 -0.5241 -0.5758
 2614SOL    HW119475   2.325   2.108   1.134 -3.0721  1.4354  1.3126
 2614SOL    HW219476   2.202   2.028   1.132  1.8929 -2.6902 -0.3385
 2615SOL     OW19477   0.252   0.785   6.018 -0.2901 -0.2917 -0.5825
 2615SOL    HW119478   0.281   0.861   6.069 -0.9670  0.3548 -1.1623
 2615SOL    HW219479   0.156   0.790   6.013 -0.3136 -2.6497 -2.1758
 2616SOL     OW19480   4.687   4.228   6.972 -0.1953  0.1545 -0.4171
 2616SOL    HW119481   4.697   4.234   7.067  0.4783  1.9798 -0.6111
 2616SOL    HW219482   4.595   4.208   6.956 -0.8359  1.9272  1.0764
 2617SOL     OW19483   0.700   4.324   0.220 -0.2897 -0.3362  0.1224
 2617SOL    HW119484   0.627   4.278   0.179 -1.5303  1.5344  0.2155
 2617SOL    HW219485   0.670   4.415   0.220 -0.0134 -0.2460 -0.1127
 2618SOL     OW19486   1.269   0.110   8.517  0.7765  0.3535 -0.4883
 2618SOL    HW119487   1.215   0.151   8.585 -0.5629 -1.3598 -0.5332
 2618SOL    HW219488   1.254   0.164   8.440 -1.6846  0.1176 -0.1742
 2619SOL     OW19489   0.155   3.249   2.075  0.3227 -0.2647 -0.2065
 2619SOL    HW119490   0.070   3.231   2.115 -0.0994  2.4883  0.1172
 2619SOL    HW219491   0.128   3.283   1.990  2.0338  0.3551 -0.4986
 2620SOL     OW19492   1.879   1.999   5.855 -0.5644 -0.3097  0.8755
 2620SOL    HW119493   1.812   1.931   5.863  1.0840 -2.1186 -0.6868
 2620SOL    HW219494   1.861   2.054   5.931 -3.1490  2.8189 -1.9460
 2621SOL     OW19495   0.839   3.958   5.883  0.0889 -0.3674 -0.2374
 2621SOL    HW119496   0.910   3.899   5.906 -1.3839 -3.0742 -2.6510
 2621SOL    HW219497   0.801   3.917   5.805  0.0150  2.5462 -1.7206
 2622SOL     OW19498   3.487   3.232   9.352 -0.4144 -0.0282  0.0315
 2622SOL    HW119499   3.445   3.147   9.342  0.0889 -0.3891  0.9282
 2622SOL    HW219500   3.579   3.209   9.343 -0.1720  0.6295  0.7816
 2623SOL     OW19501   2.669   1.954   4.860 -0.1985 -0.2033 -0.4022
 2623SOL    HW119502   2.584   1.985   4.891 -0.6460 -0.9675 -0.8860
 2623SOL    HW219503   2.640   1.950   4.770 -0.4344  1.4550 -0.4061
 2624SOL     OW19504   3.472   2.893   4.935  0.1170  0.5297 -0.5412
 2624SOL    HW119505   3.426   2.817   4.969  1.3908  0.1623  0.3662
 2624SOL    HW219506   3.564   2.884   4.963  0.7454 -2.4445 -3.5377
 2625SOL     OW19507   4.184   1.290   7.887  0.9522  0.5168 -0.0400
 2625SOL    HW119508   4.137   1.373   7.887  0.1845  0.0849 -1.6838
 2625SOL    HW219509   4.271   1.311   7.921 -0.1860 -0.6446  3.6268
 2626SOL     OW19510   2.148   0.080   0.735  0.5261  0.3864 -0.2971
 2626SOL    HW119511   2.175   0.159   0.782  3.4042  0.5627 -2.2279
 2626SOL    HW219512   2.153   0.100   0.641  0.0782  1.0158 -0.1911
 2627SOL     OW19513   2.518   1.152   3.754  0.0962  0.6061 -0.0616
 2627SOL    HW119514   2.464   1.215   3.802  2.7928  1.1327  2.2847
 2627SOL    HW219515   2.543   1.195   3.673  0.1954  0.1409 -0.2771
 2628SOL     OW19516   4.330   0.399   9.784  0.0797  0.2632 -0.3005
 2628SOL    HW119517   4.406   0.405   9.842  0.4184 -0.0297 -0.7135
 2628SOL    HW219518   4.253   0.413   9.840  0.0169  0.3989 -0.4204
 2629SOL     OW19519   4.668   2.795  12.739 -0.1097 -0.1776  0.4223
 2629SOL    HW119520   4.619   2.877  12.741 -0.1257 -0.2099  1.2316
 2629SOL    HW219521   4.599   2.728  12.739  1.9989 -2.3767 -0.5420
 2630SOL     OW19522   2.142   1.347  14.406 -0.2635 -0.5135 -0.0614
 2630SOL    HW119523   2.081   1.323  14.336  2.2797 -0.7620 -2.2182
 2630SOL    HW219524   2.107   1.288  14.473 -2.6550  0.3059 -0.5863
 2631SOL     OW19525   0.759   2.087  10.918  0.1501  0.6461 -0.4586
 2631SOL    HW119526   0.809   2.157  10.876 -0.8137  0.1988 -2.3718
 2631SOL    HW219527   0.798   2.016  10.867 -1.2582  0.6461 -1.5226
 2632SOL     OW19528   0.735   4.590  11.439 -0.0938 -0.3951  0.3278
 2632SOL    HW119529   0.664   4.604  11.377 -1.0172 -0.6705  1.3228
 2632SOL    HW219530   0.693   4.552  11.516  1.8070 -0.6830  1.2177
 2633SOL     OW19531   3.705   0.705   3.052  0.1294 -0.2342 -0.2194
 2633SOL    HW119532   3.615   0.739   3.054 -0.6859 -2.3310 -0.8855
 2633SOL    HW219533   3.699   0.626   3.104  0.3615 -1.3372 -1.8703
 2634SOL     OW19534   2.580   0.468   0.942  0.1670  0.5648 -0.3097
 2634SOL    HW119535   2.559   0.559   0.964  1.3385  0.5107  1.0196
 2634SOL    HW219536   2.590   0.436   1.031  2.0741  1.3036 -0.2713
 2635SOL     OW19537   2.890   4.076   6.848  0.1402 -0.2458 -1.3903
 2635SOL    HW119538   2.868   4.080   6.941  0.5394 -1.4121 -1.2441
 2635SOL    HW219539   2.841   4.156   6.829  1.3355  0.5627 -1.1250
 2636SOL     OW19540   2.414   2.947   5.698 -0.3010  0.1670 -0.2750
 2636SOL    HW119541   2.401   3.025   5.751 -2.2577  0.7421 -1.5945
 2636SOL    HW219542   2.360   2.877   5.736 -0.2797  1.2058  1.6605
 2637SOL     OW19543   3.726   1.010   0.838 -0.3861 -0.4417  0.1073
 2637SOL    HW119544   3.690   0.987   0.753  1.2169 -0.2796 -0.6231
 2637SOL    HW219545   3.657   0.984   0.899 -0.0712  1.3189  1.2233
 2638SOL     OW19546   1.481   0.096   0.048 -0.3683 -0.0691 -0.4395
 2638SOL    HW119547   1.523   0.011   0.064  2.8665  1.2599 -1.9374
 2638SOL    HW219548   1.508   0.124  17.733  0.2794  1.0904  0.1414
 2639SOL     OW19549   0.875   1.187   1.576 -0.6050 -0.0496 -0.4283
 2639SOL    HW119550   0.884   1.214   1.484  0.6683  0.8414 -0.0265
 2639SOL    HW219551   0.913   1.267   1.612  0.4937 -1.8638  2.4420
 2640SOL     OW19552   3.433   2.509   4.665  0.4715 -0.0167 -0.2831
 2640SOL    HW119553   3.411   2.470   4.750  0.5892  1.4801  0.4385
 2640SOL    HW219554   3.380   2.589   4.661 -1.5647 -1.4069 -1.0322
 2641SOL     OW19555   3.786   0.628   3.727  0.3226 -0.8047  0.0431
 2641SOL    HW119556   3.826   0.623   3.640 -0.1401  0.7416 -0.2553
 2641SOL    HW219557   3.831   0.563   3.781 -0.7193 -0.8592  0.8468
 2642SOL     OW19558   2.111   2.657  12.745 -0.4716  0.3528 -0.4082
 2642SOL    HW119559   2.072   2.613  12.669  2.6266 -2.1539 -0.5092
 2642SOL    HW219560   2.193   2.611  12.758  0.4379  1.4496 -2.3614
 2643SOL     OW19561   2.838   4.042   4.738 -0.0618 -0.1948  0.0222
 2643SOL    HW119562   2.848   3.948   4.755 -0.8130 -0.1802  0.4964
 2643SOL    HW219563   2.928   4.060   4.710  0.3919 -0.3803  1.3746
 2644SOL     OW19564   3.925   0.907   5.901  0.7370  0.6138 -0.5282
 2644SOL    HW119565   3.865   0.948   5.838 -0.7678 -1.0284 -0.1603
 2644SOL    HW219566   3.991   0.974   5.915 -0.0124  1.2463 -0.0129
 2645SOL     OW19567   4.142   4.594   4.240  0.3197 -0.4489 -0.2829
 2645SOL    HW119568   4.095   4.518   4.273 -0.2154 -0.6424 -1.4759
 2645SOL    HW219569   4.225   4.557   4.211 -0.2194 -0.8106 -1.3910
 2646SOL     OW19570   3.761   2.524   8.635 -0.2118  0.5320  0.0761
 2646SOL    HW119571   3.787   2.506   8.725 -1.6643  1.8300  0.7544
 2646SOL    HW219572   3.748   2.433   8.608  0.1445  0.5921 -0.3085
 2647SOL     OW19573   1.720   2.421   6.943 -0.1289 -0.0291 -0.0845
 2647SOL    HW119574   1.726   2.462   7.030 -0.3587 -0.9555  0.3628
 2647SOL    HW219575   1.675   2.491   6.894 -1.9362 -0.2631  1.2588
 2648SOL     OW19576   1.765   0.284   4.641 -0.1436 -0.4105  0.4660
 2648SOL    HW119577   1.745   0.323   4.556 -0.7942 -1.1355  0.2870
 2648SOL    HW219578   1.860   0.285   4.631 -0.2232  1.2673 -0.0978
 2649SOL     OW19579   1.547   2.692  14.651 -0.0520  0.0543  0.0831
 2649SOL    HW119580   1.634   2.651  14.646  0.5276  1.3577 -0.4489
 2649SOL    HW219581   1.551   2.749  14.727  2.3248  1.3994 -1.0480
 2650SOL     OW19582   4.019   3.898   4.198  0.2387  0.2298  0.4561
 2650SOL    HW119583   3.955   3.827   4.192 -0.2094  0.8474 -1.8631
 2650SOL    HW219584   4.054   3.906   4.110 -0.3702  1.8754  0.3602
 2651SOL     OW19585   1.726   2.873   9.690 -0.4560  0.1074  0.2372
 2651SOL    HW119586   1.645   2.822   9.691 -1.5816  1.8908 -1.6215
 2651SOL    HW219587   1.716   2.926   9.769  2.9801  0.6633  0.3230
 2652SOL     OW19588   3.848   0.537   7.693 -0.6153 -0.1330  0.1559
 2652SOL    HW119589   3.906   0.579   7.628 -1.3523 -0.9425 -1.0318
 2652SOL    HW219590   3.796   0.479   7.638  0.1322 -0.7397  0.0872
 2653SOL     OW19591   3.149   4.554   7.616  0.8535  0.2167  0.0364
 2653SOL    HW119592   3.238   4.585   7.627  0.5918  0.9426  0.1042
 2653SOL    HW219593   3.135   4.581   7.525 -0.2207 -0.2599  0.0539
 2654SOL     OW19594   0.228   3.175  12.033  0.2844  0.6817  0.3601
 2654SOL    HW119595   0.277   3.152  11.954  1.6543  0.1197  1.3827
 2654SOL    HW219596   0.284   3.137  12.101 -0.1523  0.0243  0.3552
 2655SOL     OW19597   0.274   4.167  10.253 -0.0170 -0.0429  0.4967
 2655SOL    HW119598   0.217   4.098  10.219 -0.4955  0.7164 -0.2493
 2655SOL    HW219599   0.362   4.145  10.223  0.6093  0.5778  1.8674
 2656SOL     OW19600   1.000   4.607   0.906  0.0039  0.1277 -0.5017
 2656SOL    HW119601   0.935   4.577   0.841 -0.8075  0.7376  0.0336
 2656SOL    HW219602   0.940   4.628   0.978 -2.7626 -1.6312 -2.2479
 2657SOL     OW19603   4.093   2.125   7.386  0.5402  0.5525  0.5673
 2657SOL    HW119604   4.169   2.183   7.401  1.0256 -0.4636  2.0855
 2657SOL    HW219605   4.100   2.128   7.291 -1.8510 -1.6406  0.3528
 2658SOL     OW19606   0.889   2.528   4.823  0.2879  0.3190  0.7265
 2658SOL    HW119607   0.833   2.488   4.756 -0.1353  0.2214  1.1331
 2658SOL    HW219608   0.825   2.543   4.893  1.2822  1.3553  1.4076
 2659SOL     OW19609   0.281   1.495   7.890 -0.1545 -1.0237 -0.0396
 2659SOL    HW119610   0.335   1.535   7.957 -1.5270 -0.5434  0.7740
 2659SOL    HW219611   0.194   1.484   7.929 -0.1688 -1.0792 -0.0866
 2660SOL     OW19612   4.586   3.530   5.000  0.5083 -0.4264  0.3959
 2660SOL    HW119613   4.575   3.612   5.047 -2.3944 -1.0867  0.8949
 2660SOL    HW219614   4.570   3.549   4.908 -0.0194 -1.2280  0.3142
 2661SOL     OW19615   2.427   0.906   8.043 -0.1151 -0.0458 -0.3559
 2661SOL    HW119616   2.513   0.924   8.082 -1.0885  1.5908  0.9939
 2661SOL    HW219617   2.410   0.815   8.066  1.3883 -0.5153 -1.0941
 2662SOL     OW19618   1.410   0.032   2.076 -0.2465 -0.4293  0.6502
 2662SOL    HW119619   1.486   4.727   2.045  0.8993  0.6054  1.8299
 2662SOL    HW219620   1.456   0.081   2.145  0.6039 -0.1713 -0.0962
 2663SOL     OW19621   3.818   1.234   4.710  0.1676 -0.1386  0.2075
 2663SOL    HW119622   3.784   1.157   4.755  0.3349  0.1620  0.8656
 2663SOL    HW219623   3.745   1.293   4.728  0.4738  0.6316 -1.0811
 2664SOL     OW19624   3.479   1.373   5.295  0.0304  0.3744 -0.2675
 2664SOL    HW119625   3.487   1.391   5.388  1.6002 -0.6530 -0.2059
 2664SOL    HW219626   3.450   1.457   5.259  0.6238  0.7935  0.2423
 2665SOL     OW19627   1.202   4.502  15.385 -0.8142 -0.5263 -0.0949
 2665SOL    HW119628   1.277   4.442  15.391 -1.8796 -1.6720  1.5971
 2665SOL    HW219629   1.230   4.559  15.313  3.1168 -1.2077  0.8842
 2666SOL     OW19630   3.238   1.098   0.893 -0.2054  0.3505  0.3645
 2666SOL    HW119631   3.181   1.142   0.956 -2.5252 -0.1154 -1.4024
 2666SOL    HW219632   3.191   1.015   0.894  2.4729 -1.1655  0.7065
 2667SOL     OW19633   3.645   2.704   1.592 -0.2240 -0.0094 -0.2209
 2667SOL    HW119634   3.583   2.773   1.615 -0.7229 -0.4206 -0.3258
 2667SOL    HW219635   3.612   2.638   1.653  1.9388 -1.8072 -0.9821
 2668SOL     OW19636   2.369   2.967   4.233  0.3089  0.0376 -0.0990
 2668SOL    HW119637   2.339   3.037   4.291 -0.6499  1.0290 -1.7891
 2668SOL    HW219638   2.322   2.980   4.150  0.4270  1.6901  0.0835
 2669SOL     OW19639   0.918   1.020  13.908  0.2216 -0.2352  0.3100
 2669SOL    HW119640   0.857   1.059  13.970 -0.7467 -1.7992  0.3443
 2669SOL    HW219641   0.926   0.931  13.941  2.6243 -1.0772 -2.6124
 2670SOL     OW19642   2.659   0.845  12.065  0.1951 -0.3635 -0.3527
 2670SOL    HW119643   2.610   0.791  12.003  0.1420 -0.3097 -0.3571
 2670SOL    HW219644   2.627   0.808  12.148  0.3275 -1.1945 -0.6662
 2671SOL     OW19645   3.931   4.211  15.365 -0.2019  0.1315 -0.3004
 2671SOL    HW119646   3.924   4.222  15.271  0.1200  0.0743 -0.3287
 2671SOL    HW219647   3.890   4.124  15.366 -1.4445  0.7105  0.6460
 2672SOL     OW19648   4.516   0.546   8.389 -0.8662  0.4270 -0.0645
 2672SOL    HW119649   4.500   0.452   8.390 -0.6162  0.3709 -1.1746
 2672SOL    HW219650   4.559   0.560   8.473 -1.2427  1.6101 -0.0788
 2673SOL     OW19651   2.331   2.725   3.586  0.3607  0.3713  0.0443
 2673SOL    HW119652   2.408   2.701   3.638 -0.5722 -1.9552  0.3506
 2673SOL    HW219653   2.374   2.713   3.502 -0.7685  1.3491 -0.6687
 2674SOL     OW19654   3.841   3.545   7.052 -0.5448  0.3365 -0.1468
 2674SOL    HW119655   3.862   3.600   7.127 -1.4487  2.4531 -1.4318
 2674SOL    HW219656   3.752   3.516   7.070 -1.1066  1.7998 -0.5675
 2675SOL     OW19657   0.474   1.847   4.782  0.7068 -0.4651  0.3700
 2675SOL    HW119658   0.415   1.816   4.712 -0.8799  0.7663  1.1507
 2675SOL    HW219659   0.481   1.768   4.836 -4.1813  0.6275  2.6562
 2676SOL     OW19660   1.004   0.148   6.267 -0.8652 -0.2043 -0.3117
 2676SOL    HW119661   0.981   0.198   6.188 -1.4926  0.0514  0.0298
 2676SOL    HW219662   0.919   0.142   6.309 -1.0960 -2.0921 -1.0514
 2677SOL     OW19663   3.600   3.185   6.113 -0.1729  0.2495  0.4869
 2677SOL    HW119664   3.681   3.235   6.115  0.5248 -0.9036  0.7860
 2677SOL    HW219665   3.537   3.243   6.071  0.2419  0.1852 -0.2105
 2678SOL     OW19666   2.104   3.787   5.071 -0.0337 -0.1068 -0.1225
 2678SOL    HW119667   2.085   3.727   5.143  1.4702  0.5169  0.7821
 2678SOL    HW219668   2.033   3.849   5.090 -1.4167 -1.4199 -1.0268
 2679SOL     OW19669   4.564   3.536  16.023 -0.3437  0.0107  0.2714
 2679SOL    HW119670   4.518   3.570  15.947 -0.1173 -0.7905 -0.2224
 2679SOL    HW219671   4.640   3.594  16.014  1.2666 -2.1477  0.0179
 2680SOL     OW19672   3.337   4.350   5.486 -0.0685  0.3775 -0.0505
 2680SOL    HW119673   3.400   4.405   5.533 -1.9683  2.1022  0.5032
 2680SOL    HW219674   3.317   4.280   5.548  0.9599  0.5348  0.4585
 2681SOL     OW19675   4.234   1.261   6.852 -0.0818 -0.3499 -0.2844
 2681SOL    HW119676   4.288   1.182   6.853 -0.0971 -0.3582 -0.0841
 2681SOL    HW219677   4.158   1.237   6.798 -0.4331 -0.5462  0.2960
 2682SOL     OW19678   0.977   3.623   2.175  0.7569 -0.2885  0.1520
 2682SOL    HW119679   0.994   3.603   2.083 -4.5424 -0.6556 -0.7258
 2682SOL    HW219680   0.888   3.657   2.173  1.4162  1.3006 -2.1628
 2683SOL     OW19681   3.877   3.501   2.407 -0.0218 -0.2231 -0.4417
 2683SOL    HW119682   3.970   3.496   2.429 -0.1357 -4.0740 -0.9721
 2683SOL    HW219683   3.877   3.581   2.353  0.2716  0.9677  1.3136
 2684SOL     OW19684   0.540   1.354   3.764 -0.3006  0.2683  0.3137
 2684SOL    HW119685   0.506   1.380   3.678  0.1798 -0.6865 -0.1612
 2684SOL    HW219686   0.497   1.271   3.786 -1.3368  0.7184 -0.0221
 2685SOL     OW19687   0.860   2.544   8.878  0.3675  0.0862  0.0948
 2685SOL    HW119688   0.915   2.474   8.912 -0.3081  0.0581  1.1582
 2685SOL    HW219689   0.898   2.548   8.791  0.7821 -1.1922  0.2234
 2686SOL     OW19690   1.299   2.515   8.463  0.3018  0.2708 -0.3192
 2686SOL    HW119691   1.264   2.426   8.459  1.2083 -0.1118  0.1883
 2686SOL    HW219692   1.392   2.495   8.473  0.8069  2.1838 -1.3003
 2687SOL     OW19693   3.274   3.104   8.545 -0.5995 -1.1274 -0.2089
 2687SOL    HW119694   3.211   3.174   8.528 -0.8043 -0.9975  1.0607
 2687SOL    HW219695   3.289   3.071   8.457 -1.8924 -1.0651 -0.4510
 2688SOL     OW19696   4.031   1.521   7.934 -0.2630  0.1036  0.2189
 2688SOL    HW119697   4.014   1.599   7.882 -1.7787  0.2682  0.9648
 2688SOL    HW219698   3.972   1.546   8.005  1.4968 -1.5429  2.2800
 2689SOL     OW19699   2.158   2.532   4.720  0.4617  0.2355  0.4527
 2689SOL    HW119700   2.120   2.517   4.807  0.8172 -0.2391  0.5246
 2689SOL    HW219701   2.124   2.619   4.696  1.1844  0.0327 -1.2796
 2690SOL     OW19702   2.083   3.496   7.958 -0.1570 -0.0117 -0.3907
 2690SOL    HW119703   2.095   3.401   7.960 -1.1106 -0.1331 -0.3113
 2690SOL    HW219704   1.989   3.512   7.969 -0.0210  0.2511  0.3874
 2691SOL     OW19705   3.670   1.999   0.985  0.1921 -0.1350  0.6541
 2691SOL    HW119706   3.751   2.046   1.005  0.3574 -0.4227  0.6538
 2691SOL    HW219707   3.701   1.925   0.934 -1.2448 -0.5428  0.3720
 2692SOL     OW19708   2.215   2.267   5.735  0.8686 -0.4751 -0.0842
 2692SOL    HW119709   2.298   2.236   5.771  0.1709  0.1877  2.0873
 2692SOL    HW219710   2.257   2.317   5.665 -0.6936 -1.1889 -1.5213
 2693SOL     OW19711   3.727   4.566   2.255  0.0583 -0.3869 -0.2035
 2693SOL    HW119712   3.774   4.485   2.237 -1.2302 -1.3199  0.6268
 2693SOL    HW219713   3.691   4.578   2.168 -2.2942 -0.8628  0.7135
 2694SOL     OW19714   2.613   3.356   6.943  0.1669 -0.2150 -0.2196
 2694SOL    HW119715   2.551   3.410   6.894 -1.3635 -0.5863  1.3197
 2694SOL    HW219716   2.697   3.399   6.925  0.9006 -1.5182  0.0798
 2695SOL     OW19717   0.851   4.217   1.867  0.0932 -0.1392 -0.1033
 2695SOL    HW119718   0.773   4.270   1.885  1.8447  2.7472 -1.1830
 2695SOL    HW219719   0.883   4.255   1.785 -1.0059  1.9887  0.4584
 2696SOL     OW19720   0.465   0.029  10.879  0.0709  0.0756 -0.1991
 2696SOL    HW119721   0.472   0.098  10.945  2.1709 -0.3639  0.0352
 2696SOL    HW219722   0.534   4.712  10.904 -0.0850  0.7899  1.9621
 2697SOL     OW19723   1.965   1.280   8.587  0.5082 -0.3148 -0.0460
 2697SOL    HW119724   1.898   1.217   8.560 -0.1761  1.2544 -2.0506
 2697SOL    HW219725   1.984   1.245   8.674 -1.1574 -0.6782  0.1724
 2698SOL     OW19726   2.356   2.278   4.680 -0.1760  0.3110 -0.0120
 2698SOL    HW119727   2.322   2.367   4.669  0.0392  0.6008  1.6579
 2698SOL    HW219728   2.280   2.239   4.725  0.3328 -1.1245 -0.3895
 2699SOL     OW19729   3.262   0.322   8.625 -0.1296 -0.3544  0.6517
 2699SOL    HW119730   3.339   0.336   8.570  0.0287 -0.0022  0.9613
 2699SOL    HW219731   3.199   0.362   8.564  1.3006 -0.1433 -0.6811
 2700SOL     OW19732   2.589   1.172   4.884 -0.1031  0.4118 -0.3718
 2700SOL    HW119733   2.516   1.114   4.906 -0.7405  2.1503  2.1111
 2700SOL    HW219734   2.652   1.118   4.837 -0.1320  0.3376 -0.3259
 2701SOL     OW19735   3.844   4.553  13.818  0.7483 -0.4386 -0.1519
 2701SOL    HW119736   3.938   4.544  13.802  0.8258  0.1756 -0.0705
 2701SOL    HW219737   3.842   4.641  13.857  2.1514 -0.5795  0.2220
 2702SOL     OW19738   3.703   3.681  15.003  0.6215  0.2388 -0.0371
 2702SOL    HW119739   3.782   3.627  14.998  0.3814  0.1316 -2.5026
 2702SOL    HW219740   3.631   3.627  14.970  0.2462  0.1997  0.8394
 2703SOL     OW19741   2.334   3.746   9.081 -0.3581  0.0904 -0.7115
 2703SOL    HW119742   2.416   3.697   9.068 -0.1550  0.7203 -1.7743
 2703SOL    HW219743   2.291   3.689   9.145  0.4780  1.3097  0.9518
 2704SOL     OW19744   2.224   3.657   7.213  0.0327 -0.5390 -0.0751
 2704SOL    HW119745   2.222   3.614   7.128  1.6008  0.8289 -0.7872
 2704SOL    HW219746   2.312   3.694   7.209  0.2950 -1.1678 -0.0972
 2705SOL     OW19747   2.899   1.548   5.090  0.5609  0.1271  0.4757
 2705SOL    HW119748   2.864   1.471   5.045  1.6135 -0.8333  1.3262
 2705SOL    HW219749   2.827   1.610   5.078  0.1786 -0.5907 -1.0015
 2706SOL     OW19750   4.689   4.707   5.064  0.3958  0.1796  0.4991
 2706SOL    HW119751   4.612   4.669   5.022  0.4076 -2.3373  2.7355
 2706SOL    HW219752   4.649   4.682   5.148 -1.3243 -2.2980 -1.0739
 2707SOL     OW19753   0.702   1.452   5.159  0.1230  0.9025  0.0041
 2707SOL    HW119754   0.736   1.495   5.237  2.0387 -2.3415  0.9543
 2707SOL    HW219755   0.747   1.502   5.091  0.0540 -0.1719 -0.8226
 2708SOL     OW19756   2.392   2.671   9.289 -0.2717 -0.0151 -0.0831
 2708SOL    HW119757   2.359   2.586   9.316  1.7393 -0.6741  0.2358
 2708SOL    HW219758   2.463   2.674   9.353  0.2264 -1.8618 -0.5748
 2709SOL     OW19759   4.575   1.568   6.729 -0.5178 -0.2744  0.1482
 2709SOL    HW119760   4.554   1.587   6.821 -0.8664 -0.2075  0.0566
 2709SOL    HW219761   4.654   1.514   6.736  0.0723  0.5150 -0.5525
 2710SOL     OW19762   0.123   2.544   5.707  0.5105  0.3211  0.4120
 2710SOL    HW119763   0.218   2.528   5.712  0.5700  0.1689 -1.1993
 2710SOL    HW219764   0.089   2.463   5.671  1.2925 -0.3504  1.1995
 2711SOL     OW19765   2.554   0.449   4.322 -0.2115 -0.6096 -0.8333
 2711SOL    HW119766   2.521   0.407   4.401  0.1072  2.4723  0.9680
 2711SOL    HW219767   2.550   0.373   4.264  1.9676 -1.8969  0.7070
 2712SOL     OW19768   4.713   3.627   4.201 -0.5175 -0.0925 -0.0256
 2712SOL    HW119769   4.659   3.639   4.123  0.7952 -0.2652 -0.9798
 2712SOL    HW219770   0.035   3.693   4.177  0.9993 -2.0857 -1.3942
 2713SOL     OW19771   2.850   2.460  13.569  0.1601 -0.4403  0.1260
 2713SOL    HW119772   2.920   2.510  13.526 -0.9014  0.5079 -0.5034
 2713SOL    HW219773   2.885   2.371  13.570 -1.5470 -1.0958  2.1971
 2714SOL     OW19774   0.139   3.743   3.273  0.1358  0.6808  0.3569
 2714SOL    HW119775   0.170   3.781   3.355  3.2199 -0.1197 -0.4345
 2714SOL    HW219776   0.070   3.805   3.249  0.9106  1.8664  1.2194
 2715SOL     OW19777   2.979   0.252   4.117  0.0282 -0.0280 -0.6710
 2715SOL    HW119778   3.038   0.221   4.049  0.8102 -0.9236  0.4053
 2715SOL    HW219779   2.902   0.274   4.065  0.9620 -2.6653 -3.1597
 2716SOL     OW19780   1.049   2.222  10.748 -0.3505 -0.4972  0.1423
 2716SOL    HW119781   1.085   2.276  10.819 -2.0177  0.9253 -0.0963
 2716SOL    HW219782   1.025   2.294  10.689 -2.3134 -0.7394  0.6558
 2717SOL     OW19783   1.683   0.060   8.996 -0.1230  0.1219  0.8637
 2717SOL    HW119784   1.709   0.108   8.918 -2.8552 -1.1533 -0.8062
 2717SOL    HW219785   1.716   0.122   9.062 -0.3296 -0.0098  1.0885
 2718SOL     OW19786   3.829   3.455  15.330 -0.1409  0.1181  0.1425
 2718SOL    HW119787   3.749   3.490  15.291  0.7396  2.2066  0.2424
 2718SOL    HW219788   3.832   3.369  15.288  0.5279  1.5277 -2.6294
 2719SOL     OW19789   2.133   0.538   3.663  0.5834  0.0347 -0.0903
 2719SOL    HW119790   2.115   0.473   3.596  0.2231 -0.6574  0.6845
 2719SOL    HW219791   2.129   0.489   3.745 -1.6141  0.7707  0.2603
 2720SOL     OW19792   3.320   2.285   8.126  0.0606 -0.0310  0.3901
 2720SOL    HW119793   3.344   2.265   8.216 -0.6094 -1.6465  0.2079
 2720SOL    HW219794   3.377   2.361   8.113 -0.1355  0.3818  1.9501
 2721SOL     OW19795   0.108   1.645   8.078  0.0412  0.4630  0.3840
 2721SOL    HW119796   0.067   1.563   8.106 -0.1027 -0.0465 -1.3250
 2721SOL    HW219797   0.046   1.685   8.017  0.8857 -1.1054 -1.4822
 2722SOL     OW19798   3.427   0.886  15.583 -0.4870 -0.6050 -0.0194
 2722SOL    HW119799   3.364   0.877  15.655 -1.0816  4.6665  0.0684
 2722SOL    HW219800   3.507   0.872  15.634 -0.7112  1.0679  0.7816
 2723SOL     OW19801   3.721   4.577   6.877  0.1612  0.7900  0.3235
 2723SOL    HW119802   3.630   4.597   6.899 -0.3797 -0.8641 -0.4581
 2723SOL    HW219803   3.729   4.544   6.788 -1.8991  0.7069  0.1722
 2724SOL     OW19804   0.076   3.450   5.665 -0.3652  0.4298 -0.2567
 2724SOL    HW119805   0.171   3.440   5.661 -0.5068 -0.4387 -1.3127
 2724SOL    HW219806   0.046   3.366   5.631  0.2044 -0.6779  1.9726
 2725SOL     OW19807   1.762   1.236   2.622  0.0685 -0.1808 -0.0008
 2725SOL    HW119808   1.718   1.239   2.706  0.8544 -0.6797  0.4326
 2725SOL    HW219809   1.824   1.308   2.632  1.9400 -1.7382 -0.1994
 2726SOL     OW19810   4.651   4.231  17.411 -0.1244 -0.3936  0.0260
 2726SOL    HW119811   4.654   4.140  17.440  2.0068  0.0468  1.2160
 2726SOL    HW219812   4.598   4.274  17.478  0.1007 -1.3939  0.8351
 2727SOL     OW19813   0.559   2.843   2.255  0.4729 -0.3553 -0.1513
 2727SOL    HW119814   0.629   2.908   2.260 -0.8701  1.1699 -1.0413
 2727SOL    HW219815   0.596   2.775   2.198 -0.3231  0.0631 -1.1797
 2728SOL     OW19816   3.050   2.227   8.312 -0.2452 -1.0609 -0.1098
 2728SOL    HW119817   3.145   2.231   8.316 -0.1225 -1.0664 -2.7485
 2728SOL    HW219818   3.039   2.132   8.310  0.1914 -1.1070 -0.2664
 2729SOL     OW19819   3.874   2.150   4.575  0.5104  0.1617 -0.0980
 2729SOL    HW119820   3.828   2.222   4.618  0.2741  0.0899 -0.2276
 2729SOL    HW219821   3.916   2.178   4.495 -1.0383  1.6213 -0.4079
 2730SOL     OW19822   4.264   2.468  12.547  0.2861  0.3543 -0.2279
 2730SOL    HW119823   4.266   2.562  12.533  0.1803  0.6347  1.6397
 2730SOL    HW219824   4.228   2.467  12.635  2.5596  0.7050  0.7150
 2731SOL     OW19825   1.724   2.265  13.728 -0.5356  0.2999 -0.9775
 2731SOL    HW119826   1.687   2.335  13.674 -0.5810  1.1454  0.1619
 2731SOL    HW219827   1.641   2.234  13.765  0.3161  0.0430  0.6948
 2732SOL     OW19828   0.054   2.409   4.013  0.2591  0.1405  0.4386
 2732SOL    HW119829   0.104   2.433   4.091  1.0847 -0.5971  0.1404
 2732SOL    HW219830   4.725   2.358   4.048  2.2581 -1.8860  1.6116
 2733SOL     OW19831   0.072   0.790  16.020  0.3883 -0.1916  0.2441
 2733SOL    HW119832   0.081   0.726  16.090 -0.3247  0.0177  0.5283
 2733SOL    HW219833   4.741   0.846  16.040 -0.3639 -0.6736 -1.2146
 2734SOL     OW19834   3.235   3.443  12.135 -0.6973  0.2095  0.2495
 2734SOL    HW119835   3.255   3.442  12.229 -1.3754  1.3199  0.4053
 2734SOL    HW219836   3.262   3.531  12.106  2.4184 -0.3800  1.3740
 2735SOL     OW19837   2.106   1.843  12.506  0.4581 -0.0672  0.3841
 2735SOL    HW119838   2.077   1.773  12.448 -2.1938  0.5097  1.0000
 2735SOL    HW219839   2.045   1.914  12.489  2.6658  1.4377 -1.1578
 2736SOL     OW19840   4.428   4.027   7.707 -0.0744  0.0558  0.4454
 2736SOL    HW119841   4.372   4.007   7.782  1.5569 -0.2267  1.6100
 2736SOL    HW219842   4.484   4.090   7.754  1.4906  0.7015 -2.2673
 2737SOL     OW19843   2.209   0.032  12.982 -0.1465 -0.4087 -0.4262
 2737SOL    HW119844   2.161   4.702  13.021 -0.6211  0.7202  1.1075
 2737SOL    HW219845   2.295   4.736  12.966  0.5050  1.1469 -0.7451
 2738SOL     OW19846   2.563   0.165  15.749  0.2368 -0.0988 -0.6322
 2738SOL    HW119847   2.541   0.237  15.808 -2.3114 -1.0113 -0.4321
 2738SOL    HW219848   2.495   0.162  15.681 -1.3395 -1.7955  1.0027
 2739SOL     OW19849   0.457   0.502   7.902  0.4581 -0.0279 -0.3800
 2739SOL    HW119850   0.436   0.486   7.994  0.0233 -2.8829 -0.9762
 2739SOL    HW219851   0.371   0.502   7.861  0.2004  0.0286  0.1570
 2740SOL     OW19852   4.257   2.226   3.860  0.5643  0.0194  0.1862
 2740SOL    HW119853   4.283   2.160   3.795 -0.7293  0.7190 -1.0372
 2740SOL    HW219854   4.170   2.248   3.828  1.6992  1.1743 -2.1482
 2741SOL     OW19855   4.672   4.450   2.354 -0.1862 -0.3174 -0.1397
 2741SOL    HW119856   4.584   4.413   2.364 -0.6799  0.2833 -2.2398
 2741SOL    HW219857   4.681   4.457   2.259 -1.7542 -0.3152 -0.2832
 2742SOL     OW19858   2.894   0.970   1.040 -0.4202 -0.0086  0.2656
 2742SOL    HW119859   2.808   0.969   0.996 -0.2888  1.1193 -0.0244
 2742SOL    HW219860   2.871   0.918   1.117 -1.7452 -0.2478 -0.2828
 2743SOL     OW19861   0.613   2.683  12.828 -0.5181  0.1863 -0.1854
 2743SOL    HW119862   0.577   2.620  12.766  0.6129 -1.6147  0.9727
 2743SOL    HW219863   0.549   2.753  12.817  1.6709  1.7777 -2.7412
 2744SOL     OW19864   4.109   2.608   3.602 -0.2904 -0.2608 -0.0109
 2744SOL    HW119865   4.122   2.658   3.683  1.2170  0.6902 -0.8431
 2744SOL    HW219866   4.197   2.608   3.565 -1.3407  3.7650 -2.5265
 2745SOL     OW19867   1.320   1.036   4.033  0.7786  0.1683 -0.6661
 2745SOL    HW119868   1.401   0.988   4.014  1.1944  1.2735 -1.6497
 2745SOL    HW219869   1.254   0.977   3.996  2.2773 -1.2515 -1.0889
 2746SOL     OW19870   1.718   2.647   4.596  0.2998 -0.3010 -0.5908
 2746SOL    HW119871   1.644   2.707   4.592  0.2033 -0.3826  0.0158
 2746SOL    HW219872   1.753   2.666   4.509 -1.0670 -1.1135 -1.3010
 2747SOL     OW19873   4.643   4.323  10.918  0.1034  0.4117 -0.1643
 2747SOL    HW119874   4.629   4.400  10.862  1.6458  1.0036  0.2593
 2747SOL    HW219875   4.626   4.251  10.858 -0.4650 -1.0302  1.6902
 2748SOL     OW19876   3.403   1.380  15.971  0.2119  0.8349  0.4255
 2748SOL    HW119877   3.324   1.388  15.918  0.1809 -0.7154  0.2614
 2748SOL    HW219878   3.465   1.411  15.905  1.4810 -2.9628 -0.1736
 2749SOL     OW19879   4.102   2.747   0.906 -0.1611 -0.2352 -0.3919
 2749SOL    HW119880   4.175   2.807   0.924 -0.2734 -0.6702  1.5677
 2749SOL    HW219881   4.142   2.692   0.839  0.3572  1.1732 -1.2473
 2750SOL     OW19882   1.114   0.611  10.836  0.0209  0.6972 -0.2585
 2750SOL    HW119883   1.109   0.548  10.764 -1.7921  0.4364  0.0870
 2750SOL    HW219884   1.192   0.576  10.878 -0.1706  1.5867  0.8474
 2751SOL     OW19885   3.495   1.154  15.753 -0.3700  0.8340 -0.3879
 2751SOL    HW119886   3.574   1.129  15.801 -0.6480 -1.4003 -1.0831
 2751SOL    HW219887   3.521   1.126  15.665 -0.9154  1.7238 -0.8302
 2752SOL     OW19888   0.701   2.597   5.398 -0.0894 -0.8549 -0.3919
 2752SOL    HW119889   0.680   2.690   5.390 -0.6074 -0.9771 -0.4375
 2752SOL    HW219890   0.789   2.600   5.359  0.2846  2.2129  0.7199
 2753SOL     OW19891   0.815   0.355   1.102  0.2397 -0.5620  0.0934
 2753SOL    HW119892   0.827   0.307   1.020 -0.8033 -0.6393 -0.0151
 2753SOL    HW219893   0.907   0.374   1.121  0.2517 -1.3374  0.7872
 2754SOL     OW19894   4.303   2.239   4.940 -0.1923 -0.3401  0.5672
 2754SOL    HW119895   4.389   2.236   4.898 -1.0792 -0.4510 -1.2485
 2754SOL    HW219896   4.254   2.177   4.885  0.0966 -0.9544  0.9991
 2755SOL     OW19897   3.535   2.213   6.217 -0.3320  0.1486 -0.3834
 2755SOL    HW119898   3.599   2.158   6.264  0.6025 -1.1703 -3.2215
 2755SOL    HW219899   3.554   2.300   6.253 -0.1820  0.3116 -0.8667
 2756SOL     OW19900   3.112   0.419   2.811  0.6108 -0.0561 -0.0962
 2756SOL    HW119901   3.087   0.338   2.767 -2.4039  1.3649 -0.9892
 2756SOL    HW219902   3.076   0.418   2.900 -0.4881  0.1718 -0.5369
 2757SOL     OW19903   0.611   1.252   8.911  0.1368  0.1973  0.1346
 2757SOL    HW119904   0.617   1.189   8.982  2.1148  1.3439  0.9789
 2757SOL    HW219905   0.544   1.311   8.946  0.0759 -0.8810  1.8424
 2758SOL     OW19906   1.108   3.158  16.086 -0.2163 -0.6841  0.4119
 2758SOL    HW119907   1.189   3.110  16.067 -0.5155 -1.0638  0.0879
 2758SOL    HW219908   1.052   3.134  16.012  0.3360 -0.7696  0.0212
 2759SOL     OW19909   0.405   4.565   9.490 -0.2022 -0.0281 -0.3611
 2759SOL    HW119910   0.449   4.502   9.547  0.9101  0.2976 -0.8638
 2759SOL    HW219911   0.429   4.646   9.536 -0.3669  1.0832 -2.1976
 2760SOL     OW19912   0.818   3.087   7.445 -0.5760  0.0807 -0.0137
 2760SOL    HW119913   0.877   3.016   7.419 -1.1660 -0.7515  0.8831
 2760SOL    HW219914   0.734   3.050   7.417 -1.2520  0.0914  1.9841
 2761SOL     OW19915   3.553   0.369   5.106  0.1278 -0.2687 -0.0985
 2761SOL    HW119916   3.638   0.326   5.091  0.2697 -0.7231  2.0410
 2761SOL    HW219917   3.576   0.433   5.173 -1.8285 -1.0613  1.3328
 2762SOL     OW19918   2.184   2.280   2.458  0.2208 -0.0390  0.0904
 2762SOL    HW119919   2.124   2.207   2.445  0.1396  0.4942 -2.4081
 2762SOL    HW219920   2.113   2.344   2.452  1.4717  1.3811  0.3900
 2763SOL     OW19921   1.193   2.675  15.361  0.1985  0.2043 -0.2012
 2763SOL    HW119922   1.266   2.736  15.369 -0.5017  1.1111 -0.6958
 2763SOL    HW219923   1.192   2.630  15.446 -2.7410 -0.1935 -0.4528
 2764SOL     OW19924   2.833   3.829   8.172  0.2386  0.1890 -0.7727
 2764SOL    HW119925   2.863   3.906   8.219  2.7446 -0.2873 -1.5609
 2764SOL    HW219926   2.838   3.853   8.080 -0.9679  1.0598 -0.6094
 2765SOL     OW19927   4.273   0.991   7.054 -0.2863 -0.2169  0.4833
 2765SOL    HW119928   4.259   0.900   7.031  2.7459 -0.6661  0.4645
 2765SOL    HW219929   4.331   1.014   6.982 -0.6882 -2.2711 -0.4990
 2766SOL     OW19930   0.480   4.640  14.370 -0.3836  0.0037  0.3956
 2766SOL    HW119931   0.445   4.687  14.294 -2.0019 -0.0533  1.1147
 2766SOL    HW219932   0.413   4.664  14.433 -0.2777  1.5528 -0.0728
 2767SOL     OW19933   4.464   1.096  12.149  0.2102 -0.1587 -0.3104
 2767SOL    HW119934   4.373   1.096  12.119 -0.0096  1.1655  0.3320
 2767SOL    HW219935   4.478   1.190  12.162 -1.4392  0.1935 -1.0384
 2768SOL     OW19936   4.004   1.213   3.564 -0.4699  0.7338 -0.1219
 2768SOL    HW119937   3.952   1.145   3.520  0.9742  1.3234 -2.7508
 2768SOL    HW219938   4.081   1.160   3.585 -0.6441 -0.0935 -1.5718
 2769SOL     OW19939   2.654   2.305  10.210  0.5268  0.3683 -0.0664
 2769SOL    HW119940   2.565   2.294  10.177  0.2010 -0.0323  0.9490
 2769SOL    HW219941   2.646   2.364  10.285 -1.3101 -0.0211  0.0591
 2770SOL     OW19942   2.568   3.026   7.879 -0.0496 -0.6860 -0.1373
 2770SOL    HW119943   2.508   3.004   7.808  1.1402  0.9211 -1.6404
 2770SOL    HW219944   2.609   3.101   7.836 -1.4778  0.8878  1.2817
 2771SOL     OW19945   3.928   2.954   3.920  0.3432 -0.4339 -0.1762
 2771SOL    HW119946   3.973   2.971   3.838 -0.0500  0.8405 -0.1344
 2771SOL    HW219947   3.946   3.032   3.973  0.4412 -0.8736  0.4434
 2772SOL     OW19948   0.030   2.910   9.223  0.6149  0.8131 -0.2783
 2772SOL    HW119949   0.032   2.823   9.184  1.3906  0.5027  0.4499
 2772SOL    HW219950   0.123   2.925   9.205  0.7171 -0.9375 -1.1761
 2773SOL     OW19951   3.004   1.334   5.602 -0.2086  0.2401  0.2329
 2773SOL    HW119952   2.955   1.394   5.545 -0.2334 -0.2025 -0.2083
 2773SOL    HW219953   2.942   1.311   5.671 -1.6825 -1.2782 -1.6002
 2774SOL     OW19954   3.886   1.826   7.791 -0.2925 -0.4637  0.2773
 2774SOL    HW119955   3.791   1.837   7.798 -0.3003 -0.1482 -0.3710
 2774SOL    HW219956   3.898   1.750   7.735 -0.3239 -0.8405  0.7869
 2775SOL     OW19957   2.211   2.309  10.733  0.0229 -0.1396 -0.7094
 2775SOL    HW119958   2.171   2.390  10.765 -0.8963  0.5519 -3.6274
 2775SOL    HW219959   2.173   2.247  10.796  3.4204 -2.5237 -0.9886
 2776SOL     OW19960   2.083   2.941   8.656  0.0766 -0.3983  0.5014
 2776SOL    HW119961   2.059   2.998   8.729 -0.9482  2.0181 -1.7167
 2776SOL    HW219962   2.052   2.993   8.581  0.8090  1.2011  1.3155
 2777SOL     OW19963   4.011   1.631   5.862 -0.7734 -0.1251  0.0246
 2777SOL    HW119964   4.044   1.564   5.922  0.8854  0.6237 -0.0412
 2777SOL    HW219965   3.985   1.693   5.930  0.3835  2.3709 -1.8231
 2778SOL     OW19966   4.171   1.764   6.605 -0.7878  0.7833  1.0292
 2778SOL    HW119967   4.137   1.818   6.534 -0.6899 -1.0992 -0.4685
 2778SOL    HW219968   4.096   1.716   6.639 -0.5503  0.3995  1.0121
 2779SOL     OW19969   4.556   2.249   4.174 -0.5728 -0.7689  0.3243
 2779SOL    HW119970   4.463   2.230   4.167 -0.8087  0.8726 -0.9130
 2779SOL    HW219971   4.590   2.168   4.136  2.0926  0.0335  0.9986
 2780SOL     OW19972   4.594   4.443  16.286 -0.4257  0.0440  0.3138
 2780SOL    HW119973   4.562   4.524  16.326 -1.1859  0.1337 -0.4621
 2780SOL    HW219974   4.605   4.466  16.193  0.4797 -0.9059  0.1842
 2781SOL     OW19975   1.744   4.073   7.674  0.4360 -0.2304  0.1266
 2781SOL    HW119976   1.815   4.056   7.736  0.1387 -1.3238  0.1657
 2781SOL    HW219977   1.678   4.100   7.739 -0.5914 -0.3515 -0.8780
 2782SOL     OW19978   4.425   0.657  13.514  0.2355 -0.4556  0.0231
 2782SOL    HW119979   4.484   0.725  13.480 -0.1987  0.6187  1.4178
 2782SOL    HW219980   4.341   0.699  13.530  0.4239  0.4724 -1.3904
 2783SOL     OW19981   0.409   2.730   1.973 -0.6414  0.3546  0.2650
 2783SOL    HW119982   0.435   2.796   1.909  2.1020 -1.3732 -0.4074
 2783SOL    HW219983   0.493   2.688   1.991 -2.7676 -3.0244  2.1905
 2784SOL     OW19984   2.881   0.751   3.242  0.0873  0.3335  0.5025
 2784SOL    HW119985   2.814   0.819   3.250 -0.3616 -0.0072 -0.3859
 2784SOL    HW219986   2.930   0.753   3.324 -0.3571 -1.2032  0.8129
 2785SOL     OW19987   1.262   3.861   2.780 -0.5007 -0.0069  0.2139
 2785SOL    HW119988   1.293   3.884   2.692  1.1220 -2.5828  0.1176
 2785SOL    HW219989   1.345   3.851   2.826 -0.0964 -2.7666 -1.0993
 2786SOL     OW19990   2.340   3.986   1.554 -0.8380  0.0427 -0.1476
 2786SOL    HW119991   2.268   3.990   1.491 -2.7988  0.0620  2.0837
 2786SOL    HW219992   2.306   3.942   1.632 -2.4059  1.2662 -0.1383
 2787SOL     OW19993   1.340   2.384  10.595  0.1531 -0.3876 -0.2448
 2787SOL    HW119994   1.346   2.475  10.568 -2.1481  0.1473  1.0742
 2787SOL    HW219995   1.307   2.383  10.685  1.8828  1.2419  0.4118
 2788SOL     OW19996   1.130   3.096  17.483 -0.2034 -0.2099 -0.3568
 2788SOL    HW119997   1.190   3.106  17.409  0.3089  0.9790  0.2269
 2788SOL    HW219998   1.096   3.185  17.481  1.2034  0.3366  0.5894
 2789SOL     OW19999   2.901   3.755   4.871 -0.1986  0.3644  0.2876
 2789SOL    HW120000   2.944   3.693   4.929 -1.1640  0.3598  1.0058
 2789SOL    HW220001   2.856   3.693   4.814  0.5983 -0.6309  0.7544
 2790SOL     OW20002   1.969   1.086   8.277  0.1438 -0.5876  0.9681
 2790SOL    HW120003   1.926   1.005   8.304  2.0518 -2.6205 -2.1082
 2790SOL    HW220004   2.058   1.062   8.249 -0.8367  0.3059 -2.9366
 2791SOL     OW20005   2.719   0.892   2.210  0.0109 -0.4681  0.4567
 2791SOL    HW120006   2.744   0.983   2.227 -0.0185 -0.6065  1.2640
 2791SOL    HW220007   2.795   0.865   2.159  0.0385  3.6567 -1.6908
 2792SOL     OW20008   0.720   1.097   2.244  0.5699  0.7704 -0.3725
 2792SOL    HW120009   0.676   1.181   2.254 -1.6812 -0.3604 -0.7619
 2792SOL    HW220010   0.775   1.111   2.321  0.8155  0.1159 -0.4323
 2793SOL     OW20011   1.917   0.089   7.681  0.1317  0.0109 -0.0587
 2793SOL    HW120012   1.827   0.084   7.714  0.6719 -0.8261  1.2389
 2793SOL    HW220013   1.903   0.158   7.616  1.0364 -0.4213 -0.7054
 2794SOL     OW20014   1.122   2.582   1.442  0.3164  0.0549  0.5648
 2794SOL    HW120015   1.034   2.565   1.407  0.0124  0.7653  0.9686
 2794SOL    HW220016   1.097   2.580   1.535 -0.0027  2.5289  0.5202
 2795SOL     OW20017   4.713   2.232   5.058 -0.4447  0.3268  0.1249
 2795SOL    HW120018   4.664   2.218   4.977  0.2546  1.5164 -0.5114
 2795SOL    HW220019   4.729   2.326   5.048 -1.5590  0.5086  0.0797
 2796SOL     OW20020   0.083   2.561   5.228 -0.2445  0.1944  0.2200
 2796SOL    HW120021   0.068   2.523   5.141 -1.7370  0.8694  0.1843
 2796SOL    HW220022   0.032   2.640   5.210  0.1971  0.9581  2.3733
 2797SOL     OW20023   0.527   2.145   3.084 -0.5310 -0.6618 -0.5957
 2797SOL    HW120024   0.521   2.146   2.989 -1.4564  1.3179 -0.5178
 2797SOL    HW220025   0.607   2.092   3.090  0.1694  0.3535 -0.9333
 2798SOL     OW20026   2.449   3.165  11.104  0.5751  0.0590 -0.2724
 2798SOL    HW120027   2.435   3.091  11.046 -0.8773  0.2167 -0.1163
 2798SOL    HW220028   2.414   3.129  11.186 -0.2078  1.2535 -0.0834
 2799SOL     OW20029   0.677   0.142   5.256  0.0920 -0.4426  0.3227
 2799SOL    HW120030   0.602   0.177   5.209  0.9541  1.1774  0.1419
 2799SOL    HW220031   0.733   0.219   5.262  1.2558 -1.1475 -1.2228
 2800SOL     OW20032   0.337   1.296   3.304  0.0685  0.6348 -0.1600
 2800SOL    HW120033   0.393   1.299   3.227  0.5913 -1.4398  0.1394
 2800SOL    HW220034   0.247   1.299   3.270  0.3059  3.2536 -0.5122
 2801SOL     OW20035   0.650   0.127  12.897 -0.1937  0.0739 -0.3561
 2801SOL    HW120036   0.675   0.199  12.840 -2.7219 -0.3318 -1.9792
 2801SOL    HW220037   0.557   0.145  12.911 -0.7482 -2.2544 -0.9720
 2802SOL     OW20038   3.181   4.734   8.074 -0.4316 -0.0579 -0.3555
 2802SOL    HW120039   3.266   4.696   8.051 -0.4482 -0.4859  0.2939
 2802SOL    HW220040   3.135   4.720   7.991  1.0045 -0.1007 -1.1641
 2803SOL     OW20041   3.672   1.057  12.710  0.1605 -0.4074 -0.6947
 2803SOL    HW120042   3.692   1.144  12.744  0.9908 -1.3585  1.2455
 2803SOL    HW220043   3.724   1.014  12.778 -1.2756 -0.5043  0.3393
 2804SOL     OW20044   3.349   0.027  15.403  0.3186  0.0722  0.4888
 2804SOL    HW120045   3.428   0.056  15.357 -1.2168  0.8658 -1.6311
 2804SOL    HW220046   3.286   0.070  15.345  0.8537  0.3572  0.1130
 2805SOL     OW20047   3.252   1.185  15.351  0.5878  0.0274  0.0421
 2805SOL    HW120048   3.273   1.209  15.441  1.9306 -0.5928 -0.0936
 2805SOL    HW220049   3.213   1.099  15.362 -0.4323  0.6551  1.3409
 2806SOL     OW20050   3.898   3.469   2.725  0.1996  0.0815  0.4342
 2806SOL    HW120051   3.869   3.379   2.739 -0.4583  0.2682  0.2855
 2806SOL    HW220052   3.960   3.455   2.654  2.2752  3.4223  1.5638
 2807SOL     OW20053   1.926   3.017   4.847 -0.3402  0.2066 -0.0916
 2807SOL    HW120054   1.905   3.014   4.754  0.1688 -0.5041 -0.1843
 2807SOL    HW220055   1.885   2.940   4.887 -4.4166  1.2472 -2.2252
 2808SOL     OW20056   2.752   4.281   5.810  0.5509 -0.5268 -0.2080
 2808SOL    HW120057   2.664   4.245   5.809  0.2053  0.2535  1.6742
 2808SOL    HW220058   2.748   4.353   5.746  0.6580  1.1671  1.6845
 2809SOL     OW20059   2.266   3.773   5.976 -0.4072  0.2403  0.2074
 2809SOL    HW120060   2.179   3.738   5.959  0.0652 -0.4585 -0.7562
 2809SOL    HW220061   2.312   3.702   5.931 -0.8667  0.8086 -1.1642
 2810SOL     OW20062   4.433   0.032   9.751 -0.9525  0.3860  0.4585
 2810SOL    HW120063   4.475   4.707   9.699 -2.8216 -0.1600 -0.3403
 2810SOL    HW220064   4.429   4.732   9.836  1.9555 -1.0641 -0.1593
 2811SOL     OW20065   2.532   4.440   4.650  0.1994 -0.3252  0.1546
 2811SOL    HW120066   2.622   4.469   4.633 -0.4167  1.2633 -0.4447
 2811SOL    HW220067   2.539   4.347   4.630 -0.7686 -0.4262  0.2895
 2812SOL     OW20068   1.533   2.872   4.936  0.6959 -0.0740  0.4625
 2812SOL    HW120069   1.621   2.862   4.970  0.1594 -0.4925  1.7226
 2812SOL    HW220070   1.503   2.781   4.929 -1.5565  0.6574  0.4309
 2813SOL     OW20071   2.331   1.422   0.352 -0.2085 -0.2396 -0.4021
 2813SOL    HW120072   2.372   1.371   0.422  0.4819 -0.4768 -0.9782
 2813SOL    HW220073   2.238   1.417   0.374  0.3963 -1.0123  2.0423
 2814SOL     OW20074   2.931   1.852   0.208 -0.1718  0.0007 -0.4387
 2814SOL    HW120075   2.960   1.767   0.177 -1.5993 -1.0375  1.0960
 2814SOL    HW220076   2.886   1.888   0.131  0.2288  1.1824 -0.1179
 2815SOL     OW20077   0.832   1.355  13.819  0.0955  0.2882 -0.2765
 2815SOL    HW120078   0.883   1.327  13.743  1.7715  1.4153  0.4263
 2815SOL    HW220079   0.861   1.444  13.836 -2.8441  1.4819 -1.5555
 2816SOL     OW20080   2.228   1.538   3.880  0.0126 -0.2429 -0.6131
 2816SOL    HW120081   2.188   1.621   3.854 -0.6211 -0.1761  0.6047
 2816SOL    HW220082   2.228   1.559   3.973 -2.4326  0.9886 -0.8838
 2817SOL     OW20083   0.581   3.936   2.572  0.7201 -0.1674  0.5036
 2817SOL    HW120084   0.509   4.000   2.575 -0.5704 -1.6076  0.1524
 2817SOL    HW220085   0.659   3.986   2.550 -0.3263  1.1208 -0.2810
 2818SOL     OW20086   4.395   1.857   3.118 -0.4529 -0.0023  0.8715
 2818SOL    HW120087   4.436   1.861   3.204 -0.7468  1.2086  0.9576
 2818SOL    HW220088   4.303   1.877   3.138 -0.7941 -0.6175 -0.1155
 2819SOL     OW20089   2.483   0.364   6.859  0.0872  0.8838 -0.1548
 2819SOL    HW120090   2.478   0.330   6.949  1.4429 -1.4714 -0.9745
 2819SOL    HW220091   2.509   0.294   6.800  0.1403  1.1434 -0.4411
 2820SOL     OW20092   0.419   0.250   9.179  0.1300 -0.3220  0.4896
 2820SOL    HW120093   0.389   0.159   9.169 -0.7518  0.0803 -0.4611
 2820SOL    HW220094   0.341   0.300   9.156  1.1809  1.9640  1.9700
 2821SOL     OW20095   1.505   3.043   7.409 -0.1876  0.7521 -0.1503
 2821SOL    HW120096   1.477   3.134   7.399 -0.4469  0.5461 -1.2725
 2821SOL    HW220097   1.596   3.054   7.438 -0.7624  1.5122  1.3778
 2822SOL     OW20098   1.524   0.802   8.168 -0.4175 -0.5218 -0.0720
 2822SOL    HW120099   1.485   0.845   8.245  3.1478 -2.1630  2.6438
 2822SOL    HW220100   1.527   0.876   8.108  1.3916 -0.4951  0.0363
 2823SOL     OW20101   3.015   3.109   3.741  0.0198  0.5008  0.2599
 2823SOL    HW120102   3.098   3.066   3.763 -0.3465 -0.3681 -0.0665
 2823SOL    HW220103   2.962   3.036   3.709 -0.1818  0.4532  0.7036
 2824SOL     OW20104   4.563   0.809   8.268 -0.2755  0.2666  0.6599
 2824SOL    HW120105   4.475   0.844   8.276 -0.2361  0.9417 -1.9875
 2824SOL    HW220106   4.538   0.728   8.312  0.6162  0.3453  1.3243
 2825SOL     OW20107   1.468   3.600  15.659 -0.5723 -0.3216 -0.1567
 2825SOL    HW120108   1.374   3.599  15.642 -0.6721  0.9467  0.3613
 2825SOL    HW220109   1.475   3.576  15.752  2.9095  0.2922 -0.2626
 2826SOL     OW20110   0.236   2.396   4.573  0.3118  0.8122  0.0927
 2826SOL    HW120111   0.242   2.306   4.540  2.7485  0.0675  2.5345
 2826SOL    HW220112   0.232   2.389   4.668 -2.8050  1.4817 -0.0087
 2827SOL     OW20113   2.838   0.480   9.034 -0.1695  0.9365 -0.3066
 2827SOL    HW120114   2.875   0.400   8.998  0.0415  0.5941  0.6888
 2827SOL    HW220115   2.754   0.439   9.055 -0.3615  0.5248 -1.8841
 2828SOL     OW20116   1.762   0.425   3.684 -0.0909  0.1090  0.8089
 2828SOL    HW120117   1.779   0.346   3.735  0.8139  0.0526  0.4269
 2828SOL    HW220118   1.667   0.429   3.682 -0.0916 -1.8807 -1.9959
 2829SOL     OW20119   3.891   0.872  15.951 -0.1992 -0.1210  0.3530
 2829SOL    HW120120   3.848   0.876  16.036  1.9811 -2.0011  1.5512
 2829SOL    HW220121   3.951   0.802  15.977 -0.8209 -1.2141 -1.1071
 2830SOL     OW20122   1.986   4.592   7.590 -0.9967 -0.2037 -0.2986
 2830SOL    HW120123   1.898   4.564   7.563 -0.6977 -0.8198 -0.6241
 2830SOL    HW220124   1.967   4.681   7.620 -0.0496 -0.3648  0.7785
 2831SOL     OW20125   3.665   3.415  12.769 -0.5995 -1.2487 -0.1373
 2831SOL    HW120126   3.602   3.469  12.815  0.2169 -0.3441 -0.0771
 2831SOL    HW220127   3.656   3.331  12.815 -1.2768 -0.9324  0.3038
 2832SOL     OW20128   3.749   4.348   5.329  0.2084 -0.1958 -0.3858
 2832SOL    HW120129   3.796   4.309   5.255  0.6868 -1.4713  0.6102
 2832SOL    HW220130   3.662   4.367   5.292 -0.0236  0.1361  0.3281
 2833SOL     OW20131   1.321   3.899  16.452 -0.4370 -0.1859 -0.2592
 2833SOL    HW120132   1.268   3.878  16.529 -2.5275  1.8537 -1.1318
 2833SOL    HW220133   1.377   3.822  16.443  2.0073  1.5764 -0.0436
 2834SOL     OW20134   0.512   0.910   1.504 -0.2653 -0.5806 -0.2837
 2834SOL    HW120135   0.481   0.984   1.556  0.1466 -1.1006  0.6783
 2834SOL    HW220136   0.584   0.959   1.464 -0.1646 -0.9101 -0.5054
 2835SOL     OW20137   4.674   0.906   5.180 -0.1485  0.0665 -0.2202
 2835SOL    HW120138   4.686   0.858   5.098  0.5095  1.8157 -1.1523
 2835SOL    HW220139   4.609   0.858   5.232  0.3007  0.0834  0.3607
 2836SOL     OW20140   4.194   2.083   2.543 -0.0619  0.2080  0.1814
 2836SOL    HW120141   4.207   2.029   2.621  0.1670  0.8115  0.5571
 2836SOL    HW220142   4.149   2.018   2.489  1.6374  0.7502 -1.8968
 2837SOL     OW20143   2.354   3.364   2.111 -0.4054  0.0366  0.4954
 2837SOL    HW120144   2.288   3.431   2.130 -3.4227 -2.5792 -0.8371
 2837SOL    HW220145   2.365   3.372   2.017  0.1316 -1.3770  0.4389
 2838SOL     OW20146   0.988   3.766   2.705 -0.0309 -0.5572 -0.3753
 2838SOL    HW120147   1.023   3.754   2.617  1.9084  1.7704  0.0403
 2838SOL    HW220148   1.043   3.844   2.717 -0.2136 -0.7207  1.4920
 2839SOL     OW20149   3.130   1.930  17.111 -0.6756 -0.3282  0.0320
 2839SOL    HW120150   3.165   2.001  17.164 -0.8576 -0.1696 -0.0617
 2839SOL    HW220151   3.038   1.955  17.098 -0.0439  0.0119 -3.9609
 2840SOL     OW20152   4.035   2.367   9.205 -0.0007  0.0659 -0.3606
 2840SOL    HW120153   4.110   2.405   9.159 -1.5974  2.3043 -1.1299
 2840SOL    HW220154   4.082   2.292   9.242 -1.2589 -0.1727  0.7569
 2841SOL     OW20155   2.919   2.653  14.196 -0.3185 -0.1867  0.0031
 2841SOL    HW120156   2.870   2.732  14.174 -2.4830 -0.4125  3.9804
 2841SOL    HW220157   2.925   2.658  14.291  1.3129  0.0410 -0.1076
 2842SOL     OW20158   3.512   2.518  12.277  0.1023 -0.4169  0.1755
 2842SOL    HW120159   3.553   2.474  12.203 -0.2705 -0.6354  0.1007
 2842SOL    HW220160   3.498   2.612  12.261  0.3338 -0.4495 -0.2154
 2843SOL     OW20161   2.903   3.324   5.555 -0.2232 -0.6331 -0.2371
 2843SOL    HW120162   2.809   3.308   5.567  0.4940 -4.0590  0.9273
 2843SOL    HW220163   2.935   3.238   5.584  1.3322  0.0489  0.0236
 2844SOL     OW20164   4.420   2.304   6.918 -0.2526 -0.1862  0.1848
 2844SOL    HW120165   4.434   2.394   6.886 -1.3175  0.1177  0.5876
 2844SOL    HW220166   4.435   2.259   6.835  0.7485  0.2215  0.1443
 2845SOL     OW20167   4.162   3.957   3.676 -0.4960 -0.1095  0.4359
 2845SOL    HW120168   4.190   3.877   3.632 -4.0151 -1.5568  0.8593
 2845SOL    HW220169   4.197   4.034   3.630  0.6448 -0.3531  0.9117
 2846SOL     OW20170   0.340   0.612   3.192  0.6904 -0.3062 -0.0071
 2846SOL    HW120171   0.407   0.680   3.197  0.0329  0.4629 -1.7575
 2846SOL    HW220172   0.301   0.627   3.106  1.3122  2.9334  0.2697
 2847SOL     OW20173   2.014   2.858   6.356 -0.3085  0.7241  0.0760
 2847SOL    HW120174   1.980   2.809   6.431  3.4722 -1.3114  0.4342
 2847SOL    HW220175   2.074   2.923   6.392  1.2218  0.4043 -1.9066
 2848SOL     OW20176   2.866   2.511   7.295  0.0372  0.3505  0.6157
 2848SOL    HW120177   2.882   2.420   7.319 -0.0345 -0.2382 -1.4831
 2848SOL    HW220178   2.945   2.552   7.329 -0.5242  0.1176  2.2011
 2849SOL     OW20179   2.572   1.704   9.359 -0.4093  0.0511 -0.0517
 2849SOL    HW120180   2.499   1.693   9.297  0.1301 -0.0684 -0.6744
 2849SOL    HW220181   2.535   1.642   9.422 -1.0986  2.7741  2.1710
 2850SOL     OW20182   2.788   0.666  11.736  0.2114  0.5307  0.1675
 2850SOL    HW120183   2.705   0.664  11.784  0.5988  1.0302  0.8704
 2850SOL    HW220184   2.757   0.711  11.657 -0.4201 -0.2692 -0.0389
 2851SOL     OW20185   3.720   1.626   8.595  0.3455  0.0166  0.2142
 2851SOL    HW120186   3.723   1.543   8.643 -1.6023  0.5241  1.1911
 2851SOL    HW220187   3.668   1.680   8.654 -0.9487 -1.3368  0.2964
 2852SOL     OW20188   1.768   3.117   4.319 -0.7229  0.1362  0.4686
 2852SOL    HW120189   1.732   3.079   4.239  0.9640 -0.9578  0.2359
 2852SOL    HW220190   1.683   3.114   4.363 -1.9661  0.0003 -1.9147
 2853SOL     OW20191   3.673   3.445   5.344  0.0305  0.2948  0.4129
 2853SOL    HW120192   3.712   3.473   5.261  0.9971  1.9912  1.4365
 2853SOL    HW220193   3.708   3.521   5.391 -0.0379 -0.1228  1.1333
 2854SOL     OW20194   2.383   1.347   0.992 -0.4213  0.1563 -0.0468
 2854SOL    HW120195   2.415   1.357   0.903  1.6708  1.7256  0.8858
 2854SOL    HW220196   2.361   1.438   1.013  0.7508  0.6999 -1.1319
 2855SOL     OW20197   1.283   2.747   9.774 -0.2592  0.4649 -0.1152
 2855SOL    HW120198   1.376   2.752   9.751 -0.6337 -1.1857 -1.9967
 2855SOL    HW220199   1.269   2.837   9.805 -2.7606 -0.0441  0.2719
 2856SOL     OW20200   0.867   0.570   2.791  0.1280 -0.3559 -0.1811
 2856SOL    HW120201   0.904   0.508   2.854  2.4505  2.6429  1.4348
 2856SOL    HW220202   0.906   0.529   2.714 -1.3258  1.4974 -1.9021
 2857SOL     OW20203   3.567   3.861   3.847  0.1281 -0.3358  0.1269
 2857SOL    HW120204   3.619   3.796   3.895  0.7518 -0.5765 -0.8811
 2857SOL    HW220205   3.621   3.940   3.854  0.9076 -1.0031  1.7545
 2858SOL     OW20206   3.665   2.165   4.090 -0.0029  0.4757  0.3779
 2858SOL    HW120207   3.739   2.104   4.098  2.0735  2.8370 -1.0466
 2858SOL    HW220208   3.609   2.130   4.160 -0.3150  0.5151  0.1485
 2859SOL     OW20209   2.324   0.523  14.077  0.1220 -0.6794 -0.8604
 2859SOL    HW120210   2.396   0.501  14.018  0.2491 -1.2075 -0.5014
 2859SOL    HW220211   2.269   0.553  14.004  0.5928  0.4530 -0.7430
 2860SOL     OW20212   3.214   0.560   0.093 -0.0618  0.0425 -0.4583
 2860SOL    HW120213   3.126   0.524   0.108 -0.2074  0.5358 -0.1274
 2860SOL    HW220214   3.214   0.571  17.769 -0.0265  1.4625 -0.3000
 2861SOL     OW20215   0.464   3.913   8.147  0.0188 -0.3314 -0.1046
 2861SOL    HW120216   0.468   3.820   8.122 -0.4494 -0.4929  0.4028
 2861SOL    HW220217   0.547   3.942   8.111 -0.6473  0.7887 -0.7301
 2862SOL     OW20218   3.158   2.766   7.777 -0.2659 -0.3435  0.1254
 2862SOL    HW120219   3.157   2.771   7.872  0.6001 -2.4980  0.2512
 2862SOL    HW220220   3.067   2.739   7.763 -0.7144  1.3293 -0.2207
 2863SOL     OW20221   2.751   3.179   6.519 -0.3768  0.0134 -0.2002
 2863SOL    HW120222   2.758   3.263   6.474  1.4448  0.6732  1.3063
 2863SOL    HW220223   2.842   3.154   6.535 -0.6400 -0.4518  0.5931
 2864SOL     OW20224   3.071   0.802   6.605  0.1599 -1.0129 -0.1615
 2864SOL    HW120225   3.039   0.715   6.630 -0.3631 -0.3929  1.3361
 2864SOL    HW220226   3.029   0.808   6.520  0.2329  2.3219  0.0576
 2865SOL     OW20227   4.104   4.169  10.759 -0.2290  0.4220 -0.4991
 2865SOL    HW120228   4.155   4.195  10.835 -1.0118 -1.9440  0.8175
 2865SOL    HW220229   4.029   4.227  10.773 -0.1201  0.4221  0.0585
 2866SOL     OW20230   4.571   3.505   8.499 -0.3457 -0.4295  0.0756
 2866SOL    HW120231   4.496   3.445   8.499 -0.5151 -0.2259  0.5380
 2866SOL    HW220232   4.556   3.552   8.417 -2.7842 -0.2540  0.6135
 2867SOL     OW20233   1.161   1.504   0.572 -0.0217  0.5108  0.2134
 2867SOL    HW120234   1.128   1.588   0.606 -0.8790 -0.0464  0.7716
 2867SOL    HW220235   1.095   1.484   0.506  0.0642  0.7338  0.0602
 2868SOL     OW20236   3.210   1.915   5.698 -0.5341 -0.3570 -0.2631
 2868SOL    HW120237   3.186   1.974   5.626 -0.8706 -1.2873 -0.9109
 2868SOL    HW220238   3.220   1.976   5.772 -0.9528 -0.7822  0.1430
 2869SOL     OW20239   3.539   2.167  12.236  0.1390  0.3995  0.0201
 2869SOL    HW120240   3.620   2.210  12.207 -0.0480  1.8279  1.6459
 2869SOL    HW220241   3.553   2.138  12.326  1.0067  1.5909  0.2603
 2870SOL     OW20242   2.224   1.204   3.549  0.2292 -0.4506 -0.4191
 2870SOL    HW120243   2.227   1.113   3.518  1.4772 -0.3039 -0.7296
 2870SOL    HW220244   2.314   1.236   3.536 -0.2519  1.2528  0.4037
 2871SOL     OW20245   4.492   1.043  12.420  0.6255  0.1414  0.0524
 2871SOL    HW120246   4.562   1.020  12.358  0.1737  1.0471 -0.7904
 2871SOL    HW220247   4.418   1.076  12.369  1.0524 -0.1571 -0.7608
 2872SOL     OW20248   1.076   1.916   2.367 -0.1977 -0.0928  0.0676
 2872SOL    HW120249   1.006   1.939   2.429  0.7766 -0.0117  1.1429
 2872SOL    HW220250   1.074   1.990   2.307  2.4493  0.0695  0.1756
 2873SOL     OW20251   3.185   0.297   5.979  0.0824 -0.4673 -0.4467
 2873SOL    HW120252   3.183   0.250   5.896  1.9381  1.2382 -1.4524
 2873SOL    HW220253   3.095   0.329   5.985 -0.2346 -1.5491  0.7128
 2874SOL     OW20254   4.078   4.137   6.730  0.3437  0.1410  0.4198
 2874SOL    HW120255   4.071   4.198   6.657  0.0170 -0.7544 -0.2934
 2874SOL    HW220256   4.038   4.182   6.805 -1.0530 -3.0929  1.6493
 2875SOL     OW20257   3.890   4.574   2.656  0.1964  0.4725  0.0141
 2875SOL    HW120258   3.877   4.486   2.620  1.3534  0.7197 -1.0016
 2875SOL    HW220259   3.830   4.624   2.602  0.6630  0.3085 -0.6506
 2876SOL     OW20260   2.773   1.929   9.121 -0.2009 -0.2358  0.4050
 2876SOL    HW120261   2.817   1.865   9.177 -0.5874 -0.6512  0.2338
 2876SOL    HW220262   2.761   1.880   9.039 -1.3783  2.2112 -0.8834
 2877SOL     OW20263   0.795   3.423   4.450  0.2457 -1.2831 -0.4237
 2877SOL    HW120264   0.742   3.472   4.388 -1.5505 -0.4343  1.7831
 2877SOL    HW220265   0.796   3.334   4.416  2.1327 -1.8043  0.9910
 2878SOL     OW20266   2.084   2.510   6.162  0.0380  0.3377  1.0407
 2878SOL    HW120267   2.159   2.527   6.219  1.6743  0.6959 -1.1932
 2878SOL    HW220268   2.076   2.600   6.129  1.9367 -0.2432 -1.0559
 2879SOL     OW20269   0.791   0.337   3.641  0.4044 -0.5432 -0.1948
 2879SOL    HW120270   0.800   0.327   3.546  0.3417  0.9371 -0.3571
 2879SOL    HW220271   0.749   0.254   3.663 -0.2438 -0.7102 -2.0083
 2880SOL     OW20272   0.041   1.132  16.623  0.4390  0.1914  0.6921
 2880SOL    HW120273   0.090   1.163  16.546  1.9241 -0.1763  1.4987
 2880SOL    HW220274   4.709   1.190  16.617 -0.2940 -0.7773  0.5938
 2881SOL     OW20275   4.021   0.749  11.920 -0.4830  0.0294 -0.1871
 2881SOL    HW120276   4.109   0.787  11.914  0.7256 -2.6490  0.4774
 2881SOL    HW220277   3.968   0.824  11.894 -1.0533 -0.6774 -1.0555
 2882SOL     OW20278   4.280   3.887   9.071  0.5191  0.6861 -0.2582
 2882SOL    HW120279   4.348   3.952   9.086  0.3414  0.4428  1.6521
 2882SOL    HW220280   4.327   3.805   9.052  1.1102  1.1437 -0.7743
 2883SOL     OW20281   2.543   2.189  17.720  0.3694 -0.0040  0.1321
 2883SOL    HW120282   2.510   2.139  17.646  2.7299 -0.5582 -0.5375
 2883SOL    HW220283   2.475   2.181   0.015 -0.1095 -2.2613 -0.6454
 2884SOL     OW20284   1.159   0.158   5.500  0.2561 -0.1592  0.0752
 2884SOL    HW120285   1.230   0.117   5.451 -0.9993 -1.3110 -0.7457
 2884SOL    HW220286   1.145   0.233   5.443  1.1940  0.2967  0.4412
 2885SOL     OW20287   3.224   2.649   5.129 -0.0900 -0.3505  0.1627
 2885SOL    HW120288   3.151   2.615   5.181  0.8978 -1.5495  0.7668
 2885SOL    HW220289   3.252   2.721   5.186 -0.3312  1.0358 -1.4705
 2886SOL     OW20290   2.173   2.559   7.861  0.3639 -0.4187  0.9445
 2886SOL    HW120291   2.159   2.479   7.911  2.1624 -1.0817  0.3794
 2886SOL    HW220292   2.263   2.582   7.885  0.1509  2.1079 -0.7137
 2887SOL     OW20293   2.158   0.026   8.620 -0.1524 -0.5679 -0.0554
 2887SOL    HW120294   2.079   0.031   8.674 -1.4705  0.0606 -2.0357
 2887SOL    HW220295   2.122   4.722   8.545  2.0401  0.3220 -1.6685
 2888SOL     OW20296   4.503   1.827   3.365  0.3253 -0.9309 -0.4029
 2888SOL    HW120297   4.487   1.740   3.401  1.6797 -0.8865  0.3172
 2888SOL    HW220298   4.536   1.868   3.445 -1.2633 -0.6226  0.0915
 2889SOL     OW20299   3.189   0.794   9.100  0.1170 -0.0695  0.5164
 2889SOL    HW120300   3.106   0.768   9.060  0.6071  2.3006 -2.0456
 2889SOL    HW220301   3.194   0.888   9.081 -0.7842 -0.1358 -0.0397
 2890SOL     OW20302   1.381   3.932   9.561  0.2010 -0.4314 -0.1997
 2890SOL    HW120303   1.343   3.948   9.648 -0.2192  0.9502 -0.6400
 2890SOL    HW220304   1.304   3.890   9.524 -0.1333  1.4070 -1.5614
 2891SOL     OW20305   2.970   4.530   7.128  0.1613 -0.0100 -0.2451
 2891SOL    HW120306   2.911   4.473   7.177 -2.0907  3.0590  0.6426
 2891SOL    HW220307   2.941   4.614   7.165  0.0642  0.2848 -0.9769
 2892SOL     OW20308   1.576   3.609   6.992 -0.1791 -0.3809  0.1230
 2892SOL    HW120309   1.618   3.675   6.938 -1.7346  0.0355 -0.5833
 2892SOL    HW220310   1.624   3.623   7.074  1.0076 -1.7716 -0.3336
 2893SOL     OW20311   2.114   1.724   1.636  0.2472 -0.4029 -0.0608
 2893SOL    HW120312   2.137   1.791   1.701 -1.6278 -0.0328  0.2391
 2893SOL    HW220313   2.093   1.648   1.691  0.7764 -0.4304  0.0965
 2894SOL     OW20314   0.743   2.171  11.730 -0.5589 -0.0506  0.3716
 2894SOL    HW120315   0.723   2.240  11.794 -0.5754  1.8661 -1.6731
 2894SOL    HW220316   0.655   2.137  11.719 -0.6606 -0.3501  2.1437
 2895SOL     OW20317   0.092   3.776   4.911 -0.1911 -0.1373 -0.1025
 2895SOL    HW120318   0.001   3.758   4.936 -0.5468  1.3240 -0.3434
 2895SOL    HW220319   0.079   3.851   4.853 -0.1107  0.8583  1.1396
 2896SOL     OW20320   2.291   1.352  14.859 -0.1972 -0.8995 -0.8070
 2896SOL    HW120321   2.240   1.273  14.843  1.5336 -1.7838 -1.8673
 2896SOL    HW220322   2.297   1.374  14.766  2.2538 -1.4431 -0.7665
 2897SOL     OW20323   0.047   1.114   9.365  0.6579 -0.3956 -1.1680
 2897SOL    HW120324   0.097   1.144   9.289  0.7108  0.8613 -0.6328
 2897SOL    HW220325   0.011   1.028   9.344  0.4039 -0.7891  0.9026
 2898SOL     OW20326   2.468   0.867   1.275  0.8457  0.5794  0.0488
 2898SOL    HW120327   2.443   0.949   1.231 -0.9888 -0.0786 -0.1457
 2898SOL    HW220328   2.443   0.893   1.364  0.2058  2.5670 -0.6986
 2899SOL     OW20329   4.295   0.988   0.308  0.1372  0.3557  0.0627
 2899SOL    HW120330   4.282   0.896   0.286  1.4347  0.6716 -2.0733
 2899SOL    HW220331   4.206   1.023   0.303 -0.7184 -1.6458  1.4922
 2900SOL     OW20332   2.296   4.054   8.436 -0.0039  0.8508 -0.7002
 2900SOL    HW120333   2.370   4.007   8.396  0.3755 -0.9176  2.0960
 2900SOL    HW220334   2.271   3.985   8.498  1.3520 -0.6469 -1.8194
 2901SOL     OW20335   4.322   0.227   2.838 -0.5688 -0.3968  0.2810
 2901SOL    HW120336   4.412   0.231   2.872 -0.6143 -3.5433  0.7928
 2901SOL    HW220337   4.329   0.306   2.783 -0.2788 -0.0399  0.8285
 2902SOL     OW20338   0.923   3.161   6.931 -0.2420 -0.0851 -0.6436
 2902SOL    HW120339   0.944   3.068   6.931  2.5823  0.5263  2.0721
 2902SOL    HW220340   0.951   3.178   6.841  0.2173 -2.2752 -0.9234
 2903SOL     OW20341   2.186   0.210   7.573  0.1284  0.3982  0.4595
 2903SOL    HW120342   2.231   0.294   7.574 -1.0722  1.0438  0.0420
 2903SOL    HW220343   2.094   0.228   7.553  1.1567  3.0227 -1.8325
 2904SOL     OW20344   2.280   2.931   4.963  0.2934  0.4541  0.6689
 2904SOL    HW120345   2.291   2.908   4.871 -1.0985  1.8767  0.1538
 2904SOL    HW220346   2.282   3.026   4.957  0.3141  0.4181  0.1376
 2905SOL     OW20347   0.611   1.370  12.663 -0.0788 -1.1104 -0.5222
 2905SOL    HW120348   0.564   1.365  12.580 -1.0830 -1.6840  0.0739
 2905SOL    HW220349   0.641   1.460  12.660  0.5557 -1.3277 -0.6712
 2906SOL     OW20350   0.936   4.578   7.576 -0.2502 -0.2015  0.1312
 2906SOL    HW120351   0.958   4.576   7.669 -0.1337  1.1060  0.1310
 2906SOL    HW220352   0.861   4.638   7.568  0.6337  0.8247 -0.4036
 2907SOL     OW20353   1.056   1.963   6.208  0.0703  0.5502 -0.3175
 2907SOL    HW120354   1.137   1.921   6.178 -0.5038 -0.9963  0.3531
 2907SOL    HW220355   0.986   1.902   6.187  1.5001 -1.5993  1.1266
 2908SOL     OW20356   2.945   2.653   4.071 -0.2279  0.0739 -0.6255
 2908SOL    HW120357   2.852   2.638   4.090 -0.4129  1.5624 -0.3718
 2908SOL    HW220358   2.985   2.625   4.154 -1.9440 -1.6531 -0.3621
 2909SOL     OW20359   3.462   1.323   7.174  0.1285  0.1198 -0.3990
 2909SOL    HW120360   3.531   1.270   7.214 -0.4169  0.7253  1.3299
 2909SOL    HW220361   3.404   1.339   7.248  1.4413 -2.7801  1.2613
 2910SOL     OW20362   1.021   2.943   7.911 -0.6206  0.4158  0.0495
 2910SOL    HW120363   1.091   2.936   7.977 -0.0222  0.3272 -0.5875
 2910SOL    HW220364   1.050   2.881   7.844 -1.2864  2.0148 -1.6916
 2911SOL     OW20365   0.076   0.281  16.664  0.3222 -0.0321 -0.7837
 2911SOL    HW120366   0.032   0.241  16.738  1.2092 -2.2417 -1.4442
 2911SOL    HW220367   0.132   0.339  16.716  1.6332  0.3055 -2.5716
 2912SOL     OW20368   0.923   4.110   9.180 -0.0411 -0.4502 -0.3365
 2912SOL    HW120369   0.982   4.150   9.116 -1.8736 -0.0829 -1.7907
 2912SOL    HW220370   0.952   4.018   9.180 -2.2656 -1.1441 -1.8429
 2913SOL     OW20371   0.216   3.734   9.257 -0.1843  0.2877 -0.7910
 2913SOL    HW120372   0.242   3.790   9.184  1.6171  0.0239 -0.3495
 2913SOL    HW220373   0.156   3.795   9.300  0.9063 -0.1260  1.3378
 2914SOL     OW20374   1.559   4.729   3.957 -0.1365  0.7098  1.0443
 2914SOL    HW120375   1.542   0.024   4.043 -0.3189 -1.2670  1.8946
 2914SOL    HW220376   1.472   4.692   3.941  0.6269 -0.9972  0.8838
 2915SOL     OW20377   0.610   1.943   2.569 -0.3155  0.1792  0.1326
 2915SOL    HW120378   0.564   1.867   2.533 -0.0023  0.6920 -1.3297
 2915SOL    HW220379   0.544   2.006   2.597  1.0602  1.6872 -0.0445
 2916SOL     OW20380   1.977   0.971   1.773 -0.5375 -0.2124  0.2455
 2916SOL    HW120381   1.900   0.946   1.723 -0.6951  1.2200 -0.2082
 2916SOL    HW220382   2.012   0.881   1.776 -0.7091 -0.2856  0.0621
 2917SOL     OW20383   0.918   2.139   7.315 -0.0273 -0.8383 -0.3612
 2917SOL    HW120384   0.970   2.122   7.237 -1.5840  0.1550 -1.6215
 2917SOL    HW220385   0.832   2.160   7.277 -0.0043 -1.8959 -0.9856
 2918SOL     OW20386   0.819   2.411   3.666  1.0972  0.1941  0.4417
 2918SOL    HW120387   0.865   2.481   3.619  1.0742  0.3978  0.7188
 2918SOL    HW220388   0.738   2.416   3.616  2.3018  0.3961 -1.5140
 2919SOL     OW20389   4.235   1.661   6.885 -0.6663 -0.8172 -0.7052
 2919SOL    HW120390   4.305   1.694   6.828  0.1924 -1.1933  0.1329
 2919SOL    HW220391   4.194   1.744   6.911  0.7115 -0.8210  1.4853
 2920SOL     OW20392   1.141   3.482   8.271 -0.5366  1.0828 -0.2619
 2920SOL    HW120393   1.193   3.465   8.349 -0.9611 -1.6333 -0.5703
 2920SOL    HW220394   1.065   3.425   8.281  1.6169 -1.9600 -1.1467
 2921SOL     OW20395   4.314   1.939   6.381 -0.1883  0.0295 -0.1924
 2921SOL    HW120396   4.369   1.906   6.310  0.3737  2.4636 -0.8833
 2921SOL    HW220397   4.227   1.906   6.358 -1.4558  2.2817  1.3566
 2922SOL     OW20398   4.537   4.259   7.824 -0.4738  0.1885  0.2916
 2922SOL    HW120399   4.545   4.325   7.892 -0.9201  1.4534 -0.8909
 2922SOL    HW220400   4.629   4.240   7.802 -1.2811 -1.7921 -1.3614
 2923SOL     OW20401   2.307   2.213  14.273  0.1255 -0.2652  0.1969
 2923SOL    HW120402   2.286   2.302  14.245 -2.2918 -0.7014  0.5989
 2923SOL    HW220403   2.373   2.188  14.208 -0.6635 -2.1208  0.0887
 2924SOL     OW20404   3.561   2.001   1.250  0.1892  0.3892  0.1121
 2924SOL    HW120405   3.583   1.997   1.156 -0.0526  0.1515  0.0669
 2924SOL    HW220406   3.526   1.912   1.257  3.4490 -1.1235 -2.5822
 2925SOL     OW20407   1.889   0.161   3.667  0.8782  0.3043 -0.1686
 2925SOL    HW120408   1.796   0.142   3.675  0.5822  3.0716  3.4190
 2925SOL    HW220409   1.923   0.101   3.733  0.5902  1.2341  0.8359
 2926SOL     OW20410   0.953   4.241   6.365  0.6939 -0.2882 -0.2803
 2926SOL    HW120411   0.908   4.322   6.388  0.5165 -0.4621 -0.0165
 2926SOL    HW220412   1.014   4.273   6.298  0.2854 -3.0687 -1.9849
 2927SOL     OW20413   0.701   4.626   5.298 -0.1879 -0.0588 -0.5094
 2927SOL    HW120414   0.750   4.620   5.380  0.3215  0.7175 -0.7544
 2927SOL    HW220415   0.697   4.719   5.276  2.0024 -0.1213 -1.1492
 2928SOL     OW20416   4.067   0.563   8.576 -0.0216  0.3910  0.2111
 2928SOL    HW120417   4.105   0.505   8.642 -0.4734  1.4453  1.3859
 2928SOL    HW220418   3.986   0.591   8.618 -0.5086 -0.7636  0.0373
 2929SOL     OW20419   3.383   1.476   9.025 -0.1084 -0.6560 -0.0310
 2929SOL    HW120420   3.342   1.465   9.111  1.2828 -1.0779  0.5839
 2929SOL    HW220421   3.447   1.405   9.020  1.0254  0.2423  1.6564
 2930SOL     OW20422   1.137   1.410   5.285 -0.1473 -0.0789  0.4641
 2930SOL    HW120423   1.222   1.398   5.242 -0.5580 -0.9470 -0.1149
 2930SOL    HW220424   1.102   1.494   5.253 -1.8765 -1.7360 -2.0207
 2931SOL     OW20425   3.049   3.349  14.761 -0.5213 -0.2257  0.0514
 2931SOL    HW120426   2.961   3.312  14.765  0.0419 -1.4307  1.2671
 2931SOL    HW220427   3.037   3.432  14.714 -1.8479  0.3015  1.3100
 2932SOL     OW20428   3.988   0.802   7.050  0.4642  0.0316  0.5514
 2932SOL    HW120429   4.006   0.890   7.083  3.8313 -0.1385 -0.8082
 2932SOL    HW220430   3.892   0.799   7.043  0.4808  0.0224  0.3045
 2933SOL     OW20431   1.780   1.545  15.399 -0.4202 -0.7534 -0.2150
 2933SOL    HW120432   1.733   1.601  15.337  1.0284 -0.1436 -0.7649
 2933SOL    HW220433   1.805   1.606  15.468  0.1600 -2.1196  0.7657
 2934SOL     OW20434   3.227   4.299   2.931 -0.2087 -0.2757  0.0866
 2934SOL    HW120435   3.229   4.306   2.836 -0.0715  1.0619  0.1892
 2934SOL    HW220436   3.183   4.214   2.932 -0.4012 -0.1639  1.1987
 2935SOL     OW20437   3.019   4.489  16.731  0.2282  1.1520  0.2321
 2935SOL    HW120438   2.955   4.439  16.782 -0.8326  1.1489 -1.0876
 2935SOL    HW220439   3.036   4.423  16.664 -2.4456  2.4619 -1.7759
 2936SOL     OW20440   1.755   2.612   5.807 -0.7017  0.6972  0.5020
 2936SOL    HW120441   1.833   2.591   5.756 -2.4568 -2.5373 -0.8751
 2936SOL    HW220442   1.771   2.550   5.879  0.3022 -0.2336 -0.5253
 2937SOL     OW20443   1.387   0.172   6.837 -0.2142  0.0460  0.4727
 2937SOL    HW120444   1.304   0.158   6.883 -0.4327  1.8148  0.6274
 2937SOL    HW220445   1.362   0.172   6.745  3.9711  2.2751 -0.6862
 2938SOL     OW20446   1.768   0.588   2.680  0.4076 -0.4243  0.0777
 2938SOL    HW120447   1.760   0.682   2.663  0.2745 -0.4474  0.0111
 2938SOL    HW220448   1.725   0.555   2.601  1.0366  1.2305 -0.9389
 2939SOL     OW20449   1.856   3.615   6.466  0.5171 -0.2280 -0.2376
 2939SOL    HW120450   1.951   3.611   6.453  0.3841 -1.0253 -1.0065
 2939SOL    HW220451   1.837   3.639   6.375  0.7676  0.3058 -0.1459
 2940SOL     OW20452   2.111   4.140  12.842 -0.3463  0.2023 -0.4144
 2940SOL    HW120453   2.174   4.070  12.822  0.7923  1.2722 -0.5929
 2940SOL    HW220454   2.160   4.210  12.799 -1.1639  0.7201 -0.4916
 2941SOL     OW20455   2.688   3.839   5.576 -0.3049 -0.2210  0.2697
 2941SOL    HW120456   2.757   3.899   5.604 -0.5907  0.7037 -1.0428
 2941SOL    HW220457   2.716   3.805   5.491 -1.2508  3.0007 -1.3547
 2942SOL     OW20458   3.389   3.119   0.269 -0.3884 -0.4111 -0.0564
 2942SOL    HW120459   3.368   3.206   0.303  0.9877  0.1408 -0.6158
 2942SOL    HW220460   3.312   3.065   0.285 -2.4437  2.0795 -1.3926
 2943SOL     OW20461   2.564   1.982  17.107  0.8059 -0.0733  0.0014
 2943SOL    HW120462   2.539   1.981  17.199  1.8286  1.1644  0.2827
 2943SOL    HW220463   2.482   1.981  17.058 -0.8956 -0.0128  2.8338
 2944SOL     OW20464   4.649   4.163   8.932 -0.1493  0.1117 -0.3536
 2944SOL    HW120465   4.592   4.204   8.867  1.4155 -0.1237 -1.8849
 2944SOL    HW220466   4.714   4.233   8.941  0.8139 -0.7877 -0.4008
 2945SOL     OW20467   0.735   0.082   6.337 -0.0060  0.3154 -0.6379
 2945SOL    HW120468   0.668   0.130   6.288 -1.1213  1.5699  2.1065
 2945SOL    HW220469   0.685   0.008   6.370  0.4349  0.4239  0.2853
 2946SOL     OW20470   2.483   3.913   3.373 -0.5086  0.4375 -0.4636
 2946SOL    HW120471   2.414   3.967   3.335 -0.5670  0.4251 -0.3747
 2946SOL    HW220472   2.507   3.868   3.291  0.5403 -1.5293  0.9127
 2947SOL     OW20473   0.103   1.222  10.079  0.1328 -0.1420 -0.0481
 2947SOL    HW120474   0.118   1.161  10.007  2.0710  3.2893 -2.5151
 2947SOL    HW220475   0.142   1.301  10.043 -2.2582  1.2405  0.4246
 2948SOL     OW20476   0.013   4.333   5.642 -0.7502 -0.1047  0.0715
 2948SOL    HW120477   0.001   4.292   5.727  0.4225 -3.2652 -1.3019
 2948SOL    HW220478   0.103   4.365   5.646 -0.7088  0.1079 -2.1546
 2949SOL     OW20479   1.036   1.707   1.803  0.6618 -0.1632 -0.1103
 2949SOL    HW120480   0.991   1.767   1.864  1.8136  0.6940 -0.1058
 2949SOL    HW220481   1.103   1.661   1.854  0.0294 -1.6026 -0.5805
 2950SOL     OW20482   2.016   2.147   3.792  0.3545 -0.0644 -0.2543
 2950SOL    HW120483   1.923   2.151   3.815  0.1881 -2.3778 -0.5467
 2950SOL    HW220484   2.055   2.088   3.857 -0.6009  0.7852  1.0928
 2951SOL     OW20485   1.288   2.423   7.901  0.2053 -0.3198  0.1191
 2951SOL    HW120486   1.198   2.442   7.874  0.1015  1.0538  1.4238
 2951SOL    HW220487   1.297   2.488   7.971  1.2360 -0.1492 -0.1782
 2952SOL     OW20488   2.223   1.882   0.447  0.2709 -0.4503 -0.6083
 2952SOL    HW120489   2.300   1.888   0.391  0.2605  0.4924 -0.5143
 2952SOL    HW220490   2.166   1.836   0.386 -0.8153  1.5881 -1.0965
 2953SOL     OW20491   1.060   3.390  11.109  0.2848 -0.2102  0.0122
 2953SOL    HW120492   1.100   3.449  11.172 -0.1826  1.5799 -1.3774
 2953SOL    HW220493   0.994   3.447  11.070 -0.3258 -0.1593  1.1461
 2954SOL     OW20494   3.152   3.063   4.740  0.2004  0.1075  0.0913
 2954SOL    HW120495   3.109   3.016   4.669 -0.8404  1.2333 -0.0235
 2954SOL    HW220496   3.139   3.011   4.819 -2.3874 -0.5215 -0.7642
 2955SOL     OW20497   3.902   1.495   7.161  0.3112 -0.1265 -0.1043
 2955SOL    HW120498   3.939   1.416   7.200  0.0175 -0.2019  0.0238
 2955SOL    HW220499   3.955   1.500   7.081  0.7021  0.9721  0.2270
 2956SOL     OW20500   0.502   0.994   6.513 -0.2263  0.1061 -0.8639
 2956SOL    HW120501   0.594   1.007   6.537 -0.3605 -3.2635  1.4427
 2956SOL    HW220502   0.498   1.029   6.424 -0.3017  2.9665  0.2703
 2957SOL     OW20503   3.432   1.988   8.881  0.1717 -0.0620  0.1211
 2957SOL    HW120504   3.521   2.005   8.913  0.0201  0.2969  0.3535
 2957SOL    HW220505   3.390   1.941   8.953 -2.5996  1.1709 -0.6976
 2958SOL     OW20506   0.483   1.672   9.320 -0.1229 -0.8526  0.1627
 2958SOL    HW120507   0.475   1.614   9.395  1.0565 -0.2425  0.7616
 2958SOL    HW220508   0.402   1.661   9.270 -1.3441  0.2975  1.8907
 2959SOL     OW20509   3.373   0.142   2.684  0.6315  0.2019 -0.1165
 2959SOL    HW120510   3.334   0.108   2.765  0.3961 -0.3429 -0.4592
 2959SOL    HW220511   3.366   0.063   2.631  0.9311 -0.4286  0.7768
 2960SOL     OW20512   0.400   3.235   8.925  0.2886  0.1872  0.0087
 2960SOL    HW120513   0.424   3.258   8.835 -0.2807  4.4011  0.9040
 2960SOL    HW220514   0.308   3.258   8.939 -0.7748 -3.0566 -1.6891
 2961SOL     OW20515   2.677   1.714  15.041 -0.0402  0.5537 -0.2659
 2961SOL    HW120516   2.632   1.704  14.956 -5.0982  0.6891  2.3694
 2961SOL    HW220517   2.641   1.632  15.074  0.6405  0.2999 -0.1665
 2962SOL     OW20518   3.900   2.966   5.213  0.3562  0.3677  0.5022
 2962SOL    HW120519   3.897   3.033   5.144 -1.9314 -1.0026 -0.7282
 2962SOL    HW220520   3.885   3.018   5.291 -2.2864  2.2894 -1.2882
 2963SOL     OW20521   1.669   4.448  15.429 -0.1151 -0.1340 -0.4150
 2963SOL    HW120522   1.702   4.509  15.363 -0.0280  0.5344  0.2525
 2963SOL    HW220523   1.747   4.393  15.436  0.6139  0.7130 -1.7969
 2964SOL     OW20524   4.528   3.575   7.249 -0.6665  0.3727 -0.1816
 2964SOL    HW120525   4.530   3.595   7.342  0.1488 -0.9579  0.0925
 2964SOL    HW220526   4.440   3.539   7.235 -1.4109  2.2740 -0.3613
 2965SOL     OW20527   2.047   1.397   7.407 -0.0787 -0.0324 -0.1575
 2965SOL    HW120528   2.026   1.334   7.476 -0.8847 -0.8811 -1.1878
 2965SOL    HW220529   2.037   1.343   7.329 -0.6538  0.0352 -0.1280
 2966SOL     OW20530   2.607   0.235  14.995  0.3463 -0.1840 -0.2079
 2966SOL    HW120531   2.572   0.151  14.965 -0.8861 -0.5920  2.4052
 2966SOL    HW220532   2.606   0.277  14.909 -0.1677 -1.3943 -0.7937
 2967SOL     OW20533   3.802   3.980   2.375  0.4379  0.0480  0.2194
 2967SOL    HW120534   3.841   4.008   2.457 -1.6501  0.5715  1.0292
 2967SOL    HW220535   3.734   4.048   2.370  0.0490 -0.3172  0.5671
 2968SOL     OW20536   3.848   0.752  12.107  0.2602 -0.6624  0.0781
 2968SOL    HW120537   3.896   0.718  12.031 -0.0321 -0.6695 -0.1012
 2968SOL    HW220538   3.797   0.822  12.067  1.0900  0.1953  0.5102
 2969SOL     OW20539   2.794   0.049   7.060  0.7861 -0.2304 -0.3252
 2969SOL    HW120540   2.804   4.730   6.988  1.9833  0.2210 -0.5595
 2969SOL    HW220541   2.705   0.020   7.078  0.8269  0.7092  1.3723
 2970SOL     OW20542   0.093   2.739   2.809 -0.1691  0.3710 -0.1503
 2970SOL    HW120543   0.117   2.830   2.789 -0.7400  0.6436  0.3893
 2970SOL    HW220544   0.010   2.759   2.852  0.4609  2.1935  0.2413
 2971SOL     OW20545   2.703   4.269   7.511  0.1906 -0.5462 -0.5872
 2971SOL    HW120546   2.756   4.342   7.543 -2.4444  0.9669  0.3267
 2971SOL    HW220547   2.624   4.282   7.565 -0.1842 -0.3476 -1.1868
 2972SOL     OW20548   3.989   3.674   1.871  0.3373  0.2751  0.1756
 2972SOL    HW120549   3.929   3.644   1.803 -0.0370 -0.0817  0.6629
 2972SOL    HW220550   4.065   3.684   1.814 -0.8633  0.4337 -1.3903
 2973SOL     OW20551   2.984   2.645   8.473 -0.1754 -0.8305 -0.5147
 2973SOL    HW120552   2.928   2.617   8.545 -1.1188  1.3066 -0.4057
 2973SOL    HW220553   3.024   2.563   8.445  0.0881 -0.1992 -1.9810
 2974SOL     OW20554   1.317   2.248   0.204  0.0507 -0.2395 -0.2158
 2974SOL    HW120555   1.362   2.176   0.160 -1.2473 -1.1389 -0.0694
 2974SOL    HW220556   1.348   2.236   0.294  1.0265 -2.5059 -0.8394
 2975SOL     OW20557   1.831   1.429   9.937 -0.1381 -0.2094 -0.9960
 2975SOL    HW120558   1.756   1.459   9.989  0.0054 -1.0382 -0.3038
 2975SOL    HW220559   1.900   1.476   9.984 -1.1481 -0.6571  0.9539
 2976SOL     OW20560   2.854   0.416   5.079  0.8054 -0.5549 -0.0877
 2976SOL    HW120561   2.770   0.454   5.053  0.7941 -0.2413  0.4096
 2976SOL    HW220562   2.819   0.349   5.138 -1.1361  0.6886  0.1572
 2977SOL     OW20563   4.228   0.230   6.379  0.2798  0.0426  0.2567
 2977SOL    HW120564   4.301   0.239   6.441  0.9402  2.9844 -0.9540
 2977SOL    HW220565   4.280   0.228   6.299 -1.7467  0.2998 -1.0696
 2978SOL     OW20566   0.453   2.536   8.402  0.3304 -0.1459  0.1405
 2978SOL    HW120567   0.525   2.563   8.344  0.4048  1.0171  0.7685
 2978SOL    HW220568   0.389   2.486   8.352 -0.3907  1.4693 -0.5764
 2979SOL     OW20569   4.064   3.684   5.035  0.5332  0.5203 -0.2146
 2979SOL    HW120570   4.032   3.749   5.098 -0.9180 -0.0866 -0.3280
 2979SOL    HW220571   3.991   3.696   4.974 -1.3610 -4.4438  1.1292
 2980SOL     OW20572   0.945   4.335   2.631  0.5566  0.5635 -0.7860
 2980SOL    HW120573   0.895   4.312   2.710  0.8863 -0.7653 -0.9793
 2980SOL    HW220574   0.993   4.254   2.617  1.7317  0.8971  1.2190
 2981SOL     OW20575   2.170   1.767   2.683  0.3326  0.3079 -0.1488
 2981SOL    HW120576   2.132   1.776   2.770  1.7942  1.5599  0.3839
 2981SOL    HW220577   2.104   1.732   2.624  0.8745  0.0864 -0.6313
 2982SOL     OW20578   1.839   4.568  15.959 -0.0264 -0.0619  0.1260
 2982SOL    HW120579   1.833   4.617  16.041 -1.5699 -1.9903  1.1617
 2982SOL    HW220580   1.934   4.567  15.950 -0.1010 -0.9957 -0.6478
 2983SOL     OW20581   4.147   4.276   6.281  0.2769 -0.5910  0.0158
 2983SOL    HW120582   4.178   4.219   6.352  0.1015 -1.2975 -0.4726
 2983SOL    HW220583   4.232   4.283   6.238  0.9978 -1.1978  1.3388
 2984SOL     OW20584   0.003   0.194   5.299  0.1140  0.5038 -0.4973
 2984SOL    HW120585   0.079   0.146   5.265  0.4006 -0.0836  1.0052
 2984SOL    HW220586   4.707   0.145   5.371 -4.1903  1.1922 -2.4029
 2985SOL     OW20587   0.463   0.167   1.891 -0.9924  0.2431  0.3878
 2985SOL    HW120588   0.455   0.243   1.833 -0.8351 -1.6017 -2.0661
 2985SOL    HW220589   0.467   0.091   1.834 -0.1474 -0.9664  2.0714
 2986SOL     OW20590   1.779   1.171   3.619 -0.3084  0.4254  0.2725
 2986SOL    HW120591   1.767   1.096   3.676  1.2362 -1.6892 -2.1983
 2986SOL    HW220592   1.776   1.131   3.532  0.2752  2.8658 -0.8695
 2987SOL     OW20593   0.138   1.319   8.068  0.2490  0.3854 -0.1257
 2987SOL    HW120594   0.052   1.307   8.027  0.9219 -2.5071 -0.6980
 2987SOL    HW220595   0.187   1.238   8.057  1.0317  0.9056 -0.4587
 2988SOL     OW20596   1.869   4.242   6.099 -0.7247 -0.0593  0.4907
 2988SOL    HW120597   1.787   4.219   6.057  0.5037  0.1265 -1.9965
 2988SOL    HW220598   1.839   4.328   6.131 -1.3572  0.5309 -1.6571
 2989SOL     OW20599   3.262   3.034   3.035  0.0044  0.1060 -0.0472
 2989SOL    HW120600   3.331   3.083   3.081 -0.8488  0.5713  0.7415
 2989SOL    HW220601   3.198   3.024   3.106  0.5153 -1.1171  0.2330
 2990SOL     OW20602   1.357   1.807   3.914  0.0052  0.2518 -0.3955
 2990SOL    HW120603   1.344   1.727   3.863 -0.0576  0.1683 -0.2483
 2990SOL    HW220604   1.445   1.831   3.884 -0.0837  1.2595  0.1452
 2991SOL     OW20605   3.065   4.421  14.939  0.3287  0.4212 -0.2600
 2991SOL    HW120606   3.100   4.488  14.998 -0.7795  0.0107  0.8495
 2991SOL    HW220607   3.098   4.346  14.988  1.8306  0.5700 -1.0107
 2992SOL     OW20608   3.827   2.224   5.234  0.5123  0.3390 -0.2940
 2992SOL    HW120609   3.835   2.305   5.183  1.3750  0.2524 -0.2988
 2992SOL    HW220610   3.905   2.174   5.210 -0.9496 -1.4225 -1.3919
 2993SOL     OW20611   2.540   2.649   7.662 -0.1213  0.0577  0.2732
 2993SOL    HW120612   2.571   2.606   7.582 -2.8346 -1.0187 -0.1761
 2993SOL    HW220613   2.597   2.604   7.724 -0.2438  0.9101  1.0024
 2994SOL     OW20614   2.181   3.124  13.648 -0.1067  0.3876  0.2595
 2994SOL    HW120615   2.121   3.191  13.616  0.4839  1.4011  1.2589
 2994SOL    HW220616   2.194   3.147  13.740 -0.1024  0.1033  0.3282
 2995SOL     OW20617   0.569   0.454  11.444 -0.9295  0.2166 -0.2780
 2995SOL    HW120618   0.589   0.367  11.410 -0.1408  1.0036 -1.8562
 2995SOL    HW220619   0.475   0.446  11.431 -0.9498  0.9509 -0.5872
 2996SOL     OW20620   3.713   1.845   6.900 -0.2174  0.1606 -0.1437
 2996SOL    HW120621   3.789   1.832   6.957  0.6550 -3.0542 -2.0114
 2996SOL    HW220622   3.649   1.846   6.971 -1.8337  0.2361 -1.6045
 2997SOL     OW20623   4.283   4.636   2.462  0.0093 -0.3006 -0.8652
 2997SOL    HW120624   4.275   4.659   2.555  0.1606  1.0609 -1.1978
 2997SOL    HW220625   4.193   4.640   2.431 -0.5062 -0.3140  0.6349
 2998SOL     OW20626   4.436   0.419  16.328  0.2373 -0.1318 -0.1654
 2998SOL    HW120627   4.434   0.514  16.336  2.0053 -0.1156  0.2035
 2998SOL    HW220628   4.343   0.400  16.341 -0.1099  1.7851  0.0915
 2999SOL     OW20629   1.525   3.328  10.982  0.2945  0.3314  0.1627
 2999SOL    HW120630   1.562   3.262  10.924  0.0688  0.4437 -0.1120
 2999SOL    HW220631   1.495   3.265  11.049  2.1504  0.4443  1.0870
 3000SOL     OW20632   3.470   1.888  15.288  0.0900 -0.1807 -0.0404
 3000SOL    HW120633   3.496   1.796  15.291  0.9274  0.0596 -0.1029
 3000SOL    HW220634   3.375   1.881  15.278  0.3679 -1.2266 -1.9342
 3001SOL     OW20635   0.629   0.903   0.615 -0.3902  0.1645 -0.1127
 3001SOL    HW120636   0.583   0.900   0.531  2.1950  1.4722 -1.5664
 3001SOL    HW220637   0.717   0.867   0.603 -0.5682  0.1250 -1.2793
 3002SOL     OW20638   2.636   0.968   2.845 -0.1115 -0.3758  0.0665
 3002SOL    HW120639   2.611   0.973   2.753  1.1750 -0.3281 -0.2878
 3002SOL    HW220640   2.571   0.904   2.874  0.7070 -0.9889  0.5763
 3003SOL     OW20641   0.915   2.126   4.416  0.2848  0.0749 -0.3308
 3003SOL    HW120642   0.827   2.118   4.454  0.4495 -0.8020 -0.1234
 3003SOL    HW220643   0.900   2.126   4.322 -3.2130  0.0653  0.2239
 3004SOL     OW20644   3.503   4.664   9.513 -0.0676  0.4333  0.2630
 3004SOL    HW120645   3.572   4.717   9.553 -0.8838  1.4084  0.3755
 3004SOL    HW220646   3.467   4.731   9.455 -0.2944  0.1360  0.0549
 3005SOL     OW20647   3.323   2.194  16.487 -0.1395 -0.5980 -0.2799
 3005SOL    HW120648   3.309   2.288  16.479  0.8165 -0.3805  0.5404
 3005SOL    HW220649   3.398   2.174  16.432  0.3710  0.6861 -0.0371
 3006SOL     OW20650   0.353   4.241   2.349  0.2035 -0.2066 -0.4260
 3006SOL    HW120651   0.309   4.326   2.356 -0.8457 -0.9085  1.2922
 3006SOL    HW220652   0.387   4.254   2.260  0.1739 -0.4506 -0.4708
 3007SOL     OW20653   1.613   1.005   1.225  0.5263 -0.4156  0.0788
 3007SOL    HW120654   1.706   1.018   1.209  0.3142  1.7094  0.5722
 3007SOL    HW220655   1.605   0.913   1.248 -1.2890 -0.6214 -1.2794
 3008SOL     OW20656   4.676   3.794  15.027  0.7216 -0.5165 -0.0269
 3008SOL    HW120657   4.613   3.840  15.082 -0.3314  0.4010 -1.9908
 3008SOL    HW220658   4.669   3.703  15.055 -0.2872 -0.3027  0.4142
 3009SOL     OW20659   3.484   0.353  12.210  0.2512 -0.1612  0.1788
 3009SOL    HW120660   3.532   0.430  12.178 -1.3930  0.9540  0.3795
 3009SOL    HW220661   3.555   0.317  12.263  1.7855  1.5830 -0.6774
 3010SOL     OW20662   3.668   4.157   1.885 -0.3960 -0.2865  0.1265
 3010SOL    HW120663   3.677   4.242   1.929 -0.7523 -0.7731  1.1098
 3010SOL    HW220664   3.735   4.107   1.932 -0.1835  1.6336  1.8409
 3011SOL     OW20665   1.331   2.574   2.503 -0.2220 -0.3809  0.6926
 3011SOL    HW120666   1.354   2.666   2.488  1.9865 -0.8333  1.2101
 3011SOL    HW220667   1.245   2.564   2.462 -0.7816  3.9377  0.8694
 3012SOL     OW20668   0.361   0.930  10.574 -0.4435  0.2754  0.1689
 3012SOL    HW120669   0.320   1.015  10.592 -0.0599  0.5780 -0.4040
 3012SOL    HW220670   0.402   0.945  10.489  0.6051 -0.4413  0.5517
 3013SOL     OW20671   2.570   1.526   9.054 -0.2771  0.4324  0.1982
 3013SOL    HW120672   2.584   1.476   8.974  1.6174 -0.0517  0.8337
 3013SOL    HW220673   2.653   1.572   9.070 -1.2403  1.8114  1.2270
 3014SOL     OW20674   0.314   1.479   5.778 -0.2261  0.3104  0.0407
 3014SOL    HW120675   0.409   1.481   5.790 -0.3972 -1.1593  1.6635
 3014SOL    HW220676   0.301   1.384   5.772 -0.8615  0.3960  0.0714
 3015SOL     OW20677   1.141   2.331   3.250  0.0410 -0.4188  0.5189
 3015SOL    HW120678   1.084   2.395   3.293  0.7708 -0.3103  1.3181
 3015SOL    HW220679   1.178   2.392   3.185  1.2377 -1.2691  0.3952
 3016SOL     OW20680   4.341   2.338   2.556 -0.1946 -0.0191 -0.1467
 3016SOL    HW120681   4.314   2.247   2.565  0.4471  0.0445  2.4199
 3016SOL    HW220682   4.394   2.356   2.634  2.2766 -1.7184 -1.4121
 3017SOL     OW20683   3.094   3.583   7.708  0.6892 -0.0711  0.0409
 3017SOL    HW120684   3.000   3.600   7.719  0.5971 -0.0488 -0.7525
 3017SOL    HW220685   3.132   3.663   7.671  3.5295 -2.2833 -1.7542
 3018SOL     OW20686   4.637   3.169   2.148 -0.2041  0.6600  0.1665
 3018SOL    HW120687   4.638   3.094   2.088  0.8950 -0.0232  1.0519
 3018SOL    HW220688   4.550   3.205   2.128 -0.1601  0.8511  0.3230
 3019SOL     OW20689   1.821   3.587   5.435  0.1224 -1.0668 -0.6753
 3019SOL    HW120690   1.751   3.598   5.370 -0.2041  0.1967 -0.1235
 3019SOL    HW220691   1.769   3.546   5.503 -0.5710  2.7600  1.1396
 3020SOL     OW20692   0.646   1.370   8.032  0.3858 -0.3135  0.1052
 3020SOL    HW120693   0.718   1.371   7.969  0.8597 -1.4581  0.6217
 3020SOL    HW220694   0.616   1.459   8.014  0.9238 -0.2488 -0.4734
 3021SOL     OW20695   4.372   4.541  14.309 -0.5708  0.4065  0.0228
 3021SOL    HW120696   4.308   4.524  14.239  1.3399 -0.5960 -1.4830
 3021SOL    HW220697   4.328   4.616  14.348  0.7771  1.0799  0.2311
 3022SOL     OW20698   1.749   1.387   6.705 -0.0822 -0.1593 -0.0606
 3022SOL    HW120699   1.810   1.316   6.686  0.7118  0.8625 -1.3462
 3022SOL    HW220700   1.663   1.360   6.673  0.9248 -0.4553 -2.4966
 3023SOL     OW20701   0.058   4.603  12.324 -0.4340  0.5470  0.5137
 3023SOL    HW120702   0.123   4.666  12.291 -0.6466 -0.1102 -1.1760
 3023SOL    HW220703   0.115   4.567  12.393  0.0269  3.0763  1.4214
 3024SOL     OW20704   2.862   0.442  13.251 -0.5576  0.2629  0.2982
 3024SOL    HW120705   2.869   0.420  13.344  0.2474 -0.7870 -0.0037
 3024SOL    HW220706   2.954   0.466  13.238 -0.9124  1.4282 -0.0445
 3025SOL     OW20707   1.688   0.712  15.814  0.1504  0.0093  0.3946
 3025SOL    HW120708   1.711   0.755  15.896 -3.9058  1.9351  0.4991
 3025SOL    HW220709   1.766   0.730  15.761 -0.5370 -0.9376 -0.9381
 3026SOL     OW20710   3.887   0.766   4.967  0.0495 -0.0985  0.0739
 3026SOL    HW120711   3.934   0.730   5.042  1.2309 -0.0334 -0.6378
 3026SOL    HW220712   3.847   0.845   5.003 -0.3396 -0.0968 -0.3748
 3027SOL     OW20713   1.554   4.033   2.933 -0.7502 -0.0777 -0.8746
 3027SOL    HW120714   1.649   4.041   2.932 -0.7566 -0.2662 -2.6130
 3027SOL    HW220715   1.510   4.115   2.907  0.7697  0.7485 -0.8381
 3028SOL     OW20716   2.249   2.821  15.090  0.0488 -0.0236  0.1591
 3028SOL    HW120717   2.275   2.772  15.012 -0.3784 -0.9894  0.6134
 3028SOL    HW220718   2.154   2.834  15.084  0.2763  2.0084  1.0325
 3029SOL     OW20719   1.018   1.904   1.562 -0.0169 -0.0736  0.1778
 3029SOL    HW120720   1.021   1.845   1.637  0.8834  0.4530  0.5528
 3029SOL    HW220721   1.095   1.868   1.517 -1.0566 -0.1241 -1.5566
 3030SOL     OW20722   3.322   3.570   5.112  0.3868 -0.0027 -0.5798
 3030SOL    HW120723   3.392   3.506   5.100 -1.3883 -2.1720  0.7266
 3030SOL    HW220724   3.382   3.645   5.115  0.9359 -0.4642 -0.1486
 3031SOL     OW20725   2.785   0.590   4.646 -0.4154 -0.1243  0.1775
 3031SOL    HW120726   2.867   0.545   4.625 -0.0376 -0.3441  2.1732
 3031SOL    HW220727   2.782   0.670   4.593 -0.6384 -1.5819 -2.0331
 3032SOL     OW20728   4.199   2.645   8.987 -0.4615  0.0183 -0.0124
 3032SOL    HW120729   4.140   2.578   8.951  0.1354 -1.2446  1.3488
 3032SOL    HW220730   4.202   2.607   9.075  1.5592 -1.6797 -0.8154
 3033SOL     OW20731   0.141   2.144   0.832  0.0594 -0.4162 -0.7373
 3033SOL    HW120732   0.197   2.072   0.802 -1.3586 -1.0165 -1.9495
 3033SOL    HW220733   0.059   2.095   0.826  0.4862 -1.2433  0.2339
 3034SOL     OW20734   1.190   0.378   6.185  0.1596  0.5315 -0.1181
 3034SOL    HW120735   1.277   0.369   6.145  0.3936  1.3902  0.1834
 3034SOL    HW220736   1.138   0.351   6.110  1.0477 -1.1509 -0.1271
 3035SOL     OW20737   0.825   3.064   5.546  0.0911  0.7801 -0.1700
 3035SOL    HW120738   0.757   3.047   5.612 -1.4414 -0.6108 -2.1048
 3035SOL    HW220739   0.901   3.088   5.599  0.5884  0.9364 -0.9701
 3036SOL     OW20740   2.895   2.134   5.923 -0.7753  0.0575 -0.1695
 3036SOL    HW120741   2.918   2.044   5.947 -2.3301 -0.2044  0.3267
 3036SOL    HW220742   2.945   2.181   5.989 -0.2351 -2.0570  0.9098
 3037SOL     OW20743   0.329   0.909   2.437  0.0215  0.4671  0.1216
 3037SOL    HW120744   0.342   0.883   2.528 -0.4562 -0.8155 -0.1807
 3037SOL    HW220745   0.271   0.841   2.403  1.5816 -2.0918  2.5653
 3038SOL     OW20746   2.151   1.568  13.868 -0.1388 -0.1493  0.1435
 3038SOL    HW120747   2.172   1.603  13.782 -3.5249 -1.2928 -1.1521
 3038SOL    HW220748   2.211   1.497  13.887 -0.9101 -0.2275  2.3139
 3039SOL     OW20749   0.348   0.595  16.176 -0.8081 -0.1803 -0.7348
 3039SOL    HW120750   0.253   0.599  16.187 -0.7429 -1.2705  0.3410
 3039SOL    HW220751   0.367   0.505  16.205 -0.4903  0.0975 -0.0888
 3040SOL     OW20752   2.431   3.315   8.489 -0.2805  0.5201 -0.8339
 3040SOL    HW120753   2.504   3.376   8.498 -0.5112  0.4164  1.7593
 3040SOL    HW220754   2.382   3.323   8.571  0.4021 -0.2749 -0.3477
 3041SOL     OW20755   3.194   1.007   3.591 -0.2961  0.7472 -0.2978
 3041SOL    HW120756   3.155   1.010   3.504 -0.5498  0.1340 -0.1989
 3041SOL    HW220757   3.119   0.981   3.644 -0.1952 -0.1065 -0.5760
 3042SOL     OW20758   1.727   1.569   7.386  0.4870  0.2424 -0.7592
 3042SOL    HW120759   1.740   1.474   7.380 -1.6689 -0.1448  1.0123
 3042SOL    HW220760   1.650   1.573   7.330  0.2600  0.9338 -0.3870
 3043SOL     OW20761   3.418   0.099  11.447 -0.0843 -0.5922 -0.0577
 3043SOL    HW120762   3.436   0.128  11.536 -0.7464 -5.3853  1.6097
 3043SOL    HW220763   3.500   0.137  11.413 -0.9999  0.5069 -1.0526
 3044SOL     OW20764   3.907   4.354  16.578  0.1779 -0.2640 -0.0974
 3044SOL    HW120765   3.868   4.441  16.562  0.2755 -0.3473 -0.7879
 3044SOL    HW220766   3.970   4.349  16.507  0.1492 -0.7019 -0.0909
 3045SOL     OW20767   3.272   1.611   0.214  0.6744  0.8047 -0.0270
 3045SOL    HW120768   3.321   1.601   0.132  0.0022 -0.4580 -0.2682
 3045SOL    HW220769   3.179   1.602   0.192  0.3253 -1.5799  2.3619
 3046SOL     OW20770   2.493   0.206   8.469  0.1984  1.3830 -0.2262
 3046SOL    HW120771   2.514   0.123   8.512 -1.5659  1.6620  1.1702
 3046SOL    HW220772   2.561   0.218   8.402 -0.0679  4.3882  0.0293
 3047SOL     OW20773   0.722   4.389   7.536 -0.4687  0.1053  0.0547
 3047SOL    HW120774   0.666   4.421   7.465 -0.1030 -1.0325 -0.7332
 3047SOL    HW220775   0.736   4.468   7.589  0.3703  0.1610 -0.2514
 3048SOL     OW20776   4.676   4.321   5.351 -0.3361  0.1244 -0.2068
 3048SOL    HW120777   4.711   4.329   5.440 -0.1914  0.3086 -0.2788
 3048SOL    HW220778   4.628   4.403   5.339  1.2282  1.1948  0.7793
 3049SOL     OW20779   1.877   4.043   8.833 -0.4218  0.4921 -0.6307
 3049SOL    HW120780   1.924   4.126   8.830 -1.2455  1.0299  1.5873
 3049SOL    HW220781   1.842   4.036   8.745  1.8273  1.2344 -1.5885
 3050SOL     OW20782   3.641   0.963   8.396  0.2326  0.2366  0.2000
 3050SOL    HW120783   3.648   0.981   8.302 -0.2631  2.9380  0.6785
 3050SOL    HW220784   3.675   0.874   8.393  1.2665  0.6742 -1.2566
 3051SOL     OW20785   1.403   3.536  17.496 -0.5137 -0.1184  0.0717
 3051SOL    HW120786   1.477   3.575  17.544  0.3186  1.3578 -2.4274
 3051SOL    HW220787   1.400   3.446  17.528 -1.9040  0.4994  1.7180
 3052SOL     OW20788   0.809   0.954   1.726  0.2198  0.3239 -0.5084
 3052SOL    HW120789   0.796   0.981   1.816 -2.3542 -0.6187 -0.6006
 3052SOL    HW220790   0.822   1.035   1.676  0.1319 -0.2152 -1.4073
 3053SOL     OW20791   3.921   0.291   6.700  0.7408  0.4599  0.1024
 3053SOL    HW120792   3.947   0.380   6.676  0.1524  0.6042 -0.0052
 3053SOL    HW220793   3.947   0.290   6.792 -0.6873  0.4199  0.4986
 3054SOL     OW20794   1.832   0.542   5.150 -0.0801  0.3760 -0.3525
 3054SOL    HW120795   1.748   0.515   5.188 -0.0351  1.2340  0.3632
 3054SOL    HW220796   1.870   0.461   5.118  0.4133 -0.0565  1.3296
 3055SOL     OW20797   2.474   3.491   5.173 -0.0776 -0.4764  0.4854
 3055SOL    HW120798   2.425   3.557   5.221  1.5692  0.9020  0.2676
 3055SOL    HW220799   2.542   3.457   5.231  1.2334  0.4361 -0.5130
 3056SOL     OW20800   3.606   4.047   5.376 -0.5042 -0.1656  0.1973
 3056SOL    HW120801   3.608   4.008   5.289 -0.0697 -0.9546  0.5681
 3056SOL    HW220802   3.689   4.094   5.378 -0.4260 -0.2779 -0.3973
 3057SOL     OW20803   3.496   1.840   2.000  0.1170 -0.1407 -0.0280
 3057SOL    HW120804   3.536   1.911   1.950 -1.5370  1.6129  1.1298
 3057SOL    HW220805   3.523   1.761   1.953  0.9697  0.1433 -0.0085
 3058SOL     OW20806   2.290   4.669   3.281  0.1842 -0.4046 -0.0563
 3058SOL    HW120807   2.374   4.706   3.305 -1.4399  1.2823  3.0427
 3058SOL    HW220808   2.303   4.576   3.302 -1.2622 -0.6032  0.0057
 3059SOL     OW20809   3.344   1.893   4.180  0.2011  0.1542  0.1424
 3059SOL    HW120810   3.403   1.962   4.210 -2.3538  2.4496 -0.1570
 3059SOL    HW220811   3.260   1.939   4.183 -0.3619 -0.9146  0.9425
 3060SOL     OW20812   1.825   0.546   9.469  0.2948  0.0942  0.1784
 3060SOL    HW120813   1.821   0.565   9.563  2.2832  0.9820  0.0814
 3060SOL    HW220814   1.734   0.559   9.441  0.9964  2.9569 -0.8240
 3061SOL     OW20815   3.185   1.117   4.346  0.2510 -0.2443  0.2080
 3061SOL    HW120816   3.201   1.195   4.292 -2.5885  1.2655  1.5446
 3061SOL    HW220817   3.274   1.084   4.360  0.6115  1.3296  1.7429
 3062SOL     OW20818   2.766   3.518   1.048 -0.1270 -0.7451 -0.1484
 3062SOL    HW120819   2.861   3.500   1.047  0.0575  0.2502 -1.3591
 3062SOL    HW220820   2.768   3.613   1.047 -0.1267 -0.7553 -0.8858
 3063SOL     OW20821   1.990   0.764  12.247 -0.3590  0.1492 -0.0097
 3063SOL    HW120822   2.036   0.680  12.241 -1.3419 -0.3850 -0.1219
 3063SOL    HW220823   2.067   0.820  12.254 -1.8376  2.0668  0.8824
 3064SOL     OW20824   0.614   4.322   2.467  0.7638 -0.0952 -0.2484
 3064SOL    HW120825   0.535   4.277   2.437 -0.1221  1.2411  0.1283
 3064SOL    HW220826   0.584   4.413   2.464 -1.0468 -0.6355  1.6619
 3065SOL     OW20827   2.423   4.449   2.641 -0.0275 -0.4894 -0.1508
 3065SOL    HW120828   2.472   4.450   2.724  2.7951 -1.2077 -1.8330
 3065SOL    HW220829   2.460   4.514   2.582  0.0338 -0.1342  0.2758
 3066SOL     OW20830   0.421   0.724   1.096 -0.0645  0.5357  0.1540
 3066SOL    HW120831   0.432   0.652   1.159 -0.6819  2.2670  2.2174
 3066SOL    HW220832   0.497   0.706   1.040 -1.2191 -1.1170 -0.9053
 3067SOL     OW20833   1.510   0.623  10.198  1.3254 -0.2110 -0.2831
 3067SOL    HW120834   1.451   0.562  10.243 -0.1709  1.0823 -0.4724
 3067SOL    HW220835   1.441   0.664  10.145  1.8352 -1.1099 -1.6432
 3068SOL     OW20836   3.793   0.385   8.506 -0.0526 -0.7192 -0.6447
 3068SOL    HW120837   3.797   0.437   8.586  0.1025  2.5633 -2.7488
 3068SOL    HW220838   3.735   0.315   8.536  1.7585 -1.1336  1.8652
 3069SOL     OW20839   1.054   1.684   2.988  0.9390  0.2827  0.0816
 3069SOL    HW120840   1.089   1.759   2.941 -0.1801  0.7244 -0.0562
 3069SOL    HW220841   1.023   1.643   2.907 -0.1528 -0.4107  0.8394
 3070SOL     OW20842   1.751   2.803   5.093 -0.0857  0.4996  0.2749
 3070SOL    HW120843   1.726   2.740   5.160  0.2429 -0.0758 -0.1443
 3070SOL    HW220844   1.843   2.778   5.080 -0.2434  0.2248 -0.2999
 3071SOL     OW20845   4.546   1.681  14.499 -0.8095  0.3276 -0.1360
 3071SOL    HW120846   4.464   1.722  14.525 -0.4673  0.4686  0.7147
 3071SOL    HW220847   4.502   1.600  14.474 -1.3310  0.9311 -1.1970
 3072SOL     OW20848   1.567   0.922   3.981  0.4564  0.1395  0.1751
 3072SOL    HW120849   1.638   0.977   4.016 -0.5108  0.2183  2.0147
 3072SOL    HW220850   1.593   0.833   4.005  0.1334 -0.1422 -0.5268
 3073SOL     OW20851   3.803   3.276   9.161  0.2922 -0.3191  0.0445
 3073SOL    HW120852   3.854   3.236   9.091  0.5086  1.0084 -0.5580
 3073SOL    HW220853   3.791   3.203   9.221  0.3473  0.4957  1.0431
 3074SOL     OW20854   2.038   2.995  14.552 -0.1905 -0.3971 -0.3817
 3074SOL    HW120855   2.061   3.048  14.628 -0.9523 -0.1130 -0.3506
 3074SOL    HW220856   2.035   3.069  14.492 -1.7665  0.3279  0.5753
 3075SOL     OW20857   1.514   1.252   5.882 -0.0460 -0.3364  0.6868
 3075SOL    HW120858   1.545   1.172   5.840 -0.5887  0.3337 -1.0123
 3075SOL    HW220859   1.589   1.310   5.891  0.0237 -0.7143  2.6243
 3076SOL     OW20860   1.456   1.999   1.625  0.0412  0.2270  0.3123
 3076SOL    HW120861   1.386   2.054   1.589 -0.5472 -0.5258  0.2866
 3076SOL    HW220862   1.485   2.045   1.703 -0.6146  1.3775 -0.1317
 3077SOL     OW20863   1.973   3.489  12.288  0.1962 -0.3174 -0.5673
 3077SOL    HW120864   2.047   3.443  12.249  0.8053  1.4351 -1.4583
 3077SOL    HW220865   1.914   3.418  12.316  0.2490  0.4556  1.5595
 3078SOL     OW20866   3.781   0.378   6.068  0.2629  0.4743  0.3211
 3078SOL    HW120867   3.741   0.465   6.082  0.3046  0.6407 -0.6504
 3078SOL    HW220868   3.873   0.396   6.050  0.1428 -0.7417 -1.4484
 3079SOL     OW20869   0.378   3.380   4.887 -0.1719 -0.0236 -0.6206
 3079SOL    HW120870   0.295   3.347   4.852 -0.9111  1.8112 -0.6082
 3079SOL    HW220871   0.424   3.299   4.907  1.3410  1.0546  0.2079
 3080SOL     OW20872   2.195   1.455   0.099  0.4843  0.8735  0.1261
 3080SOL    HW120873   2.156   1.420   0.179  0.0872  0.0567 -0.4218
 3080SOL    HW220874   2.213   1.548   0.110 -0.1344  1.0060  0.0273
 3081SOL     OW20875   4.702   3.871   7.115 -0.2705 -0.4943 -0.3090
 3081SOL    HW120876   4.743   3.854   7.200 -1.0490  0.4735  0.2548
 3081SOL    HW220877   4.632   3.930   7.142  1.5457 -0.0565  3.3678
 3082SOL     OW20878   0.686   0.294   9.216  0.4338 -0.1081 -0.0688
 3082SOL    HW120879   0.591   0.306   9.226  0.6594  0.3596  1.3956
 3082SOL    HW220880   0.722   0.360   9.275  0.9895 -0.0834 -0.4401
 3083SOL     OW20881   3.416   1.356   9.676 -0.5928 -0.2448 -0.2586
 3083SOL    HW120882   3.468   1.317   9.746  3.6304  2.2875 -2.0046
 3083SOL    HW220883   3.341   1.300   9.655  0.7067 -2.3603  0.7119
 3084SOL     OW20884   1.564   4.334   5.063 -0.6841  0.0578  0.1390
 3084SOL    HW120885   1.471   4.320   5.077 -0.3962 -3.3997 -1.3427
 3084SOL    HW220886   1.592   4.244   5.046 -1.6617 -0.0504 -0.9271
 3085SOL     OW20887   1.924   0.551   1.936 -0.2192  0.1264  0.3503
 3085SOL    HW120888   1.995   0.486   1.940  1.7059  2.1738 -0.8275
 3085SOL    HW220889   1.972   0.606   1.874  1.8592 -3.0564 -0.8587
 3086SOL     OW20890   1.698   0.925   9.663  0.7358  0.3821 -0.2051
 3086SOL    HW120891   1.742   0.996   9.710 -0.8730  0.4140  1.2713
 3086SOL    HW220892   1.660   0.971   9.588  0.6128  1.4325  0.4960
 3087SOL     OW20893   0.759   4.390  12.768 -0.2683 -0.4279 -0.0340
 3087SOL    HW120894   0.723   4.459  12.824 -0.8694  1.0169 -2.1600
 3087SOL    HW220895   0.699   4.317  12.781 -0.8483  0.3340  1.6309
 3088SOL     OW20896   1.263   1.656  10.002  0.2112 -0.6038  0.5005
 3088SOL    HW120897   1.204   1.644   9.928 -0.7877  1.5698  0.9426
 3088SOL    HW220898   1.299   1.743   9.986  3.1730 -1.8047  0.5106
 3089SOL     OW20899   2.463   1.992  15.639  0.2192  0.6244 -0.0899
 3089SOL    HW120900   2.557   1.980  15.638  0.0274 -0.9572  0.8761
 3089SOL    HW220901   2.430   1.917  15.689 -0.9743  3.0352  2.7125
 3090SOL     OW20902   1.393   2.803   8.355 -0.0266 -0.1699  0.1040
 3090SOL    HW120903   1.373   2.710   8.344 -0.7805 -0.0208  0.2879
 3090SOL    HW220904   1.424   2.800   8.446 -0.1050  1.4029  0.1681
 3091SOL     OW20905   2.456   0.801  16.618 -0.0096  0.3771 -0.0185
 3091SOL    HW120906   2.434   0.883  16.664 -2.6028 -0.0270 -0.5346
 3091SOL    HW220907   2.518   0.755  16.675  1.4399  0.3672 -1.5824
 3092SOL     OW20908   4.712   2.700   3.658  0.0316  0.6229 -0.2215
 3092SOL    HW120909   0.035   2.686   3.590 -0.8958 -0.0691 -0.9892
 3092SOL    HW220910   4.725   2.624   3.714 -0.5810 -0.0025 -0.9327
 3093SOL     OW20911   0.251   4.028  13.048  0.0221 -0.0405  0.2472
 3093SOL    HW120912   0.259   3.965  13.120  1.9966  0.9360  0.8702
 3093SOL    HW220913   0.310   4.095  13.082  0.6106  0.1741 -1.1730
 3094SOL     OW20914   3.800   3.913   4.883 -0.8808 -0.4841 -0.6516
 3094SOL    HW120915   3.720   3.898   4.833 -0.7973 -1.9328 -0.3536
 3094SOL    HW220916   3.820   3.998   4.843  1.5380 -1.5783 -1.7991
 3095SOL     OW20917   3.978   0.910  17.308  0.5108  0.6947 -0.5253
 3095SOL    HW120918   3.942   0.907  17.220  0.0939  0.3698 -0.3466
 3095SOL    HW220919   3.949   0.827  17.347  0.0010  0.5854 -1.1513
 3096SOL     OW20920   2.815   0.677  17.412  0.4752 -0.2753 -0.1412
 3096SOL    HW120921   2.875   0.605  17.396  0.6079 -0.2425  0.1947
 3096SOL    HW220922   2.791   0.661  17.503  4.2703 -1.4477  0.6456
 3097SOL     OW20923   3.305   0.604   7.701  0.6975  0.1239 -0.6028
 3097SOL    HW120924   3.284   0.679   7.757  1.8064 -0.9258  1.2141
 3097SOL    HW220925   3.301   0.532   7.763 -1.2737  1.3673  0.7046
 3098SOL     OW20926   1.228   1.760  10.403  1.1562  0.2197 -0.8884
 3098SOL    HW120927   1.163   1.737  10.336 -0.4139  0.3194  0.6286
 3098SOL    HW220928   1.255   1.849  10.384  0.3900  1.1121  2.2274
 3099SOL     OW20929   3.271   4.158  11.272  0.2543 -0.0445  0.1919
 3099SOL    HW120930   3.307   4.236  11.229 -1.0645  1.2489  1.4193
 3099SOL    HW220931   3.307   4.179  11.358 -0.8452 -0.6784  0.7908
 3100SOL     OW20932   1.640   1.549  10.117 -0.3227 -0.1767  0.2890
 3100SOL    HW120933   1.573   1.490  10.084 -0.9111  1.6885 -1.8660
 3100SOL    HW220934   1.628   1.633  10.073 -1.6400 -0.6325 -0.2295
 3101SOL     OW20935   0.983   2.355   2.442 -0.4167  0.1174 -0.4707
 3101SOL    HW120936   0.889   2.338   2.442  0.1342 -2.9886  0.6906
 3101SOL    HW220937   0.992   2.416   2.515  1.0586  2.9462 -3.0045
 3102SOL     OW20938   2.282   1.684   1.303 -0.1960 -0.1375  0.4310
 3102SOL    HW120939   2.263   1.724   1.218  2.4101  0.8553  0.3136
 3102SOL    HW220940   2.377   1.700   1.302  0.0168 -1.5158 -0.3505
 3103SOL     OW20941   0.975   2.910   7.282 -0.1541  0.8113  0.1751
 3103SOL    HW120942   1.052   2.892   7.228 -0.8284 -1.3890 -0.0473
 3103SOL    HW220943   0.971   2.847   7.353 -0.0330  0.6583  0.0456
 3104SOL     OW20944   2.348   0.974   3.904 -0.2405  0.2985  0.7051
 3104SOL    HW120945   2.270   0.983   3.849 -0.4059 -1.3174  0.6738
 3104SOL    HW220946   2.413   1.031   3.862  0.5059 -1.2309 -0.2194
 3105SOL     OW20947   2.186   3.515  12.612 -0.0197  0.0496 -1.1906
 3105SOL    HW120948   2.183   3.434  12.563 -0.2506 -0.7636  0.1649
 3105SOL    HW220949   2.092   3.517  12.631  0.4438 -1.3569  1.3077
 3106SOL     OW20950   1.090   1.666   0.831 -0.0945  0.0582  0.1252
 3106SOL    HW120951   1.031   1.591   0.838  1.9235 -1.3484  2.2350
 3106SOL    HW220952   1.119   1.666   0.922  0.5611 -1.0322 -0.0871
 3107SOL     OW20953   4.601   4.027   2.745 -0.5918  0.3931  0.0649
 3107SOL    HW120954   4.571   4.100   2.690  0.7630  0.4406 -0.5965
 3107SOL    HW220955   4.694   4.034   2.724 -0.7186 -0.6027 -0.8600
 3108SOL     OW20956   1.830   0.084   1.972 -0.2842 -0.0635  0.6264
 3108SOL    HW120957   1.862   0.096   2.061  0.1150 -1.1786  0.6263
 3108SOL    HW220958   1.914   0.074   1.927 -0.6703 -1.2529  0.1768
 3109SOL     OW20959   2.893   1.789   5.729 -0.3334 -0.1036  0.1696
 3109SOL    HW120960   2.896   1.750   5.817 -3.4506 -0.9951 -0.1000
 3109SOL    HW220961   2.981   1.767   5.700  0.5089  2.2452  1.0201
 3110SOL     OW20962   1.477   0.845   6.979  0.5025  0.1707  0.4361
 3110SOL    HW120963   1.502   0.796   6.901  1.1274 -0.8812  1.2897
 3110SOL    HW220964   1.440   0.777   7.036  1.1682 -0.2504  0.3588
 3111SOL     OW20965   4.405   1.813   9.559 -0.4591  0.3105 -0.4494
 3111SOL    HW120966   4.413   1.904   9.590  0.6964 -0.0708  0.3641
 3111SOL    HW220967   4.319   1.823   9.518  0.2051  0.8858 -1.7085
 3112SOL     OW20968   2.668   3.001  12.509 -0.6260 -0.2471 -0.6192
 3112SOL    HW120969   2.737   2.985  12.445 -0.0022 -2.0979  0.5177
 3112SOL    HW220970   2.722   3.017  12.587 -3.0476 -1.0034  1.2242
 3113SOL     OW20971   2.224   2.773   5.907 -0.3857  0.1343  0.0031
 3113SOL    HW120972   2.258   2.843   5.962  0.1749 -1.7516  2.0761
 3113SOL    HW220973   2.149   2.743   5.958  0.3422 -2.5356 -0.4532
 3114SOL     OW20974   1.095   1.378   8.310 -0.3285 -0.0093  0.2760
 3114SOL    HW120975   1.176   1.337   8.343 -0.6248 -2.5480 -2.2145
 3114SOL    HW220976   1.101   1.339   8.223 -1.5504  1.1199 -0.3097
 3115SOL     OW20977   3.865   1.747   6.094 -0.0673  0.2525 -0.0804
 3115SOL    HW120978   3.778   1.711   6.076  0.1381 -0.4500  0.2904
 3115SOL    HW220979   3.898   1.680   6.154 -1.2491 -1.2279 -1.0850
 3116SOL     OW20980   0.713   0.779  15.750  0.0242  0.1096 -0.6579
 3116SOL    HW120981   0.786   0.720  15.765  1.5830  1.9511 -0.9360
 3116SOL    HW220982   0.661   0.772  15.830 -0.8635 -1.3950 -1.3661
 3117SOL     OW20983   3.871   1.074  11.563 -0.5810 -0.1365  0.4383
 3117SOL    HW120984   3.937   1.143  11.548 -1.0180  0.4864  1.3900
 3117SOL    HW220985   3.918   1.005  11.516 -0.1820  0.0384  0.5742
 3118SOL     OW20986   4.392   4.734   4.519 -0.0941  0.7197  0.3778
 3118SOL    HW120987   4.482   0.021   4.511 -0.3593  0.6649 -2.8317
 3118SOL    HW220988   4.359   0.074   4.487 -0.3141 -0.6932 -3.0928
 3119SOL     OW20989   2.461   0.748   1.682 -0.2378  0.0360 -0.1397
 3119SOL    HW120990   2.391   0.771   1.744 -0.1393 -1.1942  0.4249
 3119SOL    HW220991   2.462   0.827   1.627 -0.6385 -0.2878 -0.6181
 3120SOL     OW20992   4.340   0.293   4.550 -0.4837  0.4029 -0.5764
 3120SOL    HW120993   4.402   0.317   4.619  0.8897 -3.2674 -0.5750
 3120SOL    HW220994   4.261   0.327   4.593  0.7998  1.2536  1.1035
 3121SOL     OW20995   2.829   0.502   0.347  0.1669  0.4293  0.1977
 3121SOL    HW120996   2.912   0.536   0.380  0.5084  0.0035 -0.2060
 3121SOL    HW220997   2.760   0.537   0.403  0.0368 -0.4550  0.5929
 3122SOL     OW20998   3.005   4.385   4.430 -0.4888  0.8727 -0.4125
 3122SOL    HW120999   3.063   4.357   4.360 -0.6926 -1.7307  0.4678
 3122SOL    HW221000   3.032   4.325   4.499 -0.4650  1.5981  0.2110
 3123SOL     OW21001   0.492   4.066   1.383  0.5306 -0.5164 -0.6456
 3123SOL    HW121002   0.411   4.030   1.347  1.0848 -0.0457 -2.3832
 3123SOL    HW221003   0.523   3.981   1.415  0.9485  1.1305  3.2335
 3124SOL     OW21004   4.216   3.753  12.385 -0.3182 -0.3073  0.2174
 3124SOL    HW121005   4.175   3.714  12.462 -0.9044  0.2342  0.1790
 3124SOL    HW221006   4.275   3.820  12.421 -0.3049  0.7034 -1.7015
 3125SOL     OW21007   4.182   0.862   9.324  0.5211 -0.2225 -0.4378
 3125SOL    HW121008   4.100   0.857   9.372  0.3778 -1.5310 -0.8317
 3125SOL    HW221009   4.221   0.947   9.346  2.9737 -1.7535  1.0783
 3126SOL     OW21010   4.247   1.694   3.645 -0.1613  0.1562 -0.5439
 3126SOL    HW121011   4.294   1.774   3.670  0.6849  0.2130 -2.3275
 3126SOL    HW221012   4.317   1.666   3.585  0.5389  1.5199 -0.3639
 3127SOL     OW21013   3.898   1.066  12.299  0.6631 -0.2221 -0.2012
 3127SOL    HW121014   3.883   1.133  12.366 -0.2509  0.3645 -0.9806
 3127SOL    HW221015   3.809   1.035  12.281  0.2844  0.2207  0.8975
 3128SOL     OW21016   4.476   0.623  11.158  0.0775  0.2542  0.1625
 3128SOL    HW121017   4.561   0.629  11.114 -0.4538 -0.2340 -0.9304
 3128SOL    HW221018   4.504   0.626  11.249 -0.9500 -3.2574  0.5792
 3129SOL     OW21019   0.016   2.143   1.787 -0.3790 -0.2832  0.0256
 3129SOL    HW121020   0.010   2.056   1.825 -4.0370  0.8669  2.0850
 3129SOL    HW221021   0.012   2.199   1.865  4.0553 -0.2311  0.2077
 3130SOL     OW21022   1.391   0.076   1.042 -0.2018  0.2709  0.0177
 3130SOL    HW121023   1.431   4.733   1.041  1.7841  1.1943 -0.2843
 3130SOL    HW221024   1.315   0.067   1.099 -0.5263 -1.2222 -0.6435
 3131SOL     OW21025   4.664   1.581  15.525 -0.0521 -0.3748  0.0377
 3131SOL    HW121026   4.607   1.656  15.512  0.3205 -0.2709 -1.0338
 3131SOL    HW221027   4.632   1.512  15.466  1.0400 -0.8930  0.0492
 3132SOL     OW21028   1.278   2.605   2.779 -0.1835  0.1990  0.7416
 3132SOL    HW121029   1.314   2.580   2.694 -1.0529  1.6131 -0.0388
 3132SOL    HW221030   1.189   2.631   2.755 -0.5999 -1.2623  0.6849
 3133SOL     OW21031   0.734   2.993   6.011 -0.3543 -0.1972  0.1381
 3133SOL    HW121032   0.796   2.938   5.963  0.6110 -0.8894  2.1804
 3133SOL    HW221033   0.791   3.068   6.029  2.1810 -1.8872 -0.8771
 3134SOL     OW21034   2.116   3.567   6.960  0.1511  0.0207 -0.5689
 3134SOL    HW121035   2.121   3.602   6.871 -0.3789 -0.8364 -0.9294
 3134SOL    HW221036   2.076   3.645   6.999 -0.9756 -0.5542 -0.5983
 3135SOL     OW21037   2.953   0.056   6.126 -0.1696  0.2617 -0.1341
 3135SOL    HW121038   2.975   0.001   6.051  0.9076 -0.9386  1.0553
 3135SOL    HW221039   3.043   0.079   6.148 -0.7741  1.8583  0.6358
 3136SOL     OW21040   2.339   4.116   4.010  0.0223  0.1385 -0.4975
 3136SOL    HW121041   2.409   4.053   4.029  0.8005  0.7902 -1.1825
 3136SOL    HW221042   2.274   4.067   3.960  0.2755  1.2296 -1.8899
 3137SOL     OW21043   3.091   0.786  17.140  0.1118 -0.6323  0.8459
 3137SOL    HW121044   3.029   0.845  17.183 -0.3032 -0.4264 -0.0400
 3137SOL    HW221045   3.029   0.716  17.123  0.0968  0.1290 -2.2684
 3138SOL     OW21046   0.046   0.419   1.234 -0.2478  0.5755  0.0259
 3138SOL    HW121047   4.702   0.446   1.258 -0.0133  0.7143  0.7127
 3138SOL    HW221048   0.091   0.484   1.286 -2.1669 -0.4335  2.9219
 3139SOL     OW21049   3.304   2.495   3.718 -0.0550 -0.1508  0.4172
 3139SOL    HW121050   3.239   2.564   3.705 -1.7754 -1.3018  2.9171
 3139SOL    HW221051   3.383   2.548   3.727  0.8523 -1.5778  0.9603
 3140SOL     OW21052   4.290   0.649   2.085 -0.7348  0.1818  0.7007
 3140SOL    HW121053   4.207   0.603   2.084 -0.7407  0.1998  0.3858
 3140SOL    HW221054   4.289   0.652   2.181  2.6973  0.0061  0.7580
 3141SOL     OW21055   1.485   1.998   9.510 -0.0975  0.3043  0.3016
 3141SOL    HW121056   1.532   1.968   9.432 -1.4730  1.9045 -1.1434
 3141SOL    HW221057   1.400   1.960   9.488  0.6990 -2.2596  1.5892
 3142SOL     OW21058   4.096   4.084   7.719 -0.0351 -0.3348 -0.0084
 3142SOL    HW121059   4.138   4.089   7.634  0.6686 -2.0304  0.2425
 3142SOL    HW221060   4.081   3.990   7.729  1.3209 -0.4376  1.1536
 3143SOL     OW21061   2.731   2.722   5.004  0.6004 -0.1188  0.2972
 3143SOL    HW121062   2.691   2.637   5.021  0.5277  0.2981  2.2905
 3143SOL    HW221063   2.662   2.777   5.042  0.8246 -0.7545  1.6362
 3144SOL     OW21064   1.459   4.608   5.162  0.4227  0.1598 -0.2235
 3144SOL    HW121065   1.466   4.517   5.192  1.8645  0.9993  2.0305
 3144SOL    HW221066   1.535   4.613   5.104  0.8389  1.3696  0.4164
 3145SOL     OW21067   1.973   4.680   3.829 -0.4720 -0.2067 -0.2202
 3145SOL    HW121068   2.018   4.678   3.744 -1.1790 -1.6039 -0.5571
 3145SOL    HW221069   1.894   4.634   3.804 -0.1924 -1.1509  0.6705
 3146SOL     OW21070   2.554   0.214   3.889 -0.6796 -0.0352  0.5027
 3146SOL    HW121071   2.519   0.186   3.974  1.5052  2.4843  2.2232
 3146SOL    HW221072   2.550   0.133   3.837  0.6867 -0.0254  0.3923
 3147SOL     OW21073   1.333   1.836   1.950  0.2694 -0.2938 -0.2361
 3147SOL    HW121074   1.284   1.903   1.997 -0.8673 -0.0762 -1.7255
 3147SOL    HW221075   1.343   1.762   2.011 -1.6277  0.9394  1.5336
 3148SOL     OW21076   3.182   2.173   7.945 -0.2953 -0.1538  0.0684
 3148SOL    HW121077   3.245   2.204   8.010 -0.4428  0.7888 -0.2442
 3148SOL    HW221078   3.102   2.182   7.997 -1.4314  0.3347 -1.7540
 3149SOL     OW21079   2.727   0.248   8.350  0.4148 -0.2019  0.3087
 3149SOL    HW121080   2.800   0.216   8.296 -0.4549 -0.2655 -0.8452
 3149SOL    HW221081   2.751   0.341   8.351  2.4017 -0.7620  3.4357
 3150SOL     OW21082   4.101   3.235   0.421 -0.1419 -0.6572 -0.0039
 3150SOL    HW121083   4.153   3.292   0.477  0.3596 -1.0377 -0.0769
 3150SOL    HW221084   4.124   3.151   0.461  1.8154 -0.6175 -1.0891
 3151SOL     OW21085   3.067   0.195   6.830  0.0147 -0.0675  0.2954
 3151SOL    HW121086   3.114   0.211   6.749 -1.7356  1.2039 -0.4516
 3151SOL    HW221087   2.988   0.159   6.789  0.1199  0.7657 -0.6194
 3152SOL     OW21088   2.571   1.360   9.296 -0.3120 -0.4550  0.3214
 3152SOL    HW121089   2.531   1.395   9.376  2.0050  1.5955  0.5904
 3152SOL    HW221090   2.570   1.441   9.245  1.3521 -1.5465 -1.4487
 3153SOL     OW21091   4.304   4.598   8.913 -0.1165 -0.0804  0.7298
 3153SOL    HW121092   4.293   4.520   8.858  0.3860  1.3973 -1.4466
 3153SOL    HW221093   4.308   4.567   9.004 -0.3065 -0.2640  0.6771
 3154SOL     OW21094   4.419   3.960   4.363  0.6995  0.2321  0.1154
 3154SOL    HW121095   4.455   3.956   4.452 -0.5151 -3.9225  0.4168
 3154SOL    HW221096   4.347   3.898   4.375  2.6926 -1.7071  1.9253
 3155SOL     OW21097   0.387   2.730  14.744 -0.2902  0.1392  0.0279
 3155SOL    HW121098   0.313   2.764  14.795  1.1974  2.0552  0.8803
 3155SOL    HW221099   0.448   2.708  14.814 -1.1142 -1.7267  0.1772
 3156SOL     OW21100   1.223   1.611   5.727  0.3040 -0.2070  0.1368
 3156SOL    HW121101   1.291   1.556   5.689  1.1606  1.8802 -1.3765
 3156SOL    HW221102   1.253   1.625   5.817 -0.2858 -0.2757  0.3493
 3157SOL     OW21103   4.298   0.162   9.981  0.0992 -0.0921 -0.4796
 3157SOL    HW121104   4.343   0.131   9.902  0.9855  0.5938 -0.2347
 3157SOL    HW221105   4.340   0.245  10.001 -1.4023  0.1048  1.9073
 3158SOL     OW21106   1.010   0.100  15.997 -0.4937 -0.0624  0.2445
 3158SOL    HW121107   1.023   0.027  15.936 -1.4606 -1.2000  1.3972
 3158SOL    HW221108   1.049   0.172  15.947 -0.8855 -1.0437 -1.4810
 3159SOL     OW21109   4.508   2.182   7.832 -0.0362 -0.3931  0.1240
 3159SOL    HW121110   4.485   2.214   7.919  2.6799 -1.5845  1.2924
 3159SOL    HW221111   4.446   2.234   7.780 -0.0263 -0.8631 -0.3602
 3160SOL     OW21112   2.803   4.560   6.891 -0.0123 -0.4927  0.3555
 3160SOL    HW121113   2.736   4.493   6.881  0.5777 -1.2037  1.1245
 3160SOL    HW221114   2.876   4.503   6.917  0.5652 -0.2272 -0.6871
 3161SOL     OW21115   0.429   0.281  17.090  0.3369 -0.5549  0.0739
 3161SOL    HW121116   0.434   0.339  17.014 -1.0015 -0.9825 -0.3473
 3161SOL    HW221117   0.346   0.319  17.118 -0.1522 -0.1122 -1.9752
 3162SOL     OW21118   2.004   4.441   6.723 -0.8922  0.0034 -0.7724
 3162SOL    HW121119   2.092   4.428   6.688 -1.2410 -0.6790 -1.3985
 3162SOL    HW221120   1.971   4.352   6.735  1.0817 -0.4976  0.8325
 3163SOL     OW21121   2.352   4.249  14.837  0.0880 -0.0269 -0.0229
 3163SOL    HW121122   2.396   4.333  14.823 -3.0384  1.6400  0.2663
 3163SOL    HW221123   2.419   4.192  14.800 -0.3620 -1.1743  0.9094
 3164SOL     OW21124   2.600   0.834  15.797 -0.0924  0.2072  0.3688
 3164SOL    HW121125   2.638   0.766  15.742 -0.6226 -1.2931  1.8653
 3164SOL    HW221126   2.540   0.786  15.854 -0.2950 -0.3169 -0.2916
 3165SOL     OW21127   0.136   0.546   3.512 -0.0591 -0.7067 -0.3484
 3165SOL    HW121128   0.100   0.467   3.472 -0.6718 -0.8474  0.4743
 3165SOL    HW221129   0.164   0.585   3.429 -0.4678 -1.7236 -0.9555
 3166SOL     OW21130   0.785   0.079  16.784  0.6395  0.2538 -0.4103
 3166SOL    HW121131   0.847   0.017  16.821  1.9249  1.8250  0.0281
 3166SOL    HW221132   0.714   0.096  16.847  0.6770  0.4705 -0.4262
 3167SOL     OW21133   4.339   1.631  17.215 -0.6132  0.9537 -0.0528
 3167SOL    HW121134   4.324   1.706  17.158 -0.6009  0.8269 -0.2250
 3167SOL    HW221135   4.435   1.623  17.207 -0.7828  1.1874 -2.3258
 3168SOL     OW21136   4.395   1.500   8.169 -0.0959  0.3745 -0.0012
 3168SOL    HW121137   4.360   1.580   8.129  0.3179  0.6707  0.2291
 3168SOL    HW221138   4.335   1.483   8.242  1.1649 -1.5630  0.5629
 3169SOL     OW21139   3.911   4.228   3.107 -0.1625 -0.2518  0.1202
 3169SOL    HW121140   3.842   4.293   3.119 -1.1562 -1.2385 -0.2061
 3169SOL    HW221141   3.920   4.194   3.196 -0.4107 -0.6171  0.0064
 3170SOL     OW21142   0.326   1.563   4.161  0.4237 -0.0110 -0.2952
 3170SOL    HW121143   0.394   1.496   4.154  0.2270 -0.1269 -1.1372
 3170SOL    HW221144   0.289   1.546   4.074 -1.3601 -0.0834  0.4731
 3171SOL     OW21145   0.507   4.004   2.913  0.2357 -0.1145 -0.3014
 3171SOL    HW121146   0.477   3.947   2.842  0.5631  0.1831 -0.6787
 3171SOL    HW221147   0.477   3.967   2.996  0.7918 -0.2015 -0.1341
 3172SOL     OW21148   3.458   2.083   7.352  0.3470 -0.4201 -0.4937
 3172SOL    HW121149   3.547   2.088   7.317  1.0600  2.1925  1.6947
 3172SOL    HW221150   3.469   2.046   7.440 -1.9146 -0.7267 -0.3458
 3173SOL     OW21151   1.794   1.812   6.926  0.2172 -0.4468 -0.3269
 3173SOL    HW121152   1.886   1.793   6.947 -0.1601  0.2134  1.9226
 3173SOL    HW221153   1.773   1.859   7.007 -1.4961 -0.0684 -1.0050
 3174SOL     OW21154   0.835   4.222   5.087 -0.4452  0.1422 -0.9928
 3174SOL    HW121155   0.811   4.244   4.997  2.2387 -0.1832 -1.8033
 3174SOL    HW221156   0.753   4.246   5.130  1.8372  0.7485  3.0013
 3175SOL     OW21157   2.389   2.623  16.584  0.0496 -0.2454  0.4761
 3175SOL    HW121158   2.311   2.674  16.563  0.7986  0.7602  0.1605
 3175SOL    HW221159   2.462   2.683  16.597  1.4681 -2.1766  1.3985
 3176SOL     OW21160   3.671   1.906   5.846 -0.1784  0.5903  0.1952
 3176SOL    HW121161   3.594   1.879   5.896 -0.5334  1.5612  0.1721
 3176SOL    HW221162   3.734   1.928   5.915  1.4942 -1.0562 -0.8320
 3177SOL     OW21163   1.511   2.945  10.653  0.3000 -0.2990  0.0230
 3177SOL    HW121164   1.572   2.937  10.580 -1.3335  2.3546 -1.6192
 3177SOL    HW221165   1.519   2.855  10.686  0.7220 -0.1581  0.3150
 3178SOL     OW21166   0.431   4.509   8.114 -0.3131 -0.5532 -0.1722
 3178SOL    HW121167   0.505   4.559   8.081 -0.5345 -1.1758 -1.6500
 3178SOL    HW221168   0.461   4.441   8.174 -0.3342  0.7678  1.3119
 3179SOL     OW21169   1.752   2.353   7.894 -0.9937 -0.5963 -0.1596
 3179SOL    HW121170   1.807   2.296   7.841  1.2042  1.9436 -0.6474
 3179SOL    HW221171   1.661   2.327   7.880 -0.6978 -1.3454 -0.6430
 3180SOL     OW21172   2.507   1.678   4.343 -0.2136 -0.3974 -0.5139
 3180SOL    HW121173   2.498   1.608   4.278 -0.9695 -1.8382  1.1768
 3180SOL    HW221174   2.530   1.626   4.420  0.5323  0.6430 -0.0331
 3181SOL     OW21175   1.429   0.305   6.072  0.0469 -0.0122 -0.2058
 3181SOL    HW121176   1.459   0.216   6.054 -2.2434 -0.7263 -0.5361
 3181SOL    HW221177   1.505   0.345   6.112 -0.1481 -0.7528  0.9330
 3182SOL     OW21178   0.995   3.603   4.313  0.1375 -0.0927  0.5337
 3182SOL    HW121179   0.963   3.566   4.394 -1.2764  0.8109  0.3800
 3182SOL    HW221180   1.088   3.583   4.324  0.4110 -0.7089 -2.8629
 3183SOL     OW21181   1.809   1.502   7.630 -0.0616  0.4536  0.3389
 3183SOL    HW121182   1.773   1.525   7.544  1.1609  2.2236  0.3049
 3183SOL    HW221183   1.813   1.585   7.677 -0.8726  0.2162  0.8141
 3184SOL     OW21184   4.461   2.073   9.673 -0.6251  0.2042 -0.2739
 3184SOL    HW121185   4.420   2.127   9.605  1.5994  1.4202 -0.6558
 3184SOL    HW221186   4.393   2.059   9.738  0.2986 -1.2517  0.3587
 3185SOL     OW21187   0.450   0.909   4.227  0.4406 -0.2180  0.7351
 3185SOL    HW121188   0.398   0.902   4.307 -2.6071  0.8289 -1.1062
 3185SOL    HW221189   0.529   0.867   4.258  1.1349  0.3404 -0.2768
 3186SOL     OW21190   0.647   0.503   1.584 -0.2054  0.1089 -0.4115
 3186SOL    HW121191   0.664   0.560   1.659  0.9877 -0.3464 -0.3387
 3186SOL    HW221192   0.560   0.471   1.607 -0.4150  0.9661 -0.0167
 3187SOL     OW21193   3.714   0.104  17.134  0.1562 -0.3263 -0.0823
 3187SOL    HW121194   3.657   0.047  17.082 -0.0107 -0.1429 -0.1023
 3187SOL    HW221195   3.703   0.190  17.094 -1.5032 -0.2398  0.5487
 3188SOL     OW21196   4.142   2.687  13.808  0.0398 -0.5661  0.2570
 3188SOL    HW121197   4.185   2.659  13.727 -1.7383 -0.2495 -0.8066
 3188SOL    HW221198   4.071   2.626  13.828  0.3351 -1.2923 -0.9135
 3189SOL     OW21199   4.654   2.697   8.134  0.0416  0.2403  0.5021
 3189SOL    HW121200   4.632   2.675   8.044 -0.2981  0.4845  0.5238
 3189SOL    HW221201   4.638   2.791   8.127  2.6354  0.6711  0.4587
 3190SOL     OW21202   4.433   0.547   6.357  0.1509 -0.1606  0.0779
 3190SOL    HW121203   4.402   0.472   6.407 -4.4673  1.9755  0.3973
 3190SOL    HW221204   4.513   0.570   6.404 -1.3768 -0.0772  2.6166
 3191SOL     OW21205   0.850   2.224   4.115  0.3492  0.1541  0.7875
 3191SOL    HW121206   0.861   2.276   4.195  1.3089  1.1214  0.0245
 3191SOL    HW221207   0.927   2.254   4.066  0.3618 -0.0675  0.6724
 3192SOL     OW21208   1.690   0.869   2.625 -0.1496 -0.2674 -0.2700
 3192SOL    HW121209   1.670   0.919   2.545  2.8545 -1.2818 -1.6545
 3192SOL    HW221210   1.763   0.917   2.665  0.3095 -2.1806  1.1383
 3193SOL     OW21211   0.939   0.968   3.212 -0.2872 -0.1721 -0.9801
 3193SOL    HW121212   0.857   0.969   3.262  1.9857  2.3220  2.6181
 3193SOL    HW221213   0.952   0.873   3.217 -3.8193 -0.6597 -1.2271
 3194SOL     OW21214   1.492   3.181   3.961  0.3914  0.6756 -0.4383
 3194SOL    HW121215   1.426   3.169   4.030  1.9169  0.8001  1.0508
 3194SOL    HW221216   1.540   3.246   4.013  1.5857 -1.2026  0.8099
 3195SOL     OW21217   2.259   2.378   4.211 -0.0498 -0.3857 -0.0153
 3195SOL    HW121218   2.217   2.402   4.129  1.3412 -1.5251 -1.0622
 3195SOL    HW221219   2.210   2.426   4.277  1.5659  1.7622 -0.3749
 3196SOL     OW21220   3.902   2.427   7.215  0.0968 -0.2651  0.1768
 3196SOL    HW121221   3.974   2.487   7.233 -0.7626  0.4254  1.2912
 3196SOL    HW221222   3.951   2.344   7.221  1.0261  0.2071 -0.9682
 3197SOL     OW21223   1.884   1.114   1.258 -0.2865 -0.9356 -0.5124
 3197SOL    HW121224   1.976   1.136   1.272 -0.2926 -0.3022 -1.5177
 3197SOL    HW221225   1.838   1.194   1.285  1.8133  1.1491 -3.1643
 3198SOL     OW21226   1.206   4.628   7.535  0.4154  0.1197  0.1631
 3198SOL    HW121227   1.119   4.599   7.506  0.7347  1.2899 -2.0076
 3198SOL    HW221228   1.230   4.550   7.585 -2.7435  0.1109  1.6831
 3199SOL     OW21229   1.094   0.808   0.933 -0.3070 -0.0445  0.3940
 3199SOL    HW121230   1.057   0.802   1.021  0.2857 -0.4359  0.6169
 3199SOL    HW221231   1.182   0.840   0.953  0.4901 -1.9535 -0.0314
 3200SOL     OW21232   0.619   2.522  12.526  0.1516  0.3785 -0.6733
 3200SOL    HW121233   0.540   2.572  12.545  0.2151  0.4901 -0.7006
 3200SOL    HW221234   0.575   2.444  12.491 -2.4980  1.6948 -0.3052
 3201SOL     OW21235   3.586   1.075   4.728  0.5216 -0.0600  0.3126
 3201SOL    HW121236   3.572   1.089   4.634 -2.7497 -2.0654  0.4747
 3201SOL    HW221237   3.572   0.981   4.738  1.1357 -0.0522  1.2114
 3202SOL     OW21238   1.697   3.837   7.523 -0.2118  0.1875  0.3056
 3202SOL    HW121239   1.641   3.871   7.453 -0.9293  0.4386  0.9974
 3202SOL    HW221240   1.714   3.920   7.567 -0.1235  0.3569 -0.0542
 3203SOL     OW21241   4.451   1.525   5.990 -0.2026  0.1581 -0.2861
 3203SOL    HW121242   4.519   1.551   5.928 -1.2490  0.3415 -1.3496
 3203SOL    HW221243   4.504   1.513   6.069  2.1567  0.4226 -1.8148
 3204SOL     OW21244   4.520   1.469   2.316 -0.3333 -0.3480 -0.3156
 3204SOL    HW121245   4.532   1.534   2.386  0.4934 -0.5045 -0.3085
 3204SOL    HW221246   4.453   1.412   2.355  0.6605 -0.9754  0.4676
 3205SOL     OW21247   3.475   4.018   6.505 -0.1196  0.3468 -0.2786
 3205SOL    HW121248   3.526   4.098   6.494 -1.2257  0.8532 -1.8037
 3205SOL    HW221249   3.415   4.024   6.430 -0.6356 -1.6353 -0.0297
 3206SOL     OW21250   2.993   1.265  15.505  0.3886  0.3107  0.1204
 3206SOL    HW121251   2.951   1.194  15.458 -2.0984 -0.3156  3.2771
 3206SOL    HW221252   3.070   1.234  15.554 -0.8144 -0.7926  1.3049
 3207SOL     OW21253   0.860   4.458   0.685  0.3345  0.3750 -0.1717
 3207SOL    HW121254   0.784   4.437   0.740  0.8312 -2.6585 -0.6770
 3207SOL    HW221255   0.813   4.514   0.624  0.0404  0.3709  0.0485
 3208SOL     OW21256   2.188   1.101   6.392 -0.0663  0.3827 -0.4180
 3208SOL    HW121257   2.283   1.102   6.387 -0.0626 -1.1627 -0.6442
 3208SOL    HW221258   2.165   1.037   6.459 -0.6860  0.4535 -0.5621
 3209SOL     OW21259   3.584   4.120  14.279 -0.0348  0.1097  0.1745
 3209SOL    HW121260   3.582   4.214  14.298  1.6112  0.5331 -1.6884
 3209SOL    HW221261   3.494   4.088  14.273 -0.1034  0.1263  1.1218
 3210SOL     OW21262   1.030   0.848   9.507 -0.1857 -0.2562  0.3629
 3210SOL    HW121263   0.967   0.910   9.470  0.1475 -1.2027 -1.7996
 3210SOL    HW221264   1.035   0.783   9.437 -2.9588  0.7773 -0.8132
 3211SOL     OW21265   3.683   1.086   3.465 -0.2811 -0.0869  0.4704
 3211SOL    HW121266   3.751   1.043   3.413 -0.2448  0.8692 -0.2797
 3211SOL    HW221267   3.724   1.173   3.465  0.0389 -0.2310 -1.2203
 3212SOL     OW21268   1.423   2.734  10.029  0.8952 -0.2819 -0.3238
 3212SOL    HW121269   1.372   2.815  10.023  1.3386 -0.1073 -1.6298
 3212SOL    HW221270   1.510   2.766  10.052  0.0038  1.9495 -0.0666
 3213SOL     OW21271   2.812   3.477   4.205  0.1708 -0.1663  0.2346
 3213SOL    HW121272   2.897   3.435   4.194  1.2853  2.4211 -1.0601
 3213SOL    HW221273   2.772   3.431   4.130 -2.1145  3.6609 -0.8984
 3214SOL     OW21274   4.620   0.548   4.569  0.2001 -0.0472 -0.7106
 3214SOL    HW121275   4.702   0.499   4.563  1.9767  2.6435  1.9088
 3214SOL    HW221276   4.557   0.476   4.570 -1.1195  1.0910 -2.7698
 3215SOL     OW21277   3.119   2.866   1.294  0.0420 -0.0936 -0.1402
 3215SOL    HW121278   3.208   2.839   1.314  0.3991  1.4435  0.3235
 3215SOL    HW221279   3.072   2.827   1.367 -1.1474  0.5241 -0.5689
 3216SOL     OW21280   4.524   3.980   5.339  0.1589  0.1005  0.1474
 3216SOL    HW121281   4.544   4.003   5.430  0.9824  0.2054 -0.0636
 3216SOL    HW221282   4.546   3.887   5.336 -0.7275  0.0004 -2.9434
 3217SOL     OW21283   2.910   4.506   6.202 -0.1112  0.1466 -0.3368
 3217SOL    HW121284   2.847   4.516   6.131  0.8830  0.0511 -1.2291
 3217SOL    HW221285   2.989   4.534   6.155 -1.8173  1.4153 -2.4325
 3218SOL     OW21286   1.466   2.229   7.922  0.1882  0.2439 -0.0135
 3218SOL    HW121287   1.454   2.235   8.017  1.8364 -2.7705  0.3904
 3218SOL    HW221288   1.410   2.303   7.898  1.8521  1.7366  0.7166
 3219SOL     OW21289   1.515   4.419  14.483 -0.2504  0.4238  0.3822
 3219SOL    HW121290   1.467   4.499  14.460  0.4238  0.5370 -0.6276
 3219SOL    HW221291   1.599   4.457  14.509 -0.1498  0.3882  0.1131
 3220SOL     OW21292   1.821   0.521   7.537 -0.4990 -0.1741 -0.2662
 3220SOL    HW121293   1.824   0.568   7.621 -0.5189  1.0783 -0.9730
 3220SOL    HW221294   1.751   0.569   7.493  1.7832  1.1745 -2.4148
 3221SOL     OW21295   3.936   2.478   5.630  0.3599  0.4551 -0.1166
 3221SOL    HW121296   3.966   2.467   5.540  0.8571  1.8752 -0.1167
 3221SOL    HW221297   3.998   2.418   5.672 -0.7137  0.1325  1.0013
 3222SOL     OW21298   2.489   3.686   1.426 -0.6384 -0.6684 -1.0388
 3222SOL    HW121299   2.510   3.594   1.443  2.0211  0.3102  1.0713
 3222SOL    HW221300   2.571   3.722   1.391 -0.5709 -1.0109 -1.2364
 3223SOL     OW21301   1.839   1.473  11.605 -0.6932 -0.2202  0.1101
 3223SOL    HW121302   1.842   1.511  11.517 -1.4862  0.1295  0.2413
 3223SOL    HW221303   1.930   1.462  11.632 -0.4654  0.6115 -0.3264
 3224SOL     OW21304   1.052   2.499   6.588 -0.0005  0.3471  0.4250
 3224SOL    HW121305   1.035   2.444   6.664 -0.4015 -0.7277 -0.4371
 3224SOL    HW221306   1.146   2.519   6.591 -0.5148  3.3926 -3.3506
 3225SOL     OW21307   3.854   1.077  15.379 -0.4602 -0.1487  0.7885
 3225SOL    HW121308   3.766   1.048  15.403 -0.6733  0.9756  1.3790
 3225SOL    HW221309   3.842   1.158  15.330 -0.2295  0.5815  1.9441
 3226SOL     OW21310   1.017   0.782   2.854  0.4673  0.4642  0.3599
 3226SOL    HW121311   1.056   0.774   2.767  1.0889 -1.1166  0.7864
 3226SOL    HW221312   0.965   0.702   2.845  0.2600  0.5189  1.0671
 3227SOL     OW21313   3.909   4.211   6.457 -0.0978 -0.2638 -0.5137
 3227SOL    HW121314   3.953   4.294   6.441 -0.0441  0.2322  2.2007
 3227SOL    HW221315   3.955   4.138   6.416 -0.5072 -1.1323  0.5673
 3228SOL     OW21316   0.699   3.447   8.095  0.1135  0.3299 -0.6252
 3228SOL    HW121317   0.779   3.442   8.148  0.3721  1.4640 -0.9234
 3228SOL    HW221318   0.633   3.394   8.140  0.0230  1.9745  1.1788
 3229SOL     OW21319   1.742   2.976   0.796  0.6886  0.5196 -0.1416
 3229SOL    HW121320   1.762   3.067   0.774 -0.4897  1.1474  1.3848
 3229SOL    HW221321   1.668   2.962   0.737  1.1456 -3.2434  0.1782
 3230SOL     OW21322   4.675   2.623   0.489 -0.7523  0.3470 -0.1864
 3230SOL    HW121323   4.605   2.622   0.555 -0.7942  1.9374 -0.2125
 3230SOL    HW221324   4.675   2.534   0.454 -0.7099 -0.4238  1.7252
 3231SOL     OW21325   2.134   1.672   5.131  0.4382  0.0260 -0.3081
 3231SOL    HW121326   2.130   1.751   5.076  0.2822  0.3262  0.1301
 3231SOL    HW221327   2.222   1.647   5.104  0.0801 -2.4002  0.8570
 3232SOL     OW21328   2.825   0.590  11.143 -0.4139  0.0266  0.7134
 3232SOL    HW121329   2.878   0.643  11.084 -0.8196  1.0225  1.2343
 3232SOL    HW221330   2.883   0.599  11.219 -0.1819 -0.3975  0.5829
 3233SOL     OW21331   4.195   2.990   5.249  0.4993 -0.6848  0.2062
 3233SOL    HW121332   4.120   2.931   5.254 -0.3258  0.6864  3.5561
 3233SOL    HW221333   4.175   3.053   5.318  0.5193  2.8583 -2.9805
 3234SOL     OW21334   3.783   0.456   8.232 -0.0546 -0.0901  0.7751
 3234SOL    HW121335   3.802   0.419   8.318  3.5526  2.0976  0.9197
 3234SOL    HW221336   3.828   0.388   8.182 -0.2534  1.2041 -1.1424
 3235SOL     OW21337   4.412   2.397   2.308  0.7342  0.1621 -0.3864
 3235SOL    HW121338   4.357   2.468   2.276 -1.3551 -1.0262  0.5485
 3235SOL    HW221339   4.379   2.393   2.397 -0.7632  0.1518 -0.9478
 3236SOL     OW21340   3.290   2.681   8.130 -0.0286  0.8870  0.2707
 3236SOL    HW121341   3.255   2.632   8.204 -1.8140  0.1559 -1.0645
 3236SOL    HW221342   3.380   2.669   8.160 -0.1662 -1.1223 -0.1231
 3237SOL     OW21343   3.777   0.872   1.536  0.8113  0.5735  0.2225
 3237SOL    HW121344   3.756   0.819   1.613  0.0405 -2.5050 -2.1266
 3237SOL    HW221345   3.769   0.962   1.567  2.5132  0.6887  0.3496
 3238SOL     OW21346   1.605   0.196  16.626 -0.6307  0.4801 -0.1764
 3238SOL    HW121347   1.599   0.231  16.715  2.0841  0.1055  0.1639
 3238SOL    HW221348   1.511   0.181  16.620 -1.0784  4.2393 -2.7966
 3239SOL     OW21349   1.663   4.574   9.612  0.1053 -0.2866  0.0215
 3239SOL    HW121350   1.671   4.611   9.700  0.1026 -1.0685  0.3430
 3239SOL    HW221351   1.654   4.481   9.631  1.1193 -0.3805  0.0369
 3240SOL     OW21352   4.209   0.590  11.272  0.3800  0.4758  0.3963
 3240SOL    HW121353   4.289   0.628  11.235 -0.1501 -1.1596 -2.4702
 3240SOL    HW221354   4.213   0.609  11.365 -2.5995  1.0669  0.4299
 3241SOL     OW21355   2.318   2.539   1.127  0.1342 -0.1545 -0.5483
 3241SOL    HW121356   2.243   2.589   1.093  1.4288  1.3843 -1.1584
 3241SOL    HW221357   2.291   2.448   1.121 -1.7507  0.4509 -1.2433
 3242SOL     OW21358   3.589   1.510   2.490  0.0510  0.0203  0.1169
 3242SOL    HW121359   3.590   1.588   2.435  1.1037  0.0640  0.2011
 3242SOL    HW221360   3.542   1.541   2.567  0.6119 -0.9450  0.8463
 3243SOL     OW21361   0.718   2.242   4.948  0.3040  0.2310 -1.0546
 3243SOL    HW121362   0.733   2.155   4.909 -0.3728  0.1438 -1.1157
 3243SOL    HW221363   0.677   2.216   5.030 -0.7386 -2.5398 -2.4515
 3244SOL     OW21364   3.685   3.342   0.213 -0.1256 -0.4296 -0.1689
 3244SOL    HW121365   3.743   3.288   0.267 -0.4368 -1.6745 -1.0644
 3244SOL    HW221366   3.595   3.324   0.241 -0.7732  3.1483  0.0628
 3245SOL     OW21367   2.897   0.808  14.573  0.4434  0.5496  0.5357
 3245SOL    HW121368   2.893   0.804  14.477 -2.9998  2.4197  0.5784
 3245SOL    HW221369   2.990   0.823  14.589  0.4567 -0.5744  1.4611
 3246SOL     OW21370   2.799   2.089   3.867 -0.5753  0.4412  0.1041
 3246SOL    HW121371   2.821   2.132   3.950 -0.1537  0.4655 -0.0197
 3246SOL    HW221372   2.879   2.112   3.820 -0.9985  1.8632  0.0704
 3247SOL     OW21373   0.737   1.951  12.806  0.1394  0.1396 -0.0830
 3247SOL    HW121374   0.770   1.907  12.885 -0.2042 -0.2687 -0.1643
 3247SOL    HW221375   0.646   1.923  12.815 -0.2355  1.3457 -0.0620
 3248SOL     OW21376   0.110   4.144   4.425  0.4296  0.2311 -0.4169
 3248SOL    HW121377   0.048   4.216   4.414  2.0249  1.3382 -2.3660
 3248SOL    HW221378   0.187   4.198   4.438  1.0421 -1.0365  1.1554
 3249SOL     OW21379   2.157   3.292  10.869 -0.1565  0.5043 -0.1178
 3249SOL    HW121380   2.086   3.335  10.822 -0.3054 -0.1298 -0.4668
 3249SOL    HW221381   2.111   3.292  10.953  0.6420 -2.1784  0.3176
 3250SOL     OW21382   1.534   1.463   7.189  0.8837 -0.4604  0.3606
 3250SOL    HW121383   1.546   1.479   7.095 -1.1729 -2.8040 -0.2951
 3250SOL    HW221384   1.448   1.503   7.205  0.6178 -0.9326  0.1082
 3251SOL     OW21385   0.904   1.582   4.005 -0.4792 -0.6299 -0.2215
 3251SOL    HW121386   0.869   1.587   3.916 -0.8421  1.4754  0.0314
 3251SOL    HW221387   0.938   1.492   4.004  0.7559 -0.1465 -2.0426
 3252SOL     OW21388   4.591   1.113   3.446 -0.2359 -0.3135 -0.6069
 3252SOL    HW121389   4.608   1.201   3.414 -2.7917 -0.4016 -2.2279
 3252SOL    HW221390   4.606   1.133   3.538 -1.0357 -1.8774 -0.1272
 3253SOL     OW21391   1.207   2.264   2.864  0.2895 -0.1695 -0.1839
 3253SOL    HW121392   1.291   2.221   2.850 -0.0246 -0.8631  0.0393
 3253SOL    HW221393   1.236   2.333   2.923 -0.2219  0.0010 -0.1302
 3254SOL     OW21394   3.442   0.684  10.259 -0.1325  0.4482  0.1473
 3254SOL    HW121395   3.460   0.777  10.275  1.8740  0.1378 -0.3286
 3254SOL    HW221396   3.369   0.673  10.320 -0.4160 -1.4515 -0.5392
 3255SOL     OW21397   3.817   2.338   2.223  0.4909  0.5847 -0.1589
 3255SOL    HW121398   3.893   2.395   2.230  0.5650  0.1775  2.3996
 3255SOL    HW221399   3.752   2.387   2.274 -1.1185 -2.0032  0.3174
 3256SOL     OW21400   1.168   0.353   4.347  0.1002  0.5569 -0.0368
 3256SOL    HW121401   1.133   0.303   4.421 -1.3853  1.7648  0.0809
 3256SOL    HW221402   1.261   0.349   4.370  0.3386  0.1272 -1.0816
 3257SOL     OW21403   0.788   2.238  12.406  0.1658 -0.3083  0.1815
 3257SOL    HW121404   0.882   2.245  12.391  0.4194 -1.1686  1.3725
 3257SOL    HW221405   0.794   2.237  12.501 -1.6823 -1.0966  0.2824
 3258SOL     OW21406   0.748   4.052  11.198  0.1267 -0.1487 -0.3068
 3258SOL    HW121407   0.702   4.128  11.234 -0.9583 -0.6020 -0.7464
 3258SOL    HW221408   0.679   4.009  11.148 -0.9984  0.0674  1.0803
 3259SOL     OW21409   1.931   1.850  16.535 -0.2478  0.2197  0.6702
 3259SOL    HW121410   1.888   1.887  16.458  2.6542 -0.6522 -1.3960
 3259SOL    HW221411   1.872   1.844  16.609  0.9579 -0.3383  1.5797
 3260SOL     OW21412   2.329   2.253   0.474  0.4227 -0.6409  0.5243
 3260SOL    HW121413   2.349   2.342   0.504  0.7530 -1.1261  1.7642
 3260SOL    HW221414   2.387   2.253   0.399 -0.0681 -2.3001  0.1495
 3261SOL     OW21415   0.775   4.420  15.121 -0.3165  0.3809  0.5272
 3261SOL    HW121416   0.762   4.425  15.027  0.8294  3.0479  0.5072
 3261SOL    HW221417   0.869   4.402  15.126 -0.2012  0.7198 -0.4372
 3262SOL     OW21418   4.725   0.476   9.032 -0.6563  0.8779  0.2060
 3262SOL    HW121419   4.689   0.442   9.114  2.1298  0.1039  1.1049
 3262SOL    HW221420   4.657   0.459   8.967  0.2044 -2.1209  0.1020
 3263SOL     OW21421   2.502   0.669  10.123 -0.0556 -0.3074  0.5883
 3263SOL    HW121422   2.442   0.685  10.196 -0.5129  1.8790 -0.2644
 3263SOL    HW221423   2.586   0.663  10.169  0.0333  1.2710  0.6321
 3264SOL     OW21424   4.471   1.335   6.394 -0.3322  0.1349  0.3684
 3264SOL    HW121425   4.455   1.380   6.477  0.5488  1.0922  0.0196
 3264SOL    HW221426   4.382   1.310   6.368  0.9712 -2.9428 -1.2034
 3265SOL     OW21427   4.157   2.944   1.618 -0.5772  0.6163 -0.3058
 3265SOL    HW121428   4.160   2.948   1.713  0.0224 -1.2653 -0.2603
 3265SOL    HW221429   4.067   2.970   1.600 -0.8384  0.5485  0.9047
 3266SOL     OW21430   2.311   4.524   3.653  0.0291  0.2375 -0.4091
 3266SOL    HW121431   2.367   4.490   3.584 -0.1710 -1.7950  0.4502
 3266SOL    HW221432   2.348   4.485   3.732  0.4020  2.5649  0.5918
 3267SOL     OW21433   0.034   1.769   0.893  0.0503  0.3788 -0.4064
 3267SOL    HW121434   4.711   1.700   0.889  0.7868 -0.4195  1.0794
 3267SOL    HW221435   4.725   1.843   0.863  1.0549  0.7324 -1.3007
 3268SOL     OW21436   4.281   2.884   3.522  0.0747  0.2010 -0.1754
 3268SOL    HW121437   4.360   2.891   3.469  0.7822 -1.7861  0.6083
 3268SOL    HW221438   4.220   2.900   3.450 -0.4034  1.1843  0.4484
 3269SOL     OW21439   3.395   1.748  10.832  0.5839 -0.1951  0.1035
 3269SOL    HW121440   3.480   1.712  10.805  0.2334 -3.0808  2.9176
 3269SOL    HW221441   3.340   1.670  10.833 -2.0473  1.6192 -2.1644
 3270SOL     OW21442   1.824   3.170   2.380 -0.8263 -0.2112 -0.0311
 3270SOL    HW121443   1.803   3.217   2.461 -1.0484  0.4248 -0.4544
 3270SOL    HW221444   1.882   3.235   2.339 -1.0885 -1.1744 -1.9153
 3271SOL     OW21445   3.172   4.387   8.456 -0.5793  0.4305 -0.6710
 3271SOL    HW121446   3.176   4.361   8.364 -1.8709 -0.7244 -0.4122
 3271SOL    HW221447   3.203   4.307   8.499 -0.8449  1.5973  1.7367
 3272SOL     OW21448   2.898   0.076   0.991 -0.3296 -0.4968 -0.2029
 3272SOL    HW121449   2.875   0.095   1.082  1.3074 -0.2724  0.1544
 3272SOL    HW221450   2.870   0.157   0.949  0.6060  0.6245  1.3495
 3273SOL     OW21451   3.914   4.461   7.347  0.1040  0.5003 -0.4046
 3273SOL    HW121452   3.913   4.376   7.390 -0.3099  1.0058  0.5875
 3273SOL    HW221453   3.899   4.435   7.256 -0.0416 -2.3865  0.4508
 3274SOL     OW21454   1.224   1.021   5.060  0.1883  0.2339 -0.6992
 3274SOL    HW121455   1.248   1.111   5.039 -1.4287  0.3556 -2.0322
 3274SOL    HW221456   1.283   0.972   5.003  2.1878 -0.2401  1.7940
 3275SOL     OW21457   0.009   0.467   6.831 -0.5696 -0.1533  0.5019
 3275SOL    HW121458   4.705   0.413   6.894  1.6304  0.4147  2.6716
 3275SOL    HW221459   4.715   0.438   6.748  1.3131 -0.7494 -0.1483
 3276SOL     OW21460   2.679   4.623   3.486  0.6605  0.1554 -0.1012
 3276SOL    HW121461   2.758   4.663   3.522 -0.2063  1.0793  0.7853
 3276SOL    HW221462   2.719   4.537   3.472  1.8907  0.7845 -0.3649
 3277SOL     OW21463   0.246   1.883   3.314  0.2781 -0.2862 -0.1162
 3277SOL    HW121464   0.158   1.881   3.353 -0.2543 -3.1672 -1.4541
 3277SOL    HW221465   0.227   1.876   3.220  1.2914 -0.1787 -0.3279
 3278SOL     OW21466   4.255   3.025   4.947 -0.3626 -0.1305 -0.2023
 3278SOL    HW121467   4.273   3.026   5.041  1.1912  2.3273 -0.5316
 3278SOL    HW221468   4.317   2.960   4.916 -1.4053 -1.0676 -0.2974
 3279SOL     OW21469   0.457   1.142   8.300  0.0067 -0.0096 -0.2855
 3279SOL    HW121470   0.543   1.149   8.343 -0.5452  1.0023  0.6664
 3279SOL    HW221471   0.419   1.063   8.338 -0.5995 -0.5039 -1.9467
 3280SOL     OW21472   2.142   3.139  12.799  0.5117 -0.5413  0.0957
 3280SOL    HW121473   2.220   3.092  12.770  1.1435  0.5846 -0.0159
 3280SOL    HW221474   2.087   3.140  12.721 -1.1757 -1.6105  1.2906
 3281SOL     OW21475   0.413   0.214  11.100 -0.0504  0.7898  0.0788
 3281SOL    HW121476   0.351   0.285  11.118  0.4528  1.0403  0.7832
 3281SOL    HW221477   0.462   0.207  11.181  0.7764  0.1571 -0.4787
 3282SOL     OW21478   3.081   4.622   4.696  0.3683 -0.3138 -0.0311
 3282SOL    HW121479   3.101   4.529   4.683  1.3677 -0.2147  0.7770
 3282SOL    HW221480   3.073   4.630   4.791 -1.4553  2.1358 -0.4093
 3283SOL     OW21481   2.034   3.157   7.093  0.2785  0.1314  0.3564
 3283SOL    HW121482   2.023   3.251   7.107 -1.6386 -0.1648  0.9098
 3283SOL    HW221483   1.977   3.149   7.016 -1.3130 -0.6970  1.5997
 3284SOL     OW21484   3.553   1.048   3.998  0.5999  0.6291  0.0344
 3284SOL    HW121485   3.541   1.130   3.950 -5.4360 -0.5023 -0.3861
 3284SOL    HW221486   3.517   0.984   3.937  3.0382 -0.7694  0.0424
 3285SOL     OW21487   1.482   1.860   0.352 -0.2343  0.0336 -0.3872
 3285SOL    HW121488   1.470   1.893   0.442  1.3561  2.7378 -1.1617
 3285SOL    HW221489   1.575   1.836   0.360 -0.7392 -2.3186 -1.7503
 3286SOL     OW21490   2.517   2.862   2.860  0.1319 -0.4914 -0.2220
 3286SOL    HW121491   2.506   2.794   2.926  0.3450  0.6770  1.0221
 3286SOL    HW221492   2.588   2.821   2.810  1.7696  0.7145  1.1361
 3287SOL     OW21493   3.880   3.203   1.652 -0.0647  0.7038 -0.0121
 3287SOL    HW121494   3.941   3.215   1.579 -0.7296  0.6990 -0.5726
 3287SOL    HW221495   3.888   3.109   1.666 -0.2240  0.4536 -1.5354
 3288SOL     OW21496   3.624   0.568   5.625 -0.1048 -0.1742 -0.5430
 3288SOL    HW121497   3.557   0.619   5.671 -0.5568 -0.9516 -0.3463
 3288SOL    HW221498   3.709   0.588   5.665  0.1903 -1.3159 -0.6097
 3289SOL     OW21499   0.231   4.341   4.752  0.1324 -0.4847 -0.5162
 3289SOL    HW121500   0.171   4.401   4.795 -0.2866 -0.2342 -1.4577
 3289SOL    HW221501   0.265   4.387   4.675 -1.5013 -1.7768 -1.9886
 3290SOL     OW21502   2.676   1.891   0.350 -0.1491  0.1506 -0.1334
 3290SOL    HW121503   2.705   1.979   0.375  2.8129 -0.9658  0.2843
 3290SOL    HW221504   2.745   1.868   0.288 -0.1685  0.4655 -0.2723
 3291SOL     OW21505   1.528   4.439   6.007  0.0827  0.0473  0.4805
 3291SOL    HW121506   1.465   4.413   6.074  0.1752 -0.6299  0.3045
 3291SOL    HW221507   1.474   4.425   5.929 -1.2389 -1.0417  1.5955
 3292SOL     OW21508   2.591   1.079   9.362 -0.0548 -0.0887 -0.1440
 3292SOL    HW121509   2.603   1.159   9.311 -0.0077 -0.3379 -0.5198
 3292SOL    HW221510   2.534   1.099   9.436  3.5001  2.3168  1.9954
 3293SOL     OW21511   3.510   0.029  11.136 -0.6470  0.2100  0.3051
 3293SOL    HW121512   3.558   0.045  11.217 -1.5704  0.6516  0.7704
 3293SOL    HW221513   3.561   4.708  11.087 -0.8899 -0.4244  0.8900
 3294SOL     OW21514   3.304   1.252   5.614 -0.0101 -0.1755  0.0272
 3294SOL    HW121515   3.277   1.161   5.611 -1.6427  0.2570  1.5255
 3294SOL    HW221516   3.218   1.294   5.624  0.3900  0.4230  0.9932
 3295SOL     OW21517   2.833   0.582  12.059  0.3734 -0.2083  0.0391
 3295SOL    HW121518   2.771   0.645  12.021 -0.7906 -2.8799 -2.5291
 3295SOL    HW221519   2.893   0.573  11.985  0.4845  0.6231  0.0231
 3296SOL     OW21520   1.164   1.877   0.694 -0.5199  0.2365 -0.4529
 3296SOL    HW121521   1.128   1.804   0.745 -1.5446 -0.7239 -2.5586
 3296SOL    HW221522   1.136   1.847   0.607 -0.0030 -1.7172  0.0650
 3297SOL     OW21523   0.149   2.178   7.329 -0.3707  0.4052 -1.1589
 3297SOL    HW121524   0.090   2.196   7.256  0.2415  2.1319 -1.2296
 3297SOL    HW221525   0.107   2.218   7.405  0.5404 -0.9759  0.0738
 3298SOL     OW21526   3.583   1.894   1.638 -0.4193  0.1684 -0.4903
 3298SOL    HW121527   3.570   1.971   1.692  0.8736 -0.4290  0.6541
 3298SOL    HW221528   3.678   1.901   1.630 -0.6201  1.8898 -1.2558
 3299SOL     OW21529   4.501   2.593   4.882  0.1114 -0.3626  1.1650
 3299SOL    HW121530   4.476   2.543   4.959  1.7783 -0.9908  1.2984
 3299SOL    HW221531   4.547   2.534   4.822 -0.0468  0.2233  0.4612
 3300SOL     OW21532   1.250   2.515   9.408 -0.5689  1.2086  0.6400
 3300SOL    HW121533   1.308   2.450   9.367 -1.1365  0.3932  1.1279
 3300SOL    HW221534   1.206   2.463   9.475 -0.0118 -2.7679 -2.0362
 3301SOL     OW21535   1.992   1.509  13.106  0.2243 -0.0710  0.3209
 3301SOL    HW121536   1.928   1.444  13.077 -0.4552  0.5836  0.3548
 3301SOL    HW221537   2.050   1.460  13.165  0.5139 -1.6971 -1.3024
 3302SOL     OW21538   3.534   2.147  15.895 -0.4258  0.7255 -0.1690
 3302SOL    HW121539   3.470   2.079  15.875  1.0994 -0.7339 -0.1335
 3302SOL    HW221540   3.480   2.225  15.881 -0.8658  0.2790 -0.9683
 3303SOL     OW21541   0.432   0.656  17.074 -0.2813  0.5824 -0.2051
 3303SOL    HW121542   0.523   0.678  17.094  0.1442 -1.0113 -0.3890
 3303SOL    HW221543   0.448   0.588  17.008 -1.0816 -0.6069  0.8265
 3304SOL     OW21544   4.090   1.010   6.612  0.5326 -0.0191 -0.0308
 3304SOL    HW121545   4.091   0.919   6.643 -0.5232 -0.4466 -1.2223
 3304SOL    HW221546   4.051   0.994   6.526 -2.4907 -0.2189  1.3878
 3305SOL     OW21547   2.825   0.992  15.849 -0.5912 -0.3219 -0.3474
 3305SOL    HW121548   2.739   0.951  15.839 -0.6139 -0.4453  0.3730
 3305SOL    HW221549   2.805   1.036  15.931  1.4757  0.6254 -0.3514
 3306SOL     OW21550   2.825   0.195   5.688  0.0917  0.2268  0.0848
 3306SOL    HW121551   2.755   0.260   5.693  0.6172  0.6810  1.7906
 3306SOL    HW221552   2.894   0.242   5.643 -0.9716  0.2321 -1.5163
 3307SOL     OW21553   0.417   0.501   2.215  0.5340  0.0304  0.5822
 3307SOL    HW121554   0.501   0.538   2.186 -1.3853  2.6176 -1.8241
 3307SOL    HW221555   0.436   0.484   2.307  0.0097  0.1521  0.7108
 3308SOL     OW21556   1.930   3.374   2.778 -0.3372 -0.5174  0.3343
 3308SOL    HW121557   2.021   3.351   2.758  0.0339  1.9597 -0.8640
 3308SOL    HW221558   1.946   3.454   2.828  1.3721 -0.3566 -0.4791
 3309SOL     OW21559   4.667   0.744   1.228  0.0778 -0.4805  0.1057
 3309SOL    HW121560   0.015   0.756   1.202  0.4684 -0.9909  1.2501
 3309SOL    HW221561   4.641   0.689   1.154  1.1060 -0.4605 -0.2697
 3310SOL     OW21562   4.691   0.014   5.498 -0.0113 -0.1913  0.1408
 3310SOL    HW121563   0.020   0.021   5.559  1.6088 -2.2242 -1.5733
 3310SOL    HW221564   4.629   4.723   5.562 -1.5003  1.1473 -0.5544
 3311SOL     OW21565   1.124   0.132   1.175 -0.0558 -0.7050 -0.4540
 3311SOL    HW121566   1.097   0.223   1.161  1.4064 -0.4287 -1.5028
 3311SOL    HW221567   1.049   0.090   1.217  0.1255 -0.8337 -0.2532
 3312SOL     OW21568   3.656   0.687  17.369  0.1944 -0.3173  0.3638
 3312SOL    HW121569   3.609   0.769  17.353 -0.1301  0.0980  3.4741
 3312SOL    HW221570   3.628   0.647  17.287 -1.1466  0.3921  0.4781
 3313SOL     OW21571   2.613   1.463   8.459 -0.1388 -0.0741  0.0418
 3313SOL    HW121572   2.705   1.436   8.462  0.1592  1.0129  1.0993
 3313SOL    HW221573   2.608   1.517   8.380  0.6217 -2.3250 -1.5243
 3314SOL     OW21574   1.743   0.424   0.016  0.1748 -0.0801 -0.2966
 3314SOL    HW121575   1.823   0.387   0.055 -0.5469 -0.4887  0.7933
 3314SOL    HW221576   1.736   0.510   0.057 -1.7108  0.6311 -2.1650
 3315SOL     OW21577   3.019   2.238  11.068 -0.1402  0.1919  0.2033
 3315SOL    HW121578   3.000   2.174  11.000 -0.7900  3.3808 -2.6197
 3315SOL    HW221579   3.090   2.289  11.029 -0.4169  1.5816  1.4998
 3316SOL     OW21580   0.315   1.077   4.883  0.2015  0.8307  0.2543
 3316SOL    HW121581   0.224   1.102   4.900  0.5939  2.9876 -0.7065
 3316SOL    HW221582   0.357   1.155   4.919  0.3407  0.7381  0.2911
 3317SOL     OW21583   2.319   0.254   8.128  0.2330  0.1811  0.2867
 3317SOL    HW121584   2.415   0.251   8.120  0.1305 -2.2112 -0.2685
 3317SOL    HW221585   2.292   0.167   8.098 -0.9265  0.8476 -0.6146
 3318SOL     OW21586   3.876   3.256  13.051  0.2614  0.3823  0.0522
 3318SOL    HW121587   3.965   3.265  13.019  1.0864 -0.9227  1.9750
 3318SOL    HW221588   3.835   3.208  12.978 -1.1027  0.3699  0.8240
 3319SOL     OW21589   3.723   1.779  14.578  0.2182 -0.0657 -0.1806
 3319SOL    HW121590   3.815   1.751  14.571  0.1106 -0.3212 -0.5905
 3319SOL    HW221591   3.714   1.854  14.520  0.1236  0.5389  0.6107
 3320SOL     OW21592   3.549   1.385   5.594  0.0957 -0.7190  0.3635
 3320SOL    HW121593   3.509   1.468   5.619  0.7566  0.3125 -1.9981
 3320SOL    HW221594   3.476   1.327   5.615  0.4331 -0.4698  2.2165
 3321SOL     OW21595   0.188   0.960  14.583  0.8673  0.4410  0.1115
 3321SOL    HW121596   0.147   1.045  14.599 -1.7291 -1.0510  1.3721
 3321SOL    HW221597   0.107   0.916  14.558  1.3053 -2.0715  3.0459
 3322SOL     OW21598   0.716   3.822   4.022 -0.3933 -0.3892  0.5646
 3322SOL    HW121599   0.802   3.860   4.042 -0.4289  1.6305 -3.1315
 3322SOL    HW221600   0.754   3.736   4.006 -0.6946 -0.8374  2.2242
 3323SOL     OW21601   1.663   1.312   8.360  0.0153 -0.4716  0.1899
 3323SOL    HW121602   1.698   1.256   8.429 -1.1152  1.5116  2.4058
 3323SOL    HW221603   1.735   1.374   8.349  1.2658 -2.5753 -3.1657
 3324SOL     OW21604   1.411   1.550   8.466  0.7696 -0.5779  0.2667
 3324SOL    HW121605   1.367   1.470   8.437 -0.7170  0.4188 -0.2457
 3324SOL    HW221606   1.418   1.606   8.389 -0.0150 -0.0839  0.5524
 3325SOL     OW21607   2.369   4.654   0.003  0.0145  0.0651  0.4667
 3325SOL    HW121608   2.311   4.656  17.698  0.6185 -0.2295 -0.0056
 3325SOL    HW221609   2.452   4.641  17.729 -0.3117 -3.2046  0.8252
 3326SOL     OW21610   4.568   3.367  10.940 -0.2357  0.2159 -0.0452
 3326SOL    HW121611   4.493   3.384  10.883 -0.2959  0.3748  0.0797
 3326SOL    HW221612   4.533   3.395  11.025  1.5552 -0.4608  0.9334
 3327SOL     OW21613   2.730   0.171   2.478  0.3946 -0.3649 -0.0152
 3327SOL    HW121614   2.743   0.259   2.514  1.7197 -0.1406 -1.0424
 3327SOL    HW221615   2.743   0.173   2.383  2.7405  0.9993  0.3319
 3328SOL     OW21616   1.861   3.216  12.116 -0.1931 -0.4011 -0.2362
 3328SOL    HW121617   1.798   3.287  12.109  0.1671  0.0091  0.7304
 3328SOL    HW221618   1.817   3.152  12.172 -2.8989  0.8741 -0.8919
 3329SOL     OW21619   1.156   0.636   6.887  0.1891 -0.7379 -0.3311
 3329SOL    HW121620   1.218   0.601   6.951  1.4878  0.6161 -0.8367
 3329SOL    HW221621   1.070   0.622   6.927  0.0703  1.4586  0.1580
 3330SOL     OW21622   0.052   2.297   6.114 -0.1168  0.1460 -0.3894
 3330SOL    HW121623   0.053   2.393   6.120  2.1635  0.1382 -0.9992
 3330SOL    HW221624   4.725   2.268   6.172  1.5169  0.6038  1.8052
 3331SOL     OW21625   3.177   4.668   9.677  0.1512  0.2210 -0.8538
 3331SOL    HW121626   3.219   4.582   9.672  1.7417  1.0101 -0.9933
 3331SOL    HW221627   3.257   4.721   9.677  0.2088  0.1266  0.5972
 3332SOL     OW21628   2.055   4.569  13.083 -0.2240 -0.1481 -0.4618
 3332SOL    HW121629   2.049   4.617  13.166 -0.7764 -1.3632  0.2012
 3332SOL    HW221630   2.026   4.479  13.101  0.1992  0.3125  2.4683
 3333SOL     OW21631   2.775   0.093  12.142 -0.2668 -0.0918 -0.4080
 3333SOL    HW121632   2.831   0.073  12.217  1.7658  1.9665 -1.3893
 3333SOL    HW221633   2.841   0.138  12.091 -2.1633  0.6931 -2.1863
 3334SOL     OW21634   2.118   3.938   1.416 -0.2255  0.1872  0.5627
 3334SOL    HW121635   2.142   3.846   1.400  0.7397  0.0986  2.4855
 3334SOL    HW221636   2.061   3.922   1.490 -1.7398  2.2112 -0.1701
 3335SOL     OW21637   4.304   3.650  17.004 -0.2269  0.5974  0.3130
 3335SOL    HW121638   4.218   3.691  17.002 -0.4083  0.2894  1.7200
 3335SOL    HW221639   4.334   3.630  16.915 -0.1204  0.7688  0.3113
 3336SOL     OW21640   2.284   1.067   4.754  0.4065  0.3554 -0.3002
 3336SOL    HW121641   2.228   1.007   4.704 -0.6320  0.4282  0.7769
 3336SOL    HW221642   2.295   1.139   4.691 -0.1778  1.5404  0.9392
 3337SOL     OW21643   2.380   4.428   3.385 -0.1785 -0.0178 -0.0463
 3337SOL    HW121644   2.460   4.382   3.410 -1.0798 -1.9985 -0.7551
 3337SOL    HW221645   2.323   4.355   3.362  3.5845 -3.0555  0.3145
 3338SOL     OW21646   3.682   1.270   3.902  0.2077 -0.3411  0.3374
 3338SOL    HW121647   3.735   1.342   3.869 -0.5537  0.1754  0.2327
 3338SOL    HW221648   3.714   1.195   3.852 -2.3585 -1.8656  0.9873
 3339SOL     OW21649   2.147   2.718   8.388  0.0111 -0.0609 -0.1515
 3339SOL    HW121650   2.132   2.631   8.427  2.5226 -1.0466 -1.3789
 3339SOL    HW221651   2.060   2.753   8.406 -0.0340  0.3487 -1.1732
 3340SOL     OW21652   2.873   2.703   2.511 -0.2080  0.1655 -0.6233
 3340SOL    HW121653   2.959   2.711   2.470  0.0304  0.5876 -0.0353
 3340SOL    HW221654   2.842   2.628   2.460 -1.1656  2.6854 -3.7423
 3341SOL     OW21655   2.666   2.950   4.322  0.0199 -0.0291  0.5702
 3341SOL    HW121656   2.577   2.921   4.300 -0.1623  0.7576  0.2847
 3341SOL    HW221657   2.662   3.040   4.290  1.9677  1.1263  3.6391
 3342SOL     OW21658   0.659   4.101   3.613 -0.0639 -0.1949  0.2698
 3342SOL    HW121659   0.685   4.189   3.585  0.8363 -0.4504  0.3102
 3342SOL    HW221660   0.738   4.076   3.661 -0.5698 -0.0752  1.1607
 3343SOL     OW21661   3.653   3.075  10.897 -0.6436  0.4435 -0.2145
 3343SOL    HW121662   3.711   3.150  10.909  1.7143 -1.2323 -1.3593
 3343SOL    HW221663   3.682   3.034  10.816 -0.6062  1.6813 -0.8261
 3344SOL     OW21664   2.152   4.549  15.904 -0.2727 -0.1864 -0.7461
 3344SOL    HW121665   2.154   4.620  15.840 -0.9081  2.7741  2.6035
 3344SOL    HW221666   2.173   4.472  15.851 -0.0494  0.0012 -0.9314
 3345SOL     OW21667   3.096   3.141   0.238  0.2581 -0.4698 -0.4705
 3345SOL    HW121668   3.028   3.077   0.215 -0.2490  0.0322 -0.3520
 3345SOL    HW221669   3.050   3.182   0.311  0.7460 -2.0936  0.7600
 3346SOL     OW21670   0.558   4.654   9.779 -0.4929 -0.0688  0.3148
 3346SOL    HW121671   0.544   4.733   9.832  1.6693  1.3468 -1.2334
 3346SOL    HW221672   0.484   4.599   9.802 -0.1828  0.2140  2.0322
 3347SOL     OW21673   0.458   1.162   8.021  1.0107 -0.9093  0.4279
 3347SOL    HW121674   0.526   1.229   8.024  0.9570 -0.6685 -3.6418
 3347SOL    HW221675   0.436   1.156   8.114  1.3269 -1.7401  0.4464
 3348SOL     OW21676   1.434   1.143  10.283 -0.2438  0.0829 -0.1274
 3348SOL    HW121677   1.347   1.157  10.320 -1.1951 -0.1697 -2.3028
 3348SOL    HW221678   1.446   1.048  10.286  0.5238  0.1593 -0.7817
 3349SOL     OW21679   1.389   0.372   1.567 -0.4212 -0.0579  0.4254
 3349SOL    HW121680   1.372   0.393   1.659  3.9266 -2.5710  1.8203
 3349SOL    HW221681   1.344   0.288   1.554 -0.2449 -0.3169  1.4638
 3350SOL     OW21682   1.015   2.742   9.019  0.1312  0.2812  0.8012
 3350SOL    HW121683   1.031   2.781   8.933 -0.5752  0.5474  0.7880
 3350SOL    HW221684   0.976   2.665   8.978 -0.7939  0.1390  1.9479
 3351SOL     OW21685   1.930   0.293   0.172 -0.4087 -0.0571  0.0522
 3351SOL    HW121686   1.915   0.275   0.265  0.7452 -2.4537 -0.2239
 3351SOL    HW221687   1.989   0.222   0.146 -1.6354 -0.5124 -1.4616
 3352SOL     OW21688   2.405   1.432   6.643 -0.8869  0.2735 -0.2885
 3352SOL    HW121689   2.361   1.464   6.564 -0.5613 -0.2453 -0.6855
 3352SOL    HW221690   2.495   1.465   6.644 -1.0237  0.6639 -0.9206
 3353SOL     OW21691   0.483   2.912  14.574  0.5258  0.0020 -0.1669
 3353SOL    HW121692   0.436   2.859  14.637 -0.2463  1.2215  0.2904
 3353SOL    HW221693   0.505   2.990  14.626  0.7378  1.6667 -2.7316
 3354SOL     OW21694   3.509   2.938   8.160 -0.2200  0.1056  0.1321
 3354SOL    HW121695   3.492   2.886   8.239  1.4501  1.7404  1.5623
 3354SOL    HW221696   3.426   2.983   8.145  0.3293  0.8777 -0.6023
 3355SOL     OW21697   3.774   0.075   8.845  0.3885 -0.0371  0.2315
 3355SOL    HW121698   3.866   0.052   8.854  0.6747  0.6143 -1.1053
 3355SOL    HW221699   3.762   0.117   8.931  0.1504 -0.6032  0.4755
 3356SOL     OW21700   4.467   4.183   6.022 -0.0102  0.1673  0.0689
 3356SOL    HW121701   4.540   4.199   5.963  0.1046  0.8832  0.4026
 3356SOL    HW221702   4.420   4.106   5.989  1.9805  0.3569 -3.2432
 3357SOL     OW21703   2.508   0.670   8.910 -0.3366  0.0816 -0.0451
 3357SOL    HW121704   2.455   0.637   8.837  0.3649  1.2685 -1.0804
 3357SOL    HW221705   2.547   0.593   8.951 -0.0764  0.2446  0.0146
 3358SOL     OW21706   1.193   3.679   1.048 -0.4881 -0.1653  0.1353
 3358SOL    HW121707   1.203   3.587   1.071 -0.0556 -1.0711 -3.7183
 3358SOL    HW221708   1.180   3.713   1.136  0.0648  0.2812  0.0508
 3359SOL     OW21709   3.468   1.595   1.695  0.2403  0.6353  0.7968
 3359SOL    HW121710   3.546   1.589   1.750  1.6311  1.4288 -1.1103
 3359SOL    HW221711   3.491   1.657   1.626  1.1126 -0.3967  0.1759
 3360SOL     OW21712   0.519   3.715   7.479 -0.3389 -0.1569 -0.7950
 3360SOL    HW121713   0.518   3.668   7.395 -2.8342  0.6827 -1.2206
 3360SOL    HW221714   0.608   3.751   7.479 -1.9297  3.6830 -0.2301
 3361SOL     OW21715   2.794   4.264   2.869 -0.0805  0.4684 -0.2116
 3361SOL    HW121716   2.784   4.299   2.780 -0.6325 -1.7797 -1.0304
 3361SOL    HW221717   2.746   4.325   2.925  1.9989  1.1810  0.8001
 3362SOL     OW21718   0.414   4.717   1.706  0.0978 -0.1236 -0.4978
 3362SOL    HW121719   0.322   4.712   1.733 -0.4599 -0.5312 -2.4578
 3362SOL    HW221720   0.406   4.673   1.621  1.1857 -1.2440 -0.0029
 3363SOL     OW21721   3.042   3.263  12.084  0.1862  0.3451 -0.2735
 3363SOL    HW121722   3.097   3.339  12.101  3.0881 -1.8857  0.1715
 3363SOL    HW221723   3.068   3.238  11.995  1.1666  0.8891 -0.1397
 3364SOL     OW21724   4.452   0.379   2.393  0.2648 -0.4766  0.3781
 3364SOL    HW121725   4.518   0.414   2.334 -0.0206  0.1803  0.4539
 3364SOL    HW221726   4.502   0.357   2.472  1.1527  2.0090  0.4852
 3365SOL     OW21727   0.131   2.489   2.922 -0.2698  0.3997 -0.0395
 3365SOL    HW121728   0.084   2.555   2.870 -0.0465 -0.7290 -1.6708
 3365SOL    HW221729   0.216   2.532   2.914  2.0034 -4.4431 -1.7904
 3366SOL     OW21730   1.750   0.694   6.603 -0.0743 -0.3222 -0.4137
 3366SOL    HW121731   1.808   0.766   6.579  0.8119 -1.1042 -0.6508
 3366SOL    HW221732   1.796   0.628   6.551 -0.5426 -0.2305 -0.9387
 3367SOL     OW21733   1.837   0.144   5.718 -0.2237  0.5769 -0.0507
 3367SOL    HW121734   1.839   0.049   5.733 -1.7073  0.5731  0.1503
 3367SOL    HW221735   1.870   0.183   5.799 -0.0047 -1.8423  1.0368
 3368SOL     OW21736   3.123   2.808  16.945 -0.2459 -0.5432  0.4529
 3368SOL    HW121737   3.212   2.800  16.979 -0.1878 -1.6156  0.0246
 3368SOL    HW221738   3.071   2.765  17.012  1.9776 -0.9676  1.9195
 3369SOL     OW21739   1.738   3.952  14.275  0.0494  0.0412 -0.8165
 3369SOL    HW121740   1.786   3.872  14.297 -0.6570  0.0481  0.7264
 3369SOL    HW221741   1.682   3.922  14.204 -1.2770 -0.4000  0.4049
 3370SOL     OW21742   1.686   3.044   9.903  0.3341  0.0972  0.4523
 3370SOL    HW121743   1.603   3.087   9.882  0.2067  0.2229  1.2043
 3370SOL    HW221744   1.724   3.127   9.933  0.9038 -0.2658  0.7408
 3371SOL     OW21745   4.181   0.256   8.301 -0.0305 -0.2232 -0.7257
 3371SOL    HW121746   4.092   0.243   8.335  0.3487  0.7015  0.6211
 3371SOL    HW221747   4.167   0.211   8.218 -1.8839 -0.5087 -0.2732
 3372SOL     OW21748   3.259   2.344   5.217 -0.2367  0.1786  0.5088
 3372SOL    HW121749   3.290   2.403   5.286  0.2686 -1.3592  1.5882
 3372SOL    HW221750   3.174   2.317   5.251 -0.3022 -0.5784 -0.2709
 3373SOL     OW21751   3.249   2.747   3.148 -0.1077 -0.9819 -0.4236
 3373SOL    HW121752   3.293   2.663   3.161  0.6163 -0.6207 -0.5751
 3373SOL    HW221753   3.278   2.769   3.059 -0.4972  1.4700  0.0485
 3374SOL     OW21754   3.383   2.339  17.571  0.1473 -0.0504 -0.2078
 3374SOL    HW121755   3.328   2.269  17.606 -0.1608  1.2178  1.8377
 3374SOL    HW221756   3.473   2.314  17.593 -0.5338 -2.8520 -0.5780
 3375SOL     OW21757   2.912   1.578   7.661  0.0336  0.8818 -0.4910
 3375SOL    HW121758   2.924   1.513   7.591 -0.7031  1.7013 -1.3929
 3375SOL    HW221759   2.923   1.652   7.601 -2.1692  0.2887 -1.6420
 3376SOL     OW21760   0.899   0.585   2.243  0.1287  0.0950 -0.9598
 3376SOL    HW121761   0.892   0.623   2.330  1.6794  1.7652 -1.5431
 3376SOL    HW221762   0.813   0.592   2.203 -0.6693 -2.6223  0.2858
 3377SOL     OW21763   1.473   3.681  17.267 -0.3731  0.1214  0.0393
 3377SOL    HW121764   1.450   3.628  17.343  0.3369  0.7536  0.6929
 3377SOL    HW221765   1.388   3.725  17.258 -0.7853 -0.8098 -0.5667
 3378SOL     OW21766   0.096   2.984   5.868  0.5792 -1.1745  0.3365
 3378SOL    HW121767   0.167   2.945   5.918  1.8507  2.6067  1.4911
 3378SOL    HW221768   0.046   3.018   5.942 -0.7938 -1.1314 -0.6063
 3379SOL     OW21769   3.941   3.656  10.526  0.0097  0.5260  0.9856
 3379SOL    HW121770   3.911   3.731  10.577  2.3569  1.1120  1.4879
 3379SOL    HW221771   3.886   3.650  10.447 -1.0374  0.7499  1.6942
 3380SOL     OW21772   2.373   3.738   4.327 -0.1028  0.3214 -0.2658
 3380SOL    HW121773   2.444   3.680   4.355 -0.6423  0.0893  0.6323
 3380SOL    HW221774   2.301   3.679   4.308 -1.4001  1.8851 -0.2257
 3381SOL     OW21775   0.290   1.036   7.170 -0.0863 -0.2366 -0.3049
 3381SOL    HW121776   0.225   1.002   7.231  1.2709  0.6837  1.6490
 3381SOL    HW221777   0.374   1.047   7.214 -1.1914  1.0635  1.5136
 3382SOL     OW21778   4.395   3.822   3.910 -0.1302  0.1404  0.0449
 3382SOL    HW121779   4.469   3.850   3.964 -0.2070 -0.1526  0.3016
 3382SOL    HW221780   4.390   3.726   3.909 -1.6387  0.2365 -1.2030
 3383SOL     OW21781   0.841   3.126  10.348  0.5263 -0.4127 -0.0869
 3383SOL    HW121782   0.872   3.135  10.258 -1.5361  0.1606 -0.7301
 3383SOL    HW221783   0.772   3.190  10.365  0.7369 -0.1321 -0.2943
 3384SOL     OW21784   4.529   0.162   1.006  0.1979  0.3796 -0.2040
 3384SOL    HW121785   4.440   0.195   1.015  0.6035  1.5706 -0.6147
 3384SOL    HW221786   4.567   0.243   0.972 -0.0036  0.9420  0.9122
 3385SOL     OW21787   1.219   2.899   8.096 -0.0908  0.1154  0.1827
 3385SOL    HW121788   1.261   2.984   8.086  0.7414 -0.3860 -0.5954
 3385SOL    HW221789   1.289   2.843   8.131  0.1474  0.7429  0.7046
 3386SOL     OW21790   2.182   2.017   8.843 -0.0086  0.2127 -0.0612
 3386SOL    HW121791   2.156   2.092   8.896 -0.5609 -0.5471  0.7544
 3386SOL    HW221792   2.160   1.959   8.916  1.1219 -0.0879  0.0418
 3387SOL     OW21793   3.156   2.852  15.526 -0.3772 -0.2967  0.8225
 3387SOL    HW121794   3.142   2.830  15.618 -0.5564  0.2101  0.9155
 3387SOL    HW221795   3.148   2.948  15.523  1.2646 -0.2037 -0.9807
 3388SOL     OW21796   4.000   3.804   3.112  0.0073 -0.6465 -0.3199
 3388SOL    HW121797   4.081   3.845   3.080  0.9948 -0.8594  1.9068
 3388SOL    HW221798   4.010   3.722   3.063 -0.1472 -2.0592  1.9815
 3389SOL     OW21799   3.879   4.639   9.565 -0.2232 -0.0364 -0.3872
 3389SOL    HW121800   3.871   4.586   9.485  0.1123  0.0986 -0.5120
 3389SOL    HW221801   3.819   4.710   9.543 -0.5287 -0.1732  0.0113
 3390SOL     OW21802   4.434   1.964   4.274 -0.2801  0.2024  0.4740
 3390SOL    HW121803   4.423   1.962   4.369 -0.6214 -0.8033  0.4123
 3390SOL    HW221804   4.355   2.010   4.245  1.3763  2.2771 -0.7321
 3391SOL     OW21805   4.576   0.591  11.409 -0.2802  0.1715  0.5286
 3391SOL    HW121806   4.593   0.497  11.418 -0.0160  0.3395  1.8458
 3391SOL    HW221807   4.578   0.627  11.498  2.1677  1.3490 -0.0021
 3392SOL     OW21808   4.302   3.094   8.406  0.4865 -0.0717 -0.1035
 3392SOL    HW121809   4.236   3.053   8.349  1.4401 -0.3584 -0.9971
 3392SOL    HW221810   4.385   3.070   8.365  0.4174 -0.7130  0.1260
 3393SOL     OW21811   2.519   1.718   0.477 -0.1829 -0.3871 -0.1317
 3393SOL    HW121812   2.577   1.781   0.434  0.5345 -1.5899 -0.9347
 3393SOL    HW221813   2.471   1.663   0.416  0.9003 -1.1168 -0.3417
 3394SOL     OW21814   1.177   0.626   7.899 -0.5882 -0.0215 -0.4597
 3394SOL    HW121815   1.207   0.536   7.915 -0.7346 -0.1448 -0.8801
 3394SOL    HW221816   1.137   0.655   7.981  2.1288  0.0630  0.8331
 3395SOL     OW21817   2.076   4.142   4.346 -0.8049  0.4555  0.0574
 3395SOL    HW121818   2.075   4.227   4.302  0.7577 -0.1991 -1.2600
 3395SOL    HW221819   1.987   4.112   4.327 -0.2037 -0.4869 -1.3329
 3396SOL     OW21820   4.231   3.587  16.581 -0.1094 -0.5644  0.3746
 3396SOL    HW121821   4.235   3.639  16.501 -1.2917  0.9013  1.2767
 3396SOL    HW221822   4.306   3.630  16.622 -0.2109  0.8741 -0.9703
 3397SOL     OW21823   4.137   1.951   7.659 -0.2828  0.3300  0.4840
 3397SOL    HW121824   4.122   2.009   7.734  3.0884 -0.3488  1.7171
 3397SOL    HW221825   4.063   1.974   7.603  0.6637  1.3432 -0.3492
 3398SOL     OW21826   3.613   4.644   4.751  0.3349  0.0876  0.0774
 3398SOL    HW121827   3.588   4.707   4.818  1.6039  0.2630  0.3961
 3398SOL    HW221828   3.612   4.707   4.679  0.1878 -0.7040 -0.6081
 3399SOL     OW21829   0.861   4.583   8.292 -0.1378 -0.1945  0.6527
 3399SOL    HW121830   0.815   4.574   8.376 -1.7678  2.5884  0.0337
 3399SOL    HW221831   0.816   4.512   8.246  0.1096  0.6990 -0.9385
 3400SOL     OW21832   1.326   4.734   5.365 -0.0013  0.2237  0.2145
 3400SOL    HW121833   1.384   4.688   5.304  0.3252 -0.2599  0.8892
 3400SOL    HW221834   1.239   4.698   5.349  0.3466 -0.1938 -0.7505
 3401SOL     OW21835   1.672   4.238   8.595 -0.1810 -0.0710 -0.8888
 3401SOL    HW121836   1.712   4.153   8.581  1.8392  0.4283  1.8629
 3401SOL    HW221837   1.667   4.271   8.505  1.2369  0.9948 -0.5818
 3402SOL     OW21838   2.198   1.295   9.181 -0.0195 -0.1752 -0.0088
 3402SOL    HW121839   2.180   1.217   9.234 -0.6467  1.0576  1.5695
 3402SOL    HW221840   2.142   1.364   9.215  1.0915  1.0765 -0.7308
 3403SOL     OW21841   2.509   1.218   4.296  0.0291 -0.0490  0.2852
 3403SOL    HW121842   2.434   1.158   4.300  0.1885 -0.3313 -1.1740
 3403SOL    HW221843   2.537   1.201   4.386 -1.3329 -0.9690  0.5454
 3404SOL     OW21844   1.167   0.376   5.338 -0.1891 -0.1096 -0.4917
 3404SOL    HW121845   1.094   0.437   5.326  0.0569  0.4266  0.7260
 3404SOL    HW221846   1.202   0.367   5.249  2.2436 -0.6077  0.5389
 3405SOL     OW21847   0.832   0.544   4.890  0.0721 -0.1664 -0.1529
 3405SOL    HW121848   0.761   0.508   4.944  1.8464 -1.3755  1.3457
 3405SOL    HW221849   0.800   0.503   4.809 -2.6258  0.9768  0.3419
 3406SOL     OW21850   2.516   0.165   7.313 -0.3719 -0.3424  0.5589
 3406SOL    HW121851   2.544   0.197   7.399  0.0886 -0.8562  0.5987
 3406SOL    HW221852   2.434   0.118   7.329  0.8638 -2.3729  0.8022
 3407SOL     OW21853   0.969   4.172  12.764  0.5551  0.1293  0.2963
 3407SOL    HW121854   0.921   4.255  12.766 -0.7093 -0.5815 -0.9567
 3407SOL    HW221855   0.983   4.165  12.858  0.2856 -1.6276  0.2026
 3408SOL     OW21856   3.711   1.197   7.594 -0.2150 -1.0488 -0.1411
 3408SOL    HW121857   3.745   1.262   7.657 -2.6487  0.4693 -0.4062
 3408SOL    HW221858   3.717   1.110   7.632 -0.3972 -0.8303  0.3764
 3409SOL     OW21859   1.705   3.817   5.021 -0.1842  0.6394  0.3002
 3409SOL    HW121860   1.633   3.879   5.017 -0.1323  0.8249  2.5242
 3409SOL    HW221861   1.766   3.882   5.055 -0.8050  1.5688 -0.3495
 3410SOL     OW21862   4.671   2.964   8.657  0.5158  0.1790  0.3303
 3410SOL    HW121863   4.578   2.978   8.641  0.6137 -2.3912 -2.7250
 3410SOL    HW221864   4.657   2.873   8.685  1.2643  0.7573  2.5530
 3411SOL     OW21865   2.903   4.122  12.280 -0.1828  0.0171 -0.0077
 3411SOL    HW121866   2.893   4.046  12.222 -1.3659  0.2684 -0.1254
 3411SOL    HW221867   2.867   4.190  12.223  1.9718  0.3101 -1.0081
 3412SOL     OW21868   1.982   0.811   4.401 -0.2950  0.3344 -0.2011
 3412SOL    HW121869   2.014   0.722   4.385 -2.1741 -0.3133 -0.3526
 3412SOL    HW221870   1.976   0.836   4.309 -3.4038 -0.9199 -0.3552
 3413SOL     OW21871   3.060   1.532   0.975  0.1592 -0.4131 -0.0655
 3413SOL    HW121872   2.975   1.491   0.964  0.8145 -2.1215  1.2442
 3413SOL    HW221873   3.047   1.565   1.064 -2.1211  2.3883 -1.4498
 3414SOL     OW21874   4.163   1.066   0.707 -0.1251  0.2426  0.2312
 3414SOL    HW121875   4.089   1.077   0.766 -0.2426  2.5613 -0.3396
 3414SOL    HW221876   4.229   1.119   0.751  0.5590 -0.3992 -0.0248
 3415SOL     OW21877   1.177   1.809  11.837 -0.2714  0.0258  0.0096
 3415SOL    HW121878   1.113   1.774  11.776 -0.8835  2.9146 -1.0128
 3415SOL    HW221879   1.185   1.902  11.815 -1.3585 -0.1381 -1.0561
 3416SOL     OW21880   0.759   4.481  11.150  0.0064 -0.0809 -0.2965
 3416SOL    HW121881   0.802   4.485  11.236  0.3635 -0.3563 -0.4599
 3416SOL    HW221882   0.833   4.468  11.090 -0.2866 -2.5295 -0.1395
 3417SOL     OW21883   2.626   0.670   1.205 -0.4188 -0.3749  0.4071
 3417SOL    HW121884   2.700   0.730   1.209 -0.3700 -0.4085 -0.0278
 3417SOL    HW221885   2.555   0.733   1.214  2.8493  3.5445 -1.1865
 3418SOL     OW21886   4.649   1.982   3.606 -1.2819 -0.3648  0.8451
 3418SOL    HW121887   4.690   1.896   3.616  1.4653  0.8815  0.5106
 3418SOL    HW221888   4.721   2.045   3.598 -1.0082 -0.7634  0.2012
 3419SOL     OW21889   0.463   4.339  13.571  0.0093 -0.3163 -0.5379
 3419SOL    HW121890   0.420   4.348  13.656  0.8978 -1.7551  0.0497
 3419SOL    HW221891   0.411   4.268  13.534  1.4442 -0.9175 -1.3953
 3420SOL     OW21892   1.295   3.181  13.309  0.1906 -0.4207 -0.0663
 3420SOL    HW121893   1.226   3.141  13.362 -1.3116  0.9128 -1.0097
 3420SOL    HW221894   1.340   3.237  13.372  0.4690 -0.5526 -0.1454
 3421SOL     OW21895   1.723   3.999  13.573  0.0130 -0.7640  0.1664
 3421SOL    HW121896   1.694   3.932  13.512  0.9877  0.7267 -1.9293
 3421SOL    HW221897   1.651   4.062  13.574 -0.2650 -1.0674 -0.6184
 3422SOL     OW21898   1.673   0.879   5.451 -0.1338  0.7551 -0.1686
 3422SOL    HW121899   1.639   0.891   5.362 -0.4806  1.8597  0.1124
 3422SOL    HW221900   1.596   0.840   5.492  0.9265  0.3618  1.4154
 3423SOL     OW21901   0.211   3.865   8.693  0.0091 -0.1362 -0.0403
 3423SOL    HW121902   0.207   3.942   8.749 -0.3768  0.2542 -0.6068
 3423SOL    HW221903   0.200   3.906   8.607  1.4627  0.8752  0.2552
 3424SOL     OW21904   1.330   4.659   7.019 -0.2558  0.6480 -0.4604
 3424SOL    HW121905   1.392   4.587   7.028 -1.8359 -0.7701 -0.8696
 3424SOL    HW221906   1.312   4.662   6.925  0.2736  1.5242 -0.5287
 3425SOL     OW21907   0.567   2.921   8.588 -0.0119 -0.0604  0.1840
 3425SOL    HW121908   0.587   2.838   8.633 -0.3481  1.2314  2.7368
 3425SOL    HW221909   0.488   2.949   8.635  0.2723 -0.0486  0.6533
 3426SOL     OW21910   0.354   3.954   6.248 -0.0547  0.2497  0.3124
 3426SOL    HW121911   0.426   4.009   6.218  1.6594 -1.9910  0.2656
 3426SOL    HW221912   0.371   3.933   6.340 -3.6297 -1.9410  0.4961
 3427SOL     OW21913   1.228   4.449   4.872  0.0953  0.0613 -0.2027
 3427SOL    HW121914   1.283   4.525   4.856  0.2493 -0.0288 -0.0964
 3427SOL    HW221915   1.275   4.394   4.935 -1.0431 -0.3178  0.3196
 3428SOL     OW21916   3.775   1.073   0.446  0.1928 -0.1996 -0.4886
 3428SOL    HW121917   3.860   1.104   0.477  0.8385 -1.0076 -1.4244
 3428SOL    HW221918   3.803   1.026   0.368  0.5645  0.5295 -0.7942
 3429SOL     OW21919   1.219   3.121   6.177  0.0426  0.0673  0.2115
 3429SOL    HW121920   1.222   3.028   6.200 -3.9658 -0.3565 -0.8981
 3429SOL    HW221921   1.310   3.123   6.149  0.1153  0.5578  0.4768
 3430SOL     OW21922   4.361   3.433   0.211  0.0473  0.2118 -0.0268
 3430SOL    HW121923   4.283   3.457   0.162  1.0999  2.3545 -0.6651
 3430SOL    HW221924   4.361   3.502   0.277 -2.3918 -0.8854  1.1066
 3431SOL     OW21925   1.744   4.629  14.565  0.3581  0.0761 -0.6540
 3431SOL    HW121926   1.785   4.696  14.620 -0.4272 -1.2632  1.5530
 3431SOL    HW221927   1.818   4.599  14.513 -2.1221  1.0538 -4.7903
 3432SOL     OW21928   2.568   4.249   5.525  0.3664  0.4187 -0.2206
 3432SOL    HW121929   2.644   4.294   5.562 -0.2071  1.2610 -0.0627
 3432SOL    HW221930   2.573   4.281   5.435  0.6925 -1.8635 -1.0133
 3433SOL     OW21931   1.293   2.808  14.971 -0.1016  0.0298 -0.1454
 3433SOL    HW121932   1.371   2.757  14.991 -0.9228 -0.4206  1.9100
 3433SOL    HW221933   1.307   2.872  15.041 -0.9552  0.8053 -0.6714
 3434SOL     OW21934   3.580   0.537   0.760 -0.1511 -0.3852 -0.3167
 3434SOL    HW121935   3.534   0.526   0.677  1.0334 -0.9185 -0.8966
 3434SOL    HW221936   3.653   0.482   0.732  0.8629  0.8351 -0.0933
 3435SOL     OW21937   2.118   2.481  17.200 -0.7560 -0.3531  0.5259
 3435SOL    HW121938   2.162   2.438  17.128  0.6423 -0.0691  1.2066
 3435SOL    HW221939   2.169   2.453  17.276 -1.4913  0.9641  1.5200
 3436SOL     OW21940   4.425   0.318   6.528  0.3746  0.0089  0.2984
 3436SOL    HW121941   4.385   0.331   6.614 -0.3268  1.0229 -0.1906
 3436SOL    HW221942   4.516   0.300   6.554  0.1328 -1.4658  0.1425
 3437SOL     OW21943   4.137   4.742   8.648  0.4831 -0.0807 -0.1470
 3437SOL    HW121944   4.105   4.669   8.595 -0.7040 -0.1100  0.6182
 3437SOL    HW221945   4.078   4.739   8.723  0.1605 -1.7777 -0.4637
 3438SOL     OW21946   4.315   4.392   7.686 -0.1132 -0.3336  0.1058
 3438SOL    HW121947   4.383   4.358   7.745 -0.2980  0.8780  1.0273
 3438SOL    HW221948   4.273   4.458   7.741 -1.9666 -2.5140  1.3035
 3439SOL     OW21949   3.990   1.603   9.063 -0.1038 -0.3110  0.4138
 3439SOL    HW121950   3.976   1.654   9.143 -0.2688  2.3711 -1.3303
 3439SOL    HW221951   4.045   1.665   9.015 -0.9985 -2.0227 -2.8057
 3440SOL     OW21952   2.274   4.657   6.854  0.5604 -0.0800 -0.0330
 3440SOL    HW121953   2.264   4.663   6.759 -2.6221  1.0976  0.3787
 3440SOL    HW221954   2.275   4.562   6.866  0.0018 -0.0980 -0.1355
 3441SOL     OW21955   0.139   4.330   3.509  0.3335 -0.2440  0.0478
 3441SOL    HW121956   0.151   4.323   3.604 -1.7615  1.7259  0.4516
 3441SOL    HW221957   0.097   4.416   3.506 -1.0323 -0.8820  1.1713
 3442SOL     OW21958   2.898   4.696   5.513  0.2194 -0.0802  0.0955
 3442SOL    HW121959   2.966   4.695   5.446  0.0112  0.7217 -0.1246
 3442SOL    HW221960   2.913   0.037   5.555 -2.9497 -0.2308  1.5447
 3443SOL     OW21961   3.294   0.889   9.334  0.0397 -0.4509  0.2508
 3443SOL    HW121962   3.278   0.849   9.248 -0.6464 -0.5997  0.4470
 3443SOL    HW221963   3.287   0.983   9.314 -1.7546 -0.2471  1.8330
 3444SOL     OW21964   2.232   3.943   8.683 -0.1412  0.8542 -0.7796
 3444SOL    HW121965   2.221   3.975   8.773 -1.1734  2.3184 -1.4292
 3444SOL    HW221966   2.163   3.879   8.665  1.9836 -1.2824 -1.3045
 3445SOL     OW21967   0.783   2.073   5.599  0.4468  0.0342 -0.3998
 3445SOL    HW121968   0.780   2.133   5.674  2.5241  0.8131 -0.9458
 3445SOL    HW221969   0.851   2.011   5.625 -0.6627 -0.1252  2.2078
 3446SOL     OW21970   3.897   4.335   2.462 -0.5444 -0.3206  0.0876
 3446SOL    HW121971   3.891   4.356   2.369 -0.2342 -1.1386 -0.1213
 3446SOL    HW221972   3.823   4.274   2.467 -1.6462  0.8520 -2.2276
 3447SOL     OW21973   4.444   4.255   6.282  0.0490  0.1294  0.4038
 3447SOL    HW121974   4.502   4.201   6.335 -1.7534  0.2755  2.5328
 3447SOL    HW221975   4.464   4.227   6.193  1.6981 -0.0242  0.8245
 3448SOL     OW21976   1.640   4.645   2.004  0.6939 -0.3675  0.2941
 3448SOL    HW121977   1.696   4.717   1.975 -1.1594  0.1830 -1.9514
 3448SOL    HW221978   1.627   4.605   1.918  0.0662  0.7129 -0.1226
 3449SOL     OW21979   1.588   3.293   8.717 -0.1601  0.7027 -1.1462
 3449SOL    HW121980   1.508   3.279   8.768  1.3336  0.5310  1.1571
 3449SOL    HW221981   1.606   3.206   8.681 -1.2515 -0.1312  0.3294
 3450SOL     OW21982   1.494   0.026  12.390 -0.1563 -0.0596 -0.0042
 3450SOL    HW121983   1.562   4.703  12.395 -1.1061 -1.1300 -1.5596
 3450SOL    HW221984   1.431   4.737  12.455  0.0385  0.1425  0.2902
 3451SOL     OW21985   2.805   3.000   8.422  0.3141  1.0322  0.1874
 3451SOL    HW121986   2.714   3.022   8.404  0.2226 -0.2240 -0.8750
 3451SOL    HW221987   2.852   3.082   8.412  3.2125 -0.5221  1.0014
 3452SOL     OW21988   1.888   2.471   4.200  0.4638  0.6865 -0.5893
 3452SOL    HW121989   1.809   2.497   4.152  0.4217 -0.7835 -1.3207
 3452SOL    HW221990   1.852   2.398   4.251  0.1379  0.9722 -0.4087
 3453SOL     OW21991   0.759   2.023   9.404  0.5702 -0.0264 -0.3281
 3453SOL    HW121992   0.733   1.958   9.339  1.0334 -2.7525  2.2346
 3453SOL    HW221993   0.699   2.095   9.382  0.6467  0.2645  0.4194
 3454SOL     OW21994   2.295   0.226   3.406 -0.2023 -0.0724 -0.6085
 3454SOL    HW121995   2.368   0.175   3.370 -1.4560 -2.4760  0.2618
 3454SOL    HW221996   2.332   0.259   3.488  0.8239  0.3867 -1.2489
 3455SOL     OW21997   2.412   4.423   7.414 -0.4135 -0.0279 -0.3594
 3455SOL    HW121998   2.416   4.481   7.490 -1.3086 -0.2514 -0.1375
 3455SOL    HW221999   2.323   4.391   7.431 -0.2519 -1.1444 -1.6265
 3456SOL     OW22000   0.163   0.655  17.108  0.6362  0.0431 -0.0013
 3456SOL    HW122001   0.168   0.565  17.074  1.4192  0.9079 -2.1940
 3456SOL    HW222002   0.258   0.662  17.111  0.7659 -0.7673 -1.9552
 3457SOL     OW22003   2.790   1.892   6.611  0.1832 -0.4834  0.4564
 3457SOL    HW122004   2.710   1.944   6.608  0.7751  0.4436  0.4844
 3457SOL    HW222005   2.778   1.842   6.531 -0.0907  0.1785  0.0799
 3458SOL     OW22006   2.049   0.154   4.477 -0.2187 -0.6736 -0.1299
 3458SOL    HW122007   2.100   0.225   4.439  1.5359 -2.0122 -0.3095
 3458SOL    HW222008   1.989   0.129   4.407  0.2958  0.2759 -0.9017
 3459SOL     OW22009   4.236   1.054  12.650 -1.0588 -0.3307 -0.1365
 3459SOL    HW122010   4.148   1.057  12.690 -0.3530  1.5480  1.2852
 3459SOL    HW222011   4.250   0.965  12.617 -1.9467 -0.3135 -0.5752
 3460SOL     OW22012   4.305   0.350   6.798 -0.1250 -0.1003 -0.1006
 3460SOL    HW122013   4.310   0.257   6.821 -2.3812 -0.7210 -2.0337
 3460SOL    HW222014   4.376   0.378   6.855 -0.4622  0.6741 -0.0562
 3461SOL     OW22015   1.266   3.194   4.148 -0.1970  0.0018 -0.0794
 3461SOL    HW122016   1.172   3.189   4.166 -0.4088 -0.8725 -1.4094
 3461SOL    HW222017   1.286   3.271   4.201 -1.9743 -2.2943  3.9305
 3462SOL     OW22018   1.144   1.038  15.568  0.0169  0.1517 -0.2142
 3462SOL    HW122019   1.112   1.027  15.657  0.3553  1.0358  0.0151
 3462SOL    HW222020   1.199   1.116  15.576 -1.6479  1.0748  2.1056
 3463SOL     OW22021   4.562   2.499   1.325  0.4294 -0.0231  0.1289
 3463SOL    HW122022   4.476   2.457   1.334 -0.3283  1.3555 -0.7128
 3463SOL    HW222023   4.569   2.550   1.406  1.1117  0.3283 -0.1548
 3464SOL     OW22024   3.623   1.511   9.243  0.6286  0.5498 -0.0008
 3464SOL    HW122025   3.630   1.454   9.166  0.9444 -0.5835  0.8603
 3464SOL    HW222026   3.619   1.451   9.318 -1.3455 -1.7081 -1.9018
 3465SOL     OW22027   0.077   1.088  15.363  0.2172  0.2859 -0.0705
 3465SOL    HW122028   0.011   1.148  15.398 -0.8662 -0.6980 -0.4341
 3465SOL    HW222029   0.117   1.055  15.444 -1.2944  2.1696  1.4518
 3466SOL     OW22030   0.096   2.995   5.262 -0.3241  0.3830 -0.0247
 3466SOL    HW122031   0.027   3.061   5.250 -0.9097  0.1144  2.0543
 3466SOL    HW222032   0.142   3.009   5.178  0.0132  1.8608  0.4010
 3467SOL     OW22033   3.558   0.576   2.467 -0.0923 -0.1557 -0.1159
 3467SOL    HW122034   3.495   0.623   2.522 -1.8667 -0.9102 -1.5122
 3467SOL    HW222035   3.586   0.654   2.418  0.7402  0.0319  0.6633
 3468SOL     OW22036   2.251   0.485   7.226 -0.4830 -0.3903 -0.3333
 3468SOL    HW122037   2.163   0.448   7.215 -0.6542 -1.2405  3.5882
 3468SOL    HW222038   2.308   0.434   7.170  0.2874  1.1361 -0.9505
 3469SOL     OW22039   0.885   4.528   7.290 -0.0739  0.2133 -0.2379
 3469SOL    HW122040   0.892   4.519   7.385 -1.4520  0.6195 -0.0903
 3469SOL    HW222041   0.972   4.498   7.263 -0.1893 -0.0517 -0.3175
 3470SOL     OW22042   3.062   1.622   2.576  0.2037 -0.1414  0.3806
 3470SOL    HW122043   3.075   1.666   2.493  0.4322  1.2259  1.1410
 3470SOL    HW222044   3.102   1.546   2.535  0.2974 -0.6327  1.3703
 3471SOL     OW22045   1.893   4.347  10.229 -0.1072  0.3306 -0.0782
 3471SOL    HW122046   1.944   4.324  10.151  2.0535 -0.0559  1.4297
 3471SOL    HW222047   1.849   4.266  10.256  2.7243 -1.1004  0.3299
 3472SOL     OW22048   4.369   1.338  13.348  0.6850 -0.4406  0.1764
 3472SOL    HW122049   4.465   1.331  13.355  0.2755 -4.6389  1.6469
 3472SOL    HW222050   4.351   1.432  13.357 -0.7449 -0.6125 -0.9997
 3473SOL     OW22051   2.656   1.878   7.737 -0.5222  0.3207  0.9911
 3473SOL    HW122052   2.646   1.909   7.647 -0.8747  1.4691  1.4265
 3473SOL    HW222053   2.580   1.819   7.735  0.2118 -0.5760 -0.6166
 3474SOL     OW22054   0.049   1.794   7.348  0.7873  0.1112  0.6866
 3474SOL    HW122055   0.081   1.766   7.262 -1.6045  1.4146 -0.6044
 3474SOL    HW222056   0.115   1.857   7.378  1.7341 -0.6936  0.3122
 3475SOL     OW22057   2.095   0.110   9.489 -0.0784  0.0783  0.2669
 3475SOL    HW122058   2.033   0.183   9.479  0.4399  0.3788 -0.7130
 3475SOL    HW222059   2.030   0.047   9.520  0.1811  0.6508  1.9976
 3476SOL     OW22060   4.100   0.687  16.399 -0.0077  0.2588 -0.0916
 3476SOL    HW122061   4.195   0.691  16.400 -0.1026  2.3726  0.3807
 3476SOL    HW222062   4.084   0.769  16.445 -0.6587  1.3308 -2.2002
 3477SOL     OW22063   2.052   2.816   5.637 -0.8336 -0.1912 -0.3225
 3477SOL    HW122064   2.083   2.759   5.708 -0.8597 -0.8869 -0.8715
 3477SOL    HW222065   2.108   2.778   5.570  0.6726 -0.6000  1.1451
 3478SOL     OW22066   1.012   4.251   1.054 -0.2814  0.3193 -0.5320
 3478SOL    HW122067   1.066   4.233   1.131  1.7113 -1.4382 -2.3513
 3478SOL    HW222068   1.045   4.180   1.000  3.4546  0.3213  1.7837
 3479SOL     OW22069   3.058   2.695   3.835  0.3181 -0.3049  0.0533
 3479SOL    HW122070   3.001   2.685   3.912  0.7712 -0.2674  0.3918
 3479SOL    HW222071   3.003   2.753   3.783 -0.9184 -1.8805 -0.3942
 3480SOL     OW22072   2.302   2.617  10.351  0.1692 -0.1753  0.2329
 3480SOL    HW122073   2.318   2.572  10.268  0.0173  0.0887  0.0623
 3480SOL    HW222074   2.273   2.539  10.398 -0.2238 -0.6077 -0.7095
 3481SOL     OW22075   0.978   2.949   9.221  0.5299  0.6008  0.2179
 3481SOL    HW122076   0.976   2.877   9.158 -0.3204  2.7955 -2.3022
 3481SOL    HW222077   0.914   3.009   9.182  0.0437 -1.3165 -1.9327
 3482SOL     OW22078   0.745   2.312   8.461 -0.0219  0.1084 -0.2867
 3482SOL    HW122079   0.694   2.277   8.534  0.2243  0.4223  0.0383
 3482SOL    HW222080   0.813   2.246   8.441  0.9631  0.6365  1.3123
 3483SOL     OW22081   4.413   3.206   2.700 -0.3430  0.1341  0.1997
 3483SOL    HW122082   4.396   3.295   2.727  0.1991  0.7352 -1.4089
 3483SOL    HW222083   4.509   3.199   2.701 -0.5177 -1.9494  2.3787
 3484SOL     OW22084   2.633   0.735   6.113  0.4664 -0.1197  0.3736
 3484SOL    HW122085   2.710   0.783   6.084 -1.2571  2.7118  0.4538
 3484SOL    HW222086   2.665   0.647   6.095  0.3255 -0.4561  1.7807
 3485SOL     OW22087   1.347   3.802   5.076 -0.1150  0.4504 -0.5097
 3485SOL    HW122088   1.363   3.755   5.158  3.0996  0.7488 -0.9752
 3485SOL    HW222089   1.393   3.751   5.009  2.4443  2.2015 -0.0959
 3486SOL     OW22090   2.414   1.693   7.441  0.2810 -0.1455 -0.1454
 3486SOL    HW122091   2.407   1.786   7.417 -0.5010 -1.1719 -3.9171
 3486SOL    HW222092   2.322   1.672   7.457 -0.2758  1.5147 -1.1207
 3487SOL     OW22093   3.008   0.469  16.789  0.5014 -0.4185  0.4068
 3487SOL    HW122094   3.017   0.378  16.817 -1.4058 -0.9782 -0.8301
 3487SOL    HW222095   3.051   0.468  16.703 -1.5761  0.7067 -0.6501
 3488SOL     OW22096   0.314   1.194   2.449 -0.3795 -0.4965 -0.0177
 3488SOL    HW122097   0.242   1.235   2.497 -1.9526 -1.3726 -1.6279
 3488SOL    HW222098   0.271   1.112   2.426  1.0955 -1.5503  0.9995
 3489SOL     OW22099   0.524   2.468   6.669  0.1170  0.9114 -0.1333
 3489SOL    HW122100   0.518   2.436   6.579  2.0494  1.3103 -0.3841
 3489SOL    HW222101   0.434   2.501   6.667 -0.8482 -1.5375  2.2357
 3490SOL     OW22102   3.648   3.139   1.782  0.3309  0.0477  0.1375
 3490SOL    HW122103   3.675   3.053   1.749 -1.4035 -1.1845  1.9369
 3490SOL    HW222104   3.677   3.196   1.711  2.2108  0.0656  0.8987
 3491SOL     OW22105   1.425   0.921   2.036 -0.2563  0.1878  0.1714
 3491SOL    HW122106   1.349   0.875   2.002  0.3972  0.2625 -1.3817
 3491SOL    HW222107   1.434   0.883   2.124 -1.2833  1.1816  0.7061
 3492SOL     OW22108   2.316   2.933   8.278  0.2238 -0.1997 -0.4891
 3492SOL    HW122109   2.310   2.997   8.207  0.2397 -0.0991 -0.3986
 3492SOL    HW222110   2.232   2.888   8.274 -1.1223  2.3466 -0.5123
 3493SOL     OW22111   4.662   4.533   7.114 -0.1658 -0.1768  0.4554
 3493SOL    HW122112   4.646   4.443   7.140  1.1695  0.0965  2.1756
 3493SOL    HW222113   0.010   4.520   7.092 -0.4509 -1.5789  0.1195
 3494SOL     OW22114   4.614   3.183   7.818  1.0351  0.1000  0.7264
 3494SOL    HW122115   4.664   3.244   7.764 -0.3763  1.0802  0.4990
 3494SOL    HW222116   4.544   3.244   7.843 -0.1033 -0.8284 -0.2158
 3495SOL     OW22117   0.479   0.807   6.843  0.3763 -0.2892  0.1505
 3495SOL    HW122118   0.540   0.867   6.886 -1.3797  1.5048  0.1434
 3495SOL    HW222119   0.404   0.801   6.902 -0.8744 -0.6006 -1.4796
 3496SOL     OW22120   3.995   1.829   8.706  1.2379  0.3275  0.2172
 3496SOL    HW122121   3.971   1.902   8.648 -2.8394  0.2188  1.7586
 3496SOL    HW222122   3.913   1.787   8.734 -0.5081  2.2367 -2.0155
 3497SOL     OW22123   1.953   3.330   4.314  0.4748  0.1120 -0.2914
 3497SOL    HW122124   1.888   3.260   4.309  1.6690 -0.9945 -0.2571
 3497SOL    HW222125   1.891   3.390   4.356  0.0951  0.8148 -1.8563
 3498SOL     OW22126   2.083   4.597   7.246  0.0872  0.0533  0.4734
 3498SOL    HW122127   2.004   4.645   7.273  1.2284  2.0223  0.3200
 3498SOL    HW222128   2.062   4.510   7.279 -1.1442 -0.7116 -2.2818
 3499SOL     OW22129   3.112   1.029   7.416 -0.0032  0.3783  0.1835
 3499SOL    HW122130   3.103   0.975   7.337  1.0875  3.0784 -1.7718
 3499SOL    HW222131   3.020   1.038   7.440 -0.0392  0.0377  0.1809
 3500SOL     OW22132   4.367   4.317  17.478  0.4359 -0.1831  0.2335
 3500SOL    HW122133   4.311   4.251  17.518  0.6012  0.6903  1.9132
 3500SOL    HW222134   4.432   4.330  17.548 -1.5667 -0.6201  2.1918
 3501SOL     OW22135   2.414   0.647  17.561  0.4384  0.1082 -0.1509
 3501SOL    HW122136   2.412   0.672  17.653  0.6209  2.7402 -0.8664
 3501SOL    HW222137   2.326   0.610  17.552  0.4153 -0.0054  0.5618
 3502SOL     OW22138   3.197   4.146   9.281 -0.1776  0.1603  0.3862
 3502SOL    HW122139   3.273   4.188   9.320  0.3544 -0.8131  0.4143
 3502SOL    HW222140   3.137   4.218   9.297  1.2230  1.1918  0.9860
 3503SOL     OW22141   0.059   3.673   1.815  0.0023  0.6332 -0.3011
 3503SOL    HW122142   0.127   3.734   1.786  0.0804  0.5812 -0.2247
 3503SOL    HW222143   0.026   3.630   1.736 -0.1319  0.8170 -0.3474
 3504SOL     OW22144   1.360   3.940   2.275 -0.0822  0.1416 -0.3939
 3504SOL    HW122145   1.298   4.004   2.239 -0.6180 -1.5836 -2.4655
 3504SOL    HW222146   1.328   3.861   2.233 -2.2004  2.3098 -2.8636
 3505SOL     OW22147   4.217   3.270   3.975  0.0013  0.1289  0.3488
 3505SOL    HW122148   4.185   3.183   3.998  0.0787  0.5314  2.0241
 3505SOL    HW222149   4.222   3.277   3.880 -1.6058 -0.5300  0.2201
 3506SOL     OW22150   2.677   3.579   5.685  0.1092  0.3331  0.0753
 3506SOL    HW122151   2.752   3.585   5.744  0.3510 -0.5821 -0.1316
 3506SOL    HW222152   2.674   3.665   5.644 -1.5329  0.5657  0.6650
 3507SOL     OW22153   0.326   0.222   4.964 -0.8213  0.2638  0.0966
 3507SOL    HW122154   0.292   0.287   4.902 -0.2116  1.9713  1.5586
 3507SOL    HW222155   0.300   0.251   5.051 -0.2639 -1.8755  0.9774
 3508SOL     OW22156   3.214   3.485   2.563 -0.7457  0.3342  0.8080
 3508SOL    HW122157   3.196   3.416   2.626 -2.1393  0.4094  0.4972
 3508SOL    HW222158   3.142   3.458   2.505  0.1003 -4.0553  1.8106
 3509SOL     OW22159   0.394   1.117   8.789 -0.0845  0.3927 -0.1160
 3509SOL    HW122160   0.330   1.189   8.786 -0.9210 -0.4517 -2.5034
 3509SOL    HW222161   0.480   1.146   8.820  1.5808 -2.6810 -1.9260
 3510SOL     OW22162   0.703   1.165   0.858 -0.2776  0.4076  0.3305
 3510SOL    HW122163   0.794   1.148   0.880 -0.8305  1.2033  3.1712
 3510SOL    HW222164   0.707   1.219   0.778 -1.0116  1.2317  0.8515
 3511SOL     OW22165   2.328   0.168  15.620  0.7954 -0.2494 -0.3599
 3511SOL    HW122166   2.258   0.173  15.685  0.5379 -1.4478 -0.5430
 3511SOL    HW222167   2.314   0.254  15.580 -2.3086 -0.5323  0.1001
 3512SOL     OW22168   1.079   3.522   1.949 -0.0783 -0.5014 -0.3602
 3512SOL    HW122169   1.122   3.580   1.885 -2.1319  1.6595  0.2125
 3512SOL    HW222170   1.016   3.469   1.900 -0.9503 -0.6627  0.9349
 3513SOL     OW22171   0.987   2.191   9.369  0.5279 -0.7454 -0.2923
 3513SOL    HW122172   0.906   2.140   9.375  0.0096  0.1779  0.6242
 3513SOL    HW222173   0.951   2.279   9.363 -0.4610 -1.0811  0.4705
 3514SOL     OW22174   2.560   3.597   7.555  0.4510 -0.2408  0.1449
 3514SOL    HW122175   2.552   3.515   7.506  1.7114  0.2925 -0.9390
 3514SOL    HW222176   2.468   3.613   7.579 -0.3241 -0.7662 -2.5270
 3515SOL     OW22177   1.698   0.822   4.483  0.2344  0.0108  0.8236
 3515SOL    HW122178   1.775   0.801   4.432 -1.0121 -1.3913 -0.4728
 3515SOL    HW222179   1.737   0.872   4.555 -1.1151 -1.3343  2.4867
 3516SOL     OW22180   3.315   1.815   4.604 -0.4685 -0.0232  0.1644
 3516SOL    HW122181   3.338   1.801   4.696 -1.8659 -0.3317  0.4693
 3516SOL    HW222182   3.219   1.824   4.605 -0.5674 -1.0587 -0.2359
 3517SOL     OW22183   2.816   4.512   1.252  0.0290  0.1543 -0.3191
 3517SOL    HW122184   2.741   4.521   1.192  0.8846 -0.3640 -1.4741
 3517SOL    HW222185   2.786   4.450   1.318  0.3506  1.4917  1.0676
 3518SOL     OW22186   2.843   1.145   4.220  0.8045 -0.3076  0.4206
 3518SOL    HW122187   2.779   1.151   4.150 -1.3524 -1.7422  2.2713
 3518SOL    HW222188   2.924   1.174   4.177 -0.1244 -0.5074 -1.4071
 3519SOL     OW22189   0.355   1.255   4.231  0.0931 -0.0879  0.2038
 3519SOL    HW122190   0.309   1.229   4.151  0.4697  0.0548 -0.0617
 3519SOL    HW222191   0.428   1.308   4.197  1.3652 -2.2453 -0.4485
 3520SOL     OW22192   2.176   1.415   5.640  0.1923 -0.0328  0.0457
 3520SOL    HW122193   2.119   1.466   5.697  0.6494 -0.7820  1.1804
 3520SOL    HW222194   2.171   1.468   5.560 -1.4288  1.3731  1.0936
 3521SOL     OW22195   2.299   1.420   9.971  0.5265  0.4246 -0.4474
 3521SOL    HW122196   2.204   1.424   9.960  0.3718 -1.2199  0.2731
 3521SOL    HW222197   2.306   1.465  10.056 -0.8236 -1.5769  0.7131
 3522SOL     OW22198   0.896   1.104  12.470 -0.0881  0.6632  0.1188
 3522SOL    HW122199   0.844   1.090  12.549  1.8185 -2.2508  0.8379
 3522SOL    HW222200   0.937   1.189  12.488 -0.6931  0.6516  1.5083
 3523SOL     OW22201   0.030   4.087   0.553  0.4538 -0.5084  0.0268
 3523SOL    HW122202   4.716   4.132   0.493  1.5402  0.7119 -0.1075
 3523SOL    HW222203   4.716   4.077   0.629  0.1054  2.8470  0.2172
 3524SOL     OW22204   1.713   2.460   4.005  0.1508 -0.4328  0.0464
 3524SOL    HW122205   1.628   2.499   3.987  1.7134  1.2304 -3.6834
 3524SOL    HW222206   1.764   2.528   3.960  0.9410 -0.6571  0.5900
 3525SOL     OW22207   3.845   0.576   6.861  0.0573  0.5707  0.6457
 3525SOL    HW122208   3.761   0.589   6.816 -0.9294 -0.8383  2.0695
 3525SOL    HW222209   3.806   0.527   6.933  1.2211  2.0146  2.2612
 3526SOL     OW22210   2.395   2.469  17.403 -0.5749  0.5256  0.2868
 3526SOL    HW122211   2.444   2.551  17.405 -2.2246  1.5173  0.3932
 3526SOL    HW222212   2.462   2.401  17.400 -0.4043  0.7113 -0.0949
 3527SOL     OW22213   1.579   4.453   9.365 -0.0764  0.0298  0.5627
 3527SOL    HW122214   1.591   4.500   9.283 -0.5063 -1.4785 -0.3613
 3527SOL    HW222215   1.590   4.531   9.420  0.3696 -0.9702  1.9181
 3528SOL     OW22216   3.901   0.593  13.984  0.8226 -0.2319  0.2346
 3528SOL    HW122217   3.874   0.680  13.954  0.5431 -0.0858  0.9012
 3528SOL    HW222218   3.986   0.585  13.941  0.4487  2.0315 -0.9255
 3529SOL     OW22219   1.333   4.188   5.423  0.6475  0.1070 -0.0135
 3529SOL    HW122220   1.238   4.183   5.434  0.8291  1.1705  2.1571
 3529SOL    HW222221   1.347   4.282   5.440  0.3603 -0.4173  3.1556
 3530SOL     OW22222   1.518   2.539  15.291  0.0017  0.1394 -0.2215
 3530SOL    HW122223   1.439   2.485  15.292  0.3879 -0.4256 -0.5694
 3530SOL    HW222224   1.577   2.485  15.344 -1.4799 -0.4300  0.8631
 3531SOL     OW22225   3.560   4.194   9.011 -0.2983 -0.0686  0.2991
 3531SOL    HW122226   3.635   4.233   9.056 -1.1273 -0.4983  2.0592
 3531SOL    HW222227   3.590   4.104   8.999 -1.0016 -0.5149  1.8502
 3532SOL     OW22228   0.433   2.001   4.061 -0.1548  0.7013 -0.4150
 3532SOL    HW122229   0.513   1.996   4.114 -1.2621 -0.3951  1.1823
 3532SOL    HW222230   0.401   1.919   4.101  0.6826  0.5667 -0.0179
 3533SOL     OW22231   4.544   1.627   4.654  0.3252  0.1538 -0.3996
 3533SOL    HW122232   4.618   1.593   4.705  0.4523 -0.4382 -0.9815
 3533SOL    HW222233   4.475   1.570   4.688  0.3957 -0.3683 -1.1445
 3534SOL     OW22234   2.347   3.274   5.073 -0.4378  0.1827  0.2991
 3534SOL    HW122235   2.392   3.346   5.118 -0.2642  1.2055 -1.5194
 3534SOL    HW222236   2.298   3.322   5.007  0.2603  0.5491  0.0447
 3535SOL     OW22237   0.774   4.185   3.986 -0.4084  0.6353  0.0745
 3535SOL    HW122238   0.689   4.162   3.949 -0.3464  1.1789 -0.4173
 3535SOL    HW222239   0.807   4.250   3.924 -2.1579 -1.3523 -2.9581
 3536SOL     OW22240   2.252   0.766   4.727  0.1055  0.6785 -0.4035
 3536SOL    HW122241   2.280   0.706   4.657 -2.4716 -0.2176 -0.6568
 3536SOL    HW222242   2.228   0.706   4.798  1.5837 -0.8274 -1.1553
 3537SOL     OW22243   1.039   3.866   6.196  0.1378  0.8722 -0.2515
 3537SOL    HW122244   0.996   3.890   6.278  1.0644  0.4502  0.3626
 3537SOL    HW222245   0.968   3.818   6.153  0.5950 -0.8355  0.9041
 3538SOL     OW22246   3.124   3.382   4.163  0.1731 -0.0538  0.0998
 3538SOL    HW122247   3.209   3.399   4.123  0.9089 -2.3813  0.6688
 3538SOL    HW222248   3.110   3.295   4.124 -1.1427  0.5142 -0.7045
 3539SOL     OW22249   1.094   0.781   3.391 -0.2312 -0.3272 -0.2548
 3539SOL    HW122250   1.151   0.724   3.444 -0.2005 -0.0024  0.0590
 3539SOL    HW222251   1.073   0.843   3.461  4.2475  0.0724  0.7015
 3540SOL     OW22252   1.398   2.703   3.006  0.2934  0.4362 -0.1984
 3540SOL    HW122253   1.374   2.664   2.922  1.8493  1.3026 -1.0427
 3540SOL    HW222254   1.491   2.719   2.991  0.5674 -1.4182 -0.5072
 3541SOL     OW22255   1.789   3.429   1.402 -0.0499  0.2487 -0.5146
 3541SOL    HW122256   1.706   3.421   1.451 -0.2957 -0.2045 -0.9996
 3541SOL    HW222257   1.854   3.401   1.466 -0.9605  0.6841  0.6184
 3542SOL     OW22258   3.464   1.599   6.998  0.3120  0.4147 -0.4793
 3542SOL    HW122259   3.432   1.688   6.983 -0.5231 -0.0523 -1.4914
 3542SOL    HW222260   3.465   1.591   7.093  0.6198  0.8327 -0.4471
 3543SOL     OW22261   1.781   1.112  15.367 -0.2069  0.4744  0.0783
 3543SOL    HW122262   1.857   1.070  15.326  0.5433  1.4345  0.4724
 3543SOL    HW222263   1.717   1.042  15.369  2.2414 -1.8362 -2.5497
 3544SOL     OW22264   4.028   1.712  11.135  0.3750  0.4283  0.0366
 3544SOL    HW122265   4.066   1.784  11.084  0.8102  1.8078  2.2999
 3544SOL    HW222266   4.064   1.628  11.107 -0.8792 -0.2745  0.5102
 3545SOL     OW22267   3.137   4.043   7.026  0.3719  0.3046  0.9934
 3545SOL    HW122268   3.062   4.026   7.082  0.4001  0.7110  1.1550
 3545SOL    HW222269   3.094   4.074   6.947 -3.4190 -1.6268  2.3272
 3546SOL     OW22270   2.728   1.236  12.275 -0.1954  0.1959  0.0044
 3546SOL    HW122271   2.761   1.249  12.186  0.5390 -2.6901 -0.1694
 3546SOL    HW222272   2.793   1.176  12.313 -1.3283 -0.9629  0.1199
 3547SOL     OW22273   3.317   1.336   2.627 -0.1007  0.2833 -0.1776
 3547SOL    HW122274   3.295   1.303   2.540 -0.7428  3.8133 -1.3401
 3547SOL    HW222275   3.234   1.355   2.671  0.1242 -1.2036  0.8631
 3548SOL     OW22276   0.495   2.922   6.613 -0.3192 -0.1357  0.0954
 3548SOL    HW122277   0.563   2.885   6.669  0.8149  0.6913 -0.7402
 3548SOL    HW222278   0.454   2.969   6.686 -0.6747  0.8060 -0.7189
 3549SOL     OW22279   2.873   4.014  12.983  0.2221 -0.6045  0.7101
 3549SOL    HW122280   2.870   4.057  13.068  0.5817 -0.0330  0.4297
 3549SOL    HW222281   2.811   3.942  12.995  0.4555 -0.8725  0.3210
 3550SOL     OW22282   2.225   2.483   5.396  0.2502  0.9507 -0.3222
 3550SOL    HW122283   2.288   2.522   5.337 -2.1970  1.7020 -2.4197
 3550SOL    HW222284   2.150   2.529   5.359 -1.3734 -1.6427 -0.2363
 3551SOL     OW22285   4.536   3.677   6.082 -0.2178 -0.7477 -0.1377
 3551SOL    HW122286   4.619   3.679   6.035 -0.7914  0.4488 -1.0984
 3551SOL    HW222287   4.565   3.666   6.172  0.4572 -0.1787 -0.2877
 3552SOL     OW22288   2.967   0.613   6.993  0.3581  0.2778  0.3605
 3552SOL    HW122289   2.923   0.587   7.074 -0.1203  1.7739  0.5822
 3552SOL    HW222290   2.895   0.613   6.931 -0.0399 -1.8019  0.8333
 3553SOL     OW22291   0.232   1.410  16.771 -0.7807 -0.4779 -0.4614
 3553SOL    HW122292   0.230   1.500  16.738  0.1398  0.5819  2.3240
 3553SOL    HW222293   0.274   1.375  16.693 -0.1347 -0.7141 -0.0070
 3554SOL     OW22294   0.070   3.988  15.597  0.3557 -0.4312  0.4373
 3554SOL    HW122295   0.039   3.967  15.685  0.5231  0.1431  0.6308
 3554SOL    HW222296   0.089   3.899  15.568  0.5807 -0.1845 -0.1592
 3555SOL     OW22297   3.195   1.514   7.534  0.1136 -0.1655 -0.0142
 3555SOL    HW122298   3.115   1.483   7.492 -0.0093  1.1117 -0.7210
 3555SOL    HW222299   3.268   1.460   7.503 -0.7838 -1.1432 -0.4092
 3556SOL     OW22300   3.038   4.046   6.222 -0.3499  0.5129  0.5268
 3556SOL    HW122301   3.093   4.022   6.297  0.1617  1.5372  0.4809
 3556SOL    HW222302   2.960   3.996   6.247  1.5815 -1.9263  1.6862
 3557SOL     OW22303   4.204   1.015   7.838 -0.1803 -0.5140 -0.1641
 3557SOL    HW122304   4.218   1.103   7.874  1.8383 -0.8862 -0.0393
 3557SOL    HW222305   4.109   1.027   7.829 -0.4665 -2.9820 -0.4005
 3558SOL     OW22306   4.083   1.473   6.980 -0.4245 -0.4573 -0.8037
 3558SOL    HW122307   4.139   1.407   6.940  0.3355 -0.4802  0.2936
 3558SOL    HW222308   4.126   1.554   6.953  0.5954 -0.6213  0.3229
 3559SOL     OW22309   3.691   0.956   9.108  0.3448  0.1996 -0.2728
 3559SOL    HW122310   3.756   0.915   9.051 -0.7145 -0.6380 -0.8755
 3559SOL    HW222311   3.670   0.875   9.156  0.1722 -0.1212 -0.8926
 3560SOL     OW22312   3.551   3.071   2.144  0.5916  0.1003  0.3128
 3560SOL    HW122313   3.579   3.163   2.140 -0.1409  0.3647  1.1127
 3560SOL    HW222314   3.483   3.075   2.211 -0.1455 -2.7237 -0.2971
 3561SOL     OW22315   0.823   3.749   0.407 -0.3656  0.1385 -0.3547
 3561SOL    HW122316   0.891   3.796   0.454 -0.2463 -0.9575  0.5730
 3561SOL    HW222317   0.826   3.774   0.315 -1.6395  4.2422  0.7414
 3562SOL     OW22318   2.217   1.993   0.818  0.2185 -0.1305 -0.6233
 3562SOL    HW122319   2.233   2.021   0.908 -0.8144 -0.7122 -0.2532
 3562SOL    HW222320   2.293   2.023   0.768 -0.7327 -1.5243 -2.9120
 3563SOL     OW22321   4.558   2.655   6.167 -0.3802 -0.3639 -0.5251
 3563SOL    HW122322   4.600   2.686   6.248 -2.9687 -0.3800  0.8159
 3563SOL    HW222323   4.637   2.623   6.124  0.4922 -0.8986  1.4345
 3564SOL     OW22324   2.670   1.165   6.110 -0.1038  0.3714  0.1388
 3564SOL    HW122325   2.584   1.202   6.091 -0.2370  0.3370  0.6577
 3564SOL    HW222326   2.664   1.078   6.069 -0.3580  0.5611 -0.2232
 3565SOL     OW22327   0.371   1.939   1.981 -0.2899 -0.6227 -0.0291
 3565SOL    HW122328   0.339   1.998   2.049 -2.8141 -0.8104 -1.0412
 3565SOL    HW222329   0.418   1.868   2.025 -0.2442  0.8826  2.3305
 3566SOL     OW22330   3.579   3.167   7.859 -0.4001 -0.3154  1.2630
 3566SOL    HW122331   3.489   3.170   7.891 -0.2428 -2.3731  1.9341
 3566SOL    HW222332   3.586   3.242   7.800 -0.3218 -1.0330  0.3573
 3567SOL     OW22333   0.061   2.497   4.968  0.1607  0.0897 -0.2208
 3567SOL    HW122334   0.055   2.570   4.905 -1.7916  0.2889  0.2107
 3567SOL    HW222335   0.124   2.451   4.912  1.0222  0.0630  0.7692
 3568SOL     OW22336   2.411   2.261   6.478  0.7255 -0.2434 -0.5120
 3568SOL    HW122337   2.417   2.327   6.409 -1.4784  2.2887  1.7129
 3568SOL    HW222338   2.387   2.182   6.430 -0.5549 -2.2389  3.4232
 3569SOL     OW22339   2.690   2.689  17.120 -0.4951 -0.0984  0.9458
 3569SOL    HW122340   2.644   2.741  17.054  2.3823  0.7692 -0.3416
 3569SOL    HW222341   2.616   2.648  17.165  0.5952 -1.1788  1.7448
 3570SOL     OW22342   0.997   0.681   9.309 -0.3694  0.3109  0.0588
 3570SOL    HW122343   0.983   0.586   9.298  1.9795  0.0250 -0.5229
 3570SOL    HW222344   0.953   0.712   9.230  0.9650 -0.7357 -1.0901
 3571SOL     OW22345   1.951   2.826   2.138 -0.1856 -0.0439 -0.4540
 3571SOL    HW122346   1.868   2.812   2.183  0.7282 -0.8321  0.9975
 3571SOL    HW222347   1.960   2.744   2.089  0.1179  0.9146 -1.9862
 3572SOL     OW22348   4.480   1.540   7.535 -0.0750 -0.4124  0.5215
 3572SOL    HW122349   4.474   1.623   7.488  1.3389 -0.3184  0.5110
 3572SOL    HW222350   4.395   1.500   7.518  0.4888 -1.0164 -0.8424
 3573SOL     OW22351   1.128   1.944  10.772  0.1365 -0.3010  0.0102
 3573SOL    HW122352   1.101   2.036  10.764 -0.9581 -0.6102  0.1537
 3573SOL    HW222353   1.211   1.943  10.724 -0.7081 -0.0277 -1.4767
 3574SOL     OW22354   1.879   3.633   2.941 -0.0106 -0.6629 -0.2835
 3574SOL    HW122355   1.843   3.643   2.853 -0.6092 -2.0491 -0.2020
 3574SOL    HW222356   1.803   3.648   2.997 -0.4691 -1.1392 -0.7739
 3575SOL     OW22357   3.857   2.944   1.345 -0.5434  0.5257 -0.1336
 3575SOL    HW122358   3.917   2.901   1.284  1.4418 -0.4504  2.5023
 3575SOL    HW222359   3.893   3.032   1.330 -1.0088  1.0287  1.7574
 3576SOL     OW22360   1.641   2.590   6.735 -0.3459  0.3045  0.3563
 3576SOL    HW122361   1.660   2.683   6.747 -3.5726  0.8557  1.4299
 3576SOL    HW222362   1.639   2.588   6.640  0.9590  0.0547  0.3360
 3577SOL     OW22363   1.019   0.211   8.666  0.0158  0.1647  0.8541
 3577SOL    HW122364   1.059   0.191   8.751 -1.7363  1.8560  2.0785
 3577SOL    HW222365   0.927   0.223   8.690 -0.0081 -1.0681  1.3557
 3578SOL     OW22366   1.316   0.132   3.653  0.4043  0.0095  0.4179
 3578SOL    HW122367   1.230   0.171   3.639  0.6308  0.3075 -0.1417
 3578SOL    HW222368   1.326   0.088   3.569  0.1700  1.8853 -0.6033
 3579SOL     OW22369   1.634   4.262   5.351  0.1603 -0.0091 -0.0740
 3579SOL    HW122370   1.590   4.286   5.270  0.0430  1.8498  0.5432
 3579SOL    HW222371   1.573   4.270   5.424 -1.7154  0.3339 -1.6919
 3580SOL     OW22372   1.142   2.044   4.947  0.1104 -0.2660 -0.1930
 3580SOL    HW122373   1.193   2.019   4.870 -0.5111 -1.2289 -0.2873
 3580SOL    HW222374   1.192   2.099   5.008  0.2707 -1.5415  0.8161
 3581SOL     OW22375   3.115   1.553   4.798 -0.1177 -0.0402  0.0332
 3581SOL    HW122376   3.047   1.606   4.839 -0.8252 -0.0421 -1.1571
 3581SOL    HW222377   3.147   1.598   4.721 -0.7598 -2.1583 -1.4741
 3582SOL     OW22378   1.042   4.544  15.852  0.1190 -0.4246  0.2577
 3582SOL    HW122379   1.102   4.487  15.805 -0.4921  2.5120 -4.0680
 3582SOL    HW222380   0.991   4.583  15.780 -0.8953 -0.4873  0.9415
 3583SOL     OW22381   1.431   4.246   7.565 -0.1797  0.0670  0.1410
 3583SOL    HW122382   1.463   4.190   7.495  2.2242 -1.4020  2.4237
 3583SOL    HW222383   1.505   4.250   7.626  1.1842  0.9496 -1.5880
 3584SOL     OW22384   0.713   4.068   4.278  0.4367  0.0396  0.8910
 3584SOL    HW122385   0.737   4.071   4.186 -1.1230  2.7457  0.5690
 3584SOL    HW222386   0.729   3.975   4.293  3.7107  0.4435 -0.1766
 3585SOL     OW22387   4.229   3.414  13.263  0.4074 -0.2658  0.5622
 3585SOL    HW122388   4.314   3.382  13.232 -0.2224 -1.4964  0.1198
 3585SOL    HW222389   4.168   3.403  13.190 -0.5555  1.4250  1.1008
 3586SOL     OW22390   3.229   0.730  11.486 -0.2084  0.1336 -0.2729
 3586SOL    HW122391   3.179   0.727  11.567  1.5849 -1.9310  0.7827
 3586SOL    HW222392   3.216   0.823  11.472  0.3594 -0.2246 -3.2128
 3587SOL     OW22393   0.852   0.028  16.395 -0.3106  0.5076 -0.4922
 3587SOL    HW122394   0.815   0.082  16.325  1.6144 -0.2378 -2.0616
 3587SOL    HW222395   0.786   4.704  16.410  0.1831  0.6834  2.4695
 3588SOL     OW22396   4.481   0.566   3.307  0.0608 -0.1995  0.9019
 3588SOL    HW122397   4.415   0.568   3.238  1.1697  1.2771 -0.1132
 3588SOL    HW222398   4.490   0.472   3.322  2.1899  0.0275  1.0345
 3589SOL     OW22399   2.224   0.483   7.495 -0.0824 -0.3563  0.0346
 3589SOL    HW122400   2.207   0.516   7.407  0.3890  0.4221  0.2372
 3589SOL    HW222401   2.216   0.560   7.551 -2.3669  0.3310 -1.2462
 3590SOL     OW22402   0.022   3.613  10.294 -0.4217 -0.0404 -0.7406
 3590SOL    HW122403   4.685   3.593  10.247 -1.9384  1.3542  1.2663
 3590SOL    HW222404   0.022   3.542  10.358 -3.5797  1.1462  0.5833
 3591SOL     OW22405   4.143   4.332  15.461 -0.2596 -0.1612 -0.4456
 3591SOL    HW122406   4.173   4.262  15.520 -1.3481 -0.2980 -0.0433
 3591SOL    HW222407   4.063   4.297  15.423 -0.5559 -1.6526  1.5073
 3592SOL     OW22408   4.273   4.556   6.088  0.3417  0.2269 -0.1252
 3592SOL    HW122409   4.344   4.602   6.133  1.3133  0.6988 -2.1223
 3592SOL    HW222410   4.197   4.591   6.134  0.3047 -1.6033  1.1882
 3593SOL     OW22411   1.751   1.106   8.514  0.2594 -0.3600 -0.3408
 3593SOL    HW122412   1.682   1.063   8.565  1.5106 -0.7475  1.0347
 3593SOL    HW222413   1.800   1.028   8.488  1.7108  0.6438 -0.6111
 3594SOL     OW22414   1.196   4.448  13.072  0.1594  0.1236 -0.7682
 3594SOL    HW122415   1.125   4.478  13.129  1.0608 -0.6800  0.7512
 3594SOL    HW222416   1.254   4.398  13.129  0.2624 -2.8435 -3.4645
 3595SOL     OW22417   3.138   4.624   6.620  0.0076 -0.2909 -0.1437
 3595SOL    HW122418   3.069   4.630   6.553  1.4453  1.2538 -1.4636
 3595SOL    HW222419   3.217   4.647   6.573 -0.7393 -0.7133 -1.6073
 3596SOL     OW22420   4.266   0.029   4.778 -0.8158  0.3510 -0.4694
 3596SOL    HW122421   4.248   0.122   4.789 -1.0752  0.3274 -0.7152
 3596SOL    HW222422   4.305   0.029   4.690 -0.6008  2.7506 -0.3620
 3597SOL     OW22423   0.123   4.469   8.347 -0.7350 -0.7127 -0.8924
 3597SOL    HW122424   0.109   4.470   8.252 -2.6512  3.8281 -0.5515
 3597SOL    HW222425   0.099   4.560   8.363  1.0891 -0.1198 -1.5558
 3598SOL     OW22426   3.816   3.470   1.631 -0.4145 -0.2725 -0.2931
 3598SOL    HW122427   3.825   3.376   1.647  1.3041 -0.1460 -0.4680
 3598SOL    HW222428   3.775   3.507   1.709  0.9074  0.3351  0.1130
 3599SOL     OW22429   4.433   2.330  16.400 -0.3459  0.1312  0.3692
 3599SOL    HW122430   4.357   2.282  16.434  1.1500 -0.8582  2.3683
 3599SOL    HW222431   4.405   2.421  16.389  0.3972  0.5620  2.0802
 3600SOL     OW22432   3.776   2.914   0.473  0.0420  0.2589  0.4628
 3600SOL    HW122433   3.695   2.864   0.479  0.1368  0.2904  1.9012
 3600SOL    HW222434   3.764   2.979   0.542 -0.4490  1.3610 -0.6470
 3601SOL     OW22435   3.968   3.897  11.435  0.4840 -0.0354 -0.1868
 3601SOL    HW122436   3.930   3.955  11.500 -0.2798  0.7143 -1.2952
 3601SOL    HW222437   4.015   3.836  11.491 -0.2518  0.2410  0.7282
 3602SOL     OW22438   0.466   3.746   1.012  0.2237  0.6424 -0.1566
 3602SOL    HW122439   0.530   3.762   0.942 -0.0800 -0.1954 -0.6295
 3602SOL    HW222440   0.483   3.819   1.070  1.6632 -0.6133  0.9976
 3603SOL     OW22441   4.442   1.064   5.014 -0.2835  0.2486 -0.4365
 3603SOL    HW122442   4.387   1.014   4.955 -1.2104  0.1807  0.4903
 3603SOL    HW222443   4.420   1.030   5.101  1.0209 -0.3725 -0.3520
 3604SOL     OW22444   2.531   0.114   3.090  0.0495 -0.2732 -0.1046
 3604SOL    HW122445   2.524   0.092   3.183  0.1144 -0.3401 -0.1149
 3604SOL    HW222446   2.623   0.142   3.090  0.5058 -1.7422 -0.8263
 3605SOL     OW22447   1.816   2.266   1.657  0.0072 -0.0607  1.0220
 3605SOL    HW122448   1.859   2.193   1.702 -0.9768 -0.6516  1.0099
 3605SOL    HW222449   1.859   2.246   1.574 -2.1102 -1.9817  0.3764
 3606SOL     OW22450   4.419   0.250  11.080 -0.0238 -0.2736 -0.2988
 3606SOL    HW122451   4.503   0.203  11.079  0.0575 -0.0905 -1.4184
 3606SOL    HW222452   4.405   0.248  11.175 -3.3800  1.3194 -0.7728
 3607SOL     OW22453   3.394   0.692  12.021  0.4420  0.8376 -0.0559
 3607SOL    HW122454   3.463   0.714  11.957  0.3517 -0.2820 -0.5437
 3607SOL    HW222455   3.422   0.734  12.102 -0.9988  0.5619  0.5880
 3608SOL     OW22456   4.316   1.241   0.844  0.1660  0.5209  0.5054
 3608SOL    HW122457   4.281   1.328   0.865 -3.7500 -0.8895 -0.1523
 3608SOL    HW222458   4.404   1.251   0.880  0.4115 -0.4423  0.1604
 3609SOL     OW22459   3.702   1.257  16.884  0.5807 -0.0881  0.3207
 3609SOL    HW122460   3.654   1.237  16.803  0.8373 -2.8322  0.8244
 3609SOL    HW222461   3.769   1.314  16.847  1.3122  0.0442  1.8580
 3610SOL     OW22462   4.521   2.789   5.863  0.1636 -0.2416 -0.1038
 3610SOL    HW122463   4.514   2.808   5.956  1.4818 -2.1357  0.3900
 3610SOL    HW222464   4.509   2.695   5.850  0.9830 -0.7170  2.5878
 3611SOL     OW22465   3.861   1.951   1.915 -0.4509 -0.1704  0.0930
 3611SOL    HW122466   3.862   1.893   1.991  1.9395 -0.5050 -0.1995
 3611SOL    HW222467   3.954   1.944   1.892 -0.0725  2.0081  0.9749
 3612SOL     OW22468   0.060   4.334   6.730 -0.3574 -0.6497  0.1643
 3612SOL    HW122469   0.112   4.358   6.807 -0.0689 -1.8233  0.3249
 3612SOL    HW222470   4.736   4.286   6.778 -1.7761  2.2217  1.0386
 3613SOL     OW22471   3.237   2.673   1.814 -0.2836 -0.2019  0.5308
 3613SOL    HW122472   3.253   2.616   1.889 -0.5092 -2.1616 -0.9182
 3613SOL    HW222473   3.178   2.737   1.854  1.5615  0.6299  1.8897
 3614SOL     OW22474   0.383   2.249  10.213  0.1655 -0.3324  0.0380
 3614SOL    HW122475   0.400   2.291  10.128 -0.3349  0.0233  0.1143
 3614SOL    HW222476   0.399   2.321  10.273 -0.2247 -0.0675 -0.1777
 3615SOL     OW22477   0.007   1.320   3.295  0.0140 -0.5309  0.3340
 3615SOL    HW122478   4.711   1.334   3.209  0.1164 -0.4580  0.2984
 3615SOL    HW222479   0.011   1.407   3.332  0.2389 -0.2816 -0.2657
 3616SOL     OW22480   2.606   0.545  13.457  0.2473  0.1498 -0.2023
 3616SOL    HW122481   2.604   0.575  13.548 -1.9445 -0.7145  0.0388
 3616SOL    HW222482   2.651   0.461  13.471  1.5410  0.9589  0.5624
 3617SOL     OW22483   1.243   3.791   8.620  0.0895  0.8172  0.3357
 3617SOL    HW122484   1.306   3.769   8.552 -1.2592 -1.8050 -0.0817
 3617SOL    HW222485   1.173   3.728   8.599  0.7335  0.5771 -1.0664
 3618SOL     OW22486   2.689   0.126   1.171 -0.2800  0.2016 -0.0443
 3618SOL    HW122487   2.659   0.216   1.172 -0.9888 -0.0650  2.7198
 3618SOL    HW222488   2.690   0.118   1.266 -0.8752 -3.0251 -0.3057
 3619SOL     OW22489   3.831   0.723   5.396 -0.0473  0.4814  0.4318
 3619SOL    HW122490   3.887   0.754   5.467  1.9342 -2.2757  0.0240
 3619SOL    HW222491   3.746   0.760   5.421  0.8279  2.8869 -0.1696
 3620SOL     OW22492   3.946   2.092   1.006  0.4385  0.0935 -0.3727
 3620SOL    HW122493   3.975   2.003   1.023  1.3553  0.4026 -0.3090
 3620SOL    HW222494   3.968   2.103   0.914  0.3749 -1.8365 -0.6121
 3621SOL     OW22495   0.358   1.724  12.109 -0.9600 -0.7044 -0.4241
 3621SOL    HW122496   0.413   1.656  12.072 -0.3527 -0.4332 -0.0188
 3621SOL    HW222497   0.385   1.706  12.199  3.7212  1.1419 -1.4479
 3622SOL     OW22498   1.935   2.230   7.469  0.0513  0.4045  0.2222
 3622SOL    HW122499   1.863   2.293   7.469 -0.6060 -0.3329  1.9995
 3622SOL    HW222500   1.997   2.275   7.527  0.1872  0.6251 -0.0933
 3623SOL     OW22501   3.429   0.439   6.053  0.1606  0.2288  0.5305
 3623SOL    HW122502   3.342   0.459   6.021 -0.1061 -1.9987 -0.1460
 3623SOL    HW222503   3.445   0.367   5.992  0.7127 -0.1607  1.1262
 3624SOL     OW22504   3.118   4.191   3.722 -0.1967  0.4791  0.7302
 3624SOL    HW122505   3.086   4.121   3.779  2.2854  0.2969  1.8954
 3624SOL    HW222506   3.195   4.210   3.775  1.9012 -1.8079 -1.5120
 3625SOL     OW22507   2.763   0.959   7.894  0.0837  0.0030 -0.3008
 3625SOL    HW122508   2.721   0.915   7.820  1.6146  1.0169 -1.7581
 3625SOL    HW222509   2.755   1.045   7.854 -2.6742  0.9173  2.1647
 3626SOL     OW22510   2.906   2.149   1.179 -0.2508  0.0442  0.7379
 3626SOL    HW122511   2.976   2.117   1.235  0.2202  1.1612  0.7890
 3626SOL    HW222512   2.961   2.151   1.100  1.7473 -0.9895  2.1121
 3627SOL     OW22513   2.273   0.657   4.222  0.0893 -0.2087  0.1539
 3627SOL    HW122514   2.334   0.713   4.174  2.6615 -1.3955  1.9939
 3627SOL    HW222515   2.298   0.566   4.202 -0.4456  0.0529 -1.6531
 3628SOL     OW22516   1.850   1.394   3.032 -0.1958 -0.4871  0.2567
 3628SOL    HW122517   1.829   1.413   3.124  0.5543 -0.0131  0.3249
 3628SOL    HW222518   1.766   1.355   3.005 -0.1675 -1.2071  1.2465
 3629SOL     OW22519   1.433   2.496   4.038  0.2408  0.1400 -0.4497
 3629SOL    HW122520   1.449   2.504   4.132 -2.8618  0.0605  0.0885
 3629SOL    HW222521   1.365   2.429   4.034  2.0053 -1.5978 -1.1153
 3630SOL     OW22522   4.303   3.879   0.529 -0.1047 -0.0120 -0.2610
 3630SOL    HW122523   4.337   3.800   0.487 -0.5483  0.0144 -0.6733
 3630SOL    HW222524   4.220   3.854   0.570  1.0111 -0.4967  1.7021
 3631SOL     OW22525   0.342   4.566   8.692 -0.2353 -0.3790  0.5931
 3631SOL    HW122526   0.391   4.484   8.698  0.8692  0.3380  1.4515
 3631SOL    HW222527   0.365   4.615   8.771  0.5169 -1.1146  0.8232
 3632SOL     OW22528   0.493   2.291   4.765 -0.2316 -0.4526  0.2283
 3632SOL    HW122529   0.522   2.359   4.704 -0.8318 -0.8154 -0.4598
 3632SOL    HW222530   0.564   2.286   4.829  1.6001  0.5868 -1.7340
 3633SOL     OW22531   3.935   2.704   0.586 -0.0499 -0.4302  0.1256
 3633SOL    HW122532   3.903   2.791   0.559 -0.6090 -0.0617  1.9948
 3633SOL    HW222533   3.871   2.649   0.540  0.4187 -0.4693 -0.4774
 3634SOL     OW22534   1.110   3.432  16.085  0.6468 -0.6359 -0.3208
 3634SOL    HW122535   1.173   3.450  16.155 -0.8075 -0.5271  0.9523
 3634SOL    HW222536   1.121   3.338  16.078 -0.4114 -0.5847 -2.7207
 3635SOL     OW22537   1.285   4.694   3.864 -0.0333 -0.5001  0.0825
 3635SOL    HW122538   1.298   0.019   3.799  2.0097  0.5257  1.6032
 3635SOL    HW222539   1.243   4.630   3.805 -2.5279 -1.0064  2.3974
 3636SOL     OW22540   3.961   0.433   4.549  0.0216  0.1983  0.4026
 3636SOL    HW122541   3.868   0.453   4.560 -0.3235 -2.1826  1.8177
 3636SOL    HW222542   3.960   0.342   4.522 -1.2122  0.6150 -0.9721
 3637SOL     OW22543   1.193   2.345   9.594 -0.2271  0.3297 -0.5209
 3637SOL    HW122544   1.240   2.270   9.558 -1.7436 -1.6466  1.5650
 3637SOL    HW222545   1.140   2.300   9.661  1.7748  0.8301  1.3764
 3638SOL     OW22546   1.034   3.620   2.921 -0.0887  0.5581  0.5014
 3638SOL    HW122547   0.989   3.678   2.860  0.0625 -2.1456 -2.1761
 3638SOL    HW222548   1.051   3.682   2.992 -1.5117 -0.5101  1.7742
 3639SOL     OW22549   3.889   0.443   3.021 -0.2287 -0.3692  0.5264
 3639SOL    HW122550   3.961   0.384   3.043 -0.6305 -0.8488  0.5831
 3639SOL    HW222551   3.903   0.457   2.927  1.1905  4.0418  1.4087
 3640SOL     OW22552   4.084   1.787   5.002  0.1689  0.2399 -0.6351
 3640SOL    HW122553   4.107   1.699   5.032 -0.6772  0.2318 -0.0217
 3640SOL    HW222554   4.105   1.770   4.910  0.6049  0.4223 -0.5729
 3641SOL     OW22555   4.266   3.741   0.836 -0.1783 -0.1214  0.1981
 3641SOL    HW122556   4.314   3.711   0.759  1.9600  0.4836  1.3034
 3641SOL    HW222557   4.197   3.674   0.841 -0.7139  0.6360  2.6161
 3642SOL     OW22558   1.534   1.316   6.550  0.4404  0.3490  0.0389
 3642SOL    HW122559   1.530   1.319   6.454  1.4389 -0.4330 -0.0293
 3642SOL    HW222560   1.472   1.247   6.571  1.5736 -0.5420  0.4456
 3643SOL     OW22561   3.650   0.530  10.301  0.0356 -0.2612  0.3880
 3643SOL    HW122562   3.587   0.602  10.295  0.8967  0.4856  0.1487
 3643SOL    HW222563   3.586   0.461  10.318  1.7214 -1.8944  0.1633
 3644SOL     OW22564   1.142   2.788  17.150  0.2294  0.3464 -1.1386
 3644SOL    HW122565   1.083   2.794  17.225 -0.5115 -0.2930 -1.6765
 3644SOL    HW222566   1.196   2.725  17.197  0.0761  1.2748  0.2990
 3645SOL     OW22567   0.488   4.384   2.788  0.0968 -0.0785  0.1072
 3645SOL    HW122568   0.438   4.455   2.747  1.0540  1.2497  1.2129
 3645SOL    HW222569   0.456   4.382   2.879 -0.6855  1.1372 -0.1424
 3646SOL     OW22570   0.410   1.405   9.027 -0.4024  0.6366 -0.1033
 3646SOL    HW122571   0.322   1.409   9.062 -0.9321 -1.3455 -1.1890
 3646SOL    HW222572   0.399   1.450   8.943 -2.7741 -0.5120 -0.3943
 3647SOL     OW22573   1.547   1.719   1.438  0.1188  0.0316  0.4599
 3647SOL    HW122574   1.460   1.706   1.402 -0.7350 -1.3083  3.0346
 3647SOL    HW222575   1.550   1.673   1.522 -0.0693 -0.1497  0.3662
 3648SOL     OW22576   0.428   0.453   4.313 -0.2921 -0.1121 -0.7738
 3648SOL    HW122577   0.351   0.507   4.325  0.1207 -0.4672  3.4639
 3648SOL    HW222578   0.454   0.450   4.221  1.0931 -3.1786 -0.3158
 3649SOL     OW22579   0.867   2.880  13.169  0.4124 -0.6799  0.5629
 3649SOL    HW122580   0.855   2.808  13.107 -0.5537 -0.1294  0.1054
 3649SOL    HW222581   0.789   2.865  13.221  1.7416 -0.9390  2.4996
 3650SOL     OW22582   3.558   2.974  12.743 -0.1151  0.0838  0.1349
 3650SOL    HW122583   3.540   2.880  12.752  1.1608 -0.1970 -0.1776
 3650SOL    HW222584   3.525   2.985  12.654 -1.7015 -0.5633  0.6442
 3651SOL     OW22585   3.665   4.311   3.885  0.0612 -0.0265 -0.3088
 3651SOL    HW122586   3.674   4.330   3.792 -0.6806  2.1284  0.0679
 3651SOL    HW222587   3.735   4.366   3.921  0.0450 -0.2434  0.0667
 3652SOL     OW22588   3.043   2.940   5.852  0.0743 -0.0836  0.9971
 3652SOL    HW122589   3.049   2.975   5.763  1.1691  1.0004  1.4979
 3652SOL    HW222590   3.066   2.851   5.824  1.3311  0.2348  1.0385
 3653SOL     OW22591   1.352   1.008   6.157  0.2532 -0.6933  0.2592
 3653SOL    HW122592   1.323   0.984   6.069  1.9547  0.5351 -0.6375
 3653SOL    HW222593   1.342   1.103   6.162  0.4863 -0.6187 -0.6983
 3654SOL     OW22594   2.066   0.078   3.239  0.9965 -0.4313  0.3245
 3654SOL    HW122595   2.063   4.726   3.230 -0.4741 -0.4394  0.8458
 3654SOL    HW222596   2.147   0.079   3.291  1.2588  1.9465 -0.1297
 3655SOL     OW22597   4.017   0.934   8.828  0.1867  0.0501 -0.0501
 3655SOL    HW122598   3.958   0.858   8.827  2.3698 -1.6767  2.0488
 3655SOL    HW222599   3.960   1.001   8.866  0.2057 -1.0853  1.9610
 3656SOL     OW22600   0.244   2.603   8.561  0.0884  0.1759 -0.0383
 3656SOL    HW122601   0.319   2.550   8.534 -0.2464  0.2168 -1.0379
 3656SOL    HW222602   0.256   2.680   8.504  2.3526  1.6777  2.4698
 3657SOL     OW22603   2.049   3.618   3.981  0.7357 -0.3464  0.0597
 3657SOL    HW122604   2.009   3.667   3.909 -1.7858 -2.0771  0.2608
 3657SOL    HW222605   2.098   3.556   3.928  2.3533  1.4894 -0.5691
 3658SOL     OW22606   3.419   0.376   4.758  0.3032  0.0485  0.1647
 3658SOL    HW122607   3.407   0.466   4.786  0.5317  0.4280 -0.9464
 3658SOL    HW222608   3.425   0.383   4.663  1.1055  0.2822  0.2275
 3659SOL     OW22609   1.981   1.876  13.406  0.3815 -0.9269 -0.2751
 3659SOL    HW122610   2.064   1.887  13.361  1.2356  0.6691  1.6989
 3659SOL    HW222611   1.937   1.960  13.398 -0.6468 -1.1760  2.6282
 3660SOL     OW22612   2.512   4.507   5.827 -0.0259 -0.0110 -0.2083
 3660SOL    HW122613   2.470   4.512   5.741  0.8270  0.2171 -0.6155
 3660SOL    HW222614   2.440   4.488   5.888 -1.5330  1.8002 -1.4332
 3661SOL     OW22615   0.298   2.730   0.128  0.0411  0.0905  0.6229
 3661SOL    HW122616   0.236   2.663   0.097  0.0018  1.0502 -1.3856
 3661SOL    HW222617   0.295   2.787   0.051 -0.7824  1.1232  1.4355
 3662SOL     OW22618   4.050   2.728   6.685  0.0668 -0.2330  0.0551
 3662SOL    HW122619   4.116   2.709   6.752 -1.9049  0.6029  2.2648
 3662SOL    HW222620   4.089   2.696   6.604 -1.0212 -1.6705  0.1080
 3663SOL     OW22621   4.715   2.548   8.558 -0.1516  0.0042 -0.3719
 3663SOL    HW122622   0.065   2.566   8.560  0.3493 -2.8330  1.2651
 3663SOL    HW222623   4.719   2.459   8.524  0.1487 -0.7617  1.6547
 3664SOL     OW22624   2.356   3.798   6.475  0.0727 -0.1571 -0.0894
 3664SOL    HW122625   2.424   3.786   6.542  1.0377  4.0801 -0.3415
 3664SOL    HW222626   2.409   3.818   6.397  2.7835  0.1861  1.8399
 3665SOL     OW22627   1.008   4.012  13.317  0.0861 -0.3478  0.0826
 3665SOL    HW122628   1.090   4.060  13.308 -0.0704 -0.3772 -1.5218
 3665SOL    HW222629   0.943   4.061  13.368 -1.4905 -1.4956 -0.8027
 3666SOL     OW22630   3.529   0.580   3.844 -0.1811 -0.0645 -0.0780
 3666SOL    HW122631   3.473   0.657   3.847  0.7405  0.7189 -3.3504
 3666SOL    HW222632   3.579   0.595   3.764  0.5311 -1.7240  0.0551
 3667SOL     OW22633   1.146   3.702   7.579 -0.1150 -0.4644 -0.1239
 3667SOL    HW122634   1.218   3.666   7.528  2.1145 -0.7374  3.2071
 3667SOL    HW222635   1.141   3.788   7.537  0.4238  0.1897  1.1269
 3668SOL     OW22636   4.309   3.622   6.385 -0.3196  0.1608 -0.2143
 3668SOL    HW122637   4.279   3.543   6.430 -1.6437 -0.8914 -2.9168
 3668SOL    HW222638   4.280   3.611   6.294 -1.3570 -0.2581  0.1582
 3669SOL     OW22639   1.970   4.048   7.841  0.4908  0.1468  0.1880
 3669SOL    HW122640   1.971   4.066   7.935  0.6245 -0.3615  0.2839
 3669SOL    HW222641   2.017   3.965   7.853  0.5190  0.0143 -0.8019
 3670SOL     OW22642   1.313   2.003  12.025  0.1984  0.1080 -0.2438
 3670SOL    HW122643   1.370   1.939  11.982  1.8525  2.2453 -1.2139
 3670SOL    HW222644   1.284   2.052  11.948  1.1835  4.3866  2.1345
 3671SOL     OW22645   2.211   2.657   7.152 -0.2998  0.4963  0.4896
 3671SOL    HW122646   2.180   2.747   7.142 -2.4034 -0.2012  0.8203
 3671SOL    HW222647   2.290   2.676   7.203  0.8911 -0.8534 -0.8542
 3672SOL     OW22648   1.789   1.986  14.406 -0.3275  0.3791  0.2725
 3672SOL    HW122649   1.815   1.905  14.364  1.2543  0.4220  1.1316
 3672SOL    HW222650   1.874   2.030  14.402  0.6833 -1.5613  0.5483
 3673SOL     OW22651   1.155   3.144   9.819  0.1155  0.0869 -0.2156
 3673SOL    HW122652   1.060   3.134   9.820  0.0585  0.6106 -0.4598
 3673SOL    HW222653   1.171   3.234   9.846  2.5122  0.1018 -1.6358
 3674SOL     OW22654   0.160   3.866  10.301  0.2091 -0.2702 -0.6091
 3674SOL    HW122655   0.077   3.893  10.340  0.2846  0.0829 -0.6893
 3674SOL    HW222656   0.143   3.774  10.281 -0.0596 -0.3418 -0.0552
 3675SOL     OW22657   0.609   1.888  15.761  0.3536 -0.5237  0.0202
 3675SOL    HW122658   0.640   1.869  15.673 -0.4949 -0.7660 -0.2244
 3675SOL    HW222659   0.518   1.858  15.762 -0.1622  1.1188  1.8438
 3676SOL     OW22660   3.063   2.585   4.297  0.5654 -0.4731  0.1441
 3676SOL    HW122661   3.030   2.665   4.337 -0.2156  0.2171 -1.8792
 3676SOL    HW222662   3.011   2.515   4.337  0.2631  0.1035  0.7503
 3677SOL     OW22663   4.015   0.926  13.380 -0.2454 -0.2145 -0.6600
 3677SOL    HW122664   3.977   1.004  13.420  0.7674 -0.0261 -0.0621
 3677SOL    HW222665   4.103   0.926  13.417 -0.7035  0.4411  0.4412
 3678SOL     OW22666   1.103   2.409   9.128 -0.5277 -0.0597 -0.4441
 3678SOL    HW122667   1.025   2.387   9.078  0.4353 -0.5912 -1.7255
 3678SOL    HW222668   1.066   2.459   9.200  0.5351  0.0150  0.0521
 3679SOL     OW22669   0.833   3.430  16.828 -0.3001  0.0080  0.6808
 3679SOL    HW122670   0.797   3.517  16.811  0.9986  0.6761  1.3965
 3679SOL    HW222671   0.906   3.443  16.888  2.4050  0.3740 -2.7030
 3680SOL     OW22672   0.737   3.079   9.531  0.4392  1.0892 -0.7334
 3680SOL    HW122673   0.818   3.029   9.543 -0.2910 -0.5540 -2.5376
 3680SOL    HW222674   0.691   3.062   9.613  1.9504 -2.5267 -0.6211
 3681SOL     OW22675   1.128   0.374  10.684 -0.1561 -0.2146  0.9553
 3681SOL    HW122676   1.043   0.336  10.706 -0.8938 -0.0840 -1.6693
 3681SOL    HW222677   1.137   0.344  10.594 -0.2550  1.4429  0.3976
 3682SOL     OW22678   2.666   2.524   4.767 -0.0447  0.0616 -0.5020
 3682SOL    HW122679   2.586   2.570   4.743  0.7262  1.7002  0.0948
 3682SOL    HW222680   2.657   2.500   4.859  3.8107 -0.4128 -0.2252
 3683SOL     OW22681   1.156   4.488   2.930  0.2371  0.1781 -0.1651
 3683SOL    HW122682   1.062   4.501   2.924  0.2056 -0.4596 -1.0363
 3683SOL    HW222683   1.190   4.513   2.845 -0.5545 -0.1090 -0.5619
 3684SOL     OW22684   0.455   1.355  14.938  0.1193 -0.2527  0.2266
 3684SOL    HW122685   0.441   1.344  15.032 -0.2413 -0.5183  0.1419
 3684SOL    HW222686   0.509   1.434  14.942  1.0081 -0.9263  1.5622
 3685SOL     OW22687   0.641   0.925   3.327  0.4100 -0.1011 -0.2045
 3685SOL    HW122688   0.569   0.963   3.277  0.2708 -1.8922 -1.3691
 3685SOL    HW222689   0.646   0.845   3.275  0.4416  0.3849 -0.9479
 3686SOL     OW22690   1.733   2.527  10.205 -0.3994 -0.3823  0.3795
 3686SOL    HW122691   1.786   2.590  10.157  2.9484 -1.9646  2.0009
 3686SOL    HW222692   1.680   2.493  10.132 -1.5690  2.3652 -0.0564
 3687SOL     OW22693   4.008   2.884   7.041  0.0041  0.3537 -0.7686
 3687SOL    HW122694   3.991   2.978   7.046 -2.6749 -0.3056  2.6328
 3687SOL    HW222695   3.967   2.864   6.957  1.9464 -1.4911 -1.2793
 3688SOL     OW22696   3.008   0.949   3.779  0.1996 -0.2079 -0.0789
 3688SOL    HW122697   2.924   0.981   3.811  0.7040 -1.8641  2.9280
 3688SOL    HW222698   3.064   0.997   3.841  0.9649 -2.1044  0.7045
 3689SOL     OW22699   2.807   1.806   0.950 -0.0263  0.6676 -0.0844
 3689SOL    HW122700   2.894   1.831   0.982 -0.3988  0.4921  1.0290
 3689SOL    HW222701   2.807   1.851   0.865  0.2734 -1.0253 -0.9881
 3690SOL     OW22702   3.611   2.729  16.938 -0.3282 -0.0494 -0.2934
 3690SOL    HW122703   3.622   2.766  16.850 -1.1438  3.2775  1.0070
 3690SOL    HW222704   3.699   2.734  16.974 -0.7325  0.6393  0.5857
 3691SOL     OW22705   4.501   1.853   2.845 -0.5571  0.3702  0.8417
 3691SOL    HW122706   4.425   1.897   2.808 -0.8924  1.1753  2.4998
 3691SOL    HW222707   4.463   1.830   2.929 -2.6551  0.3713 -0.0968
 3692SOL     OW22708   1.754   1.384   5.955 -0.2912 -0.1761  0.5571
 3692SOL    HW122709   1.812   1.441   5.905 -1.4527  0.1269 -0.4540
 3692SOL    HW222710   1.808   1.306   5.971  2.3212  1.2448 -1.3203
 3693SOL     OW22711   3.363   3.768   4.607  0.2580  0.4616 -0.0041
 3693SOL    HW122712   3.350   3.673   4.603 -0.3074  0.5471 -0.2614
 3693SOL    HW222713   3.273   3.801   4.600  0.8589  2.1752  0.3348
 3694SOL     OW22714   2.006   1.702   0.260 -0.2347 -0.2540  0.1437
 3694SOL    HW122715   2.014   1.635   0.329  2.4180  0.3787  0.4564
 3694SOL    HW222716   2.076   1.676   0.199  1.9346  0.1513  2.4734
 3695SOL     OW22717   0.704   4.136   7.622  0.5789 -0.7389 -0.2706
 3695SOL    HW122718   0.696   4.093   7.537 -0.6698 -2.0281  0.5037
 3695SOL    HW222719   0.716   4.225   7.589  0.5781 -0.4572  0.4761
 3696SOL     OW22720   0.885   4.208  13.441  0.6348  0.4919 -0.0104
 3696SOL    HW122721   0.879   4.213  13.536  0.1250  0.1929 -0.0260
 3696SOL    HW222722   0.873   4.298  13.411  0.8756  0.6359  0.3243
 3697SOL     OW22723   2.457   1.939   7.349 -0.1529  0.3574 -0.4252
 3697SOL    HW122724   2.369   1.969   7.369 -0.3080 -0.8418  0.7069
 3697SOL    HW222725   2.439   1.915   7.258 -1.7021  0.3444 -0.1053
 3698SOL     OW22726   3.653   2.605   1.071 -0.5568  0.2982 -0.1140
 3698SOL    HW122727   3.660   2.674   1.138 -0.9106 -0.0645  0.2959
 3698SOL    HW222728   3.736   2.618   1.026  1.3073 -3.4994  2.2596
 3699SOL     OW22729   0.503   2.907  14.282  0.2819 -0.1115 -0.2439
 3699SOL    HW122730   0.526   2.910  14.375  0.1439 -0.0918 -0.2107
 3699SOL    HW222731   0.516   2.817  14.254 -2.2982 -0.4443 -0.3419
 3700SOL     OW22732   4.367   3.637  14.803  0.1752 -0.2042  0.1862
 3700SOL    HW122733   4.458   3.655  14.780  0.8897 -2.2506  1.3196
 3700SOL    HW222734   4.330   3.723  14.786  0.8771 -0.7970 -4.2551
 3701SOL     OW22735   3.125   2.009   4.932  0.4749  0.4229 -0.2793
 3701SOL    HW122736   3.185   1.958   4.987 -1.6082  0.9977  2.4989
 3701SOL    HW222737   3.053   2.023   4.993  1.4597 -0.0814  1.0116
 3702SOL     OW22738   2.910   0.921  17.307 -0.4634 -0.0711  0.3673
 3702SOL    HW122739   2.866   0.988  17.360 -0.2680 -0.1621  0.6487
 3702SOL    HW222740   2.878   0.842  17.349  0.6977 -0.4619  0.5088
 3703SOL     OW22741   3.258   1.831   2.857 -0.0049  0.0480  0.0611
 3703SOL    HW122742   3.348   1.835   2.887  0.0919 -1.6613 -0.0114
 3703SOL    HW222743   3.220   1.904   2.906  0.2122 -0.0291  0.3440
 3704SOL     OW22744   1.334   3.215   8.866  0.1502 -0.4042 -0.2423
 3704SOL    HW122745   1.243   3.215   8.896 -0.3818  0.3818 -1.8520
 3704SOL    HW222746   1.372   3.176   8.944  0.9453  0.3836 -0.2320
 3705SOL     OW22747   2.124   4.704   3.592 -0.0059 -0.3161  0.4165
 3705SOL    HW122748   2.082   4.693   3.507  1.5804  1.9064 -0.6598
 3705SOL    HW222749   2.184   4.629   3.595  0.3490 -0.0157  0.7828
 3706SOL     OW22750   3.178   3.178  12.964 -0.1871 -0.1225 -0.4218
 3706SOL    HW122751   3.233   3.099  12.958 -1.7097 -1.2805  1.0748
 3706SOL    HW222752   3.180   3.210  12.874 -0.9361 -0.4024 -0.5369
 3707SOL     OW22753   3.343   2.881   3.390  0.0044  0.2278  0.0997
 3707SOL    HW122754   3.379   2.817   3.452  2.1243 -1.5294 -2.9336
 3707SOL    HW222755   3.316   2.821   3.320  0.9052 -0.3819  0.2650
 3708SOL     OW22756   0.832   0.417  12.876 -0.3714 -0.1511 -0.5438
 3708SOL    HW122757   0.837   0.359  12.952  1.0595  0.9418  0.1975
 3708SOL    HW222758   0.925   0.428  12.854 -0.2796 -0.9172 -0.5391
 3709SOL     OW22759   1.721   4.716   6.259 -0.2133  0.5986  0.1645
 3709SOL    HW122760   1.791   0.025   6.297 -0.2902  0.8740 -0.0797
 3709SOL    HW222761   1.658   4.730   6.330  1.1241 -1.4683  1.7617
 3710SOL     OW22762   1.918   3.668   6.191  0.6000 -0.0146 -0.6511
 3710SOL    HW122763   1.994   3.698   6.241 -0.9280  0.8837  1.1465
 3710SOL    HW222764   1.881   3.739   6.138 -1.6683 -1.0089 -0.4018
 3711SOL     OW22765   0.210   1.219   3.991 -0.3642 -0.0221  0.8761
 3711SOL    HW122766   0.196   1.308   3.958 -1.2767  0.3656  2.3652
 3711SOL    HW222767   0.157   1.167   3.931  0.1225  1.7122 -1.0657
 3712SOL     OW22768   4.058   0.517  11.059  0.0440 -0.7565 -0.3950
 3712SOL    HW122769   4.123   0.468  11.009 -0.4054 -1.9294  0.1640
 3712SOL    HW222770   4.105   0.525  11.142 -1.7603 -0.4100  0.5909
 3713SOL     OW22771   3.063   4.329  13.275 -0.0214 -0.6632 -0.6267
 3713SOL    HW122772   3.075   4.278  13.355 -1.8999 -1.6083 -0.9384
 3713SOL    HW222773   3.069   4.420  13.303  0.2334 -0.8027 -0.2341
 3714SOL     OW22774   3.281   2.393   6.835  0.3747 -0.0374  0.1638
 3714SOL    HW122775   3.333   2.390   6.915  1.2744  2.7196 -0.3381
 3714SOL    HW222776   3.194   2.423   6.861  0.6588 -0.2483  1.3680
 3715SOL     OW22777   0.558   2.223  11.086 -0.2031 -0.0068 -0.0924
 3715SOL    HW122778   0.510   2.163  11.028 -1.6884  0.2097  0.9114
 3715SOL    HW222779   0.486   2.258  11.138 -1.3922 -3.2156  0.4049
 3716SOL     OW22780   0.939   3.282  12.358  0.0592 -0.5536  0.3169
 3716SOL    HW122781   0.999   3.237  12.298  1.3213  0.1756  1.0244
 3716SOL    HW222782   0.880   3.216  12.394  0.2253 -0.6577  0.4011
 3717SOL     OW22783   4.651   2.607   4.451 -0.0319 -0.7268  0.5764
 3717SOL    HW122784   4.590   2.664   4.404 -0.0691 -0.0450  1.4439
 3717SOL    HW222785   4.733   2.649   4.424 -0.2353 -0.8051 -0.1675
 3718SOL     OW22786   0.173   1.920   3.655  0.1092 -0.3121  0.2202
 3718SOL    HW122787   0.209   2.007   3.668 -0.7446 -0.1504  1.4841
 3718SOL    HW222788   0.258   1.875   3.657 -0.5643 -1.7688 -2.6443
 3719SOL     OW22789   4.227   0.540   3.174 -0.0329 -0.4421  0.1486
 3719SOL    HW122790   4.244   0.489   3.094 -0.9118 -3.2783  1.7661
 3719SOL    HW222791   4.168   0.476   3.214 -0.1731 -1.8134 -2.2306
 3720SOL     OW22792   1.842   0.070   4.316  0.4172 -0.2033  0.7817
 3720SOL    HW122793   1.807   4.728   4.341  1.2628 -0.4870  1.0036
 3720SOL    HW222794   1.870   0.055   4.225  1.9633 -1.3638  1.4485
 3721SOL     OW22795   2.069   3.248   3.016  0.3982  0.0797  0.1776
 3721SOL    HW122796   1.994   3.248   2.957 -0.7973 -2.6750  1.7124
 3721SOL    HW222797   2.079   3.343   3.030 -4.8918  0.7079 -0.5626
 3722SOL     OW22798   0.591   3.559   9.559 -0.3230  0.2315 -0.3880
 3722SOL    HW122799   0.549   3.477   9.586  0.4148 -0.4157 -1.2143
 3722SOL    HW222800   0.516   3.619   9.561  0.2199  0.8648  1.2690
 3723SOL     OW22801   4.698   4.142   3.728 -0.3267 -0.2399  0.0236
 3723SOL    HW122802   4.734   4.176   3.810  1.6932  1.3887 -1.5662
 3723SOL    HW222803   0.006   4.062   3.718 -1.0448 -0.5282 -1.3668
 3724SOL     OW22804   2.627   1.656   6.177  0.5084 -0.4625 -0.4612
 3724SOL    HW122805   2.534   1.634   6.163 -0.3023  1.9486  1.2903
 3724SOL    HW222806   2.667   1.659   6.090  0.0704 -0.1270 -0.6516
 3725SOL     OW22807   3.205   1.895   6.978  0.1540  0.3154 -0.3045
 3725SOL    HW122808   3.278   1.952   6.954  1.9231 -1.8722 -0.1813
 3725SOL    HW222809   3.185   1.937   7.061  3.0275  2.1448 -0.5463
 3726SOL     OW22810   4.719   2.329   1.974 -0.1471 -0.4241 -0.0967
 3726SOL    HW122811   4.653   2.389   1.940  2.4891  1.6635 -1.5050
 3726SOL    HW222812   4.681   2.281   2.047  1.7512 -1.7619  0.0231
 3727SOL     OW22813   3.271   3.318   1.112 -0.1483 -0.2017 -0.2371
 3727SOL    HW122814   3.346   3.378   1.115 -0.3086 -0.1221  1.6217
 3727SOL    HW222815   3.320   3.237   1.125  0.4289  0.3241  0.8851
 3728SOL     OW22816   3.951   0.400  11.428 -0.2314  0.4931  0.3380
 3728SOL    HW122817   3.935   0.479  11.478  0.6897  1.1245 -0.3751
 3728SOL    HW222818   3.916   0.426  11.342  3.3392  1.8948 -0.6625
 3729SOL     OW22819   4.700   4.488   0.574  0.6346  0.1777 -0.0042
 3729SOL    HW122820   0.010   4.491   0.495 -0.5698 -0.0805 -0.8250
 3729SOL    HW222821   4.706   4.581   0.598  0.3484  0.6532 -1.7872
 3730SOL     OW22822   1.552   2.424  13.625  0.6189 -0.1217  0.4296
 3730SOL    HW122823   1.505   2.477  13.690  1.6465  0.7372  0.4716
 3730SOL    HW222824   1.517   2.472  13.550  1.5782 -0.2632 -0.1043
 3731SOL     OW22825   2.548   3.127   6.738  0.3621 -0.4353  0.0226
 3731SOL    HW122826   2.582   3.165   6.819  1.1793 -1.2458  0.0505
 3731SOL    HW222827   2.600   3.170   6.669  0.9308 -1.2294 -0.0400
 3732SOL     OW22828   4.609   3.269   0.147 -0.6357  0.5538  0.4197
 3732SOL    HW122829   4.514   3.271   0.160 -0.7938 -2.2261 -0.3653
 3732SOL    HW222830   4.631   3.327   0.220 -0.0620 -0.1248  0.7908
 3733SOL     OW22831   4.367   2.081   8.374 -0.1035 -0.0969 -0.0580
 3733SOL    HW122832   4.275   2.069   8.396  0.4011 -0.8689  1.6752
 3733SOL    HW222833   4.368   2.177   8.384 -1.2936 -0.3845  3.0109
 3734SOL     OW22834   3.262   2.022   5.943  0.3315  0.0875 -0.1654
 3734SOL    HW122835   3.271   2.112   5.975  0.8489 -1.1288  3.1213
 3734SOL    HW222836   3.186   1.982   5.986  0.6659  0.3810  0.7046
 3735SOL     OW22837   4.279   3.305   8.222 -0.2549  0.7099 -0.0982
 3735SOL    HW122838   4.196   3.257   8.233  0.4735 -0.4706  0.2155
 3735SOL    HW222839   4.332   3.265   8.291  0.7530  1.0451 -0.6806
 3736SOL     OW22840   0.636   1.187  17.434 -0.0278  0.4487 -0.2587
 3736SOL    HW122841   0.672   1.254  17.492  0.4682 -0.1362  0.1149
 3736SOL    HW222842   0.627   1.231  17.349 -1.6269  1.6492  0.5411
 3737SOL     OW22843   3.123   2.151   3.829 -0.0392  0.2637  0.2428
 3737SOL    HW122844   3.162   2.217   3.886  1.0942  0.3317 -0.6210
 3737SOL    HW222845   3.174   2.070   3.839 -0.3523 -0.0129 -0.4278
 3738SOL     OW22846   2.795   3.573   5.934 -0.0782 -0.9296 -0.4276
 3738SOL    HW122847   2.889   3.584   5.921  0.2224 -1.7172  0.9974
 3738SOL    HW222848   2.783   3.646   5.994  0.5447 -1.0865 -0.1130
 3739SOL     OW22849   1.967   2.017   5.159 -0.1692  0.7310  0.2848
 3739SOL    HW122850   1.925   1.978   5.236 -0.0452  1.6588  0.8210
 3739SOL    HW222851   1.941   2.108   5.173  0.1278  0.8568  0.0188
 3740SOL     OW22852   3.244   1.478  15.289  0.3488  0.2378 -0.0084
 3740SOL    HW122853   3.252   1.493  15.195  3.5169  0.0396  0.2409
 3740SOL    HW222854   3.234   1.382  15.291 -1.0293  0.4616  3.4092
 3741SOL     OW22855   0.326   1.503   7.108  0.4968  0.2781 -0.2815
 3741SOL    HW122856   0.327   1.546   7.023  0.5745 -1.0553 -0.9556
 3741SOL    HW222857   0.394   1.437   7.095  1.9470  1.7763 -0.2625
 3742SOL     OW22858   2.030   2.243   9.991  0.2740  0.0959  0.2944
 3742SOL    HW122859   2.014   2.291   9.910 -2.4429  0.0528  0.8088
 3742SOL    HW222860   1.937   2.223  10.002  0.1495  1.7256  2.1200
 3743SOL     OW22861   0.708   3.384   6.130  0.1077 -0.4628  0.0018
 3743SOL    HW122862   0.784   3.329   6.146 -1.9485 -2.3263  3.2668
 3743SOL    HW222863   0.651   3.320   6.089 -0.7625  0.4552 -0.2327
 3744SOL     OW22864   0.952   3.143   6.081  0.4204 -0.2757 -0.2854
 3744SOL    HW122865   1.036   3.098   6.088  0.6484  0.1953 -0.0469
 3744SOL    HW222866   0.937   3.168   6.172 -0.5196 -0.7636 -0.2957
 3745SOL     OW22867   4.485   1.250   5.867  0.3148  0.2010 -0.5817
 3745SOL    HW122868   4.433   1.327   5.892  1.7640  1.7518 -2.3746
 3745SOL    HW222869   4.565   1.290   5.833 -0.5083  2.9154  0.6844
 3746SOL     OW22870   3.655   3.177   8.139  0.5401 -0.0835  0.4043
 3746SOL    HW122871   3.617   3.096   8.174  0.3489 -0.5289 -0.8435
 3746SOL    HW222872   3.634   3.168   8.047 -0.2969  0.5212  0.5364
 3747SOL     OW22873   0.710   0.803   2.688 -0.0064 -0.1724 -0.4466
 3747SOL    HW122874   0.764   0.726   2.705  0.1387  0.5787  2.4494
 3747SOL    HW222875   0.763   0.882   2.693 -0.9920  0.4803 -0.2410
 3748SOL     OW22876   4.725   0.313   3.478 -0.1488 -0.4313  0.0048
 3748SOL    HW122877   4.650   0.334   3.422  0.1093  2.3155  0.6850
 3748SOL    HW222878   0.023   0.242   3.430 -1.1420 -1.9855  1.4690
 3749SOL     OW22879   4.216   0.870  12.166  0.5101  0.2251  0.5582
 3749SOL    HW122880   4.219   0.949  12.220  1.3580  0.0244  0.7969
 3749SOL    HW222881   4.257   0.804  12.222 -1.1303 -1.0274  0.2995
 3750SOL     OW22882   2.875   0.728   2.015 -0.0282 -0.1342  0.3674
 3750SOL    HW122883   2.855   0.738   1.922 -0.6809  0.4308  0.5700
 3750SOL    HW222884   2.848   0.637   2.029  1.9224 -0.8284 -0.3834
 3751SOL     OW22885   1.703   4.589   7.621 -0.1417 -0.5046 -0.6026
 3751SOL    HW122886   1.680   4.562   7.710 -1.3468  0.3993 -0.6358
 3751SOL    HW222887   1.622   4.619   7.581  0.0885  1.8537  0.7149
 3752SOL     OW22888   2.311   1.972   8.399 -0.1708  0.3815 -0.1594
 3752SOL    HW122889   2.344   1.882   8.401  1.5144  1.0421  2.1527
 3752SOL    HW222890   2.295   1.975   8.305 -1.3431  2.7713  0.1415
 3753SOL     OW22891   2.419   1.959  17.581  0.6280  0.2756 -0.1070
 3753SOL    HW122892   2.452   1.876  17.615  0.0973 -0.6823 -1.9493
 3753SOL    HW222893   2.380   1.995  17.661 -0.5078 -1.3339  0.0808
 3754SOL     OW22894   1.235   3.565  11.263 -0.3129  0.2762 -0.2645
 3754SOL    HW122895   1.330   3.575  11.254 -0.2871 -1.6357 -2.0982
 3754SOL    HW222896   1.222   3.658  11.285 -0.4071  0.0467  0.6344
 3755SOL     OW22897   0.321   3.109   8.335  0.3060  0.8315 -0.2057
 3755SOL    HW122898   0.404   3.069   8.360  1.0707  1.4980 -1.6504
 3755SOL    HW222899   0.335   3.126   8.241 -0.4494  1.3909 -0.2138
 3756SOL     OW22900   2.747   0.796   4.181 -0.4789  0.1097 -0.9311
 3756SOL    HW122901   2.776   0.879   4.142  0.9112 -0.2943 -0.7565
 3756SOL    HW222902   2.655   0.820   4.171 -0.3446  1.3064  0.6979
 3757SOL     OW22903   1.669   4.217   8.976  0.1423 -0.2541 -0.3843
 3757SOL    HW122904   1.727   4.232   9.051  0.9694  0.7386 -1.2263
 3757SOL    HW222905   1.718   4.148   8.931  0.4033  0.4996 -1.2549
 3758SOL     OW22906   2.332   1.101   0.485 -0.1778  0.8226  0.1087
 3758SOL    HW122907   2.371   1.083   0.570  0.2749  1.2487 -0.0077
 3758SOL    HW222908   2.409   1.086   0.430 -1.6612 -3.3790 -0.8309
 3759SOL     OW22909   1.050   2.107   7.779  0.0001  0.1330 -0.2215
 3759SOL    HW122910   1.015   2.049   7.846  0.0329  1.5421  1.0042
 3759SOL    HW222911   0.977   2.169   7.768 -0.6189 -0.6314 -0.4281
 3760SOL     OW22912   2.242   0.662   7.705 -0.3922 -0.0928  0.5354
 3760SOL    HW122913   2.175   0.657   7.773 -0.0588 -0.6635  0.8248
 3760SOL    HW222914   2.311   0.614   7.752  0.6348  0.8177 -0.0218
 3761SOL     OW22915   4.395   3.750   5.853  0.0711  0.2558  0.3607
 3761SOL    HW122916   4.447   3.721   5.928  1.0186  0.6174 -0.1640
 3761SOL    HW222917   4.313   3.709   5.883  0.4881 -1.3871 -0.7295
 3762SOL     OW22918   2.586   2.484  15.078  0.2345 -0.2075  0.0252
 3762SOL    HW122919   2.517   2.430  15.041  1.7071 -0.6820 -2.0945
 3762SOL    HW222920   2.664   2.428  15.078  1.1815  1.1304 -1.7843
 3763SOL     OW22921   2.455   2.896   2.231  0.5143  0.1318  0.0981
 3763SOL    HW122922   2.360   2.895   2.217  0.7114 -2.2737 -1.1958
 3763SOL    HW222923   2.455   2.818   2.287  0.5160  1.6591  2.2159
 3764SOL     OW22924   3.692   2.504   4.895 -0.9170 -0.2935 -0.5417
 3764SOL    HW122925   3.740   2.524   4.814  0.3111 -0.5353  0.1246
 3764SOL    HW222926   3.635   2.430   4.873  0.6755 -1.4237 -0.8566
 3765SOL     OW22927   3.973   4.089   4.380 -0.5613 -0.0698  0.2716
 3765SOL    HW122928   3.937   4.009   4.417 -1.5245 -0.4659 -1.5382
 3765SOL    HW222929   4.002   4.055   4.296  0.8822 -0.7005  1.0253
 3766SOL     OW22930   1.501   2.709   8.596 -0.0202  0.9194 -0.0385
 3766SOL    HW122931   1.508   2.768   8.671 -0.2924  0.4732  0.3379
 3766SOL    HW222932   1.561   2.638   8.617  0.7237  2.6282  3.7430
 3767SOL     OW22933   3.170   0.071   5.815  0.0290  0.0859 -0.1356
 3767SOL    HW122934   3.244   0.127   5.792  1.3026 -1.4023  0.3050
 3767SOL    HW222935   3.203   4.725   5.806  0.3332 -0.1358  3.0626
 3768SOL     OW22936   2.305   4.222   2.463  0.9356 -0.3954  0.4685
 3768SOL    HW122937   2.327   4.278   2.538  0.2265  0.3026  0.1556
 3768SOL    HW222938   2.356   4.149   2.497  1.1169  0.0689  1.1940
 3769SOL     OW22939   1.658   1.833   5.877 -0.2741 -0.9966  0.3842
 3769SOL    HW122940   1.610   1.906   5.916 -2.9127 -2.6166  0.1557
 3769SOL    HW222941   1.631   1.762   5.935  0.3222 -1.1216  0.5107
 3770SOL     OW22942   3.228   2.078  14.976  0.1929 -0.0477 -0.2545
 3770SOL    HW122943   3.136   2.053  14.986  0.5974 -1.2395  0.4968
 3770SOL    HW222944   3.269   1.993  14.962  0.2605 -0.2684  1.3460
 3771SOL     OW22945   0.038   3.487   6.286 -0.1118  0.1876  0.3590
 3771SOL    HW122946   4.706   3.440   6.250  2.0404 -2.7026 -0.4232
 3771SOL    HW222947   0.027   3.572   6.242  0.6772  0.2753  0.3423
 3772SOL     OW22948   0.055   4.483   8.093 -0.1160  0.0051  0.4644
 3772SOL    HW122949   0.043   4.388   8.090 -0.9105  0.0525  2.1355
 3772SOL    HW222950   4.725   4.509   8.039  1.6320 -0.1616 -1.9661
 3773SOL     OW22951   3.272   4.719  15.672  0.8743 -0.1980 -0.2696
 3773SOL    HW122952   3.192   4.670  15.659  0.8726  0.6921 -3.4481
 3773SOL    HW222953   3.309   4.736  15.585  0.8657  1.7978  0.1156
 3774SOL     OW22954   2.681   1.364   2.929  0.4554  0.3303  0.0688
 3774SOL    HW122955   2.650   1.450   2.957 -1.4149 -0.4386  0.3685
 3774SOL    HW222956   2.756   1.341   2.985  2.3962  0.4944 -2.4879
 3775SOL     OW22957   3.057   3.528   5.599 -0.4704 -0.2619 -0.1089
 3775SOL    HW122958   2.992   3.466   5.567  0.2269 -0.8107 -0.4731
 3775SOL    HW222959   3.062   3.578   5.518 -1.6591  1.0273  0.6018
 3776SOL     OW22960   0.862   2.163   6.696  0.1521 -0.5196  0.1491
 3776SOL    HW122961   0.783   2.213   6.672  0.5749  0.8935  1.6633
 3776SOL    HW222962   0.824   2.080   6.724  1.0777 -0.3830  1.7774
 3777SOL     OW22963   4.134   3.861   7.064  0.0452  0.5255  0.3588
 3777SOL    HW122964   4.063   3.921   7.040 -0.5638  0.2081  1.3526
 3777SOL    HW222965   4.083   3.782   7.080  0.7493 -0.0478 -0.2238
 3778SOL     OW22966   2.033   1.760   6.683 -0.0963 -0.3544  0.2092
 3778SOL    HW122967   2.113   1.710   6.666  0.0321  0.1637 -0.7342
 3778SOL    HW222968   2.018   1.741   6.775  0.3751  4.2822  1.2373
 3779SOL     OW22969   2.461   1.683   7.706 -0.2701 -0.6253 -0.0480
 3779SOL    HW122970   2.378   1.729   7.709  0.1003  0.1717 -1.8017
 3779SOL    HW222971   2.464   1.654   7.615 -0.9135 -0.4990 -0.1084
 3780SOL     OW22972   1.913   0.031  14.692  0.2012 -0.5576  0.3015
 3780SOL    HW122973   1.998   4.743  14.662 -0.1299 -1.0199 -0.1510
 3780SOL    HW222974   1.930   0.094  14.762 -2.4446  0.4417  0.0621
 3781SOL     OW22975   4.424   1.135   5.393 -0.4509 -0.3151  0.2348
 3781SOL    HW122976   4.350   1.189   5.420 -0.1018 -0.2828  1.1246
 3781SOL    HW222977   4.380   1.080   5.328 -1.3331 -2.9188  3.0400
 3782SOL     OW22978   0.362   1.844  17.146  0.2983  0.9578  0.1325
 3782SOL    HW122979   0.322   1.772  17.097  0.5265 -0.4243  1.9711
 3782SOL    HW222980   0.339   1.807  17.231 -0.4161 -0.1877 -0.5660
 3783SOL     OW22981   2.126   1.734  11.100  0.1243 -0.5408  0.1394
 3783SOL    HW122982   2.199   1.714  11.159  0.4080  2.3556  0.7727
 3783SOL    HW222983   2.170   1.794  11.040  0.8750 -0.1025  1.1271
 3784SOL     OW22984   4.695   2.889  17.360  0.3416 -0.4469  0.1099
 3784SOL    HW122985   0.041   2.888  17.328 -0.5028  0.5731 -2.3367
 3784SOL    HW222986   4.668   2.797  17.360 -1.5850  0.1212 -3.9852
 3785SOL     OW22987   1.996   2.579  13.175  0.2788  0.0859  0.4608
 3785SOL    HW122988   1.928   2.643  13.150  0.5546 -0.7885 -2.5633
 3785SOL    HW222989   2.072   2.603  13.122  0.4182 -0.5597  0.3752
 3786SOL     OW22990   1.371   3.164  10.709 -0.1363 -0.3065 -0.1082
 3786SOL    HW122991   1.284   3.163  10.749  0.8867 -1.8288  2.0651
 3786SOL    HW222992   1.390   3.070  10.713  0.9326 -0.1982 -2.3754
 3787SOL     OW22993   1.888   3.304   3.752 -0.0272  0.0348  0.7340
 3787SOL    HW122994   1.905   3.323   3.660  0.7212 -1.6660  0.5178
 3787SOL    HW222995   1.863   3.212   3.757  1.0949 -0.3193 -0.0793
 3788SOL     OW22996   0.382   0.206   8.125  0.1069  0.1677  0.0902
 3788SOL    HW122997   0.383   0.215   8.220  1.5341 -2.1159  0.2938
 3788SOL    HW222998   0.340   0.120   8.122  1.1068 -0.3383  0.2596
 3789SOL     OW22999   0.871   0.485   5.923  0.3602 -0.5349  0.7848
 3789SOL    HW123000   0.909   0.559   5.972  0.5041  0.7870 -1.3252
 3789SOL    HW223001   0.777   0.497   5.937  0.8115  1.9650  1.7872
 3790SOL     OW23002   4.135   0.516   9.906  0.2452  0.0473  0.4161
 3790SOL    HW123003   4.053   0.467   9.918  0.6846 -0.5273  1.0198
 3790SOL    HW223004   4.101   0.574   9.837  1.6634  0.2622 -0.0941
 3791SOL     OW23005   2.794   0.507   8.356 -0.1057  0.2522  0.2034
 3791SOL    HW123006   2.773   0.558   8.434 -0.6284  0.0046  0.2240
 3791SOL    HW223007   2.780   0.565   8.281 -2.2699  0.1695  0.5539
 3792SOL     OW23008   1.370   2.831   2.361  0.0563 -0.4357  0.5828
 3792SOL    HW123009   1.362   2.762   2.295 -1.2513 -0.6803  0.9980
 3792SOL    HW223010   1.363   2.911   2.309  1.3602  0.6496  2.0905
 3793SOL     OW23011   0.690   3.332   4.740  0.1630  0.7051  0.1254
 3793SOL    HW123012   0.749   3.348   4.667  0.1843  1.7818  0.3852
 3793SOL    HW223013   0.671   3.239   4.727  1.5655  0.2856  1.0061
 3794SOL     OW23014   0.253   1.669   9.196 -0.3389  0.2665 -0.0642
 3794SOL    HW123015   0.223   1.627   9.116  0.5129 -1.1071  0.3422
 3794SOL    HW223016   0.175   1.693   9.247  0.2449 -0.5529  1.2138
 3795SOL     OW23017   0.697   0.118   8.048 -0.0860  0.2021  0.6540
 3795SOL    HW123018   0.629   0.182   8.070 -1.0426 -0.2723 -0.9377
 3795SOL    HW223019   0.712   0.165   7.966  3.4385 -0.4351  0.9180
 3796SOL     OW23020   0.724   3.832   2.788 -0.3548 -0.5009  0.2415
 3796SOL    HW123021   0.802   3.824   2.733 -0.4359 -2.1982  0.3611
 3796SOL    HW223022   0.669   3.893   2.739  2.5637  0.3235 -2.0486
 3797SOL     OW23023   1.506   1.744   6.305 -0.3628 -1.2765 -0.1383
 3797SOL    HW123024   1.551   1.667   6.271  2.4225  0.3647 -0.1026
 3797SOL    HW223025   1.454   1.710   6.378 -0.4802 -0.7675  0.0129
 3798SOL     OW23026   3.495   1.647  14.432 -0.1139  0.0588 -0.5426
 3798SOL    HW123027   3.577   1.685  14.464 -0.1937  0.0275 -0.2972
 3798SOL    HW223028   3.472   1.708  14.363 -2.8468  0.3095  0.6197
 3799SOL     OW23029   2.489   4.653   2.898 -0.3350 -0.0924  0.5602
 3799SOL    HW123030   2.466   4.722   2.959 -1.0916 -0.9014  1.1885
 3799SOL    HW223031   2.450   4.684   2.816  0.1764  3.8187  1.8413
 3800SOL     OW23032   4.261   4.376   8.749  0.0043  0.1800  0.1003
 3800SOL    HW123033   4.222   4.369   8.662  1.7109  0.5086 -0.6994
 3800SOL    HW223034   4.226   4.290   8.773  1.7064  0.5394  3.9536
 3801SOL     OW23035   0.442   4.206  13.827  0.2494  0.1069 -0.0263
 3801SOL    HW123036   0.363   4.164  13.795  0.7139 -0.3697 -0.5486
 3801SOL    HW223037   0.426   4.199  13.921  0.1472  1.6861  0.0751
 3802SOL     OW23038   1.309   1.298   3.627 -0.0371 -0.0983  0.1053
 3802SOL    HW123039   1.246   1.353   3.582  0.4973  0.4641  0.0460
 3802SOL    HW223040   1.349   1.357   3.691  0.6474 -1.1635  0.6705
 3803SOL     OW23041   1.314   1.984   2.542 -0.2308  0.3549  0.0534
 3803SOL    HW123042   1.260   1.905   2.532  2.9018 -1.3241 -3.3013
 3803SOL    HW223043   1.277   2.034   2.470 -0.9393  0.5539  0.5509
 3804SOL     OW23044   0.613   1.411   4.854 -0.0089 -0.3759  0.3498
 3804SOL    HW123045   0.561   1.490   4.871 -2.6913 -1.8932 -0.8758
 3804SOL    HW223046   0.702   1.446   4.844  0.2498 -1.1842 -0.1387
 3805SOL     OW23047   0.634   2.217  17.370 -0.2940 -0.3541  0.0728
 3805SOL    HW123048   0.554   2.270  17.376 -1.0721 -1.3287 -1.5384
 3805SOL    HW223049   0.603   2.151  17.308  0.8364  0.2787 -1.1585
 3806SOL     OW23050   4.032   0.344   7.851  0.9056 -0.3065 -0.0217
 3806SOL    HW123051   4.034   0.440   7.856 -0.4485 -0.3081  0.3668
 3806SOL    HW223052   4.034   0.327   7.757 -2.6574 -0.0681 -0.1103
 3807SOL     OW23053   3.274   1.397   3.650  0.8521  0.2363 -0.0761
 3807SOL    HW123054   3.301   1.459   3.718  0.4106 -0.7660  1.0042
 3807SOL    HW223055   3.335   1.327   3.673  0.9761  0.4376  0.2142
 3808SOL     OW23056   2.828   4.041   7.524 -0.8658  0.1305  0.2579
 3808SOL    HW123057   2.791   4.026   7.611 -1.5530 -0.2671 -0.1077
 3808SOL    HW223058   2.768   4.115   7.511 -0.3433  0.6908  1.0198
 3809SOL     OW23059   4.114   4.538   3.349  0.6225  0.3429  0.3429
 3809SOL    HW123060   4.186   4.477   3.331 -1.7606 -2.2512 -0.3784
 3809SOL    HW223061   4.133   4.599   3.278 -1.0040 -0.2251 -0.5854
 3810SOL     OW23062   4.580   3.920   4.107  0.2424 -0.1699  0.3872
 3810SOL    HW123063   4.658   3.967   4.136 -0.2244  1.7299 -1.3938
 3810SOL    HW223064   4.549   3.896   4.194 -0.0649 -1.9114 -0.2176
 3811SOL     OW23065   1.148   1.270   4.253  0.1579  0.5442  0.0379
 3811SOL    HW123066   1.196   1.192   4.226 -4.2671 -1.7459 -1.2951
 3811SOL    HW223067   1.217   1.325   4.290 -1.4041  0.0515  3.7459
 3812SOL     OW23068   3.751   2.386  14.514  0.4113 -0.2166 -0.0859
 3812SOL    HW123069   3.715   2.344  14.435  0.7725  0.6234 -0.6975
 3812SOL    HW223070   3.758   2.309  14.570  0.7849  1.0574  1.6004
 3813SOL     OW23071   2.017   2.668   4.352 -0.0174  0.4471  0.6398
 3813SOL    HW123072   1.957   2.614   4.301 -1.5783  0.1183  2.8097
 3813SOL    HW223073   2.059   2.721   4.284  0.5127 -0.3621  0.3291
 3814SOL     OW23074   3.869   1.377   3.728 -0.9409  0.4923  0.4581
 3814SOL    HW123075   3.943   1.436   3.736 -2.8789  3.2485 -2.0939
 3814SOL    HW223076   3.911   1.307   3.678 -1.2208  1.3351 -0.9455
 3815SOL     OW23077   3.022   3.636   5.072 -0.1852  0.3390 -0.0297
 3815SOL    HW123078   3.107   3.599   5.048 -0.8508 -0.8556 -0.5818
 3815SOL    HW223079   3.042   3.706   5.134  0.0439  1.2706 -1.1650
 3816SOL     OW23080   2.760   1.893   2.814  0.8187  0.0457  0.0365
 3816SOL    HW123081   2.722   1.820   2.765  0.5564  0.5729 -0.5412
 3816SOL    HW223082   2.853   1.869   2.803  0.8181 -0.1376  0.4405
 3817SOL     OW23083   3.157   0.466   8.267  0.4072 -0.3047  1.0442
 3817SOL    HW123084   3.084   0.479   8.327 -1.0506  0.1013 -0.8426
 3817SOL    HW223085   3.161   0.371   8.255 -1.0723 -0.1079 -0.9636
 3818SOL     OW23086   1.974   4.397  16.212  0.0306 -0.1237  0.1375
 3818SOL    HW123087   1.980   4.447  16.293  0.4857  0.3166 -0.1759
 3818SOL    HW223088   1.914   4.444  16.154  1.9760  0.1208 -1.6746
 3819SOL     OW23089   1.464   0.786  10.953 -0.0023  0.1636  0.1443
 3819SOL    HW123090   1.519   0.864  10.946  0.6334 -0.4233 -1.4123
 3819SOL    HW223091   1.475   0.759  11.044 -1.4757  0.1694  0.3115
 3820SOL     OW23092   3.227   0.820  14.272  0.8485  0.1384  0.0218
 3820SOL    HW123093   3.249   0.796  14.362 -0.1991 -2.7813 -0.5100
 3820SOL    HW223094   3.226   0.916  14.268  0.1942  0.2213  2.1306
 3821SOL     OW23095   3.466   0.959   2.083 -0.2292 -0.4671 -0.1649
 3821SOL    HW123096   3.410   0.911   2.144  0.5200  0.3163  1.1333
 3821SOL    HW223097   3.476   0.891   2.016  1.3817  1.6745 -2.0564
 3822SOL     OW23098   1.016   2.854   8.764  0.2843 -0.4572 -0.4062
 3822SOL    HW123099   1.033   2.808   8.682  2.8956  0.5511 -0.4119
 3822SOL    HW223100   1.059   2.936   8.740  0.8465 -0.3150  1.1035
 3823SOL     OW23101   1.280   3.231   7.599 -0.5709  0.4464  0.0444
 3823SOL    HW123102   1.300   3.250   7.507 -0.7624  0.3396 -0.0185
 3823SOL    HW223103   1.200   3.281   7.615 -1.7150 -2.3192  2.9470
 3824SOL     OW23104   4.282   3.719   5.461 -0.1852 -0.5024  0.0995
 3824SOL    HW123105   4.374   3.739   5.479 -0.2188 -1.1310  0.9243
 3824SOL    HW223106   4.244   3.770   5.533  0.7262  0.8102 -0.3439
 3825SOL     OW23107   3.800   3.596  10.266  0.6236  0.5723 -0.0883
 3825SOL    HW123108   3.787   3.504  10.241  1.0674  0.7296 -0.8928
 3825SOL    HW223109   3.748   3.594  10.346  2.0428  0.3324  0.8154
 3826SOL     OW23110   3.708   2.168  12.848 -0.3114  0.3375  0.3346
 3826SOL    HW123111   3.720   2.256  12.814  0.3750 -0.8681 -2.4942
 3826SOL    HW223112   3.740   2.110  12.779 -1.4806 -0.5112  0.5178
 3827SOL     OW23113   4.701   1.258   5.609 -0.6949 -0.5780 -0.5761
 3827SOL    HW123114   0.027   1.193   5.603 -0.5527 -0.3030 -1.8037
 3827SOL    HW223115   4.697   1.295   5.521  1.0572  0.1465 -0.3535
 3828SOL     OW23116   1.059   1.039  15.824 -0.0962  0.0853 -0.0821
 3828SOL    HW123117   0.991   1.096  15.861 -0.7382 -2.6317  2.9101
 3828SOL    HW223118   1.033   0.957  15.866  2.2966 -0.7928 -0.3658
 3829SOL     OW23119   3.588   3.131   3.970  0.0683  0.3671 -0.1151
 3829SOL    HW123120   3.622   3.219   3.988 -0.8594  0.5889  0.4819
 3829SOL    HW223121   3.589   3.131   3.874 -0.0794  2.5463 -0.1085
 3830SOL     OW23122   1.166   3.776   3.992  0.3910 -0.9868  0.3009
 3830SOL    HW123123   1.214   3.721   3.930  1.1092 -0.5611  0.4839
 3830SOL    HW223124   1.178   3.865   3.960  1.3646  0.5119  4.8143
 3831SOL     OW23125   0.923   0.083   8.231 -0.0279 -0.1917 -0.0168
 3831SOL    HW123126   0.887   0.001   8.264 -1.1749  0.9547  1.5983
 3831SOL    HW223127   0.853   0.125   8.180 -0.5487  0.5626  1.3235
 3832SOL     OW23128   4.380   1.994   8.967 -0.0078  0.5792 -0.7712
 3832SOL    HW123129   4.340   2.076   8.942 -1.1376 -0.0918 -1.1569
 3832SOL    HW223130   4.434   1.967   8.892 -0.8143 -0.4835 -0.9708
 3833SOL     OW23131   0.311   3.759  12.455  0.1770  0.3839 -0.1277
 3833SOL    HW123132   0.250   3.685  12.459  1.2466 -0.3426  3.0300
 3833SOL    HW223133   0.252   3.832  12.476 -1.7324 -1.0078 -0.6963
 3834SOL     OW23134   3.424   2.315  13.819  0.4339 -0.0783 -0.2685
 3834SOL    HW123135   3.491   2.325  13.751  1.2125 -2.3428  0.1827
 3834SOL    HW223136   3.464   2.370  13.887  0.1512  2.3091 -2.0290
 3835SOL     OW23137   0.020   0.318   3.947  0.0634 -0.0581  0.6936
 3835SOL    HW123138   4.700   0.351   3.884  0.2900 -1.4984 -0.2806
 3835SOL    HW223139   0.099   0.315   3.892 -0.6420 -1.3230 -0.2267
 3836SOL     OW23140   4.016   2.809   1.160  0.2005 -0.1720 -0.2983
 3836SOL    HW123141   3.980   2.722   1.176 -0.5163 -0.3009 -2.6414
 3836SOL    HW223142   4.063   2.790   1.079  1.4387  0.1733  0.3413
 3837SOL     OW23143   1.258   3.116  10.372  0.6106  0.3326  0.2794
 3837SOL    HW123144   1.348   3.108  10.402  0.6037 -0.0760  0.1984
 3837SOL    HW223145   1.261   3.201  10.329  1.1171  0.6205  0.8926
 3838SOL     OW23146   3.232   1.038   7.140  0.1926  0.3714 -0.3461
 3838SOL    HW123147   3.277   0.962   7.177 -0.5533 -0.0527 -0.3065
 3838SOL    HW223148   3.183   0.997   7.069 -0.3479  0.6715 -0.1417
 3839SOL     OW23149   4.163   1.096   3.259  0.2110  0.3395  0.0366
 3839SOL    HW123150   4.219   1.028   3.221 -0.2439 -0.3294  0.5734
 3839SOL    HW223151   4.196   1.173   3.213 -0.2497 -1.5965 -3.4952
 3840SOL     OW23152   3.591   1.461  16.498  0.1832 -0.2714  0.6256
 3840SOL    HW123153   3.569   1.492  16.410  0.5488 -1.4039  0.1358
 3840SOL    HW223154   3.675   1.504  16.509  1.1760 -1.5470 -1.9867
 3841SOL     OW23155   1.904   3.681   1.387 -0.3857 -0.0128 -0.3976
 3841SOL    HW123156   1.873   3.591   1.375 -0.7112 -0.0450  0.6662
 3841SOL    HW223157   1.962   3.701   1.313 -1.1028 -2.3973 -1.6099
 3842SOL     OW23158   3.170   4.699   2.851 -0.2047 -0.2712  0.2335
 3842SOL    HW123159   3.212   0.020   2.907 -0.7758 -0.9316  1.4058
 3842SOL    HW223160   3.129   4.651   2.923  0.4373 -2.0536 -0.5884
 3843SOL     OW23161   2.801   1.602   8.946  0.0234  0.4540  0.1857
 3843SOL    HW123162   2.780   1.531   8.884 -2.0487 -0.4827  1.9906
 3843SOL    HW223163   2.887   1.569   8.972  0.5107  0.2539 -1.6297
 3844SOL     OW23164   3.887   0.388  10.187  0.3097 -0.8281  0.1372
 3844SOL    HW123165   3.895   0.313  10.246 -0.1500 -1.1950 -0.2647
 3844SOL    HW223166   3.806   0.429  10.216 -0.1663 -0.6876 -1.3883
 3845SOL     OW23167   2.789   0.181   3.155 -0.3284  0.5678 -0.1235
 3845SOL    HW123168   2.797   0.232   3.236 -0.9059 -1.8243  1.4482
 3845SOL    HW223169   2.848   0.106   3.169  0.1619  0.9507 -0.1295
 3846SOL     OW23170   3.942   4.156   6.098  0.1228 -0.0733  0.3558
 3846SOL    HW123171   3.880   4.220   6.134  0.6343 -0.0837  1.2482
 3846SOL    HW223172   4.017   4.169   6.156 -0.6315  0.7657  1.1374
 3847SOL     OW23173   4.274   3.348  10.136  0.1475  0.2890 -0.3383
 3847SOL    HW123174   4.214   3.306  10.197  0.2014  0.2663 -0.3007
 3847SOL    HW223175   4.234   3.434  10.118 -0.9526 -0.7683 -2.9880
 3848SOL     OW23176   1.586   0.076   6.019  0.3486  0.1011  0.6086
 3848SOL    HW123177   1.616   0.011   6.083 -3.2722 -0.7222  1.4661
 3848SOL    HW223178   1.668   0.125   6.016  0.7326 -0.7572 -3.2571
 3849SOL     OW23179   4.377   4.081   4.848 -0.2920 -0.1551  0.0297
 3849SOL    HW123180   4.347   4.011   4.905 -0.0750 -1.1487 -1.0854
 3849SOL    HW223181   4.453   4.108   4.899  0.5481 -0.6822 -0.9724
 3850SOL     OW23182   0.717   3.449   7.816 -0.9551  0.2440  0.1500
 3850SOL    HW123183   0.755   3.366   7.787  0.4555  1.2130 -0.7628
 3850SOL    HW223184   0.731   3.452   7.910  0.4796  0.5402 -0.0736
 3851SOL     OW23185   1.338   4.091   1.143  0.2841 -0.0106 -0.8202
 3851SOL    HW123186   1.278   4.037   1.193  0.0737  1.3944  0.4657
 3851SOL    HW223187   1.394   4.031   1.095  0.2941  0.4744 -1.4088
 3852SOL     OW23188   2.633   4.011  14.376 -0.2917  0.0388 -0.3647
 3852SOL    HW123189   2.565   4.043  14.434 -0.8706  0.3113 -1.1877
 3852SOL    HW223190   2.582   3.963  14.310  0.6671  0.3496 -1.3358
 3853SOL     OW23191   0.265   1.058   4.590 -0.7269  0.2428  0.1824
 3853SOL    HW123192   0.174   1.050   4.619 -0.5412  0.1322  0.7412
 3853SOL    HW223193   0.320   1.064   4.668 -1.6200  1.6476  0.7127
 3854SOL     OW23194   2.951   0.030  13.659  0.6554 -0.2067 -0.5121
 3854SOL    HW123195   2.974   0.094  13.591  2.2488  1.5908  1.7291
 3854SOL    HW223196   3.035   0.034  13.703 -0.7036 -0.1300  2.0603
 3855SOL     OW23197   1.392   2.339  11.367 -0.4385 -0.0581 -0.6550
 3855SOL    HW123198   1.350   2.325  11.452  1.4583  2.0039  0.6048
 3855SOL    HW223199   1.456   2.408  11.379 -1.3638  0.6271  0.3514
 3856SOL     OW23200   2.294   3.251   3.956 -0.4244 -0.2574  0.3758
 3856SOL    HW123201   2.321   3.307   4.028  0.6530 -1.4614  0.9036
 3856SOL    HW223202   2.279   3.310   3.882  0.3250  0.1461  0.5455
 3857SOL     OW23203   0.720   3.729  16.395 -0.0579  0.1172 -0.1555
 3857SOL    HW123204   0.727   3.808  16.341  1.5898  0.3506  0.4171
 3857SOL    HW223205   0.642   3.695  16.351  0.1047 -1.9823  1.2139
 3858SOL     OW23206   0.159   2.431   4.282  1.1344 -0.6406  0.1046
 3858SOL    HW123207   0.154   2.417   4.376 -0.8808 -0.4231  0.0413
 3858SOL    HW223208   0.218   2.506   4.287  1.3502 -0.7844 -0.2851
 3859SOL     OW23209   0.860   1.637  13.548 -0.1133  0.0432 -0.3974
 3859SOL    HW123210   0.903   1.655  13.631  1.8336 -0.6686 -1.2478
 3859SOL    HW223211   0.849   1.543  13.537  1.2131 -0.0729 -0.7014
 3860SOL     OW23212   2.037   2.640   1.876  0.1796 -0.0556  0.2092
 3860SOL    HW123213   2.036   2.598   1.962  0.1567  0.9594  0.7094
 3860SOL    HW223214   1.967   2.586   1.838 -0.4301 -0.0585  1.3301
 3861SOL     OW23215   4.042   2.574  13.447  0.6000  0.1530 -0.2118
 3861SOL    HW123216   4.003   2.653  13.484  0.7970  0.7648 -1.3326
 3861SOL    HW223217   4.083   2.543  13.528 -0.8587 -0.0622  0.4464
 3862SOL     OW23218   3.998   1.911  16.825 -0.2899  0.3015  0.0509
 3862SOL    HW123219   4.016   2.002  16.848 -3.3383  0.9813 -0.3081
 3862SOL    HW223220   3.903   1.912  16.812 -0.3841  0.9502  0.8258
 3863SOL     OW23221   1.016   1.265   6.682  0.2443  0.8987  0.5453
 3863SOL    HW123222   0.928   1.286   6.713  0.3258  0.1598  1.2851
 3863SOL    HW223223   1.078   1.331   6.711  0.8705  0.8597 -0.6988
 3864SOL     OW23224   2.280   3.178   5.548 -0.0103 -0.2353 -0.2374
 3864SOL    HW123225   2.371   3.150   5.556 -0.0686 -1.0009 -2.3360
 3864SOL    HW223226   2.257   3.128   5.470  1.0359 -1.7102  0.4072
 3865SOL     OW23227   1.663   1.936   2.011 -0.0212 -0.3420 -0.1067
 3865SOL    HW123228   1.585   1.991   2.007  0.8127  0.7426 -1.4678
 3865SOL    HW223229   1.693   1.942   1.920  2.2823 -0.8458  0.6205
 3866SOL     OW23230   3.639   3.920   8.993 -0.1743 -0.3586 -0.1277
 3866SOL    HW123231   3.668   3.864   9.065 -0.7601  0.5441  0.8217
 3866SOL    HW223232   3.546   3.900   8.991 -0.3346  0.4133 -0.4122
 3867SOL     OW23233   0.632   4.587   0.249  0.2468  0.3111 -0.0113
 3867SOL    HW123234   0.715   4.618   0.212 -0.0082 -1.8402 -2.3970
 3867SOL    HW223235   0.571   4.655   0.221  0.6940  0.4243 -0.7271
 3868SOL     OW23236   1.686   1.119   6.251 -0.2430  0.3315  0.2715
 3868SOL    HW123237   1.778   1.093   6.249 -0.3879 -0.1717  0.0744
 3868SOL    HW223238   1.662   1.028   6.271  0.0189  0.1169 -0.3715
 3869SOL     OW23239   3.073   0.822   6.330 -0.1683 -0.3781  0.3658
 3869SOL    HW123240   3.057   0.748   6.272  2.2581  2.3911 -3.8014
 3869SOL    HW223241   3.169   0.822   6.325 -0.2687  0.4400 -1.5539
 3870SOL     OW23242   3.862   2.990   3.582  0.6489  0.1366 -0.3835
 3870SOL    HW123243   3.940   2.955   3.626 -1.0629 -3.3360 -0.1395
 3870SOL    HW223244   3.859   2.948   3.496 -0.4562 -0.2512 -0.1524
 3871SOL     OW23245   2.576   3.066   8.325  0.1917 -0.3259 -0.2680
 3871SOL    HW123246   2.521   3.130   8.370  0.3593 -0.0225 -0.4944
 3871SOL    HW223247   2.518   2.991   8.338 -0.7371  0.5530  0.6373
 3872SOL     OW23248   1.874   2.191   6.071 -0.1833  0.3605  0.6310
 3872SOL    HW123249   1.958   2.206   6.116 -0.0066 -0.9297  0.7404
 3872SOL    HW223250   1.829   2.139   6.137 -1.8675 -0.7283 -1.3916
 3873SOL     OW23251   3.613   0.634   0.070  0.2474 -0.7782 -0.5400
 3873SOL    HW123252   3.545   0.610   0.133  1.0506 -1.0270  0.2348
 3873SOL    HW223253   3.572   0.714   0.039  0.5360 -0.9331 -1.3185
 3874SOL     OW23254   0.290   2.183   3.210  0.1462  0.5081  0.1070
 3874SOL    HW123255   0.370   2.140   3.180 -0.3719  0.1378 -0.7564
 3874SOL    HW223256   0.278   2.121   3.282 -1.5339  1.5873  0.7757
 3875SOL     OW23257   0.245   0.015   9.108  0.7007  0.1967  0.2542
 3875SOL    HW123258   0.162   0.039   9.068  1.2701 -0.0421 -1.0779
 3875SOL    HW223259   0.222   4.694   9.174 -1.4866  0.6116 -0.1123
 3876SOL     OW23260   2.812   2.112  15.667  0.0604 -0.2704 -0.4145
 3876SOL    HW123261   2.852   2.063  15.738  0.9775  1.1237  0.0347
 3876SOL    HW223262   2.889   2.111  15.609  0.4641 -1.6856  0.1490
 3877SOL     OW23263   0.724   3.138   4.371 -0.0488  0.2143  0.1972
 3877SOL    HW123264   0.801   3.083   4.358 -0.5864 -0.1515 -1.4615
 3877SOL    HW223265   0.693   3.133   4.280 -1.3472 -0.1570  0.6615
 3878SOL     OW23266   3.077   2.188   4.604 -0.0557  0.5433  0.0513
 3878SOL    HW123267   3.165   2.161   4.629  0.0665 -0.0964 -1.0361
 3878SOL    HW223268   3.041   2.106   4.569 -0.7624  0.9059 -0.0631
 3879SOL     OW23269   1.557   2.880  10.937 -0.4472 -0.1288 -0.9175
 3879SOL    HW123270   1.490   2.939  10.903 -0.6268  0.9703  1.3420
 3879SOL    HW223271   1.548   2.808  10.875 -1.9241 -1.7126  1.1316
 3880SOL     OW23272   3.624   3.376   7.109  0.1240  0.4641 -0.4646
 3880SOL    HW123273   3.613   3.281   7.103 -2.2192  0.8162 -1.5406
 3880SOL    HW223274   3.591   3.393   7.196  0.7065  1.8316 -0.5134
 3881SOL     OW23275   2.626   1.424   4.975  0.2933 -0.5077  0.0021
 3881SOL    HW123276   2.624   1.330   4.992  0.2712 -0.2295  1.6021
 3881SOL    HW223277   2.548   1.454   4.930 -0.9745  0.6068  2.9080
 3882SOL     OW23278   2.223   2.337  17.674 -0.0455 -0.1256  0.3754
 3882SOL    HW123279   2.131   2.364  17.672  0.0229  0.1528  1.0049
 3882SOL    HW223280   2.277   2.410  17.704 -3.1002  2.2826  0.0013
 3883SOL     OW23281   1.893   0.658   3.804  0.6114  0.4469  0.5611
 3883SOL    HW123282   1.816   0.604   3.789  0.2243  1.0946  0.2054
 3883SOL    HW223283   1.951   0.609   3.745 -1.1900 -1.2601  0.2179
 3884SOL     OW23284   1.240   0.420   5.083 -0.2637 -0.0093 -0.4053
 3884SOL    HW123285   1.152   0.444   5.057  0.0339  2.5523  0.9457
 3884SOL    HW223286   1.288   0.422   5.000  0.9715  1.7967  0.3425
 3885SOL     OW23287   0.108   4.299   9.233  0.2650  0.0213  0.2521
 3885SOL    HW123288   0.028   4.248   9.250 -0.1136  1.8012  3.7156
 3885SOL    HW223289   0.175   4.236   9.260 -1.2761 -0.9325  1.9395
 3886SOL     OW23290   3.106   0.806   6.005 -0.3582  0.0979 -0.4697
 3886SOL    HW123291   3.149   0.757   5.935 -2.0176 -0.0258 -1.4215
 3886SOL    HW223292   3.157   0.885   5.992 -2.5258  2.0587  2.8907
 3887SOL     OW23293   2.288   3.804   2.448 -0.1123 -0.1924 -0.6797
 3887SOL    HW123294   2.364   3.746   2.442 -0.2316 -0.5687  1.5153
 3887SOL    HW223295   2.218   3.742   2.428  0.5144 -0.3372 -2.4672
 3888SOL     OW23296   0.535   2.978   8.955  0.1889  0.4345  0.2822
 3888SOL    HW123297   0.483   2.931   8.889  1.2050  1.3688 -1.1908
 3888SOL    HW223298   0.494   3.065   8.953 -1.3322 -0.2783  0.6445
 3889SOL     OW23299   2.210   1.727  15.668  0.3899 -0.1386 -0.5885
 3889SOL    HW123300   2.124   1.691  15.691  0.1381  0.5372 -0.4670
 3889SOL    HW223301   2.263   1.650  15.647  0.7088  0.5884 -2.4325
 3890SOL     OW23302   1.784   3.473   9.888  0.1349 -0.1498  0.0429
 3890SOL    HW123303   1.812   3.423   9.811  2.4168 -2.4541  2.3680
 3890SOL    HW223304   1.695   3.497   9.864 -0.6337 -1.4353  1.6030
 3891SOL     OW23305   2.383   1.922  14.205  0.7648  0.1115 -0.0931
 3891SOL    HW123306   2.417   1.986  14.143  0.0388  0.5971  0.0038
 3891SOL    HW223307   2.363   1.854  14.141  1.2455 -0.3080  0.2076
 3892SOL     OW23308   3.609   0.566   6.718 -0.0497 -0.2417 -0.2141
 3892SOL    HW123309   3.621   0.512   6.640 -1.4105  0.8445 -1.1753
 3892SOL    HW223310   3.515   0.579   6.708 -0.0550 -0.5690 -0.6092
 3893SOL     OW23311   1.654   0.677   4.065  0.1939 -0.7397 -0.0233
 3893SOL    HW123312   1.628   0.678   4.157 -1.1827 -0.8687 -0.4147
 3893SOL    HW223313   1.620   0.592   4.039  0.4312 -0.6038 -0.7744
 3894SOL     OW23314   2.093   3.214  13.145  0.0544 -0.5033  0.2097
 3894SOL    HW123315   2.004   3.179  13.151 -0.4258  0.6608  0.0470
 3894SOL    HW223316   2.084   3.263  13.063  0.4305 -0.4699  0.1924
 3895SOL     OW23317   4.184   2.748   3.914  0.3188 -0.4636 -0.1651
 3895SOL    HW123318   4.146   2.694   3.983  0.0162 -1.5484 -1.1867
 3895SOL    HW223319   4.270   2.707   3.914  0.7482  0.4224 -0.2025
 3896SOL     OW23320   0.894   2.750  14.240  0.3028  0.4996 -0.0891
 3896SOL    HW123321   0.891   2.844  14.223  1.5869  0.5341 -0.1024
 3896SOL    HW223322   0.966   2.719  14.185 -0.5182  1.4242 -1.6712
 3897SOL     OW23323   1.666   0.961  13.337 -0.6965  0.7163 -0.0107
 3897SOL    HW123324   1.579   0.921  13.334  0.4234 -1.6067 -1.3289
 3897SOL    HW223325   1.705   0.905  13.404  1.4881  0.4981 -1.4487
 3898SOL     OW23326   0.249   1.598   4.440  0.2317 -0.3738 -0.2464
 3898SOL    HW123327   0.245   1.580   4.346 -1.1145  0.2537 -0.3094
 3898SOL    HW223328   0.342   1.619   4.452  0.3306 -0.4385 -0.9072
 3899SOL     OW23329   2.036   4.384  10.902 -0.1348 -0.6409 -0.1670
 3899SOL    HW123330   2.074   4.296  10.901 -0.5460 -0.8233  0.4240
 3899SOL    HW223331   2.106   4.424  10.850 -1.2842  0.9844 -0.4685
 3900SOL     OW23332   3.910   3.712   6.847 -0.3947  0.3096  0.4169
 3900SOL    HW123333   3.841   3.773   6.823  0.1774 -0.0058 -2.0846
 3900SOL    HW223334   3.859   3.650   6.899  1.7152 -1.1904  0.7149
 3901SOL     OW23335   2.963   1.984   8.896 -0.5124  0.0165  0.2351
 3901SOL    HW123336   2.994   1.926   8.966  0.3774  1.2753  0.8835
 3901SOL    HW223337   2.885   2.022   8.936 -0.7550 -1.0774  0.8093
 3902SOL     OW23338   3.784   2.176   2.522 -0.9570 -0.3527  0.2471
 3902SOL    HW123339   3.763   2.270   2.526  0.6834 -0.0451  1.7351
 3902SOL    HW223340   3.820   2.162   2.610  2.5659 -0.2996 -1.1980
 3903SOL     OW23341   0.437   3.414   7.850 -0.2061 -0.1699 -0.0293
 3903SOL    HW123342   0.521   3.459   7.839  1.0151 -2.1783  1.0289
 3903SOL    HW223343   0.416   3.389   7.761  0.3945  0.1279 -0.2523
 3904SOL     OW23344   3.372   4.277   6.842  0.9499 -0.2183  0.2831
 3904SOL    HW123345   3.304   4.223   6.801  0.4549 -0.4773  1.4639
 3904SOL    HW223346   3.439   4.212   6.823 -0.1697 -1.5176  0.7552
 3905SOL     OW23347   2.408   4.578  11.987  0.0910  0.1335 -0.1524
 3905SOL    HW123348   2.438   4.665  12.014 -1.7468  1.6021 -2.8892
 3905SOL    HW223349   2.484   4.519  11.987  0.5125  0.6722  1.1790
 3906SOL     OW23350   1.872   3.470  10.274 -0.2139 -0.1212 -0.5999
 3906SOL    HW123351   1.839   3.550  10.313 -1.3543 -0.8620 -0.0453
 3906SOL    HW223352   1.964   3.495  10.264  0.4905 -2.1256  0.8171
 3907SOL     OW23353   0.558   0.457   5.578 -0.2619  0.0864  0.7599
 3907SOL    HW123354   0.649   0.442   5.601 -0.5384 -0.8832  1.2273
 3907SOL    HW223355   0.571   0.518   5.505 -1.3715 -0.3344  0.2017
 3908SOL     OW23356   3.908   3.442   4.058  0.2281 -0.2012  0.3629
 3908SOL    HW123357   4.003   3.454   4.065  0.5137 -1.5220 -1.3184
 3908SOL    HW223358   3.892   3.400   4.142 -0.2151  0.0168  0.3881
 3909SOL     OW23359   0.470   1.008   1.089  0.1039  0.0783 -0.2489
 3909SOL    HW123360   0.452   1.014   0.995  0.5657 -0.8041 -0.3888
 3909SOL    HW223361   0.450   0.915   1.099 -2.2100  0.5894 -0.2359
 3910SOL     OW23362   1.168   2.139   6.692  0.1119  0.4916  0.2531
 3910SOL    HW123363   1.159   2.124   6.598 -2.0551 -2.1631  0.8640
 3910SOL    HW223364   1.079   2.160   6.722  0.1400  1.2587 -0.1998
 3911SOL     OW23365   3.257   0.783   3.240 -0.0413 -0.2869 -0.2824
 3911SOL    HW123366   3.200   0.843   3.289 -0.7185  0.1733 -1.6092
 3911SOL    HW223367   3.225   0.791   3.150 -2.0435  0.3884  0.4775
 3912SOL     OW23368   3.408   1.944   7.613 -0.0464 -0.1566  0.3610
 3912SOL    HW123369   3.452   1.860   7.621  1.2044  0.3104 -1.5104
 3912SOL    HW223370   3.316   1.919   7.621 -0.1979  0.4854  0.6628
 3913SOL     OW23371   0.384   3.040   6.834 -0.0671 -0.2726 -1.3391
 3913SOL    HW123372   0.346   3.129   6.835  3.0593  1.0514 -0.6663
 3913SOL    HW223373   0.467   3.066   6.874  0.7162 -2.5634 -1.5403
 3914SOL     OW23374   2.191   4.547   4.471  0.0152 -0.0695  0.2057
 3914SOL    HW123375   2.150   4.529   4.386  0.9023  1.5448 -0.5661
 3914SOL    HW223376   2.115   4.537   4.529 -0.4300 -1.5297 -0.6526
 3915SOL     OW23377   2.718   2.313   3.626 -0.0135  0.2821  0.2741
 3915SOL    HW123378   2.812   2.319   3.610  0.0592  0.7688  0.8482
 3915SOL    HW223379   2.716   2.302   3.721 -1.1736 -1.0872  0.0989
 3916SOL     OW23380   3.628   2.120  12.507  0.3933 -0.2839  0.5703
 3916SOL    HW123381   3.557   2.121  12.571 -0.8288 -0.7654 -0.7868
 3916SOL    HW223382   3.691   2.072  12.560  2.9609  0.1984 -2.0383
 3917SOL     OW23383   0.325   2.584   2.292  0.2901 -0.5328  0.0300
 3917SOL    HW123384   0.418   2.598   2.272  0.5283 -1.8196  0.2915
 3917SOL    HW223385   0.289   2.580   2.203 -1.3094 -0.2586  0.6716
 3918SOL     OW23386   0.527   2.521   8.088  0.4559  0.1762  0.3784
 3918SOL    HW123387   0.450   2.473   8.057 -0.1203  1.2340  0.1672
 3918SOL    HW223388   0.495   2.611   8.083 -1.1187 -0.3891  0.1464
 3919SOL     OW23389   2.021   2.518  14.336  0.6704 -0.1250 -0.7439
 3919SOL    HW123390   1.981   2.603  14.317  1.7039  0.8465  1.5681
 3919SOL    HW223391   1.976   2.462  14.272 -0.9910 -2.3096  2.3848
 3920SOL     OW23392   4.653   2.902   2.070  0.0646 -0.5104  0.0144
 3920SOL    HW123393   4.678   2.858   2.151  0.6957  2.0661  1.2503
 3920SOL    HW223394   4.730   2.888   2.016 -0.4038 -0.3560 -0.6850
 3921SOL     OW23395   0.532   3.637   8.147 -0.7264 -0.0526  0.8689
 3921SOL    HW123396   0.620   3.669   8.128 -0.3674 -1.5203  0.1016
 3921SOL    HW223397   0.520   3.557   8.097  1.3698 -0.7945  1.5766
 3922SOL     OW23398   0.941   4.246   7.058  0.2358 -0.5204 -0.0048
 3922SOL    HW123399   0.870   4.291   7.104  0.6362 -0.5542  0.6500
 3922SOL    HW223400   1.005   4.231   7.128 -0.1505 -1.2347  0.1985
 3923SOL     OW23401   0.543   4.334   3.434 -0.4807 -0.1735  0.2360
 3923SOL    HW123402   0.486   4.258   3.437 -1.0888  0.3080  1.0208
 3923SOL    HW223403   0.498   4.402   3.384  1.9005  2.4986  1.7192
 3924SOL     OW23404   2.116   3.311   5.288 -0.1229 -0.2689 -0.0002
 3924SOL    HW123405   2.103   3.220   5.312 -0.9288  0.3388  1.9029
 3924SOL    HW223406   2.169   3.307   5.208 -2.5487  0.4208 -1.6275
 3925SOL     OW23407   0.449   1.730   2.492  0.5920  0.2317 -0.6100
 3925SOL    HW123408   0.369   1.765   2.454 -0.7216 -0.7245  1.2954
 3925SOL    HW223409   0.458   1.653   2.436 -2.5931  0.8821 -2.0092
 3926SOL     OW23410   0.878   1.436   3.227  0.0285  0.2035  0.1032
 3926SOL    HW123411   0.909   1.434   3.137 -3.2942 -2.0700 -0.9824
 3926SOL    HW223412   0.955   1.465   3.276 -1.1792 -0.9578  2.7296
 3927SOL     OW23413   1.248   4.606   2.688  0.4048 -1.0028  0.3966
 3927SOL    HW123414   1.296   4.683   2.716  1.3945 -1.3971 -0.2169
 3927SOL    HW223415   1.176   4.645   2.638  0.5882 -0.2977  0.6904
 3928SOL     OW23416   0.198   3.726  16.384  1.2520  0.3239 -0.1682
 3928SOL    HW123417   0.230   3.740  16.473  1.3598  0.8225 -0.2832
 3928SOL    HW223418   0.210   3.631  16.378  0.6326  0.4139 -2.9455
 3929SOL     OW23419   0.931   0.909   5.043  0.2697 -0.3690 -0.3411
 3929SOL    HW123420   0.963   0.978   5.101  0.3318 -1.5286  1.0158
 3929SOL    HW223421   0.841   0.899   5.076 -0.1976  0.4273 -1.3518
 3930SOL     OW23422   2.984   3.537   3.399  0.5575  0.2784 -0.0619
 3930SOL    HW123423   2.983   3.458   3.452 -0.8014 -0.4455 -1.1726
 3930SOL    HW223424   3.055   3.516   3.338  1.1234  1.4186  0.2022
 3931SOL     OW23425   1.100   2.266   8.167  0.0143 -0.0601  0.5435
 3931SOL    HW123426   1.014   2.230   8.144  0.8483 -2.5679  1.3690
 3931SOL    HW223427   1.102   2.350   8.123  0.7139 -0.0184  0.6486
 3932SOL     OW23428   0.969   2.812   5.949 -0.0193  0.4059 -0.5645
 3932SOL    HW123429   1.025   2.850   6.017 -0.9736 -0.4214  0.6956
 3932SOL    HW223430   1.020   2.832   5.871  0.2665 -1.7323 -0.9256
 3933SOL     OW23431   0.642   2.313   6.896 -0.2895 -0.7247  0.1247
 3933SOL    HW123432   0.559   2.341   6.860 -1.3885 -2.0851  1.5958
 3933SOL    HW223433   0.698   2.382   6.860 -0.1198 -1.2694 -0.6704
 3934SOL     OW23434   3.768   2.410   3.960  0.1345 -0.6695  0.0908
 3934SOL    HW123435   3.731   2.346   4.021  1.7816 -0.9663  0.7589
 3934SOL    HW223436   3.737   2.490   4.003 -0.3438  0.1780 -1.8379
 3935SOL     OW23437   0.017   0.476   5.864 -0.0247  0.2838 -0.0012
 3935SOL    HW123438   0.039   0.391   5.903 -0.1174  0.8470  1.2745
 3935SOL    HW223439   0.108   0.506   5.855 -0.2214  0.0078 -2.8886
 3936SOL     OW23440   4.162   4.567   7.807  0.3109 -0.0655  0.1929
 3936SOL    HW123441   4.186   4.626   7.877  1.7766  1.6218 -1.7404
 3936SOL    HW223442   4.138   4.631   7.740 -0.3417 -0.3076  0.1967
 3937SOL     OW23443   3.610   3.343  11.869 -0.2164 -0.0194  0.3818
 3937SOL    HW123444   3.682   3.359  11.807  0.4539 -1.2099  0.8490
 3937SOL    HW223445   3.636   3.251  11.877  0.3490  0.3509  2.7055
 3938SOL     OW23446   0.556   4.363   8.356 -0.2679 -0.4837  0.3891
 3938SOL    HW123447   0.594   4.429   8.413 -0.1553  0.4402 -0.7380
 3938SOL    HW223448   0.628   4.302   8.344  1.6460  1.4561  1.9603
 3939SOL     OW23449   3.945   2.011   3.650  0.2447 -0.7824  0.1135
 3939SOL    HW123450   3.971   2.096   3.614 -0.4113  0.3860  2.3692
 3939SOL    HW223451   3.937   2.040   3.742 -0.2816  1.9826 -0.7867
 3940SOL     OW23452   2.425   2.090   4.901  0.0648 -0.2639  0.5054
 3940SOL    HW123453   2.445   2.177   4.867  0.7325 -1.1968 -1.5091
 3940SOL    HW223454   2.403   2.111   4.991 -0.1412  1.0024  0.1559
 3941SOL     OW23455   2.160   0.407   3.901  0.0265  0.0172  0.2346
 3941SOL    HW123456   2.090   0.422   3.964 -0.4140 -0.2464 -0.1936
 3941SOL    HW223457   2.238   0.393   3.955  0.4039 -0.3549 -0.3980
 3942SOL     OW23458   3.904   3.520   6.646 -0.2914 -0.4113 -0.0336
 3942SOL    HW123459   3.818   3.482   6.664 -0.4663 -0.0934 -0.1869
 3942SOL    HW223460   3.918   3.583   6.717 -0.8829  0.8486 -1.0493
 3943SOL     OW23461   3.038   1.493  12.120  0.1696  0.6389 -0.1295
 3943SOL    HW123462   2.949   1.527  12.126 -1.2563 -3.6888  3.7442
 3943SOL    HW223463   3.083   1.575  12.100 -0.3573  1.4646  2.0649
 3944SOL     OW23464   2.935   4.211  10.212 -0.3846 -0.2281  0.0873
 3944SOL    HW123465   3.016   4.208  10.261 -0.2536 -0.0937 -0.1205
 3944SOL    HW223466   2.931   4.116  10.201 -1.9453 -0.2232  0.6153
 3945SOL     OW23467   1.053   4.196   6.620  0.4018  0.1435  0.0984
 3945SOL    HW123468   1.041   4.103   6.641  0.9854  0.5665  2.3501
 3945SOL    HW223469   1.021   4.194   6.530  0.1044  0.7535  0.1905
 3946SOL     OW23470   1.505   0.571   8.860 -0.6887  0.0576 -0.2726
 3946SOL    HW123471   1.528   0.487   8.820 -1.8886 -0.9672  1.1705
 3946SOL    HW223472   1.476   0.536   8.944  0.8025 -0.2256  0.1260
 3947SOL     OW23473   2.495   3.719   0.888  0.1307 -0.4525 -0.2426
 3947SOL    HW123474   2.529   3.629   0.889  0.5834 -0.2869 -2.4803
 3947SOL    HW223475   2.463   3.727   0.799 -0.0957 -0.4582 -0.1612
 3948SOL     OW23476   0.811   1.631   3.743 -0.3138 -0.1155 -0.2761
 3948SOL    HW123477   0.737   1.633   3.682  0.1134 -2.0869 -0.8774
 3948SOL    HW223478   0.861   1.554   3.715 -2.0193 -1.6627  0.8995
 3949SOL     OW23479   3.436   3.386   5.999  0.1643  0.6059  0.4792
 3949SOL    HW123480   3.387   3.384   5.916 -0.4247 -3.7947  0.9690
 3949SOL    HW223481   3.364   3.407   6.058  0.3990  2.0696  0.2483
 3950SOL     OW23482   2.515   3.325  17.095 -0.4754 -0.2447 -0.0978
 3950SOL    HW123483   2.521   3.231  17.078  2.1276  0.4145 -2.8869
 3950SOL    HW223484   2.593   3.328  17.151 -0.9212  0.7634  0.4679
 3951SOL     OW23485   2.181   4.244  14.265  0.0498 -0.1858 -0.0894
 3951SOL    HW123486   2.196   4.338  14.249 -2.6355 -0.1315 -2.1751
 3951SOL    HW223487   2.218   4.210  14.184  0.6584 -1.1794  0.6057
 3952SOL     OW23488   0.498   0.494   1.252  0.0616  0.0420  0.5735
 3952SOL    HW123489   0.585   0.497   1.212 -0.0120 -0.5364  0.3852
 3952SOL    HW223490   0.502   0.407   1.290  0.1717  0.6282  1.9063
 3953SOL     OW23491   4.030   0.677   7.525 -0.3993 -0.6779  0.1381
 3953SOL    HW123492   4.088   0.740   7.568 -1.7743  2.0639 -2.0472
 3953SOL    HW223493   4.021   0.699   7.432 -0.2736  0.0801  0.3074
 3954SOL     OW23494   4.475   2.899   2.382 -0.1621 -0.0670  0.2507
 3954SOL    HW123495   4.529   2.830   2.420 -0.0298  0.2959  0.7159
 3954SOL    HW223496   4.385   2.885   2.408  0.1086 -0.7015  0.8321
 3955SOL     OW23497   1.855   3.421   3.412  0.1314 -0.9432 -0.1076
 3955SOL    HW123498   1.770   3.446   3.376 -1.2767 -2.5335  2.0513
 3955SOL    HW223499   1.842   3.328   3.391 -0.7335 -0.2756 -2.5323
 3956SOL     OW23500   0.446   0.018   0.150 -0.3211  0.2941 -0.3448
 3956SOL    HW123501   0.353   0.015   0.172 -0.0497  1.1941  0.9500
 3956SOL    HW223502   0.477   0.105   0.126 -2.0729  1.9996  3.4584
 3957SOL     OW23503   1.854   0.220   3.194 -0.1732 -0.3039  0.3674
 3957SOL    HW123504   1.936   0.172   3.209 -0.0564  0.7756  3.3001
 3957SOL    HW223505   1.815   0.175   3.120 -1.3783 -0.1169  0.8943
 3958SOL     OW23506   0.924   2.898   6.787  0.2618  0.7239 -0.0691
 3958SOL    HW123507   0.951   2.939   6.705  3.7658  0.7880  1.1417
 3958SOL    HW223508   0.982   2.822   6.792 -0.9574 -0.4246 -3.2620
 3959SOL     OW23509   2.410   1.129   9.575 -0.0127  0.5198  0.2601
 3959SOL    HW123510   2.404   1.131   9.670 -3.3816 -1.0364  0.1031
 3959SOL    HW223511   2.320   1.141   9.545 -0.1225  1.4584  0.9801
 3960SOL     OW23512   2.646   1.828   8.888 -0.8391 -0.6440 -0.1805
 3960SOL    HW123513   2.555   1.818   8.863 -0.7546 -1.3600 -0.1917
 3960SOL    HW223514   2.696   1.747   8.878 -0.7145 -0.5827 -0.0630
 3961SOL     OW23515   4.602   1.873  14.325 -0.2731 -0.3662 -0.2251
 3961SOL    HW123516   4.690   1.852  14.293  0.4011 -1.3101  2.2326
 3961SOL    HW223517   4.591   1.800  14.386 -2.1941 -0.6909 -0.9676
 3962SOL     OW23518   4.336   0.703   4.084 -0.2083 -0.5196 -0.9633
 3962SOL    HW123519   4.299   0.649   4.153  1.4630 -2.2411 -1.4149
 3962SOL    HW223520   4.428   0.709   4.107 -0.5067  2.8351 -0.6230
 3963SOL     OW23521   1.062   1.719  10.607  0.1085 -0.6181  0.1595
 3963SOL    HW123522   1.093   1.784  10.671 -2.1325  0.7622 -0.1474
 3963SOL    HW223523   1.102   1.752  10.527 -1.1005  3.2992  1.1705
 3964SOL     OW23524   3.360   2.899   5.785  0.1170 -0.1019 -0.1411
 3964SOL    HW123525   3.383   2.969   5.847 -0.1524 -0.8439  0.7891
 3964SOL    HW223526   3.299   2.855   5.844 -0.4054  0.2984 -0.3896
 3965SOL     OW23527   1.733   1.784  10.453 -0.2245 -0.0784  0.1162
 3965SOL    HW123528   1.756   1.735  10.531 -0.4632  0.3433  0.4507
 3965SOL    HW223529   1.716   1.722  10.382 -1.0888  0.1383  0.1269
 3966SOL     OW23530   3.514   0.955   1.001  0.1431  0.6359 -0.5249
 3966SOL    HW123531   3.493   0.862   1.008  1.7035  0.2849 -0.6566
 3966SOL    HW223532   3.426   0.994   1.008  0.8965  1.6595  3.2216
 3967SOL     OW23533   0.013   4.293   8.504 -0.2889  0.5558 -0.2465
 3967SOL    HW123534   0.026   4.341   8.586  0.3502 -0.2903  0.1512
 3967SOL    HW223535   0.052   4.359   8.447  0.0023  0.4427 -0.1756
 3968SOL     OW23536   3.014   0.270  13.504  0.5640 -0.5339 -0.0524
 3968SOL    HW123537   3.073   0.287  13.430  0.2208  1.7233  0.2143
 3968SOL    HW223538   3.061   0.310  13.577 -1.0310 -2.6960  2.1384
 3969SOL     OW23539   4.116   3.486   8.065  0.0149 -0.2076 -0.3657
 3969SOL    HW123540   4.054   3.419   8.037  1.1614 -0.6877 -1.7530
 3969SOL    HW223541   4.178   3.455   8.132  0.2245 -0.4451 -0.6707
 3970SOL     OW23542   2.667   3.184   5.381  0.1740 -0.1989  0.2658
 3970SOL    HW123543   2.677   3.219   5.293 -0.8991 -1.0982 -0.2251
 3970SOL    HW223544   2.625   3.262   5.417 -0.2301 -0.7403  0.9970
 3971SOL     OW23545   4.605   4.275   4.388 -0.7728 -0.2653 -0.4623
 3971SOL    HW123546   4.563   4.265   4.473  0.8361  1.9135  0.5858
 3971SOL    HW223547   4.541   4.333   4.348 -0.6526  0.3055  0.1707
 3972SOL     OW23548   3.123   0.029   4.475 -0.4434  0.1456  0.2608
 3972SOL    HW123549   3.048   0.087   4.461 -0.2436  0.2058 -0.5238
 3972SOL    HW223550   3.094   4.719   4.549  2.1358  0.1986  1.3013
 3973SOL     OW23551   4.051   3.630   8.615  0.0616 -0.0964  0.1758
 3973SOL    HW123552   4.080   3.548   8.576  0.8447  1.1398 -1.8347
 3973SOL    HW223553   4.119   3.689   8.583 -0.8324  0.7061 -0.2249
 3974SOL     OW23554   0.920   4.655   5.521 -0.1206  0.2887  0.5191
 3974SOL    HW123555   0.920   4.581   5.581 -0.1452 -0.0924  0.0498
 3974SOL    HW223556   0.918   4.729   5.581 -4.1163  1.1487 -0.6247
 3975SOL     OW23557   4.381   2.793  13.908  0.0044  0.2471 -0.3813
 3975SOL    HW123558   4.437   2.743  13.968 -2.0794 -0.6247  0.8722
 3975SOL    HW223559   4.299   2.744  13.911 -0.2667  0.7510  0.3389
 3976SOL     OW23560   4.723   0.461  16.445 -0.3686 -0.2311 -0.3199
 3976SOL    HW123561   4.635   0.426  16.428 -0.2124  0.0116 -1.6221
 3976SOL    HW223562   4.743   0.415  16.527  1.3996 -2.1749 -1.8389
 3977SOL     OW23563   1.855   1.662   5.633  0.8960 -0.5202  0.0400
 3977SOL    HW123564   1.890   1.744   5.599 -0.8057  0.1513 -0.0818
 3977SOL    HW223565   1.762   1.684   5.634  0.6200 -1.7722  1.1557
 3978SOL     OW23566   3.474   2.314   8.877 -0.2246  0.7267  0.0725
 3978SOL    HW123567   3.387   2.283   8.854  0.0742 -1.0858  1.3584
 3978SOL    HW223568   3.478   2.324   8.972  1.4215 -0.0442  0.0867
 3979SOL     OW23569   0.238   2.308   4.836  0.1852 -0.3030 -0.2865
 3979SOL    HW123570   0.331   2.300   4.814  0.3164  1.3026 -0.3217
 3979SOL    HW223571   0.222   2.223   4.877 -3.9211 -0.2406 -1.7460
 3980SOL     OW23572   1.653   3.399  12.033 -0.1027 -0.1799  0.6953
 3980SOL    HW123573   1.571   3.444  12.015  0.2430  1.1804  2.5421
 3980SOL    HW223574   1.673   3.376  11.943  1.9816  2.0088  0.5936
 3981SOL     OW23575   4.711   2.792   5.488  0.1863 -0.3451  0.0816
 3981SOL    HW123576   0.034   2.783   5.556  2.4325  0.8309 -1.9924
 3981SOL    HW223577   0.009   2.868   5.447 -0.5594  0.5264  0.9110
 3982SOL     OW23578   1.447   2.933   5.699  0.1449  0.0994  0.9624
 3982SOL    HW123579   1.366   2.883   5.693 -0.0144  0.4107  0.5169
 3982SOL    HW223580   1.407   3.020   5.697 -0.0198  0.0109  0.4389
 3983SOL     OW23581   3.873   0.570  17.764 -0.0414  0.2827 -0.2625
 3983SOL    HW123582   3.852   0.522  17.684 -1.0559  1.7492 -0.8730
 3983SOL    HW223583   3.783   0.592   0.017  0.6327  0.2247  2.2160
 3984SOL     OW23584   1.483   3.374   7.110  0.3216 -0.5822  0.5996
 3984SOL    HW123585   1.504   3.458   7.068  1.8072 -1.2478  0.0262
 3984SOL    HW223586   1.555   3.325   7.071  1.1592 -1.1312  2.8621
 3985SOL     OW23587   2.374   0.510  15.827  0.3364 -0.0196 -0.4989
 3985SOL    HW123588   2.316   0.567  15.878 -0.2863 -0.3798 -0.7950
 3985SOL    HW223589   2.439   0.472  15.886  1.4977  0.5841 -1.3866
 3986SOL     OW23590   4.294   0.916   5.222  0.0027 -0.1409 -0.2922
 3986SOL    HW123591   4.272   0.865   5.300  0.9236 -1.7577 -1.0956
 3986SOL    HW223592   4.301   0.845   5.159  0.0948 -0.4595  0.0731
 3987SOL     OW23593   0.242   0.871   7.699 -1.0315  0.4290  0.2285
 3987SOL    HW123594   0.316   0.836   7.649 -0.2174 -0.6102  2.1458
 3987SOL    HW223595   0.170   0.824   7.657 -0.8224  0.4155 -0.1155
 3988SOL     OW23596   0.381   0.366  15.259 -0.1695  0.1703 -0.0945
 3988SOL    HW123597   0.342   0.410  15.335 -1.8967 -0.3732 -0.6468
 3988SOL    HW223598   0.373   0.441  15.201 -2.5653 -1.0703 -1.3629
 3989SOL     OW23599   0.312   2.226   8.807  0.2040  0.1093 -0.1738
 3989SOL    HW123600   0.233   2.230   8.860  0.9721  1.8122  0.8593
 3989SOL    HW223601   0.350   2.311   8.830  3.1259 -1.4456  0.8333
 3990SOL     OW23602   2.445   4.005   5.534  0.4284  0.2649  0.1899
 3990SOL    HW123603   2.505   3.939   5.569  0.4995  0.8842  1.2406
 3990SOL    HW223604   2.490   4.088   5.553  1.6437 -0.5005  0.6248
 3991SOL     OW23605   1.914   3.865   0.473 -1.0416  0.8195  0.4165
 3991SOL    HW123606   1.945   3.928   0.408 -0.9997  0.7565  0.3756
 3991SOL    HW223607   1.897   3.789   0.417  0.6454 -0.7241  1.9818
 3992SOL     OW23608   4.377   1.097   1.897  0.2796  0.2857 -0.0735
 3992SOL    HW123609   4.343   1.039   1.965  1.5926  0.0470  0.3881
 3992SOL    HW223610   4.302   1.103   1.838  0.8216 -0.6432 -0.8498
 3993SOL     OW23611   1.126   1.503   2.570 -0.6583 -0.0204 -0.1383
 3993SOL    HW123612   1.055   1.454   2.528 -0.8387  0.1119  0.0108
 3993SOL    HW223613   1.083   1.558   2.636  0.8875  1.3466 -0.2595
 3994SOL     OW23614   3.276   2.717   8.425 -0.3729 -0.4765  0.4643
 3994SOL    HW123615   3.318   2.803   8.428 -1.2479 -0.0269 -0.7350
 3994SOL    HW223616   3.185   2.742   8.416 -0.5468 -1.4718 -0.5535
 3995SOL     OW23617   2.837   0.445   1.349  0.5807  0.4841  0.4111
 3995SOL    HW123618   2.746   0.435   1.323  0.5883  1.5361 -0.0392
 3995SOL    HW223619   2.870   0.485   1.269  0.4256  2.3616  1.2990
 3996SOL     OW23620   1.269   2.544   7.042  0.4072 -0.5340 -0.6374
 3996SOL    HW123621   1.231   2.520   7.126  1.8985 -1.8260 -0.3302
 3996SOL    HW223622   1.291   2.461   6.999 -1.0106 -0.5766 -1.2876
 3997SOL     OW23623   3.029   1.198   1.004 -0.1335 -0.2993  0.1101
 3997SOL    HW123624   2.978   1.279   1.001 -0.8175 -0.6134  2.6966
 3997SOL    HW223625   2.967   1.131   1.032  1.8041 -1.7795  0.8769
 3998SOL     OW23626   3.452   4.010   8.521 -0.0730  0.5629  1.1854
 3998SOL    HW123627   3.537   4.012   8.565  1.4892 -3.1826 -1.6579
 3998SOL    HW223628   3.456   3.921   8.487 -1.5724  0.3994  1.4259
 3999SOL     OW23629   3.435   4.581   6.800 -0.1245 -0.5770 -0.4564
 3999SOL    HW123630   3.391   4.543   6.877  0.5436  0.6900  0.5496
 3999SOL    HW223631   3.407   4.515   6.737 -0.1772 -1.8110  0.8432
 4000SOL     OW23632   3.848   1.047  14.292 -0.6325  0.0998 -0.8014
 4000SOL    HW123633   3.778   1.002  14.245 -1.5980 -1.7051  2.3901
 4000SOL    HW223634   3.858   1.125  14.237 -0.4930  0.8124  0.2440
 4001SOL     OW23635   0.070   0.236   5.957 -0.2202  0.4045 -0.1816
 4001SOL    HW123636   0.142   0.210   5.899 -1.2668  0.8525 -1.6767
 4001SOL    HW223637   0.014   0.160   5.973  3.2269 -2.1290 -0.1721
 4002SOL     OW23638   0.034   4.212  10.488 -0.3431  0.1105 -0.3366
 4002SOL    HW123639   4.741   4.144  10.432  0.7500  0.2005 -1.1643
 4002SOL    HW223640   4.744   4.287  10.440  0.0530  2.2201  2.6947
 4003SOL     OW23641   4.663   3.325   8.203  0.2305 -0.1091  0.3058
 4003SOL    HW123642   4.651   3.378   8.282  1.2378  2.4588 -1.2967
 4003SOL    HW223643   0.013   3.314   8.192 -0.0947  0.1237 -2.5161
 4004SOL     OW23644   4.466   4.391   8.481  0.0580  0.2294  0.1956
 4004SOL    HW123645   4.376   4.424   8.483  0.3950  1.2010 -1.7063
 4004SOL    HW223646   4.490   4.361   8.394  1.5564 -1.7216  1.2884
 4005SOL     OW23647   3.996   4.229   8.344 -0.1865  0.0012 -0.0961
 4005SOL    HW123648   3.967   4.140   8.324  1.7288 -0.2796 -1.6575
 4005SOL    HW223649   3.957   4.277   8.271 -1.2707  0.4056  0.7592
 4006SOL     OW23650   4.255   2.839   4.427  0.1564 -0.9159 -0.4129
 4006SOL    HW123651   4.246   2.931   4.402  0.3259 -1.2138 -1.5788
 4006SOL    HW223652   4.177   2.832   4.482  0.3576  1.4466  0.1674
 4007SOL     OW23653   1.472   3.602   4.957  0.7363 -0.2472  0.4443
 4007SOL    HW123654   1.520   3.642   4.884  2.8155  3.6735  3.9363
 4007SOL    HW223655   1.417   3.539   4.910  0.3261 -0.5603  1.3477
 4008SOL     OW23656   3.643   1.691   5.496 -0.1861  0.1082  0.7727
 4008SOL    HW123657   3.575   1.679   5.563  0.6318 -2.7795  1.0824
 4008SOL    HW223658   3.715   1.639   5.531  0.0251 -0.4327 -0.4673
 4009SOL     OW23659   2.696   1.667   5.523 -0.2690 -0.1119  0.0397
 4009SOL    HW123660   2.751   1.606   5.472  0.3902  0.3073  0.2456
 4009SOL    HW223661   2.767   1.706   5.574 -1.5924  0.1415  1.6485
 4010SOL     OW23662   2.213   1.934   6.143  0.6334  0.1689 -0.1179
 4010SOL    HW123663   2.168   1.855   6.172  2.7773 -0.1687  2.2805
 4010SOL    HW223664   2.172   1.959   6.060  1.6303  1.3800 -0.2498
 4011SOL     OW23665   3.558   3.112  14.987  0.0957 -0.2320 -0.4468
 4011SOL    HW123666   3.619   3.039  14.990 -0.4254 -0.6556 -0.1549
 4011SOL    HW223667   3.496   3.069  14.928  0.5567  1.2652 -2.0423
 4012SOL     OW23668   1.607   3.889   2.650 -0.4858 -0.0331  0.1427
 4012SOL    HW123669   1.517   3.891   2.617  0.0727  1.7421 -1.2915
 4012SOL    HW223670   1.643   3.968   2.610 -1.4743  0.7255  0.7744
 4013SOL     OW23671   3.002   4.209   3.435 -0.0239  0.6061  0.0865
 4013SOL    HW123672   2.952   4.136   3.471  3.0528 -1.1867  0.6322
 4013SOL    HW223673   3.082   4.202   3.486 -1.1076  0.1199  1.7445
 4014SOL     OW23674   4.292   0.352   0.087  0.3681 -0.2629  0.3026
 4014SOL    HW123675   4.342   0.430   0.110  0.7338  0.1164 -1.8200
 4014SOL    HW223676   4.221   0.359   0.151  1.0913 -0.3180  1.1212
 4015SOL     OW23677   1.015   3.857   5.431 -0.6675  0.0049 -0.2745
 4015SOL    HW123678   1.002   3.868   5.337 -0.9259  0.1408 -0.2248
 4015SOL    HW223679   1.093   3.803   5.437  0.5612  2.1690  3.1025
 4016SOL     OW23680   2.236   0.708   1.054  0.6190 -0.3568 -0.1841
 4016SOL    HW123681   2.213   0.765   1.126  2.3919  0.4307 -0.2416
 4016SOL    HW223682   2.264   0.636   1.111 -1.6505 -1.5319 -0.5501
 4017SOL     OW23683   1.547   4.024   5.026 -0.0618 -0.2535 -0.3032
 4017SOL    HW123684   1.550   4.053   4.935  2.2721 -0.6091 -0.3301
 4017SOL    HW223685   1.451   4.024   5.032 -0.2228 -0.0863 -2.7819
 4018SOL     OW23686   1.142   2.949   8.457  0.0465 -0.5283  0.3169
 4018SOL    HW123687   1.223   2.959   8.407 -0.9342 -0.1024 -1.1947
 4018SOL    HW223688   1.128   2.854   8.458  0.1831 -0.5533 -0.3042
 4019SOL     OW23689   3.462   4.363  13.995  0.3851  0.3137  0.1215
 4019SOL    HW123690   3.478   4.438  14.053  1.7912  1.5515 -1.8350
 4019SOL    HW223691   3.501   4.407  13.919 -0.9084  0.0460 -0.6967
 4020SOL     OW23692   4.392   2.828   5.544 -0.6663  0.6320  0.4624
 4020SOL    HW123693   4.367   2.750   5.495 -0.2408  1.0386 -0.3992
 4020SOL    HW223694   4.484   2.808   5.558 -0.6858  0.0499 -0.2448
 4021SOL     OW23695   0.125   3.609   5.964  0.3052 -0.5778  0.1407
 4021SOL    HW123696   0.120   3.678   6.030  4.0554 -0.0679 -0.1447
 4021SOL    HW223697   0.209   3.622   5.920  0.3610  0.3802  0.5231
 4022SOL     OW23698   1.433   0.288   4.877  0.1982  0.1266  0.2072
 4022SOL    HW123699   1.480   0.211   4.844  1.0667 -0.3368  2.5006
 4022SOL    HW223700   1.508   0.338   4.908  2.3085 -2.4960 -0.6330
 4023SOL     OW23701   0.801   4.210   0.855  0.0914  0.7512  0.2606
 4023SOL    HW123702   0.733   4.175   0.912 -1.1724  1.2263 -0.9236
 4023SOL    HW223703   0.874   4.231   0.913  1.6080 -0.0928 -1.3217
 4024SOL     OW23704   0.215   1.768   4.638  0.3191  0.0990 -0.6374
 4024SOL    HW123705   0.146   1.818   4.595  0.5284  1.5044  0.6683
 4024SOL    HW223706   0.217   1.695   4.576  0.8287 -0.9291  0.5657
 4025SOL     OW23707   1.828   4.506   0.959 -0.0594  0.2597  0.0035
 4025SOL    HW123708   1.809   4.578   1.019  0.4386 -1.9635  2.7943
 4025SOL    HW223709   1.904   4.547   0.918  1.3033  0.7374  3.0214
 4026SOL     OW23710   3.768   0.114   0.923 -0.1783  0.3902 -0.0079
 4026SOL    HW123711   3.711   0.053   0.970 -2.1720  2.0075 -0.3333
 4026SOL    HW223712   3.707   0.174   0.880 -0.2094 -0.1526 -0.7322
 4027SOL     OW23713   1.373   3.164  13.045  0.1653 -0.5517 -0.0182
 4027SOL    HW123714   1.353   3.161  13.139  2.1342 -0.8121  0.4044
 4027SOL    HW223715   1.309   3.228  13.014  0.5298 -1.0791 -1.8046
 4028SOL     OW23716   3.208   4.536  11.830 -0.2452 -0.4168 -0.2906
 4028SOL    HW123717   3.219   4.629  11.850 -0.3209 -0.2105 -1.2211
 4028SOL    HW223718   3.117   4.540  11.800  0.1286 -1.3309 -1.5256
 4029SOL     OW23719   1.485   3.020   0.946  0.0986 -0.0730 -0.3252
 4029SOL    HW123720   1.503   3.031   0.853 -0.0553  2.1472 -0.0753
 4029SOL    HW223721   1.517   2.930   0.953  1.3619  0.3244 -1.0443
 4030SOL     OW23722   1.692   4.216   2.230 -0.2895 -0.0388 -0.1089
 4030SOL    HW123723   1.662   4.306   2.236  0.1110  0.1254 -0.5451
 4030SOL    HW223724   1.653   4.180   2.150 -0.1225 -0.2785 -0.0855
 4031SOL     OW23725   0.927   0.465  12.419 -0.1182 -0.0759  0.1485
 4031SOL    HW123726   0.924   0.397  12.487 -2.4076 -0.6257 -0.4676
 4031SOL    HW223727   1.008   0.506  12.448  0.9564 -0.9383 -1.6199
 4032SOL     OW23728   1.781   3.154   3.276 -0.6532  0.1622 -0.4537
 4032SOL    HW123729   1.832   3.073   3.278 -2.4157 -0.8808  1.8829
 4032SOL    HW223730   1.762   3.155   3.182 -1.6233  1.3667 -0.2323
 4033SOL     OW23731   0.191   4.538   9.316 -0.0551 -0.1900  0.7857
 4033SOL    HW123732   0.276   4.553   9.356  0.0047  2.0459 -0.2159
 4033SOL    HW223733   0.180   4.443   9.303 -0.3236  0.0077 -0.4585
 4034SOL     OW23734   1.542   0.442   4.032 -0.7710 -0.3423 -1.0338
 4034SOL    HW123735   1.499   0.357   4.027 -0.5142 -0.5304 -0.0798
 4034SOL    HW223736   1.476   0.498   3.991 -0.4493  1.5284  0.9717
 4035SOL     OW23737   1.769   0.454   8.597  0.0884 -0.0923 -0.2286
 4035SOL    HW123738   1.718   0.532   8.574  0.2040 -0.1833 -0.7744
 4035SOL    HW223739   1.853   0.501   8.595  1.0071 -1.8005 -1.2884
 4036SOL     OW23740   3.400   4.087   9.774 -0.3229  0.4511 -0.3562
 4036SOL    HW123741   3.471   4.023   9.773 -0.1493  0.6444 -0.4409
 4036SOL    HW223742   3.322   4.040   9.803 -0.0200 -0.8515 -1.6379
 4037SOL     OW23743   2.398   4.346   8.234 -0.1719  0.2163 -0.4489
 4037SOL    HW123744   2.311   4.312   8.210 -0.8869  1.3049  0.6179
 4037SOL    HW223745   2.392   4.336   8.329 -1.3722  0.3891 -0.4962
 4038SOL     OW23746   0.519   4.207   3.858  0.0952 -1.0873  0.3692
 4038SOL    HW123747   0.489   4.297   3.869 -0.5940 -1.3911  0.9021
 4038SOL    HW223748   0.457   4.170   3.795 -0.3635 -1.6199  1.1346
 4039SOL     OW23749   0.808   1.778   7.781  0.1538  0.3426 -0.1142
 4039SOL    HW123750   0.741   1.815   7.723 -0.6061 -1.3274 -0.2934
 4039SOL    HW223751   0.889   1.820   7.751  0.6198 -0.1061  0.5235
 4040SOL     OW23752   1.068   3.224  17.083  0.5521  0.5380 -0.1341
 4040SOL    HW123753   1.049   3.274  17.162  1.0226 -0.1276  0.3979
 4040SOL    HW223754   1.068   3.295  17.019 -2.7117 -0.4718 -1.2905
 4041SOL     OW23755   3.651   1.613  13.795 -0.1610 -0.1209  0.6005
 4041SOL    HW123756   3.706   1.647  13.725 -1.2502  0.0089 -0.1781
 4041SOL    HW223757   3.566   1.629  13.756 -0.1113  2.0388  1.3987
 4042SOL     OW23758   4.196   1.096  12.338 -0.1322 -0.3267  0.8059
 4042SOL    HW123759   4.110   1.096  12.296 -1.3204 -1.6184  3.2648
 4042SOL    HW223760   4.195   1.173  12.395  0.4425 -1.2305  2.0230
 4043SOL     OW23761   0.425   2.007   6.225  0.0842 -0.8534  0.5322
 4043SOL    HW123762   0.375   1.993   6.145  1.4290 -1.6940 -0.1573
 4043SOL    HW223763   0.355   1.991   6.288 -0.8226  1.4699  0.1175
 4044SOL     OW23764   1.409   0.428   9.093  0.1990 -0.0583  0.3100
 4044SOL    HW123765   1.503   0.428   9.110  0.2809  0.5273 -0.1344
 4044SOL    HW223766   1.378   0.370   9.162 -1.6088  0.7535  0.1676
 4045SOL     OW23767   2.108   4.267   6.456 -0.3579  0.5219 -0.3400
 4045SOL    HW123768   2.121   4.338   6.393 -1.0908 -0.2293 -1.3316
 4045SOL    HW223769   2.178   4.287   6.519 -1.4148 -1.7000  1.5545
 4046SOL     OW23770   1.726   4.125  10.291  0.5214 -0.0014 -0.4522
 4046SOL    HW123771   1.667   4.162  10.226 -0.1076 -1.2153 -0.5647
 4046SOL    HW223772   1.731   4.034  10.264 -1.6191 -0.5540  1.0540
 4047SOL     OW23773   2.643   2.146   6.619  0.0260  0.5709 -0.0039
 4047SOL    HW123774   2.712   2.213   6.620  0.5443  0.0424 -0.3137
 4047SOL    HW223775   2.565   2.198   6.600 -1.5086 -2.3078 -1.5842
 4048SOL     OW23776   1.700   4.271   4.300 -0.0164  0.9448  0.2402
 4048SOL    HW123777   1.723   4.179   4.297  1.7253  1.3845  0.3873
 4048SOL    HW223778   1.696   4.291   4.206  0.1032 -2.6921 -0.5211
 4049SOL     OW23779   2.965   2.902  15.969  0.7773 -0.2617 -0.0259
 4049SOL    HW123780   2.939   2.986  15.931  1.5251  0.1987  0.4640
 4049SOL    HW223781   2.922   2.838  15.912  1.0863 -0.1136 -0.4267
 4050SOL     OW23782   4.599   0.984   4.347 -0.3176  0.1361  0.5472
 4050SOL    HW123783   4.669   1.037   4.384 -0.9420  0.1036  1.7664
 4050SOL    HW223784   4.519   1.023   4.384 -1.4613  0.2064 -1.9930
 4051SOL     OW23785   3.991   3.405   9.648  0.3783  0.4554 -0.6740
 4051SOL    HW123786   3.922   3.424   9.584  0.4934  1.7789 -0.4014
 4051SOL    HW223787   3.955   3.459   9.718  0.2835  1.4596 -1.4901
 4052SOL     OW23788   1.291   2.025   7.912 -0.8429 -0.1630  0.0711
 4052SOL    HW123789   1.216   2.070   7.874  0.3367 -0.6066 -2.7805
 4052SOL    HW223790   1.366   2.083   7.895 -1.7960  0.8868 -0.5409
 4053SOL     OW23791   2.975   2.329   4.402 -0.1222 -0.3330  0.7078
 4053SOL    HW123792   2.938   2.273   4.334 -1.4487  2.8422 -1.2150
 4053SOL    HW223793   3.002   2.266   4.469  1.8605  2.3820  2.4712
 4054SOL     OW23794   2.728   4.240   6.088  0.8297 -0.5523  0.5146
 4054SOL    HW123795   2.776   4.167   6.050  0.6697 -1.4387  1.9928
 4054SOL    HW223796   2.725   4.304   6.017  0.4653 -1.0497  0.0822
 4055SOL     OW23797   2.445   2.704   8.532 -0.0282 -0.1584  0.3144
 4055SOL    HW123798   2.448   2.796   8.559 -1.0145 -1.2337  4.0697
 4055SOL    HW223799   2.351   2.684   8.528  0.1114 -0.6583 -0.5721
 4056SOL     OW23800   0.220   3.686  14.686  0.8837  0.3776 -0.0635
 4056SOL    HW123801   0.204   3.609  14.740  2.6986 -0.2624 -0.4347
 4056SOL    HW223802   0.210   3.754  14.753  0.6501  2.2225 -1.9784
 4057SOL     OW23803   1.993   3.152  14.022  0.5299 -0.0784 -0.1957
 4057SOL    HW123804   2.025   3.071  13.981  0.4934  0.4858 -1.3427
 4057SOL    HW223805   1.909   3.132  14.063 -0.1978 -0.3608 -1.8059
 4058SOL     OW23806   4.692   2.759   3.246 -0.2458 -0.2538 -0.2508
 4058SOL    HW123807   4.706   2.667   3.224  0.6786 -0.2424  0.2600
 4058SOL    HW223808   0.001   2.810   3.185 -0.6087  1.0594  0.5242
 4059SOL     OW23809   3.048   3.037   1.764 -0.0465  0.2555  0.4328
 4059SOL    HW123810   3.052   3.125   1.802  0.6935  1.2945 -2.0093
 4059SOL    HW223811   3.095   2.989   1.832  1.4077 -0.0513 -0.7860
 4060SOL     OW23812   0.825   3.575   7.547  0.5624 -0.3845 -0.4195
 4060SOL    HW123813   0.884   3.501   7.539  0.8852 -0.0911 -0.8024
 4060SOL    HW223814   0.844   3.597   7.638  0.7574 -1.1622 -0.2785
 4061SOL     OW23815   2.359   2.589  17.701 -0.8584  0.3436 -0.3124
 4061SOL    HW123816   2.450   2.569  17.722 -1.0333 -1.7989 -1.5879
 4061SOL    HW223817   2.374   2.684  17.693  1.2295 -0.1779 -2.6997
 4062SOL     OW23818   1.631   1.528   6.914 -0.5980 -0.6059 -0.2850
 4062SOL    HW123819   1.692   1.601   6.931 -0.4368 -0.9836  0.7399
 4062SOL    HW223820   1.678   1.476   6.849 -0.8679  0.1069 -1.0571
 4063SOL     OW23821   2.849   3.291   3.199 -0.3557 -0.2561 -0.0044
 4063SOL    HW123822   2.820   3.299   3.108 -3.1203 -0.2170  0.8900
 4063SOL    HW223823   2.877   3.379   3.225  4.3962 -1.2528 -1.6569
 4064SOL     OW23824   3.153   0.285   0.272 -0.0259  0.0014  0.0893
 4064SOL    HW123825   3.091   0.355   0.250 -0.3873 -0.2015  0.4561
 4064SOL    HW223826   3.179   0.257   0.184  2.2860  0.6787  0.5483
 4065SOL     OW23827   0.029   0.532   4.847  0.1881 -0.5325 -0.0285
 4065SOL    HW123828   4.698   0.557   4.794  0.9925 -1.6790 -1.7050
 4065SOL    HW223829   0.090   0.509   4.777 -1.6219 -1.7286 -1.2058
 4066SOL     OW23830   3.247   1.219  15.639 -0.2383 -0.6988 -0.5366
 4066SOL    HW123831   3.319   1.179  15.689  1.6488 -1.0094 -3.4948
 4066SOL    HW223832   3.245   1.307  15.675  0.0911 -0.8527 -0.1406
 4067SOL     OW23833   3.311   1.943  11.921 -0.1099 -0.7669 -0.3221
 4067SOL    HW123834   3.326   1.933  11.827  0.5961  0.9825 -0.3987
 4067SOL    HW223835   3.248   2.015  11.927  1.0948  0.1288  1.3810
 4068SOL     OW23836   1.349   3.668  10.109 -0.1043 -0.1317 -0.3178
 4068SOL    HW123837   1.372   3.590  10.159 -1.2459 -1.3275 -1.6650
 4068SOL    HW223838   1.328   3.727  10.181  0.3384 -0.2198 -0.1174
 4069SOL     OW23839   2.072   0.615   6.522  0.5636  0.3882 -0.3098
 4069SOL    HW123840   2.119   0.696   6.541 -0.4699  1.0722 -0.6305
 4069SOL    HW223841   2.043   0.581   6.607 -2.7763  0.6060 -1.3616
 4070SOL     OW23842   1.841   0.654   6.931 -0.1096 -0.3529 -0.1519
 4070SOL    HW123843   1.786   0.608   6.868 -3.9234  1.7969  1.5550
 4070SOL    HW223844   1.915   0.595   6.920 -0.8267 -1.3174  0.1429
 4071SOL     OW23845   0.248   2.649   8.074 -0.7167 -0.3734  0.0813
 4071SOL    HW123846   0.184   2.680   8.137  0.4636  1.6604  0.2787
 4071SOL    HW223847   0.234   2.691   7.989 -2.2730  0.0617  0.5619
 4072SOL     OW23848   3.671   4.109   8.158  0.0086  0.0481 -0.2187
 4072SOL    HW123849   3.707   4.190   8.122  1.3336 -0.7298 -0.6112
 4072SOL    HW223850   3.595   4.141   8.207  0.7763  0.9315  0.3868
 4073SOL     OW23851   0.889   0.617   0.290  0.1826  0.4267 -0.1851
 4073SOL    HW123852   0.816   0.587   0.344 -0.0481  0.1326 -0.6642
 4073SOL    HW223853   0.854   0.702   0.264 -0.8567  0.1958  0.4578
 4074SOL     OW23854   4.391   4.088   0.381 -0.5441 -0.4994  0.4728
 4074SOL    HW123855   4.353   4.021   0.437 -1.7261 -1.6454 -1.6721
 4074SOL    HW223856   4.367   4.162   0.436  1.0176 -0.2133  0.7667
 4075SOL     OW23857   1.777   3.154  13.401 -0.1046  0.1268 -0.1162
 4075SOL    HW123858   1.813   3.168  13.313  0.5161 -0.8515 -0.0240
 4075SOL    HW223859   1.713   3.224  13.403 -2.4393 -2.0485  1.2181
 4076SOL     OW23860   3.695   1.538   4.702 -0.8666 -0.4239 -0.7817
 4076SOL    HW123861   3.679   1.603   4.771 -0.1789 -0.6886 -0.3737
 4076SOL    HW223862   3.610   1.495   4.692  0.0461 -2.1267 -1.2083
 4077SOL     OW23863   3.128   4.162  15.027  0.3061  0.3249  0.3982
 4077SOL    HW123864   3.089   4.102  14.963 -1.0521  0.4093  1.1410
 4077SOL    HW223865   3.112   4.116  15.110 -2.1860 -3.2424 -2.0546
 4078SOL     OW23866   1.958   4.250   2.301  0.2240 -0.3758  0.1116
 4078SOL    HW123867   1.872   4.225   2.267  0.7063 -0.4403 -1.0349
 4078SOL    HW223868   1.959   4.344   2.281  2.3567 -0.5881 -0.6434
 4079SOL     OW23869   1.442   3.712   3.305  0.4289 -0.2344 -0.5562
 4079SOL    HW123870   1.381   3.739   3.374  1.1291  1.7333 -0.7048
 4079SOL    HW223871   1.408   3.771   3.237 -1.1070 -1.1738 -0.6213
 4080SOL     OW23872   0.721   2.561   9.110  0.0825  0.0684 -0.3231
 4080SOL    HW123873   0.757   2.562   9.021  0.8357  0.4530 -0.0162
 4080SOL    HW223874   0.708   2.655   9.122  0.8667  0.0865  0.3997
 4081SOL     OW23875   0.133   3.054   8.790  0.2499 -0.2747  0.3280
 4081SOL    HW123876   0.106   3.141   8.821 -0.1992 -0.3893  0.2566
 4081SOL    HW223877   0.061   3.019   8.739 -0.1343 -0.3474  0.9180
 4082SOL     OW23878   2.350   0.677   8.502 -0.4990 -0.0321 -0.9190
 4082SOL    HW123879   2.370   0.635   8.586 -0.7651  0.8809 -0.3999
 4082SOL    HW223880   2.372   0.608   8.440 -0.1651 -1.2410  0.5679
 4083SOL     OW23881   0.563   1.054   7.746  0.0875 -0.0132 -0.1725
 4083SOL    HW123882   0.624   1.116   7.786 -0.8058  0.5176  0.3753
 4083SOL    HW223883   0.578   1.076   7.654  3.0586 -1.1897  0.0247
 4084SOL     OW23884   3.634   3.741  17.201  0.1498 -0.0652 -0.6113
 4084SOL    HW123885   3.566   3.682  17.231  0.7095  1.0345  2.8069
 4084SOL    HW223886   3.569   3.804  17.168  1.5494  1.5332 -0.3525
 4085SOL     OW23887   3.921   1.373   3.168 -0.0025 -0.3674 -0.5169
 4085SOL    HW123888   3.839   1.323   3.159 -1.1720  1.1708  1.5257
 4085SOL    HW223889   3.939   1.410   3.082 -1.1474  1.2206 -0.0589
 4086SOL     OW23890   4.678   1.073  12.623  0.1029  0.1543  0.7786
 4086SOL    HW123891   4.730   1.005  12.580  0.0715  1.5087 -1.4083
 4086SOL    HW223892   4.607   1.077  12.559  0.0942 -0.8166  0.7378
 4087SOL     OW23893   2.949   3.786   2.321 -0.3252 -0.0800  0.2342
 4087SOL    HW123894   3.044   3.796   2.317 -0.8609  4.9687  0.3145
 4087SOL    HW223895   2.925   3.736   2.243 -0.6398 -0.7697  0.7701
 4088SOL     OW23896   0.612   2.808   1.015 -0.6476  0.0970 -0.0556
 4088SOL    HW123897   0.695   2.778   0.979 -1.1071 -1.5377  0.2469
 4088SOL    HW223898   0.566   2.725   1.002  1.2232 -0.9493 -0.0625
 4089SOL     OW23899   3.310   3.640   7.249  0.6888  0.3290  0.1196
 4089SOL    HW123900   3.340   3.563   7.296  0.2474 -0.3418 -0.6898
 4089SOL    HW223901   3.218   3.635   7.275 -0.0766  1.7973 -2.3364
 4090SOL     OW23902   2.570   3.364   3.457  0.0197 -0.1185 -0.0333
 4090SOL    HW123903   2.549   3.306   3.383 -2.0890 -0.6798  1.0080
 4090SOL    HW223904   2.548   3.446   3.414  0.7911  0.3613  0.5094
 4091SOL     OW23905   2.222   4.270   4.867  0.4777  0.1265  0.6077
 4091SOL    HW123906   2.239   4.228   4.782  0.4768  1.5640 -0.1007
 4091SOL    HW223907   2.287   4.214   4.911  0.8769  0.4138  0.3824
 4092SOL     OW23908   0.893   1.029   5.777  0.3161  0.5478 -0.0164
 4092SOL    HW123909   0.863   1.027   5.687  1.2069 -0.3592 -0.2876
 4092SOL    HW223910   0.843   0.960   5.821 -0.1661  0.2407 -1.0633
 4093SOL     OW23911   1.137   4.111   7.629 -0.1574 -0.3991  0.3937
 4093SOL    HW123912   1.192   4.184   7.658 -0.9137  0.9603 -1.6108
 4093SOL    HW223913   1.124   4.121   7.535 -3.1362 -0.2961  0.8089
 4094SOL     OW23914   4.050   1.311   9.382  0.1711  0.1926  0.0197
 4094SOL    HW123915   3.960   1.279   9.383  0.1357  0.2722 -0.8169
 4094SOL    HW223916   4.087   1.224   9.396  0.0950  0.3436  1.1125
 4095SOL     OW23917   2.492   1.321   3.521 -0.7818 -0.5124  0.5558
 4095SOL    HW123918   2.475   1.405   3.565 -0.3755 -1.1728  1.9537
 4095SOL    HW223919   2.512   1.348   3.431  0.5150 -0.0785  0.9766
 4096SOL     OW23920   4.189   0.299   4.790 -0.0389 -0.0369  0.3548
 4096SOL    HW123921   4.210   0.372   4.847  0.3747  1.1901 -1.3637
 4096SOL    HW223922   4.100   0.270   4.812 -0.3673  0.0129 -0.9175
 4097SOL     OW23923   2.007   1.860  16.957 -0.3266  0.4198  0.0977
 4097SOL    HW123924   1.913   1.863  16.972  0.0036 -2.5454  3.0336
 4097SOL    HW223925   2.043   1.923  17.020  0.5559  1.7769 -1.7901
 4098SOL     OW23926   2.087   0.820   2.357 -0.1299  0.1343  0.2157
 4098SOL    HW123927   2.096   0.792   2.449 -1.2941  2.0207  0.8932
 4098SOL    HW223928   2.064   0.909   2.383 -0.0232 -0.0223  0.8711
 4099SOL     OW23929   3.177   4.271  12.284  0.1162 -0.3823  0.5598
 4099SOL    HW123930   3.121   4.199  12.313 -1.7656  1.6030  1.8916
 4099SOL    HW223931   3.117   4.330  12.238 -0.3453 -0.6361  0.8355
 4100SOL     OW23932   4.684   2.487   3.134 -0.0863  0.3701  0.5938
 4100SOL    HW123933   0.031   2.458   3.118 -0.0385  2.1783 -2.2612
 4100SOL    HW223934   4.649   2.428   3.201  0.7446 -0.1520  0.5722
 4101SOL     OW23935   4.323   2.911   6.596  0.2961  0.2433  0.0652
 4101SOL    HW123936   4.300   3.001   6.622 -1.5357 -0.0322 -0.5811
 4101SOL    HW223937   4.377   2.884   6.671 -0.1659  2.1004  1.0820
 4102SOL     OW23938   0.075   1.648   7.728  0.1500 -0.2413 -0.2019
 4102SOL    HW123939   0.059   1.595   7.650 -1.2743  0.0631 -0.1190
 4102SOL    HW223940   0.141   1.586   7.758 -2.7444 -2.2455  1.9848
 4103SOL     OW23941   0.435   0.351   3.297  0.0233 -0.3747  0.2127
 4103SOL    HW123942   0.377   0.421   3.267 -3.2119 -3.8546 -1.5922
 4103SOL    HW223943   0.433   0.284   3.229  1.1922 -1.6330  1.4000
 4104SOL     OW23944   4.654   0.571  10.403  0.4286 -0.1555  0.2366
 4104SOL    HW123945   4.660   0.483  10.366  2.2832 -0.8455  2.1958
 4104SOL    HW223946   4.572   0.590  10.358  0.3269  1.3404  1.0555
 4105SOL     OW23947   4.307   1.593  17.535  0.0157 -0.0324 -0.3192
 4105SOL    HW123948   4.249   1.519  17.553 -0.4936  0.2902 -0.6220
 4105SOL    HW223949   4.284   1.618  17.445  0.8087 -1.1881 -0.8380
 4106SOL     OW23950   2.587   4.602   8.284 -0.0422  0.2367  0.0064
 4106SOL    HW123951   2.533   4.524   8.297  0.4987 -0.1034  0.1708
 4106SOL    HW223952   2.508   4.656   8.276 -1.5799 -2.0354 -0.1571
 4107SOL     OW23953   0.852   1.053   8.082 -0.0772  1.0018  1.1232
 4107SOL    HW123954   0.850   1.107   8.161 -1.5344  0.5149  1.4394
 4107SOL    HW223955   0.936   1.070   8.041 -0.5263 -1.9061 -1.0010
 4108SOL     OW23956   4.678   0.726  10.648 -0.2307  0.1146  0.0918
 4108SOL    HW123957   4.672   0.811  10.605  2.3957  0.0976 -0.3190
 4108SOL    HW223958   4.695   0.676  10.568 -2.9274  0.8422 -0.9262
 4109SOL     OW23959   4.399   1.040   6.826  0.1548 -0.1231 -0.4811
 4109SOL    HW123960   4.492   1.023   6.816  0.0039  1.0298 -3.8888
 4109SOL    HW223961   4.374   0.981   6.754  2.1961 -1.2700 -0.2564
 4110SOL     OW23962   1.397   0.626   2.705 -0.2361  0.7736  0.0267
 4110SOL    HW123963   1.434   0.578   2.780 -0.9736  0.5727  0.2600
 4110SOL    HW223964   1.418   0.714   2.736  0.0921  0.4729  0.6637
 4111SOL     OW23965   4.133   1.453   4.216  0.5195  0.1757  0.5999
 4111SOL    HW123966   4.155   1.386   4.151 -1.5426  0.8092 -0.7631
 4111SOL    HW223967   4.171   1.418   4.296  0.2608  0.2230  0.7453
 4112SOL     OW23968   4.253   2.189  12.126  0.2684  0.0833 -0.0858
 4112SOL    HW123969   4.193   2.263  12.130 -1.1812 -1.0161 -1.9177
 4112SOL    HW223970   4.203   2.141  12.061 -1.9558  0.5393  1.2729
 4113SOL     OW23971   3.403   3.208   7.572  0.0851 -0.0972 -0.2784
 4113SOL    HW123972   3.327   3.151   7.580  0.3922 -0.5483 -0.5534
 4113SOL    HW223973   3.449   3.160   7.503 -1.4257 -4.7195  1.9894
 4114SOL     OW23974   3.491   0.411   8.493 -0.1066  0.0577 -0.3017
 4114SOL    HW123975   3.446   0.478   8.440 -0.3600  0.7423  0.7695
 4114SOL    HW223976   3.570   0.457   8.521  0.0695  0.4785 -1.4697
 4115SOL     OW23977   3.675   2.186   3.784  0.1462  0.7492 -0.1229
 4115SOL    HW123978   3.685   2.180   3.879  1.7162 -1.0923 -0.4148
 4115SOL    HW223979   3.582   2.209   3.794  0.2939  1.4290 -0.3210
 4116SOL     OW23980   2.116   0.147   0.459  0.1695 -0.6372  0.3373
 4116SOL    HW123981   2.090   0.239   0.450  0.8319 -0.4854  0.0091
 4116SOL    HW223982   2.134   0.119   0.369 -0.4145  1.1126 -0.3441
 4117SOL     OW23983   3.835   3.157   5.014  0.8026  0.4738 -0.0606
 4117SOL    HW123984   3.755   3.172   4.963  0.6941  0.7026  0.1813
 4117SOL    HW223985   3.870   3.245   5.004 -0.1564  1.0345  1.6531
 4118SOL     OW23986   0.841   2.127   6.214 -0.1729  0.0438 -0.3943
 4118SOL    HW123987   0.931   2.110   6.186  0.5433  2.3103  0.4959
 4118SOL    HW223988   0.864   2.179   6.291 -0.2929 -3.0110  1.6937
 4119SOL     OW23989   3.847   3.395  11.734 -0.0759 -0.4928 -0.1517
 4119SOL    HW123990   3.895   3.353  11.662 -0.1635 -0.2341 -0.3632
 4119SOL    HW223991   3.914   3.427  11.793 -0.8734  1.5101 -0.3219
 4120SOL     OW23992   0.659   4.025   6.556  0.4214  0.3998 -0.3910
 4120SOL    HW123993   0.568   3.996   6.546  0.7760 -0.8646  0.0547
 4120SOL    HW223994   0.648   4.112   6.592 -1.3327 -0.6100  1.5285
 4121SOL     OW23995   0.570   2.422   3.430 -0.0567 -0.4560 -0.0129
 4121SOL    HW123996   0.502   2.475   3.472 -0.0384 -0.3672 -0.0941
 4121SOL    HW223997   0.573   2.339   3.477  0.0864 -0.5120 -0.1233
 4122SOL     OW23998   2.825   3.438   7.201 -0.0775 -0.2348  0.2854
 4122SOL    HW123999   2.784   3.356   7.229  1.5322 -1.3179 -0.5329
 4122SOL    HW224000   2.768   3.502   7.243 -0.9538 -0.1269 -1.0544
 4123SOL     OW24001   2.588   1.270  16.060 -0.1862  0.5691  0.2372
 4123SOL    HW124002   2.617   1.321  15.985 -1.8946  1.3615  0.1153
 4123SOL    HW224003   2.494   1.281  16.049 -0.1871  1.7184  1.5781
 4124SOL     OW24004   1.044   2.379  11.814  0.4244 -0.4948  0.2808
 4124SOL    HW124005   0.989   2.453  11.840 -0.1039 -0.4538 -0.9816
 4124SOL    HW224006   0.998   2.302  11.847 -1.9552  1.5800  1.8329
 4125SOL     OW24007   4.348   4.489   5.433 -0.0154  0.0949  0.1514
 4125SOL    HW124008   4.375   4.416   5.378 -0.9762  0.1900 -0.4558
 4125SOL    HW224009   4.262   4.453   5.456  1.1963 -0.7657  3.3052
 4126SOL     OW24010   0.988   4.105   3.253  0.1778  0.0133 -0.0106
 4126SOL    HW124011   0.903   4.073   3.222  0.5705 -1.7538  0.7525
 4126SOL    HW224012   0.981   4.090   3.347 -1.0121  1.9453  0.2300
 4127SOL     OW24013   4.219   4.607   8.286  0.0319  0.3926 -0.1011
 4127SOL    HW124014   4.213   4.519   8.324  0.7676 -0.3117 -1.6328
 4127SOL    HW224015   4.314   4.618   8.281 -0.2282  2.2920 -0.7636
 4128SOL     OW24016   2.040   3.901   9.430 -0.0470 -0.0460 -0.4133
 4128SOL    HW124017   2.037   3.924   9.337 -0.6590  0.9109 -0.1577
 4128SOL    HW224018   1.960   3.939   9.468  0.9106  0.8621  0.6848
 4129SOL     OW24019   2.844   1.745   4.475  0.1818 -0.2607  0.3542
 4129SOL    HW124020   2.785   1.676   4.446 -0.9389  1.1751 -0.8052
 4129SOL    HW224021   2.929   1.705   4.454  0.3624  0.0453  0.5096
 4130SOL     OW24022   4.176   2.135   9.233 -0.4710  0.1349 -0.3451
 4130SOL    HW124023   4.231   2.115   9.308  0.3943  0.8120 -0.7964
 4130SOL    HW224024   4.149   2.047   9.207 -2.1340  0.7728 -0.7335
 4131SOL     OW24025   4.589   3.692   4.576  0.6716 -0.0609 -0.2622
 4131SOL    HW124026   4.539   3.632   4.632 -2.2543  0.8507 -1.8867
 4131SOL    HW224027   4.560   3.780   4.598  1.8813  0.3026 -0.1007
 4132SOL     OW24028   0.045   2.478   1.746 -0.0667  1.1885 -0.0871
 4132SOL    HW124029   0.136   2.502   1.762 -0.3013  1.0521  1.3894
 4132SOL    HW224030   0.025   2.415   1.815 -0.4409  1.7758  0.3416
 4133SOL     OW24031   2.679   1.586  12.344  0.0548 -0.3046  0.2329
 4133SOL    HW124032   2.758   1.589  12.398 -0.7268 -2.1025  1.4775
 4133SOL    HW224033   2.710   1.631  12.266 -1.8270 -1.8365 -1.3812
 4134SOL     OW24034   3.700   3.259   8.406  0.5792  0.2380 -0.0977
 4134SOL    HW124035   3.688   3.240   8.313  0.7114  1.1992 -0.3166
 4134SOL    HW224036   3.760   3.334   8.409 -1.8510  2.1474  1.2735
 4135SOL     OW24037   0.353   3.260   2.562 -0.4565  0.1940  0.8555
 4135SOL    HW124038   0.278   3.201   2.553 -1.3133  1.3111  0.5020
 4135SOL    HW224039   0.358   3.294   2.473  3.1937  1.1817  1.4460
 4136SOL     OW24040   4.157   4.527   9.956  0.0830  0.0796 -0.3905
 4136SOL    HW124041   4.092   4.518  10.026 -0.1830 -0.0637 -0.6538
 4136SOL    HW224042   4.131   4.451   9.904  3.5977 -1.4771  0.1774
 4137SOL     OW24043   0.502   3.237   5.434 -0.5022  0.4848  0.3066
 4137SOL    HW124044   0.427   3.178   5.434 -1.2683  1.4593  0.0557
 4137SOL    HW224045   0.474   3.311   5.381  0.2308 -0.4871 -1.4324
 4138SOL     OW24046   3.832   4.293   9.145 -0.3547 -0.3595 -0.5236
 4138SOL    HW124047   3.804   4.219   9.200  1.3675 -2.1633 -2.0567
 4138SOL    HW224048   3.923   4.265   9.133  0.8691  2.4400  2.3310
 4139SOL     OW24049   2.067   0.145  16.039  0.0194  0.4911  0.0286
 4139SOL    HW124050   1.979   0.161  16.074  0.2217 -2.8003  2.0264
 4139SOL    HW224051   2.108   0.108  16.117 -0.0793  1.0987  0.3687
 4140SOL     OW24052   0.869   2.317  15.297  0.0045  0.4791  0.0569
 4140SOL    HW124053   0.952   2.346  15.258  1.0116 -1.3696  0.8098
 4140SOL    HW224054   0.886   2.344  15.387  0.8263  2.0493 -0.5650
 4141SOL     OW24055   4.620   3.535   1.671 -0.0576 -0.1327  0.0184
 4141SOL    HW124056   4.558   3.477   1.627 -0.3397  0.3323 -0.2014
 4141SOL    HW224057   4.603   3.511   1.762 -1.3467 -1.3091 -0.5439
 4142SOL     OW24058   4.197   0.261   5.805  0.4825  0.1288 -0.2073
 4142SOL    HW124059   4.170   0.337   5.754  1.5203  0.4604 -0.2602
 4142SOL    HW224060   4.293   0.255   5.801  0.4876  0.5065 -0.7067
 4143SOL     OW24061   4.463   1.611  17.762  1.3227 -0.4654  0.4682
 4143SOL    HW124062   4.424   1.630  17.677 -0.5361  0.3832  1.5259
 4143SOL    HW224063   4.507   1.526  17.758 -1.7379 -2.0423  0.4635
 4144SOL     OW24064   2.170   2.196   9.606  0.0671  0.0597  0.0285
 4144SOL    HW124065   2.190   2.248   9.684 -1.2504  1.5603 -0.6357
 4144SOL    HW224066   2.112   2.128   9.642  1.0045  1.0571  3.4643
 4145SOL     OW24067   4.014   1.367   8.282  0.2891 -0.2225 -0.1699
 4145SOL    HW124068   4.058   1.446   8.315 -0.7027 -0.4655  1.7268
 4145SOL    HW224069   3.946   1.419   8.239 -0.3813 -2.0732 -1.3463
 4146SOL     OW24070   1.721   3.311   6.948 -0.0792  0.3718 -0.2531
 4146SOL    HW124071   1.690   3.221   6.933 -0.1835  0.5052 -0.8353
 4146SOL    HW224072   1.748   3.349   6.864 -1.0482 -1.4868 -1.4275
 4147SOL     OW24073   1.473   2.034   6.896  0.0722  0.2139 -0.3505
 4147SOL    HW124074   1.556   2.079   6.911 -0.8011  0.9107  2.5070
 4147SOL    HW224075   1.479   1.973   6.969 -1.0486  1.2445  0.6291
 4148SOL     OW24076   3.195   0.249   6.594  0.2040 -0.1575  1.0603
 4148SOL    HW124077   3.253   0.175   6.582 -0.2491 -0.3193 -0.1989
 4148SOL    HW224078   3.196   0.295   6.510  2.9899  0.1782  1.2945
 4149SOL     OW24079   1.855   4.288  16.970 -0.0612  0.5144 -0.3232
 4149SOL    HW124080   1.913   4.326  17.036 -0.0497  0.1372 -0.1138
 4149SOL    HW224081   1.775   4.339  16.975 -1.3281 -1.2352 -2.6805
 4150SOL     OW24082   3.103   2.597  13.541 -0.4333  0.0135  0.0001
 4150SOL    HW124083   3.117   2.670  13.602  0.1948 -1.4449  1.6140
 4150SOL    HW224084   3.195   2.577  13.521  0.2433  1.8957  1.2779
 4151SOL     OW24085   4.364   3.093   9.124  0.2413  0.0329 -0.3750
 4151SOL    HW124086   4.277   3.054   9.130 -0.4136  1.3360 -1.5649
 4151SOL    HW224087   4.353   3.121   9.033  0.2933 -2.4599 -1.1636
 4152SOL     OW24088   1.147   1.590   7.350  0.3531 -0.5681  0.1931
 4152SOL    HW124089   1.196   1.601   7.431  0.8825  0.6436 -0.2864
 4152SOL    HW224090   1.144   1.495   7.347  2.1145 -0.6365  0.4946
 4153SOL     OW24091   0.649   2.641   4.288  0.2386 -0.7151 -0.2459
 4153SOL    HW124092   0.712   2.686   4.345  0.9847 -0.2081 -1.4603
 4153SOL    HW224093   0.660   2.694   4.209 -0.3318  1.3178  1.0373
 4154SOL     OW24094   3.909   2.582   8.130 -0.0969  0.3419  0.8927
 4154SOL    HW124095   3.879   2.516   8.192 -1.2289  2.0466  2.1782
 4154SOL    HW224096   3.960   2.639   8.189  2.0600 -1.0786  0.4130
 4155SOL     OW24097   2.574   4.420   6.530 -0.0653  0.0139  0.5670
 4155SOL    HW124098   2.650   4.372   6.562  1.6924  2.2904 -0.2096
 4155SOL    HW224099   2.592   4.423   6.436  1.5030  1.2211  0.9067
 4156SOL     OW24100   3.854   2.203   2.817  0.4422  0.1542 -0.3593
 4156SOL    HW124101   3.903   2.285   2.816  0.9118 -0.1237  0.5365
 4156SOL    HW224102   3.798   2.217   2.893  0.9383 -0.3217  0.0896
 4157SOL     OW24103   0.951   3.946   1.376 -0.0844  0.1976 -0.4337
 4157SOL    HW124104   0.892   4.019   1.395 -1.9020 -1.1991 -0.7279
 4157SOL    HW224105   0.893   3.920   1.304 -0.3707  1.3836 -0.6386
 4158SOL     OW24106   0.820   1.369  13.512 -0.1525 -0.2616  0.4297
 4158SOL    HW124107   0.907   1.331  13.500  0.2869  1.6081 -2.2984
 4158SOL    HW224108   0.760   1.299  13.487 -1.0703  0.4593  0.6303
 4159SOL     OW24109   3.023   0.212   3.652  0.2659  0.1413 -0.3830
 4159SOL    HW124110   2.990   0.139   3.599 -0.7700 -0.3453  0.9306
 4159SOL    HW224111   3.033   0.167   3.736 -2.2874 -0.6680 -0.5011
 4160SOL     OW24112   3.066   1.257   9.174 -0.1293  0.3612 -0.3676
 4160SOL    HW124113   3.056   1.195   9.246 -1.2091  0.3299 -0.5454
 4160SOL    HW224114   3.003   1.208   9.120 -0.0263 -0.5872  0.3591
 4161SOL     OW24115   4.066   3.926  11.182 -0.2080 -0.2340  0.3590
 4161SOL    HW124116   4.127   3.999  11.197  2.4612 -2.3822  0.0234
 4161SOL    HW224117   4.035   3.920  11.272 -2.7420  0.0996 -0.5051
 4162SOL     OW24118   0.499   3.224  16.800 -0.5422  0.3235 -0.0643
 4162SOL    HW124119   0.447   3.161  16.750  1.2595 -0.8288 -0.4886
 4162SOL    HW224120   0.589   3.204  16.774 -1.1472  0.1009 -2.0233
 4163SOL     OW24121   0.053   2.187   5.329  0.1150  0.3443  0.6847
 4163SOL    HW124122   0.026   2.208   5.240  0.8683  0.2509  0.4302
 4163SOL    HW224123   4.737   2.116   5.353  0.8953  0.5560  3.2545
 4164SOL     OW24124   1.138   3.538   6.282 -0.1214 -0.2157  0.0969
 4164SOL    HW124125   1.105   3.568   6.366 -0.1981 -0.1594  0.0467
 4164SOL    HW224126   1.194   3.463   6.305  1.6978  0.7907 -1.0255
 4165SOL     OW24127   2.413   2.023   0.632 -0.1757  0.3774  0.2946
 4165SOL    HW124128   2.401   1.963   0.559  1.1683 -0.1316  0.4981
 4165SOL    HW224129   2.392   2.098   0.575 -1.5608  0.6921  1.2214
 4166SOL     OW24130   0.282   3.491   1.518 -0.5909  0.3030  0.4338
 4166SOL    HW124131   0.355   3.449   1.473 -1.1935 -0.7259  0.4351
 4166SOL    HW224132   0.321   3.505   1.604 -1.4416  0.1255  0.8479
 4167SOL     OW24133   0.517   0.981   5.831  0.1642 -0.1052  0.4456
 4167SOL    HW124134   0.563   1.037   5.894 -0.4390 -0.3476  1.0985
 4167SOL    HW224135   0.453   0.937   5.888  1.7853 -3.8851 -0.7015
 4168SOL     OW24136   4.682   1.184   7.734 -0.1296  0.2854  0.0690
 4168SOL    HW124137   4.632   1.148   7.807 -1.6759  1.1257 -0.5739
 4168SOL    HW224138   0.022   1.215   7.770  0.5693 -0.4204 -0.9469
 4169SOL     OW24139   1.688   1.651   3.033 -0.0313  0.0372  0.1663
 4169SOL    HW124140   1.768   1.640   2.981  1.2782  2.2191  1.7321
 4169SOL    HW224141   1.713   1.722   3.092 -1.7671  2.0730 -1.5819
 4170SOL     OW24142   1.177   2.264   3.627 -0.4234  0.2841 -0.1443
 4170SOL    HW124143   1.207   2.177   3.651 -2.1175  0.2314  1.7427
 4170SOL    HW224144   1.098   2.238   3.581 -1.5054  1.1232  1.2457
 4171SOL     OW24145   2.163   2.127   4.789 -0.1480  0.1350 -0.0445
 4171SOL    HW124146   2.203   2.081   4.863  0.1553  0.8855  0.2598
 4171SOL    HW224147   2.103   2.060   4.758  0.6707 -0.0245 -1.2663
 4172SOL     OW24148   0.911   0.779   5.490  0.6771  0.1504  0.0675
 4172SOL    HW124149   0.830   0.755   5.446 -0.3190  0.7947  1.5402
 4172SOL    HW224150   0.907   0.874   5.481 -0.2462  0.2730  1.7308
 4173SOL     OW24151   1.275   4.314   2.311 -0.1910 -0.2472 -0.3277
 4173SOL    HW124152   1.258   4.399   2.271  0.3675  1.0652  2.1778
 4173SOL    HW224153   1.283   4.258   2.235  0.8621  0.1477 -0.5133
 4174SOL     OW24154   2.369   0.784   7.418  0.2951 -0.5821 -0.4809
 4174SOL    HW124155   2.285   0.792   7.372 -0.0508 -1.7446 -0.0378
 4174SOL    HW224156   2.353   0.822   7.504  1.1731 -0.1241 -0.5168
 4175SOL     OW24157   0.470   3.505   4.636  0.3052  0.1884  0.0196
 4175SOL    HW124158   0.558   3.472   4.653 -0.0070 -0.3107  0.6525
 4175SOL    HW224159   0.428   3.474   4.716 -0.9928 -1.0772 -1.1717
 4176SOL     OW24160   0.124   3.169  10.363  0.0368  0.4423  0.2433
 4176SOL    HW124161   0.201   3.143  10.312  0.1147  0.0647  0.5523
 4176SOL    HW224162   0.177   3.202  10.436  1.7220 -0.6700 -0.4687
 4177SOL     OW24163   2.047   2.774   6.106  0.2675 -0.1937 -0.4906
 4177SOL    HW124164   1.996   2.836   6.054 -1.7115 -1.1984  0.2692
 4177SOL    HW224165   2.066   2.816   6.190  0.0907  0.0890 -0.5908
 4178SOL     OW24166   1.752   1.179   8.129  0.3247  0.4813 -0.4860
 4178SOL    HW124167   1.717   1.212   8.212 -1.3841  1.2948 -1.5384
 4178SOL    HW224168   1.828   1.134   8.166  0.3819  0.1134 -1.0521
 4179SOL     OW24169   3.558   2.130   7.738 -0.3031 -0.3705  0.0175
 4179SOL    HW124170   3.498   2.070   7.695  1.5874 -2.3804  0.2024
 4179SOL    HW224171   3.504   2.208   7.751  0.7792  0.7357 -2.0028
 4180SOL     OW24172   1.401   1.623   8.205 -0.1295  0.0532  0.6272
 4180SOL    HW124173   1.345   1.570   8.148 -0.6862  0.5029  0.7554
 4180SOL    HW224174   1.425   1.701   8.156  0.7192 -1.1886 -0.9296
 4181SOL     OW24175   4.347   0.211   9.572  0.0077  0.2641  0.7126
 4181SOL    HW124176   4.345   0.289   9.627 -2.1171  1.2843 -0.8205
 4181SOL    HW224177   4.369   0.135   9.626 -0.5339  0.6630  1.4785
 4182SOL     OW24178   4.389   0.811  11.412  0.4481  0.5715  0.0740
 4182SOL    HW124179   4.459   0.746  11.417  0.5804  0.7759  0.9111
 4182SOL    HW224180   4.356   0.809  11.502  2.4300  0.2596  0.7847
 4183SOL     OW24181   3.886   1.664   3.374  0.0298  0.1141 -0.1058
 4183SOL    HW124182   3.954   1.729   3.391  2.1948 -1.5804 -2.3623
 4183SOL    HW224183   3.872   1.632   3.463  2.3693  0.8918  0.5480
 4184SOL     OW24184   2.128   1.603  15.955 -0.1304 -0.2196 -0.0405
 4184SOL    HW124185   2.087   1.649  16.029 -1.6244 -2.2232  0.3843
 4184SOL    HW224186   2.184   1.670  15.916  0.1161  0.4498  1.4716
 4185SOL     OW24187   0.814   2.589  10.097  0.3742 -0.3190  0.4773
 4185SOL    HW124188   0.904   2.597  10.067  0.6142 -1.0744  0.9760
 4185SOL    HW224189   0.757   2.616  10.025  0.2248  1.2754  1.1969
 4186SOL     OW24190   4.505   4.337   8.196  0.5731 -0.3545  0.0592
 4186SOL    HW124191   4.584   4.297   8.160  1.0589  2.0740 -1.5914
 4186SOL    HW224192   4.520   4.432   8.195 -0.6399 -0.1716 -0.2000
 4187SOL     OW24193   4.365   2.816   6.171  0.5563  0.4099  0.6066
 4187SOL    HW124194   4.446   2.764   6.165  0.1134 -0.3266  1.0328
 4187SOL    HW224195   4.337   2.784   6.257 -0.6814 -0.2235 -0.0462
 4188SOL     OW24196   2.040   3.371   9.015  0.3651 -0.1696  0.2432
 4188SOL    HW124197   2.085   3.306   9.069  1.2300  0.0003 -0.2755
 4188SOL    HW224198   1.994   3.427   9.077  0.4175 -1.9658  1.8846
 4189SOL     OW24199   0.401   3.963   9.858 -0.0934 -0.8732  0.3892
 4189SOL    HW124200   0.452   4.008   9.791  0.3147 -0.7486  0.7795
 4189SOL    HW224201   0.445   3.878   9.864  3.9657  1.0772 -1.7931
 4190SOL     OW24202   2.422   1.626   0.733  0.4184  0.7062 -0.0169
 4190SOL    HW124203   2.336   1.667   0.722  0.1584 -0.0589 -0.8682
 4190SOL    HW224204   2.469   1.668   0.661  0.7430 -0.6871 -0.6194
 4191SOL     OW24205   2.534   3.461   1.590 -0.3968  0.0272  0.3581
 4191SOL    HW124206   2.581   3.397   1.537 -0.0691 -0.2698  1.0105
 4191SOL    HW224207   2.588   3.486   1.665 -1.1846  0.2858  0.8346
 4192SOL     OW24208   4.433   2.572  16.699 -0.7572  0.6293  0.1057
 4192SOL    HW124209   4.359   2.517  16.723 -1.0468  1.2873  0.7475
 4192SOL    HW224210   4.512   2.520  16.713 -0.3699  0.8127 -1.4267
 4193SOL     OW24211   1.429   2.169   9.920  0.1634 -0.0156  0.2001
 4193SOL    HW124212   1.347   2.120   9.914 -0.5421  1.1850  0.0866
 4193SOL    HW224213   1.453   2.150  10.010  0.4379  1.4417  0.4240
 4194SOL     OW24214   1.796   3.830   9.817  0.1925  0.1357 -0.5267
 4194SOL    HW124215   1.819   3.761   9.754  1.3006  0.5449 -0.5762
 4194SOL    HW224216   1.856   3.807   9.888  0.7437  0.3082 -0.9372
 4195SOL     OW24217   4.166   0.632   4.848 -0.0331 -0.5018 -0.8450
 4195SOL    HW124218   4.080   0.611   4.883  0.2476 -1.7510 -0.9099
 4195SOL    HW224219   4.150   0.630   4.754  2.3693 -0.2198 -1.2636
 4196SOL     OW24220   0.733   2.328   1.632  0.4511 -0.3648  0.7381
 4196SOL    HW124221   0.672   2.279   1.576  0.2844  1.0792 -0.3599
 4196SOL    HW224222   0.703   2.418   1.618 -0.4570 -0.6519  0.8166
 4197SOL     OW24223   1.552   0.063   6.445 -0.0252 -0.2723 -0.0018
 4197SOL    HW124224   1.463   0.072   6.412  0.2044  0.1059 -0.5296
 4197SOL    HW224225   1.533   4.736   6.506  1.5513 -1.1899 -0.5552
 4198SOL     OW24226   1.413   4.348  15.449 -1.0109  0.2924 -0.1526
 4198SOL    HW124227   1.483   4.413  15.444 -0.6209 -0.0807  0.5462
 4198SOL    HW224228   1.466   4.285  15.498  1.8403  2.9194  0.1047
 4199SOL     OW24229   2.856   1.124   9.041 -0.3197  0.3285 -0.3629
 4199SOL    HW124230   2.834   1.181   8.967  2.3771  2.8485  0.7367
 4199SOL    HW224231   2.776   1.074   9.033  0.2396 -0.4207 -1.2550
 4200SOL     OW24232   0.706   2.293   1.906  0.0374 -0.1003  0.8188
 4200SOL    HW124233   0.623   2.334   1.929  1.7546  3.2461  0.9964
 4200SOL    HW224234   0.701   2.290   1.810 -0.7629 -0.9775  0.8863
 4201SOL     OW24235   2.944   4.415   4.048 -0.2829 -0.1807 -0.4219
 4201SOL    HW124236   2.920   4.331   4.010  0.3383 -1.1400  1.2958
 4201SOL    HW224237   2.929   4.403   4.142 -0.7719 -1.1433 -0.6244
 4202SOL     OW24238   3.057   0.002   9.916 -0.0007 -0.6712  0.3553
 4202SOL    HW124239   2.994   4.688   9.960 -0.2342 -0.7707 -0.1132
 4202SOL    HW224240   3.115   4.684   9.873 -0.8159  0.6626 -2.6574
 4203SOL     OW24241   3.774   3.615   8.592 -0.7885 -0.5874  0.0610
 4203SOL    HW124242   3.862   3.642   8.619 -1.3887  1.5734 -0.1613
 4203SOL    HW224243   3.729   3.620   8.676  1.1155 -2.3637  1.1944
 4204SOL     OW24244   2.059   2.535   2.120 -0.2367 -0.4320 -0.3616
 4204SOL    HW124245   2.096   2.587   2.191 -1.4045 -1.2662  0.8616
 4204SOL    HW224246   2.105   2.452   2.120  1.9386  0.7731  0.3032
 4205SOL     OW24247   1.843   4.085   2.904  0.1381 -0.0608  0.1702
 4205SOL    HW124248   1.876   4.040   2.826 -0.2226  0.7074 -0.4164
 4205SOL    HW224249   1.863   4.176   2.884  3.2659 -1.4226 -2.9316
 4206SOL     OW24250   2.158   1.286   4.168  0.0452 -0.2018 -0.0949
 4206SOL    HW124251   2.113   1.367   4.145 -0.6563 -0.8619 -1.0598
 4206SOL    HW224252   2.211   1.260   4.092  1.8153  0.7293  0.8227
 4207SOL     OW24253   0.857   3.594   5.192  0.4763  0.3440  0.3407
 4207SOL    HW124254   0.782   3.641   5.156 -0.1534 -1.8708 -1.2488
 4207SOL    HW224255   0.925   3.620   5.130 -0.3108  0.4063 -0.5004
 4208SOL     OW24256   2.816   0.728   1.595  0.4692 -0.0175  0.1320
 4208SOL    HW124257   2.906   0.705   1.571 -0.3600 -0.4789 -2.5814
 4208SOL    HW224258   2.781   0.727   1.506 -0.7867  0.2993  0.6237
 4209SOL     OW24259   1.242   1.528   9.395 -0.2816 -0.6457  0.4068
 4209SOL    HW124260   1.255   1.446   9.348 -0.5969 -0.9996  0.9383
 4209SOL    HW224261   1.164   1.557   9.348  0.2205 -0.8714 -0.5454
 4210SOL     OW24262   0.962   0.953   1.454 -0.3386  0.2614  0.1341
 4210SOL    HW124263   0.882   0.907   1.481 -0.8499  3.1066  3.3251
 4210SOL    HW224264   0.953   1.037   1.499 -0.3272 -1.5616  3.5185
 4211SOL     OW24265   3.680   0.265   3.741 -0.0253  0.1859 -0.3071
 4211SOL    HW124266   3.636   0.200   3.686 -0.5966  0.6631 -0.4214
 4211SOL    HW224267   3.661   0.236   3.830  2.1865 -0.4078 -0.0400
 4212SOL     OW24268   1.850   3.161   5.102  0.1091  0.2007 -0.7632
 4212SOL    HW124269   1.786   3.112   5.154  1.9211 -0.9216  0.3922
 4212SOL    HW224270   1.906   3.096   5.061 -0.2774 -2.3826  2.8179
 4213SOL     OW24271   0.610   3.746   8.899  0.6674  0.3280  0.0665
 4213SOL    HW124272   0.530   3.721   8.853  1.1341  1.3222 -1.3167
 4213SOL    HW224273   0.637   3.670   8.950  1.0186  0.2896 -0.1770
 4214SOL     OW24274   1.350   0.547   0.563  0.1493 -0.0449  0.3169
 4214SOL    HW124275   1.411   0.506   0.624  1.4876 -0.0552 -1.0439
 4214SOL    HW224276   1.331   0.631   0.605 -1.4848 -1.0346  1.5529
 4215SOL     OW24277   3.941   1.014  15.689  0.1206 -0.1931  0.0947
 4215SOL    HW124278   3.923   0.936  15.742  0.3094 -0.7641 -0.6786
 4215SOL    HW224279   4.003   0.978  15.626  1.2206  0.3658  0.8523
 4216SOL     OW24280   2.210   4.645  12.167 -0.2710 -0.0800 -0.2414
 4216SOL    HW124281   2.262   4.588  12.110 -0.2838  0.7367 -1.0802
 4216SOL    HW224282   2.244   4.624  12.254 -1.8399  0.6525  0.5393
 4217SOL     OW24283   3.120   2.029   1.305  0.0565  0.1975  0.4956
 4217SOL    HW124284   3.185   2.064   1.367 -0.1599 -1.5537  1.7120
 4217SOL    HW224285   3.169   1.973   1.246  1.5999  0.0165  1.9288
 4218SOL     OW24286   3.969   0.282   3.879 -0.1506  0.1883 -0.0436
 4218SOL    HW124287   3.880   0.284   3.843  1.5516  3.1526 -4.0725
 4218SOL    HW224288   3.996   0.369   3.853 -0.0219  0.2835  0.4019
 4219SOL     OW24289   2.240   2.818   5.453  0.5711  0.1296 -0.0414
 4219SOL    HW124290   2.323   2.846   5.493 -0.5286  1.0553  1.5492
 4219SOL    HW224291   2.262   2.762   5.378 -0.7765  1.3817 -1.3727
 4220SOL     OW24292   2.645   3.502   8.488  0.2121 -0.8721 -0.1656
 4220SOL    HW124293   2.605   3.579   8.528 -0.3073 -0.8695 -0.6970
 4220SOL    HW224294   2.738   3.525   8.492  0.0613 -0.3189  0.1365
 4221SOL     OW24295   3.588   3.279  14.436  0.5691  0.1184 -0.1682
 4221SOL    HW124296   3.524   3.349  14.424  1.1946  0.6409 -0.4433
 4221SOL    HW224297   3.582   3.259  14.530 -0.1775  1.0438 -0.0113
 4222SOL     OW24298   1.213   3.711   9.482  0.0143  0.8213  0.3574
 4222SOL    HW124299   1.262   3.637   9.446  2.1761  1.5082  1.8757
 4222SOL    HW224300   1.156   3.662   9.541 -1.6232  0.4991 -1.5031
 4223SOL     OW24301   2.623   3.152   6.138  0.4929 -0.2411 -0.1482
 4223SOL    HW124302   2.694   3.092   6.112  0.8113  0.2447 -0.4032
 4223SOL    HW224303   2.600   3.192   6.055 -0.0038  1.9984  1.0806
 4224SOL     OW24304   2.798   0.546   4.319  0.4351  0.0328  0.1922
 4224SOL    HW124305   2.706   0.528   4.336  0.0198  3.3233  1.4748
 4224SOL    HW224306   2.792   0.598   4.239 -1.0062  0.3562  0.5168
 4225SOL     OW24307   0.729   0.759   7.691 -0.1465  0.2160  0.5938
 4225SOL    HW124308   0.721   0.757   7.786  0.9625  1.2419  0.7047
 4225SOL    HW224309   0.636   0.744   7.670  0.2621 -4.0507  1.8032
 4226SOL     OW24310   4.116   4.349   5.433  0.3775  0.4780  0.0525
 4226SOL    HW124311   4.056   4.346   5.508 -0.7173  2.6987 -0.7365
 4226SOL    HW224312   4.156   4.263   5.442 -0.0130  0.1806 -1.0749
 4227SOL     OW24313   3.834   3.196  16.018  0.2614  0.5055 -0.0888
 4227SOL    HW124314   3.738   3.206  16.023  0.1907  0.7380 -2.2035
 4227SOL    HW224315   3.862   3.260  16.083  1.7542 -1.0292  0.7913
 4228SOL     OW24316   1.784   1.676   4.813 -0.0567  0.0696 -0.0439
 4228SOL    HW124317   1.818   1.735   4.881  0.3961 -0.4979  0.2268
 4228SOL    HW224318   1.787   1.595   4.863 -1.1074  0.9473  1.4294
 4229SOL     OW24319   4.468   2.016   0.637  0.0897 -0.3549 -0.4923
 4229SOL    HW124320   4.472   1.957   0.561  1.7093 -2.0713  0.9220
 4229SOL    HW224321   4.506   2.097   0.603 -0.7674  0.5082  0.6071
 4230SOL     OW24322   4.568   1.598  12.333  0.3783  0.8811  0.5885
 4230SOL    HW124323   4.585   1.616  12.425 -1.4586 -0.7403  1.2459
 4230SOL    HW224324   4.596   1.678  12.288  0.5613  0.5452  0.1065
 4231SOL     OW24325   4.018   3.001  12.426 -0.0451 -0.5007 -0.1669
 4231SOL    HW124326   4.023   3.058  12.349  1.2599  0.5832  0.7170
 4231SOL    HW224327   3.927   3.013  12.451 -0.1430 -0.8771 -0.3435
 4232SOL     OW24328   4.364   2.821   4.826 -0.1585  0.1715  0.1882
 4232SOL    HW124329   4.438   2.765   4.848  1.2576  1.1366 -2.2052
 4232SOL    HW224330   4.291   2.778   4.872  1.1629 -0.8004  1.3697
 4233SOL     OW24331   0.563   3.346   1.028 -0.5660  0.2998 -0.4410
 4233SOL    HW124332   0.625   3.349   1.100  0.7131 -3.4731 -1.3839
 4233SOL    HW224333   0.604   3.267   0.993 -0.1283  0.2205  0.2612
 4234SOL     OW24334   1.032   2.619   9.908 -0.1278  0.5914  0.2171
 4234SOL    HW124335   1.108   2.645   9.857  0.7561 -0.2893  1.0815
 4234SOL    HW224336   1.047   2.524   9.913 -1.2617  0.4896  1.7507
 4235SOL     OW24337   2.981   3.852   6.628 -0.2017 -0.5591  0.0869
 4235SOL    HW124338   2.944   3.764   6.639  2.3333 -1.5763  0.6259
 4235SOL    HW224339   2.931   3.899   6.694 -3.5196 -1.3680 -1.8867
 4236SOL     OW24340   1.451   0.127  10.686 -0.6635  0.2826 -0.1449
 4236SOL    HW124341   1.456   0.070  10.763  1.2717 -1.2923 -1.4393
 4236SOL    HW224342   1.537   0.168  10.688 -0.3783 -0.3521  1.2888
 4237SOL     OW24343   3.629   1.360   4.200 -0.1984 -0.0820 -0.0831
 4237SOL    HW124344   3.635   1.343   4.106  0.2456 -1.0002  0.1121
 4237SOL    HW224345   3.687   1.435   4.213  2.4514 -1.9949 -0.8689
 4238SOL     OW24346   0.792   2.082  11.181 -0.2220 -0.4107 -0.5704
 4238SOL    HW124347   0.708   2.107  11.143  0.4435  2.2085 -0.2688
 4238SOL    HW224348   0.854   2.096  11.110 -2.2159 -0.7883 -2.3791
 4239SOL     OW24349   1.937   1.729   8.448  0.0465  0.0807 -0.2637
 4239SOL    HW124350   1.979   1.666   8.507  1.4602  1.5553  0.3141
 4239SOL    HW224351   1.905   1.667   8.383  0.3465  0.8104 -1.1170
 4240SOL     OW24352   0.865   1.321   9.337 -0.0114 -0.1702 -0.5710
 4240SOL    HW124353   0.781   1.362   9.319 -1.4071 -3.7860 -2.2828
 4240SOL    HW224354   0.918   1.341   9.259  1.3735 -1.4809  0.0300
 4241SOL     OW24355   3.590   3.682   2.064 -0.1590 -0.2692  0.4443
 4241SOL    HW124356   3.497   3.666   2.045 -0.6635  0.1708  2.6153
 4241SOL    HW224357   3.580   3.753   2.127 -2.5520 -1.1854  1.1022
 4242SOL     OW24358   4.153   1.579   4.607  0.2101 -0.2649  0.1528
 4242SOL    HW124359   4.119   1.505   4.555  1.3986  0.2306 -1.3090
 4242SOL    HW224360   4.230   1.540   4.648  0.3676  1.0631  1.1024
 4243SOL     OW24361   1.309   2.606  10.274  0.3131 -0.4527 -0.1770
 4243SOL    HW124362   1.335   2.676  10.334  0.5937 -1.9088  1.3596
 4243SOL    HW224363   1.370   2.630  10.204 -1.1834  1.7892 -0.7162
 4244SOL     OW24364   4.202   4.554  13.317 -0.2036  0.5192  0.3888
 4244SOL    HW124365   4.123   4.549  13.264  0.3125  1.5171 -0.4825
 4244SOL    HW224366   4.244   4.635  13.287 -0.6608  0.9350  0.8723
 4245SOL     OW24367   2.680   3.606   8.228 -0.3112 -0.0050 -0.0892
 4245SOL    HW124368   2.739   3.680   8.217  0.5298 -0.4318  1.5553
 4245SOL    HW224369   2.636   3.630   8.310  1.9400  1.8507  0.5454
 4246SOL     OW24370   2.135   0.977   1.091 -0.5986  0.3597  0.0073
 4246SOL    HW124371   2.081   1.035   1.037 -0.5614  0.8146  0.4541
 4246SOL    HW224372   2.213   1.030   1.106 -0.5165  0.2008  0.1427
 4247SOL     OW24373   0.432   2.025   8.167  0.4161 -0.4702 -0.4250
 4247SOL    HW124374   0.377   2.087   8.119  1.7989  0.7263 -0.4759
 4247SOL    HW224375   0.380   1.945   8.167 -1.8827  1.0108 -0.2531
 4248SOL     OW24376   3.086   0.948  15.454 -0.0581 -0.0163 -0.5681
 4248SOL    HW124377   3.132   0.903  15.525 -1.5228 -2.2921 -1.0711
 4248SOL    HW224378   2.998   0.953  15.490  0.6294  2.3607  0.8065
 4249SOL     OW24379   0.736   2.710  10.990  1.0224 -0.2904 -0.8520
 4249SOL    HW124380   0.701   2.725  10.902 -1.9245  1.3658  0.6068
 4249SOL    HW224381   0.829   2.711  10.969  1.4163 -2.6535  0.7583
 4250SOL     OW24382   1.094   4.374  13.775  0.1537  0.7232  0.1724
 4250SOL    HW124383   1.097   4.440  13.844 -1.4836  0.6450  0.3262
 4250SOL    HW224384   1.188   4.356  13.767 -0.1829 -0.5082 -0.9930
 4251SOL     OW24385   3.981   0.993   2.472  0.2670  0.1809  0.0580
 4251SOL    HW124386   3.948   0.960   2.389  0.5950  1.2431 -0.4976
 4251SOL    HW224387   3.981   0.923   2.537  3.2314 -0.2735 -0.4087
 4252SOL     OW24388   4.064   2.167   1.679  0.3604  0.2771 -0.1250
 4252SOL    HW124389   4.051   2.207   1.764  0.6900  1.6106 -0.7049
 4252SOL    HW224390   4.152   2.196   1.657  0.2856 -0.0275 -0.8391
 4253SOL     OW24391   1.949   1.011   2.677  0.0753  0.2718 -0.2667
 4253SOL    HW124392   2.023   1.048   2.724  2.0545 -1.2900 -2.1019
 4253SOL    HW224393   1.912   1.087   2.632  0.2245  0.4084 -0.1572
 4254SOL     OW24394   4.417   2.454  12.292  0.4756 -1.0089 -0.2740
 4254SOL    HW124395   4.386   2.541  12.267 -0.0546 -0.6798  1.5380
 4254SOL    HW224396   4.362   2.425  12.364 -2.9130  1.2015 -1.9670
 4255SOL     OW24397   0.232   3.374   0.800 -0.1621  0.3553  0.5643
 4255SOL    HW124398   0.314   3.418   0.780  0.7565 -0.5880  2.3168
 4255SOL    HW224399   0.236   3.384   0.895 -1.2620 -0.8561  0.7385
 4256SOL     OW24400   4.561   4.129   5.599  0.2991 -0.5953  0.7716
 4256SOL    HW124401   4.630   4.195   5.597  0.5903 -0.8966  0.8661
 4256SOL    HW224402   4.490   4.182   5.635  0.7219  0.9166 -0.5796
 4257SOL     OW24403   4.173   3.042   0.837 -0.4393  0.2195  0.6854
 4257SOL    HW124404   4.208   3.123   0.799  1.5533  0.4337  2.9144
 4257SOL    HW224405   4.095   3.034   0.783 -0.5587 -0.2836  0.9277
 4258SOL     OW24406   4.194   0.326   8.698 -0.2528  0.1493  0.2678
 4258SOL    HW124407   4.195   0.231   8.695  0.5930  0.2097 -1.4457
 4258SOL    HW224408   4.280   0.346   8.737  0.2174 -3.1027  0.9219
 4259SOL     OW24409   0.998   4.151   3.531 -0.1341  0.0437  0.1038
 4259SOL    HW124410   0.920   4.206   3.524  0.8016  1.4584  0.7652
 4259SOL    HW224411   0.978   4.097   3.607  1.5567 -1.1396 -0.2787
 4260SOL     OW24412   2.794   4.382   5.135  0.0223  0.2939 -0.4992
 4260SOL    HW124413   2.799   4.374   5.040  0.9459  0.3161 -0.4469
 4260SOL    HW224414   2.710   4.429   5.138  1.2094  2.2198  2.7995
 4261SOL     OW24415   4.357   2.456  17.112  0.4899  0.1940  0.5721
 4261SOL    HW124416   4.433   2.414  17.154 -0.5581 -2.5727 -0.2872
 4261SOL    HW224417   4.355   2.538  17.161  0.8346  0.3251  0.3704
 4262SOL     OW24418   4.029   3.678   6.436  0.0105  0.3365 -0.1745
 4262SOL    HW124419   3.976   3.616   6.486  1.5767  0.1812  1.2776
 4262SOL    HW224420   4.050   3.746   6.500  0.6159  0.4657 -0.5043
 4263SOL     OW24421   0.177   2.712  12.856  0.6182  0.0918  0.3174
 4263SOL    HW124422   0.110   2.744  12.795  0.6120  1.5868  1.1009
 4263SOL    HW224423   0.170   2.780  12.923 -0.7333  0.5613 -0.3041
 4264SOL     OW24424   3.837   4.664   7.570 -0.0572 -0.0895  0.0781
 4264SOL    HW124425   3.828   4.600   7.640 -1.6862 -2.2184 -2.0663
 4264SOL    HW224426   3.855   4.600   7.501 -2.6656  0.2374 -0.8779
 4265SOL     OW24427   2.407   2.323   3.072  0.4285 -0.8948 -0.1600
 4265SOL    HW124428   2.465   2.249   3.090  0.7100 -0.0918  2.1887
 4265SOL    HW224429   2.401   2.356   3.162 -0.8071  0.1240 -0.6166
 4266SOL     OW24430   2.336   2.494  12.798  0.2187  0.0001  0.3148
 4266SOL    HW124431   2.409   2.458  12.849 -1.7129 -3.8511  0.3577
 4266SOL    HW224432   2.311   2.413  12.754  1.0433 -0.3807  0.5315
 4267SOL     OW24433   2.886   0.970   5.259 -0.3443  0.0712 -0.0213
 4267SOL    HW124434   2.930   1.039   5.210  0.8340 -1.4028 -1.0476
 4267SOL    HW224435   2.805   1.009   5.292 -0.9957 -1.1044 -0.2332
 4268SOL     OW24436   1.205   1.151   9.733  0.5707 -0.2943  0.5907
 4268SOL    HW124437   1.236   1.082   9.674 -0.4409  0.8912 -1.3066
 4268SOL    HW224438   1.136   1.186   9.676 -0.5690 -2.3001  0.7172
 4269SOL     OW24439   3.661   4.495   3.315 -0.3177 -0.1986 -0.5852
 4269SOL    HW124440   3.681   4.417   3.264  2.1017  0.3972 -0.5542
 4269SOL    HW224441   3.669   4.460   3.404  0.0304 -0.2930 -0.6559
 4270SOL     OW24442   4.589   1.816   9.743  0.1717 -0.0538 -0.2435
 4270SOL    HW124443   4.523   1.788   9.680 -0.4798 -0.4412  0.6145
 4270SOL    HW224444   4.589   1.911   9.732  0.9769 -0.2157 -1.6766
 4271SOL     OW24445   1.922   3.700  17.498  0.2621  0.3174  0.5176
 4271SOL    HW124446   1.917   3.745  17.414 -0.9640 -0.7154  0.0438
 4271SOL    HW224447   1.995   3.640  17.484 -1.4954 -1.5438 -0.6474
 4272SOL     OW24448   1.993   0.812  15.995 -0.3203 -0.2343 -0.3870
 4272SOL    HW124449   1.905   0.813  16.033 -0.8165 -0.3777 -1.5434
 4272SOL    HW224450   2.025   0.903  15.997  0.5039 -0.4732 -2.4233
 4273SOL     OW24451   1.637   1.225   2.884  0.5908 -0.2635 -0.2286
 4273SOL    HW124452   1.544   1.214   2.867  0.3751  0.3825  0.5148
 4273SOL    HW224453   1.642   1.162   2.956 -0.0506  3.7295  3.3115
 4274SOL     OW24454   4.708   3.085   4.668  0.1631  0.4594 -0.0826
 4274SOL    HW124455   4.730   3.086   4.575  1.1194  3.2895  0.1776
 4274SOL    HW224456   4.617   3.059   4.664 -0.3134  1.7635  2.5219
 4275SOL     OW24457   1.562   1.043   3.075  0.1979  0.2922  0.0935
 4275SOL    HW124458   1.604   0.961   3.101  2.1948  0.1334 -3.6256
 4275SOL    HW224459   1.468   1.034   3.088  0.5014  1.5699  3.1663
 4276SOL     OW24460   0.601   4.573   6.389 -0.4693  0.4851  0.1395
 4276SOL    HW124461   0.508   4.576   6.368 -0.8066  0.3919  1.6284
 4276SOL    HW224462   0.639   4.575   6.301  0.8757  0.5075  0.7143
 4277SOL     OW24463   3.379   2.294   4.445 -0.1481  0.4986 -0.5126
 4277SOL    HW124464   3.392   2.375   4.395 -1.5200 -0.5318 -2.5137
 4277SOL    HW224465   3.354   2.331   4.529  0.9404 -1.1531  0.5379
 4278SOL     OW24466   1.573   0.153   4.220  0.3039 -0.1410  0.0404
 4278SOL    HW124467   1.557   0.232   4.271  0.3611  0.3883 -0.7486
 4278SOL    HW224468   1.657   0.131   4.261  0.4320  0.9627  0.3722
 4279SOL     OW24469   3.798   2.932  14.987  0.2669  0.2053 -0.1856
 4279SOL    HW124470   3.892   2.928  15.007  0.4572  0.5776 -1.0446
 4279SOL    HW224471   3.790   2.849  14.940 -0.5085  0.0591  0.2090
 4280SOL     OW24472   4.230   1.454   8.912  0.1461  0.0997 -0.2645
 4280SOL    HW124473   4.144   1.480   8.879  1.5561  2.6082 -1.9811
 4280SOL    HW224474   4.282   1.467   8.833 -0.6189  0.3340 -0.7288
 4281SOL     OW24475   0.629   0.171   9.969  0.9039  0.7509 -0.0431
 4281SOL    HW124476   0.683   0.221  10.031  0.6973  0.5559  0.2916
 4281SOL    HW224477   0.619   0.245   9.909 -3.6677  1.2932  1.3837
 4282SOL     OW24478   1.675   2.530   8.307  0.1226 -0.1576 -0.5286
 4282SOL    HW124479   1.761   2.511   8.345 -0.7641 -1.7862  0.6783
 4282SOL    HW224480   1.612   2.510   8.377 -0.3906  0.4350 -0.8196
 4283SOL     OW24481   3.883   1.988   8.201  0.6619  0.5538  0.1439
 4283SOL    HW124482   3.849   1.906   8.237 -2.2295  1.5887 -0.2347
 4283SOL    HW224483   3.830   2.057   8.240 -4.6690 -2.0270 -2.4425
 4284SOL     OW24484   2.189   3.466   3.804  0.0332 -0.2908 -0.0316
 4284SOL    HW124485   2.129   3.438   3.735 -0.0938  0.3139 -0.1689
 4284SOL    HW224486   2.271   3.462   3.755  0.0702 -2.1894  0.1867
 4285SOL     OW24487   1.928   2.592  13.437  0.3109  0.0450  0.6466
 4285SOL    HW124488   1.960   2.571  13.349 -0.7589 -2.7332  0.9326
 4285SOL    HW224489   1.886   2.670  13.402 -1.4963 -1.6606 -0.9814
 4286SOL     OW24490   1.555   2.209   1.748 -0.2689 -0.4401 -1.0729
 4286SOL    HW124491   1.543   2.267   1.674 -0.2489  1.1235  0.1519
 4286SOL    HW224492   1.647   2.218   1.771 -1.2284  2.8546  1.5053
 4287SOL     OW24493   1.435   2.805   8.864 -0.3711 -0.2610 -0.6770
 4287SOL    HW124494   1.375   2.872   8.894 -0.3725 -0.4985 -0.1426
 4287SOL    HW224495   1.398   2.723   8.897 -1.2229  0.2419 -0.3954
 4288SOL     OW24496   2.417   1.068  12.122 -0.2748  0.0894 -0.2358
 4288SOL    HW124497   2.421   1.030  12.034  1.1570 -0.2831 -0.0024
 4288SOL    HW224498   2.512   1.076  12.133 -0.1299 -1.1353 -0.6312
 4289SOL     OW24499   1.223   1.553   8.030  0.0713 -0.0188 -0.3931
 4289SOL    HW124500   1.157   1.488   8.005 -1.4148  0.7887  1.4487
 4289SOL    HW224501   1.168   1.630   8.021 -1.4397 -1.2163 -1.5086
 4290SOL     OW24502   1.485   4.723   7.524  0.7308 -0.4559 -0.4064
 4290SOL    HW124503   1.467   0.027   7.443  0.2746 -2.6220 -1.5887
 4290SOL    HW224504   1.395   4.692   7.533  2.0460 -3.8776  1.2734
 4291SOL     OW24505   4.663   2.864   6.598  0.9346 -0.1823 -0.5357
 4291SOL    HW124506   4.618   2.822   6.671  1.1836  0.5166  0.0195
 4291SOL    HW224507   4.659   2.955   6.627 -1.7999 -0.3455 -0.4063
 4292SOL     OW24508   2.685   3.314   5.149  0.0264 -0.4514 -0.4296
 4292SOL    HW124509   2.687   3.264   5.068 -1.7382 -0.9942 -0.1380
 4292SOL    HW224510   2.689   3.405   5.120 -1.4874 -0.4565 -0.6660
 4293SOL     OW24511   3.985   1.996   5.142 -0.7532 -0.1095  0.3508
 4293SOL    HW124512   3.936   2.055   5.085 -0.7542  0.7745  1.2669
 4293SOL    HW224513   4.007   1.931   5.075 -0.3100 -0.4486  0.8265
 4294SOL     OW24514   0.729   0.797   7.980 -0.1928  0.0542  0.2738
 4294SOL    HW124515   0.750   0.891   7.983  1.1046 -0.1934 -1.6038
 4294SOL    HW224516   0.725   0.767   8.071 -1.0571 -0.0402  0.2000
 4295SOL     OW24517   2.770   3.067   2.931 -0.5141  0.3972 -0.0908
 4295SOL    HW124518   2.700   3.040   2.990 -0.8624 -1.4392 -1.3443
 4295SOL    HW224519   2.776   3.161   2.947 -1.1459  0.6735 -1.4671
 4296SOL     OW24520   0.674   3.526  14.159 -0.1229 -0.8396 -0.1825
 4296SOL    HW124521   0.630   3.600  14.201  2.7701  0.3628  0.6891
 4296SOL    HW224522   0.731   3.493  14.228 -0.4924  1.1411  1.0895
 4297SOL     OW24523   4.402   4.074  10.715  0.2192 -0.3083 -0.4207
 4297SOL    HW124524   4.492   4.106  10.714  0.0756  0.0796 -0.7010
 4297SOL    HW224525   4.399   4.070  10.811 -0.6040  0.7667 -0.4084
 4298SOL     OW24526   4.105   1.808   4.743  0.4247 -0.1481 -0.1676
 4298SOL    HW124527   4.119   1.727   4.694 -0.0836  0.0716 -0.6671
 4298SOL    HW224528   4.009   1.814   4.744  0.3647 -1.2283  0.5237
 4299SOL     OW24529   1.491   3.275   7.769 -0.3090  0.1264  0.4393
 4299SOL    HW124530   1.401   3.254   7.742  0.0085 -1.6713  0.7708
 4299SOL    HW224531   1.514   3.187   7.799 -0.6995 -0.4203 -0.8667
 4300SOL     OW24532   3.818   0.011   2.839 -0.4225 -0.7657  0.0320
 4300SOL    HW124533   3.828   4.694   2.766  1.4059 -1.4978  0.8878
 4300SOL    HW224534   3.726   0.036   2.829 -0.5092 -0.6692  1.0391
 4301SOL     OW24535   1.546   1.173   5.562  0.0364  0.2196  0.4563
 4301SOL    HW124536   1.464   1.137   5.595 -0.4588  0.7084 -0.2598
 4301SOL    HW224537   1.610   1.125   5.615  0.0593 -1.4642 -1.0957
 4302SOL     OW24538   4.380   1.279   9.073  0.5483 -0.6639 -0.3466
 4302SOL    HW124539   4.355   1.192   9.042 -0.2815 -0.7460  0.5673
 4302SOL    HW224540   4.307   1.335   9.044  0.9384 -0.3260 -0.6807
 4303SOL     OW24541   0.239   4.279   3.755  0.5281 -0.0381 -0.1670
 4303SOL    HW124542   0.260   4.187   3.738 -2.4031 -0.6658 -0.4551
 4303SOL    HW224543   0.185   4.277   3.835  1.9105  1.2566  0.7794
 4304SOL     OW24544   3.519   0.727  15.925 -0.0780  0.4338  0.0472
 4304SOL    HW124545   3.559   0.688  15.846  1.9258 -0.0678  1.3112
 4304SOL    HW224546   3.440   0.674  15.919  0.7463 -0.5569 -2.1251
 4305SOL     OW24547   4.422   2.347  13.412  0.0300  0.3440  0.7663
 4305SOL    HW124548   4.444   2.440  13.405 -0.9684  0.4138 -1.5772
 4305SOL    HW224549   4.468   2.327  13.494  1.9607 -0.8532 -0.6193
 4306SOL     OW24550   1.354   2.447   5.420  0.3904  0.4186  0.8632
 4306SOL    HW124551   1.283   2.474   5.362  0.8504 -0.4437 -0.1003
 4306SOL    HW224552   1.326   2.361   5.453 -1.6587  0.6608 -0.2570
 4307SOL     OW24553   0.648   0.657   5.396  0.6338  0.4679  0.0517
 4307SOL    HW124554   0.628   0.605   5.318  0.9082  0.3220  0.0795
 4307SOL    HW224555   0.607   0.739   5.369 -1.4128 -0.2182  1.0040
 4308SOL     OW24556   2.229   2.334  10.161 -0.0439  0.1669 -0.9341
 4308SOL    HW124557   2.159   2.310  10.100  1.7669 -1.3030 -2.4514
 4308SOL    HW224558   2.305   2.310  10.108 -0.2095  0.6533 -1.3906
 4309SOL     OW24559   2.575   3.493   4.844  0.0809  0.1565  0.6547
 4309SOL    HW124560   2.555   3.585   4.824 -1.9695 -0.2644  0.7571
 4309SOL    HW224561   2.628   3.508   4.922 -0.4133  0.5076  0.9257
 4310SOL     OW24562   0.156   1.815  14.881  0.0032  0.1170 -0.2892
 4310SOL    HW124563   0.114   1.807  14.795  0.4441  1.8034 -0.6742
 4310SOL    HW224564   0.116   1.886  14.933  2.0400  1.5287 -0.6633
 4311SOL     OW24565   0.476   3.130   4.903  0.2416 -0.8165  0.3020
 4311SOL    HW124566   0.530   3.094   4.974  2.0028 -0.4659 -0.8505
 4311SOL    HW224567   0.526   3.108   4.824  0.0878 -3.2626  0.8833
 4312SOL     OW24568   0.507   4.680   4.357  0.3952 -0.0294 -0.4530
 4312SOL    HW124569   0.424   4.725   4.344 -1.0222 -3.1872 -2.4103
 4312SOL    HW224570   0.562   0.014   4.364  0.3853  0.0074 -0.7930
 4313SOL     OW24571   4.431   3.477  11.633  0.4202  0.0099  0.3253
 4313SOL    HW124572   4.507   3.432  11.669 -0.7595 -1.1286  1.4261
 4313SOL    HW224573   4.393   3.394  11.603  1.1641 -0.6570  1.1982
 4314SOL     OW24574   2.567   4.078   4.818 -0.5360  0.6991  0.1568
 4314SOL    HW124575   2.657   4.082   4.785 -0.1622 -2.0477  0.8430
 4314SOL    HW224576   2.517   4.110   4.743 -1.0484  0.2071  0.2912
 4315SOL     OW24577   0.175   4.532   3.105 -0.4698  0.1041  0.5413
 4315SOL    HW124578   0.118   4.609   3.101 -0.1282  0.3788  0.8872
 4315SOL    HW224579   0.112   4.470   3.068  0.8560  0.5953 -2.5288
 4316SOL     OW24580   2.389   3.481   6.828 -1.0797 -0.0495  0.2848
 4316SOL    HW124581   2.307   3.525   6.806 -0.0776  2.3698  1.2669
 4316SOL    HW224582   2.363   3.390   6.842 -1.7391  0.0016 -0.6102
 4317SOL     OW24583   1.667   0.439   4.837 -0.1818  0.2538 -0.2279
 4317SOL    HW124584   1.734   0.375   4.809 -0.3956  0.2738 -0.7841
 4317SOL    HW224585   1.648   0.467   4.748 -0.4486 -0.6863 -0.4629
 4318SOL     OW24586   1.044   4.293   2.037  0.2009  0.4200  0.0799
 4318SOL    HW124587   1.111   4.279   1.970 -0.2389  0.0156 -0.2737
 4318SOL    HW224588   0.965   4.259   1.995 -0.6031 -0.0923  2.0265
 4319SOL     OW24589   0.140   3.501   7.900 -0.4480 -0.3919 -0.6008
 4319SOL    HW124590   0.105   3.447   7.830 -1.2915 -0.4164 -0.1628
 4319SOL    HW224591   0.232   3.478   7.889 -0.3803 -0.2248 -0.3785
 4320SOL     OW24592   2.826   2.740   6.376  0.0470 -0.4552 -0.3856
 4320SOL    HW124593   2.800   2.762   6.465 -1.4939  1.3075 -1.2789
 4320SOL    HW224594   2.908   2.693   6.388  0.3694  0.0109 -0.7430
 4321SOL     OW24595   3.214   1.463   1.640  0.0095  0.0225  0.0629
 4321SOL    HW124596   3.234   1.453   1.547 -0.7240  1.4783 -0.2566
 4321SOL    HW224597   3.272   1.536   1.664  1.3313 -0.3152 -2.1799
 4322SOL     OW24598   2.446   1.217   9.058 -0.0183  0.2993 -0.0426
 4322SOL    HW124599   2.358   1.236   9.090  0.5301 -0.3767  1.8954
 4322SOL    HW224600   2.496   1.233   9.138 -2.4183  3.1004  0.8989
 4323SOL     OW24601   3.129   0.438   4.254 -0.2590  0.0627 -0.1945
 4323SOL    HW124602   3.091   0.370   4.200 -0.1282 -0.4694  0.3804
 4323SOL    HW224603   3.092   0.513   4.207 -0.2432  0.0842 -0.1731
 4324SOL     OW24604   3.838   0.965  11.826  0.0385 -0.2605  0.3031
 4324SOL    HW124605   3.828   1.037  11.764  1.1479 -1.3318 -1.1098
 4324SOL    HW224606   3.895   0.996  11.896  0.6328  1.1301 -0.7988
 4325SOL     OW24607   1.393   3.478   8.135 -0.2080 -0.3806  0.5326
 4325SOL    HW124608   1.318   3.486   8.195 -0.0608  1.6613  0.4313
 4325SOL    HW224609   1.461   3.446   8.194 -1.1644 -2.2976  0.6001
 4326SOL     OW24610   3.541   1.745   4.080 -0.6706  0.4277 -0.1478
 4326SOL    HW124611   3.452   1.761   4.112 -0.2461  1.2843  0.6055
 4326SOL    HW224612   3.596   1.750   4.158 -0.4787  0.5198 -0.2882
 4327SOL     OW24613   3.080   4.583   2.597  0.2735 -0.3499  0.4765
 4327SOL    HW124614   2.999   4.630   2.616  1.2572  1.4111  0.3390
 4327SOL    HW224615   3.124   4.596   2.682  1.3846  2.8208 -0.5704
 4328SOL     OW24616   1.583   3.182  12.578  0.2261  0.0140  0.3294
 4328SOL    HW124617   1.517   3.165  12.644 -1.1073  0.6377 -0.8532
 4328SOL    HW224618   1.651   3.120  12.606 -0.4660 -1.3002 -0.9369
 4329SOL     OW24619   2.767   1.117  13.600  0.2353  0.6038  0.6639
 4329SOL    HW124620   2.761   1.211  13.612  0.8427  0.5057  1.7137
 4329SOL    HW224621   2.847   1.108  13.548 -1.6407  1.7191 -2.3973
 4330SOL     OW24622   0.091   2.551  10.268  0.2118 -0.1424  0.6569
 4330SOL    HW124623   0.180   2.549  10.231 -1.7771 -0.7315 -4.1061
 4330SOL    HW224624   0.084   2.646  10.275 -1.9562 -0.1402 -1.5696
 4331SOL     OW24625   3.052   1.851   1.020 -0.0603  0.2221 -0.2648
 4331SOL    HW124626   3.085   1.940   1.010  1.2047 -0.1407  0.7373
 4331SOL    HW224627   3.110   1.824   1.091  0.0322 -0.3558 -0.5625
 4332SOL     OW24628   1.824   3.329  15.805  0.4930  0.4422  0.2857
 4332SOL    HW124629   1.840   3.235  15.814  1.5859  0.6556  0.6516
 4332SOL    HW224630   1.819   3.363  15.894  0.3603  0.6747  0.1886
 4333SOL     OW24631   1.545   3.663   6.274  0.2356 -0.2081  0.8065
 4333SOL    HW124632   1.491   3.684   6.198  0.5693  0.8046  0.8542
 4333SOL    HW224633   1.513   3.574   6.291  1.0132 -0.5859  0.3495
 4334SOL     OW24634   0.902   1.151   2.423 -0.2607 -0.0801  0.4208
 4334SOL    HW124635   0.893   1.242   2.450 -3.1681 -0.4114  0.5817
 4334SOL    HW224636   0.967   1.165   2.354 -1.5207 -1.2960 -0.9987
 4335SOL     OW24637   1.439   3.092  12.308 -0.3355 -0.0027  0.3926
 4335SOL    HW124638   1.495   3.119  12.381 -0.3662 -0.6800  0.6703
 4335SOL    HW224639   1.353   3.105  12.349 -1.4571  0.1667 -2.0114
 4336SOL     OW24640   4.263   0.895  13.516 -0.1506  0.1670 -0.0593
 4336SOL    HW124641   4.238   0.941  13.596  1.9048 -2.2359  1.9404
 4336SOL    HW224642   4.291   0.965  13.457 -1.8091  1.3922  0.6066
 4337SOL     OW24643   4.137   1.939   1.905  0.4619 -0.4249  0.3160
 4337SOL    HW124644   4.225   1.974   1.888  0.2599  0.5923  1.2976
 4337SOL    HW224645   4.155   1.884   1.982 -0.4568  0.5254  1.2226
 4338SOL     OW24646   4.008   0.784   5.613  0.8327 -0.4250 -0.6625
 4338SOL    HW124647   4.092   0.829   5.607  0.3808  0.1991 -2.2477
 4338SOL    HW224648   3.952   0.846   5.661  1.5090  0.6114 -1.2283
 4339SOL     OW24649   0.838   3.134  15.924  0.3728 -0.0351 -0.2266
 4339SOL    HW124650   0.780   3.205  15.896  1.1800 -0.2659 -2.4473
 4339SOL    HW224651   0.909   3.148  15.861  0.8543  0.5520  0.4524
 4340SOL     OW24652   0.335   1.732  13.178 -0.3534 -0.3926  0.2088
 4340SOL    HW124653   0.383   1.815  13.186  1.7752 -1.3623 -2.4633
 4340SOL    HW224654   0.393   1.687  13.116 -1.2384 -3.6602  1.7951
 4341SOL     OW24655   4.578   1.619   7.008  0.0123  0.2377  0.2297
 4341SOL    HW124656   4.508   1.563   7.041  2.3282 -3.7620 -1.5927
 4341SOL    HW224657   4.645   1.607   7.075  1.1273 -0.7462 -1.0417
 4342SOL     OW24658   2.934   4.399   9.553  0.4686  0.2175 -0.2636
 4342SOL    HW124659   2.982   4.392   9.636 -0.4085  1.4823  0.3521
 4342SOL    HW224660   2.879   4.320   9.559  0.0837  0.3710 -1.8361
 4343SOL     OW24661   0.032   1.286   6.071  0.1082  0.1339  0.3033
 4343SOL    HW124662   0.015   1.330   5.987 -0.8056 -0.6583  0.0750
 4343SOL    HW224663   0.016   1.361   6.128 -0.7406  0.3550 -0.2237
 4344SOL     OW24664   1.301   0.904   4.339  0.0813  0.2060  0.2620
 4344SOL    HW124665   1.231   0.845   4.311 -0.5851  1.7428 -1.3566
 4344SOL    HW224666   1.310   0.968   4.268  0.6320  1.0452  1.0721
 4345SOL     OW24667   1.215   0.888  11.934  0.2690  0.0562  0.5361
 4345SOL    HW124668   1.214   0.925  12.023 -0.3311 -0.2713  0.6640
 4345SOL    HW224669   1.310   0.881  11.921 -0.0450 -1.4447 -0.8882
 4346SOL     OW24670   2.629   2.559   7.423 -0.3446  0.3832 -0.2781
 4346SOL    HW124671   2.582   2.485   7.385  0.6935 -1.1884  1.4776
 4346SOL    HW224672   2.721   2.540   7.402  0.0796  3.8078 -1.5412
 4347SOL     OW24673   3.885   4.608  15.252  0.2288 -0.0787  0.8954
 4347SOL    HW124674   3.936   4.570  15.181 -1.2544  0.1655 -0.2937
 4347SOL    HW224675   3.798   4.588  15.218  0.7719 -0.9956  0.0514
 4348SOL     OW24676   4.388   0.594   8.097 -0.3342  0.6369 -0.5169
 4348SOL    HW124677   4.330   0.616   8.170 -1.6636 -0.5531 -1.2090
 4348SOL    HW224678   4.338   0.628   8.023 -1.5480  1.6989  0.7719
 4349SOL     OW24679   2.815   4.079   8.375  0.1236 -0.0782  0.2860
 4349SOL    HW124680   2.907   4.060   8.397  0.5567  1.0197 -0.6037
 4349SOL    HW224681   2.832   4.158   8.325  2.1571 -0.4147  0.4295
 4350SOL     OW24682   1.719   0.915   2.040  0.2602 -0.8936  0.3448
 4350SOL    HW124683   1.769   0.947   1.965  1.3381  1.2255  1.9809
 4350SOL    HW224684   1.632   0.920   2.003 -0.9171 -2.2535  2.9095
 4351SOL     OW24685   2.102   0.351  11.403 -0.3365  0.7269  0.0493
 4351SOL    HW124686   2.124   0.257  11.403 -1.3113  0.4979 -0.9268
 4351SOL    HW224687   2.007   0.353  11.407 -0.3019  0.3731  1.0752
 4352SOL     OW24688   3.949   3.601   9.820  0.5070  0.0433  0.5530
 4352SOL    HW124689   3.891   3.636   9.752 -1.7719  0.6536  2.8045
 4352SOL    HW224690   3.910   3.635   9.901 -0.7345 -0.6511  0.2494
 4353SOL     OW24691   4.378   2.225  14.751 -0.4855  0.0260 -0.7525
 4353SOL    HW124692   4.321   2.295  14.781  2.6026  2.2986 -0.1556
 4353SOL    HW224693   4.342   2.150  14.797 -0.6831  0.2607 -0.5250
 4354SOL     OW24694   0.650   2.330   7.538  0.0644 -0.4246 -0.0674
 4354SOL    HW124695   0.557   2.313   7.529  0.0070 -0.3445  0.3960
 4354SOL    HW224696   0.653   2.419   7.504  0.0239  0.3520  2.0053
 4355SOL     OW24697   2.073   1.700   7.730 -0.0588  0.9408 -0.5153
 4355SOL    HW124698   2.106   1.786   7.753  0.1937  0.7732 -0.2542
 4355SOL    HW224699   2.081   1.694   7.634 -1.3861  1.9759 -0.6954
 4356SOL     OW24700   1.115   0.148   2.060 -0.2867 -0.2436 -0.4009
 4356SOL    HW124701   1.107   0.206   2.136 -1.5761 -0.3751 -0.4451
 4356SOL    HW224702   1.201   0.111   2.082 -1.0882 -1.7010  0.3418
 4357SOL     OW24703   3.579   0.715   7.655 -0.4098  0.2730 -0.2085
 4357SOL    HW124704   3.486   0.697   7.640 -0.3236 -0.5230  0.2321
 4357SOL    HW224705   3.599   0.627   7.687  1.3943  1.4240  1.8157
 4358SOL     OW24706   1.808   3.521   6.698  0.4166 -0.0144 -0.3045
 4358SOL    HW124707   1.793   3.604   6.743  3.3538 -0.7212  1.9666
 4358SOL    HW224708   1.834   3.557   6.614 -1.2573 -1.7803 -1.5728
 4359SOL     OW24709   2.443   1.476  10.430  0.8177  0.1023  0.4981
 4359SOL    HW124710   2.453   1.428  10.512  3.2715  2.1268  1.3843
 4359SOL    HW224711   2.360   1.523  10.444  0.5900  0.1107 -0.8895
 4360SOL     OW24712   4.374   4.408   4.289 -0.6440  0.4090  0.0474
 4360SOL    HW124713   4.393   4.352   4.214 -2.0033  1.1484 -0.8534
 4360SOL    HW224714   4.310   4.352   4.331 -0.0701  0.0005  0.3697
 4361SOL     OW24715   2.821   4.333   4.861 -0.4867  0.1925  0.1229
 4361SOL    HW124716   2.812   4.256   4.804 -0.8395  0.2169  0.1468
 4361SOL    HW224717   2.854   4.403   4.805  2.3381 -0.8581  0.4457
 4362SOL     OW24718   3.214   0.215   3.436  0.4832 -0.0406  0.5459
 4362SOL    HW124719   3.123   0.239   3.419  0.1580  0.8345  3.4863
 4362SOL    HW224720   3.216   0.194   3.530  2.0621 -0.5494  0.3913
 4363SOL     OW24721   1.450   0.755  12.427 -0.1244 -0.2864 -0.2022
 4363SOL    HW124722   1.491   0.712  12.502 -1.6612 -1.0773  0.1853
 4363SOL    HW224723   1.508   0.719  12.359 -1.8263 -0.0885 -1.7545
 4364SOL     OW24724   1.765   2.752  16.684  0.1249 -0.1243 -0.4633
 4364SOL    HW124725   1.799   2.736  16.596  1.3060 -0.9457  0.1350
 4364SOL    HW224726   1.724   2.838  16.673 -0.9841 -0.5107  0.8119
 4365SOL     OW24727   1.376   3.495   9.300  0.6171  0.8149 -0.3997
 4365SOL    HW124728   1.425   3.448   9.232  0.7404  0.5897 -0.1577
 4365SOL    HW224729   1.301   3.436   9.310  0.1418  1.9457  2.6625
 4366SOL     OW24730   4.313   0.779  11.948 -0.1744  0.2047 -0.6123
 4366SOL    HW124731   4.329   0.690  11.980 -1.1914  0.8725  1.7651
 4366SOL    HW224732   4.277   0.822  12.026  0.6664 -2.2639  1.1374
 4367SOL     OW24733   3.762   0.637   6.184 -0.4429 -0.0309  0.5949
 4367SOL    HW124734   3.701   0.709   6.199  1.2273  2.0578 -2.5021
 4367SOL    HW224735   3.850   0.673   6.197 -0.3780 -0.1874  0.5939
 4368SOL     OW24736   1.204   1.483   1.514  0.2655  0.3110  0.2252
 4368SOL    HW124737   1.149   1.476   1.592 -0.6546 -3.2624 -0.7377
 4368SOL    HW224738   1.220   1.389   1.504 -0.2113  0.0940  1.4806
 4369SOL     OW24739   0.884   0.117   6.875 -0.0801  0.5745 -0.5290
 4369SOL    HW124740   0.943   0.043   6.867  0.9621  1.4102 -0.6544
 4369SOL    HW224741   0.809   0.106   6.816  0.7182 -0.2275 -1.3766
 4370SOL     OW24742   1.470   0.528   9.829 -0.5610  0.3321 -0.4929
 4370SOL    HW124743   1.417   0.491   9.899  0.2939 -0.3676 -0.2033
 4370SOL    HW224744   1.548   0.473   9.819  0.0176  1.2280 -0.9686
 4371SOL     OW24745   1.919   3.526   9.204 -0.2044 -0.0874 -0.1477
 4371SOL    HW124746   1.865   3.599   9.175 -1.3339 -1.0919 -0.5972
 4371SOL    HW224747   1.966   3.561   9.280 -0.8421  1.0334 -0.2779
 4372SOL     OW24748   1.548   1.950   3.727 -0.4168 -0.0013  0.2139
 4372SOL    HW124749   1.633   1.974   3.691 -1.1761  2.9592  0.4627
 4372SOL    HW224750   1.506   1.907   3.653 -0.6639  1.0503 -0.2515
 4373SOL     OW24751   3.836   0.466  11.192 -0.0802  0.0335 -0.2519
 4373SOL    HW124752   3.775   0.525  11.147  0.3138 -0.1069 -0.9762
 4373SOL    HW224753   3.911   0.462  11.132  2.1968 -0.7902  2.6607
 4374SOL     OW24754   4.325   2.819  11.171  0.2199  0.2628  1.1029
 4374SOL    HW124755   4.304   2.911  11.188  2.0381  1.1022 -1.2398
 4374SOL    HW224756   4.390   2.833  11.102 -3.8233  1.0473 -2.5621
 4375SOL     OW24757   0.897   2.938   4.360  0.1465  0.0166 -0.3638
 4375SOL    HW124758   0.914   2.881   4.284  0.7652  0.9668 -0.9385
 4375SOL    HW224759   0.900   2.875   4.431 -0.9905 -0.0998 -0.4204
 4376SOL     OW24760   2.324   4.370   6.937  0.1146  0.3680  0.1529
 4376SOL    HW124761   2.377   4.291   6.948  1.6788  1.1937 -1.4515
 4376SOL    HW224762   2.322   4.388   7.031 -0.6467 -0.8196  0.3700
 4377SOL     OW24763   2.198   1.458  11.102 -0.0260 -0.2276 -0.5872
 4377SOL    HW124764   2.151   1.397  11.045 -0.9458  0.4281 -0.5395
 4377SOL    HW224765   2.257   1.508  11.046  4.6567 -2.1878  2.5986
 4378SOL     OW24766   2.746   0.171  10.916 -0.5866 -0.1861 -0.1533
 4378SOL    HW124767   2.726   0.082  10.888 -0.0268  0.0681 -1.3718
 4378SOL    HW224768   2.828   0.186  10.869 -0.9035 -0.0167 -0.6563
 4379SOL     OW24769   0.887   0.253   3.388  0.1423 -0.4837  0.3395
 4379SOL    HW124770   0.883   0.326   3.326  1.0034 -1.1849 -0.5507
 4379SOL    HW224771   0.866   0.184   3.326 -1.1517 -0.7493  1.0811
 4380SOL     OW24772   1.415   4.425  10.389  0.3473 -0.2430 -0.2404
 4380SOL    HW124773   1.437   4.512  10.421 -1.4778 -1.0788  3.2339
 4380SOL    HW224774   1.325   4.418  10.422  0.4441  1.3600  0.3197
 4381SOL     OW24775   3.270   4.362   2.241  0.7420 -0.6299 -0.2236
 4381SOL    HW124776   3.205   4.430   2.261  1.4268 -0.3785  1.1546
 4381SOL    HW224777   3.234   4.282   2.280 -1.9664  1.1594  0.9482
 4382SOL     OW24778   0.183   1.492   3.936  0.1102  0.2530 -0.3232
 4382SOL    HW124779   0.184   1.494   3.841  1.1056 -1.0670 -0.3464
 4382SOL    HW224780   0.090   1.499   3.958  0.1256 -0.8057  0.1245
 4383SOL     OW24781   4.587   3.135   6.693 -0.2778  0.6256  0.4277
 4383SOL    HW124782   4.497   3.118   6.663 -0.5636 -1.3129  2.3939
 4383SOL    HW224783   4.596   3.214   6.640  1.4856  0.2645  0.1911
 4384SOL     OW24784   3.565   4.524   5.581 -0.1205 -0.2585 -0.3109
 4384SOL    HW124785   3.602   4.436   5.579  0.3497 -0.0488 -0.6551
 4384SOL    HW224786   3.610   4.577   5.647 -0.4090 -1.8500  1.1658
 4385SOL     OW24787   3.797   0.288   0.378 -0.3618 -0.1612 -0.4318
 4385SOL    HW124788   3.730   0.230   0.342 -1.7937  1.2834 -0.0601
 4385SOL    HW224789   3.873   0.235   0.350  2.4135  3.2611  0.6362
 4386SOL     OW24790   2.552   1.423   3.280 -0.3010 -0.8348  0.4315
 4386SOL    HW124791   2.643   1.442   3.302  0.3835 -1.9821 -1.3957
 4386SOL    HW224792   2.526   1.508   3.245  0.8626 -1.1102 -1.0922
 4387SOL     OW24793   2.164   2.730  17.129 -0.7140  0.7445  0.3849
 4387SOL    HW124794   2.146   2.642  17.163  0.0162 -0.0570 -1.3207
 4387SOL    HW224795   2.083   2.760  17.086  0.2897  1.4286 -1.0131
 4388SOL     OW24796   3.756   3.807   4.159 -0.1395 -0.4988 -0.3410
 4388SOL    HW124797   3.745   3.759   4.076  0.8002 -0.1030 -0.6896
 4388SOL    HW224798   3.759   3.897   4.125 -0.1507 -0.2711  0.2698
 4389SOL     OW24799   0.197   0.392  17.186 -0.3472 -0.1149  0.1006
 4389SOL    HW124800   0.124   0.340  17.220 -2.1764  1.5480 -1.2766
 4389SOL    HW224801   0.206   0.457  17.256 -3.1989 -0.0696  0.4606
 4390SOL     OW24802   2.036   1.980   2.336 -0.6218  0.4213 -0.2264
 4390SOL    HW124803   1.945   1.965   2.311 -1.2769  1.4426  1.4867
 4390SOL    HW224804   2.028   2.028   2.419 -0.0562  0.1874 -0.0323
 4391SOL     OW24805   2.990   2.740   1.501  0.8529 -0.0441  0.1797
 4391SOL    HW124806   2.915   2.777   1.455  0.6819  0.5021  0.8997
 4391SOL    HW224807   2.961   2.754   1.591  1.2366  1.3853  0.0744
 4392SOL     OW24808   1.138   0.950   5.760  0.1615 -0.6187  0.2078
 4392SOL    HW124809   1.046   0.963   5.783  0.3758  0.1474  0.6364
 4392SOL    HW224810   1.136   0.857   5.736  1.8257 -1.2071  2.3404
 4393SOL     OW24811   3.635   3.318   3.497 -0.0339  0.1526 -0.4600
 4393SOL    HW124812   3.724   3.328   3.530 -0.6300 -0.9170  1.4507
 4393SOL    HW224813   3.605   3.262   3.568 -1.0124  0.8351 -0.3211
 4394SOL     OW24814   2.077   1.346   8.122  0.5506  0.1544  0.5001
 4394SOL    HW124815   2.035   1.274   8.073  1.3221  0.0705 -0.0324
 4394SOL    HW224816   2.060   1.424   8.070 -0.4884 -0.3842  0.0275
 4395SOL     OW24817   0.448   0.931  17.124 -0.2011 -0.3537  0.2358
 4395SOL    HW124818   0.451   0.836  17.111 -1.3225 -0.5255  1.2753
 4395SOL    HW224819   0.539   0.945  17.152 -0.5565 -0.2902  1.3460
 4396SOL     OW24820   1.194   1.514   3.872 -0.1773 -0.2274 -0.2516
 4396SOL    HW124821   1.180   1.421   3.886  4.2733 -0.7180  0.9943
 4396SOL    HW224822   1.289   1.526   3.881 -0.4091  0.5302  1.2061
 4397SOL     OW24823   0.738   3.044   4.894 -0.1580  0.4355  0.2490
 4397SOL    HW124824   0.708   3.047   4.985 -1.5800  2.7374 -0.3140
 4397SOL    HW224825   0.729   2.950   4.875 -1.6411  1.0086 -1.8969
 4398SOL     OW24826   2.518   1.400   7.025 -0.3222  0.3408  0.0623
 4398SOL    HW124827   2.528   1.490   6.994 -1.2458 -0.5099 -2.6967
 4398SOL    HW224828   2.513   1.403   7.120 -3.9704 -1.5871 -0.0698
 4399SOL     OW24829   1.552   0.413   6.855 -0.2848 -0.2119 -0.4639
 4399SOL    HW124830   1.502   0.332   6.860 -0.4777 -0.0672 -0.1123
 4399SOL    HW224831   1.622   0.366   6.810  0.3986  1.1753 -0.8714
 4400SOL     OW24832   0.709   1.179   5.247  0.6399  0.2058  0.2806
 4400SOL    HW124833   0.672   1.262   5.217 -0.9068 -0.5289  0.1238
 4400SOL    HW224834   0.628   1.160   5.294  1.3137  0.6296  1.6074
 4401SOL     OW24835   2.855   1.809  13.187 -0.2505 -0.2728 -0.3654
 4401SOL    HW124836   2.761   1.824  13.191 -0.3929 -1.1150 -0.6873
 4401SOL    HW224837   2.857   1.732  13.130 -0.8294 -0.3550 -0.2717
 4402SOL     OW24838   0.790   4.056   6.281  0.0636  0.3212  0.3382
 4402SOL    HW124839   0.729   4.077   6.352 -0.2914  1.1547 -0.2065
 4402SOL    HW224840   0.849   4.129   6.300  0.4986 -0.3390  1.4618
 4403SOL     OW24841   1.021   2.738  15.118  0.2883  0.4369  0.3662
 4403SOL    HW124842   1.091   2.711  15.177 -0.7414 -2.1276  0.3938
 4403SOL    HW224843   1.055   2.812  15.067  0.2169  0.7402  0.7527
 4404SOL     OW24844   3.992   0.116   6.439  0.6101 -0.7983 -0.1503
 4404SOL    HW124845   3.970   0.158   6.522  2.0838 -1.5588  0.6260
 4404SOL    HW224846   4.067   0.168   6.409 -2.1824  2.3929 -1.6188
 4405SOL     OW24847   3.570   0.926   9.445  0.2076 -0.7344  1.0661
 4405SOL    HW124848   3.581   0.831   9.446 -1.9257 -0.9884  1.1727
 4405SOL    HW224849   3.487   0.955   9.407  0.5006 -1.0290  0.1981
 4406SOL     OW24850   3.636   4.604   6.208  0.1811  0.0240 -0.2771
 4406SOL    HW124851   3.647   4.601   6.304 -0.5905  1.6965 -0.1456
 4406SOL    HW224852   3.577   4.678   6.200 -1.5026 -1.4201 -1.2594
 4407SOL     OW24853   3.736   0.812   1.810  0.6051  0.1813 -0.4697
 4407SOL    HW124854   3.751   0.885   1.871  0.7574 -0.2063 -0.0468
 4407SOL    HW224855   3.648   0.787   1.837  1.3853 -1.9026  0.1101
 4408SOL     OW24856   3.055   2.285   6.463  1.0775 -0.3520  0.1313
 4408SOL    HW124857   3.080   2.378   6.459  1.2193 -0.3370  1.4373
 4408SOL    HW224858   3.121   2.251   6.403 -0.8371  2.8953 -3.8481
 4409SOL     OW24859   1.770   4.476   6.141  0.5831  0.0259 -0.0314
 4409SOL    HW124860   1.680   4.455   6.119 -0.1994  2.3596  0.9283
 4409SOL    HW224861   1.752   4.554   6.194  2.1667 -0.2068  0.8535
 4410SOL     OW24862   2.529   0.785   6.371  0.3427  0.1363 -0.1839
 4410SOL    HW124863   2.573   0.781   6.286 -0.1424 -1.3592 -0.3679
 4410SOL    HW224864   2.592   0.744   6.431 -0.0484  0.9089  0.7452
 4411SOL     OW24865   1.262   4.654   8.725 -0.6705  0.2473  0.3875
 4411SOL    HW124866   1.198   4.596   8.683  0.7285 -0.3041 -0.9962
 4411SOL    HW224867   1.267   4.721   8.657  0.6595  0.1926  0.4207
 4412SOL     OW24868   1.785   3.668   2.698  0.1445 -0.7160  0.5103
 4412SOL    HW124869   1.774   3.761   2.680 -0.4752 -0.6618  1.1755
 4412SOL    HW224870   1.710   3.631   2.651 -0.5999  1.1380  0.2544
 4413SOL     OW24871   3.411   3.576   6.415 -0.4416 -0.3202  0.6167
 4413SOL    HW124872   3.469   3.557   6.341  1.4802 -2.3824  2.6395
 4413SOL    HW224873   3.462   3.637   6.469  1.2996 -1.7640  0.6175
 4414SOL     OW24874   1.365   0.630  15.193 -0.2830 -0.1642  0.2283
 4414SOL    HW124875   1.274   0.657  15.205 -0.4992 -0.4604 -0.7607
 4414SOL    HW224876   1.416   0.704  15.223  1.9133 -2.0036  1.0515
 4415SOL     OW24877   2.554   4.617   1.108  0.0954  0.4233 -0.1243
 4415SOL    HW124878   2.607   4.694   1.131  1.0633 -1.3395  3.5090
 4415SOL    HW224879   2.582   4.601   1.018 -1.0657 -2.1553 -0.0242
 4416SOL     OW24880   1.413   4.269  15.823 -0.1902 -0.0172 -0.1987
 4416SOL    HW124881   1.354   4.257  15.898 -0.2187  2.0714  0.1254
 4416SOL    HW224882   1.486   4.314  15.865 -1.4641  2.5914 -0.8019
 4417SOL     OW24883   4.072   3.885   6.640  0.0626 -0.3166 -0.0775
 4417SOL    HW124884   4.004   3.851   6.697 -1.8822  1.5312 -1.3008
 4417SOL    HW224885   4.086   3.973   6.675 -3.2509  1.0929 -2.2790
 4418SOL     OW24886   0.520   0.796   1.911 -0.8869 -0.5215 -0.1504
 4418SOL    HW124887   0.453   0.801   1.979 -1.8511 -1.9083 -1.0243
 4418SOL    HW224888   0.463   0.799   1.834  1.6997  0.8497 -2.0407
 4419SOL     OW24889   2.051   2.921   4.206  0.3287 -0.2854  0.1337
 4419SOL    HW124890   2.077   2.990   4.267  1.6254  0.5029 -1.2784
 4419SOL    HW224891   2.109   2.946   4.133 -0.6498 -0.2680 -0.6347
 4420SOL     OW24892   3.291   1.177   0.440 -0.9823 -0.2079 -0.0145
 4420SOL    HW124893   3.243   1.114   0.494 -0.9273 -0.9908 -0.8817
 4420SOL    HW224894   3.348   1.213   0.507  0.0993  2.2702 -2.2497
 4421SOL     OW24895   2.432   0.210  14.566 -0.1406 -0.1909 -0.1982
 4421SOL    HW124896   2.414   0.296  14.603 -0.8373 -0.4668  0.1178
 4421SOL    HW224897   2.389   0.217  14.481  1.3954 -0.6721 -1.0025
 4422SOL     OW24898   4.061   1.719   5.423 -0.2091 -0.2573 -0.1880
 4422SOL    HW124899   4.120   1.696   5.495 -2.0540 -0.3940  1.2703
 4422SOL    HW224900   4.054   1.814   5.423 -1.2154 -0.3337  0.2625
 4423SOL     OW24901   3.544   0.830   3.338 -0.0148 -0.7194  0.0918
 4423SOL    HW124902   3.458   0.801   3.307 -0.9439  1.1102  1.0155
 4423SOL    HW224903   3.529   0.844   3.431 -0.2562 -0.1538 -0.0368
 4424SOL     OW24904   4.480   3.946  16.370 -0.5981 -0.5439 -0.4307
 4424SOL    HW124905   4.550   3.948  16.305  0.8997 -3.6249  1.1099
 4424SOL    HW224906   4.509   4.030  16.405 -0.9421 -1.9454  3.2515
 4425SOL     OW24907   0.964   3.320  17.391 -0.1146  0.3739  0.7284
 4425SOL    HW124908   0.882   3.369  17.385 -1.0320 -1.5977 -3.2275
 4425SOL    HW224909   1.015   3.397  17.415  2.2130 -0.8536 -0.2671
 4426SOL     OW24910   2.011   4.385  10.564  0.5832  0.0421 -0.0271
 4426SOL    HW124911   2.015   4.432  10.647  0.9069 -1.4750  0.8115
 4426SOL    HW224912   2.023   4.457  10.503 -0.3533 -0.3745 -0.7115
 4427SOL     OW24913   0.481   4.003   9.498  0.5591 -0.0108 -0.0729
 4427SOL    HW124914   0.552   4.004   9.435 -0.6262  0.1220 -1.4135
 4427SOL    HW224915   0.520   4.038   9.578 -0.0845 -2.0899  1.1578
 4428SOL     OW24916   4.622   0.599   7.173  0.0964  0.1239 -0.1358
 4428SOL    HW124917   4.684   0.536   7.210 -0.9239 -1.7948 -1.7112
 4428SOL    HW224918   4.621   0.676   7.230  0.0823  0.0781 -0.0737
 4429SOL     OW24919   2.188   2.913   2.244 -0.4263  0.5820 -0.6111
 4429SOL    HW124920   2.162   3.003   2.266 -3.0942 -0.1711 -0.7116
 4429SOL    HW224921   2.106   2.893   2.198 -0.5751  0.6782 -0.3890
 4430SOL     OW24922   2.625   0.721   7.436  0.2073  0.4375 -0.0597
 4430SOL    HW124923   2.624   0.635   7.395  1.0149 -0.9414  2.8048
 4430SOL    HW224924   2.535   0.744   7.415  0.6299  1.3334 -0.8501
 4431SOL     OW24925   0.249   1.900   2.345  0.0217 -0.4087  0.0633
 4431SOL    HW124926   0.165   1.855   2.355 -1.0609  1.2501 -1.5481
 4431SOL    HW224927   0.245   1.953   2.266  1.9543 -0.3238  0.0193
 4432SOL     OW24928   1.499   1.165  10.854  0.5669 -0.1385  0.3506
 4432SOL    HW124929   1.448   1.200  10.781  0.2434 -0.0047  0.6434
 4432SOL    HW224930   1.426   1.132  10.907  0.0277 -1.2387 -1.0632
 4433SOL     OW24931   1.013   4.520   4.145 -0.0482  0.1842 -0.0162
 4433SOL    HW124932   1.082   4.507   4.210 -0.2702 -0.4937  0.0887
 4433SOL    HW224933   0.937   4.515   4.202  0.4461  0.9858  0.7130
 4434SOL     OW24934   1.272   4.133   3.128  0.4125  0.0933  0.2246
 4434SOL    HW124935   1.296   4.162   3.215  0.5665  1.3975 -0.2617
 4434SOL    HW224936   1.179   4.115   3.142 -0.0813  2.7136  0.2265
 4435SOL     OW24937   2.040   2.993  15.320  0.4567  0.4451 -0.3049
 4435SOL    HW124938   1.961   2.980  15.372  2.4142 -0.0302  2.6068
 4435SOL    HW224939   2.066   3.077  15.358  0.9852 -0.6137  1.6702
 4436SOL     OW24940   4.394   2.341  12.814  0.6472 -0.3187  0.7801
 4436SOL    HW124941   4.387   2.330  12.909  0.8297  1.0335  0.9439
 4436SOL    HW224942   4.320   2.282  12.800  0.2311  0.3928  0.0122
 4437SOL     OW24943   4.249   2.224   8.864 -0.0406  0.1242  0.3270
 4437SOL    HW124944   4.277   2.291   8.927  0.3795  0.7520 -0.5112
 4437SOL    HW224945   4.159   2.197   8.880  0.0998 -1.4701 -1.6353
 4438SOL     OW24946   1.068   2.986   2.030  0.4935  0.2742 -0.0892
 4438SOL    HW124947   1.071   2.934   2.110 -0.4011  0.3620 -0.0009
 4438SOL    HW224948   1.009   3.058   2.052  2.5854  2.2952 -1.1301
 4439SOL     OW24949   0.608   3.136   5.686  0.5898  0.4508 -0.0589
 4439SOL    HW124950   0.572   3.187   5.613 -1.5594  0.9767  1.3825
 4439SOL    HW224951   0.634   3.197   5.755 -0.6247  0.6022  0.2503
 4440SOL     OW24952   4.676   2.914   3.858  0.1515  0.4672  0.2440
 4440SOL    HW124953   4.713   2.850   3.797 -0.1544  0.9031 -0.3962
 4440SOL    HW224954   4.731   2.992   3.846 -0.9111  1.6111  2.7571
 4441SOL     OW24955   1.409   3.864   5.778  0.1643 -0.3786  0.1584
 4441SOL    HW124956   1.490   3.818   5.801 -0.2515 -0.0140  2.3836
 4441SOL    HW224957   1.420   3.897   5.689  3.4739 -0.6361  0.4554
 4442SOL     OW24958   0.102   3.109   9.487 -0.0910 -0.0429  0.0145
 4442SOL    HW124959   0.077   3.181   9.429 -0.1021  0.1752  0.2911
 4442SOL    HW224960   0.112   3.164   9.565  1.5098 -1.0392  0.5062
 4443SOL     OW24961   4.201   4.500   4.787 -0.2098 -0.0555  0.3202
 4443SOL    HW124962   4.207   4.595   4.795 -1.3744  0.0128  0.4886
 4443SOL    HW224963   4.295   4.489   4.780  0.0836  1.5206  1.8420
 4444SOL     OW24964   3.203   1.071  10.365  0.3298 -0.6822  0.6043
 4444SOL    HW124965   3.115   1.067  10.403  0.3048  1.8772  0.8433
 4444SOL    HW224966   3.226   1.164  10.370 -2.5920  0.0216  0.8552
 4445SOL     OW24967   0.429   3.511   1.748 -0.2159 -0.0322 -0.5597
 4445SOL    HW124968   0.392   3.510   1.836  0.4878 -1.6691 -0.2678
 4445SOL    HW224969   0.439   3.417   1.732 -0.4816 -0.0643 -0.5377
 4446SOL     OW24970   1.996   4.681  11.993  0.0271  0.0322 -0.6917
 4446SOL    HW124971   1.962   4.594  12.014  0.0668 -0.3452 -2.1296
 4446SOL    HW224972   2.070   4.685  12.053  1.7934  2.1837 -3.0158
 4447SOL     OW24973   0.276   4.372  13.356 -0.0240 -0.4038 -0.2550
 4447SOL    HW124974   0.237   4.360  13.443 -1.4646  1.4003 -0.6576
 4447SOL    HW224975   0.269   4.467  13.346 -2.8017 -0.3520  2.1265
 4448SOL     OW24976   1.155   0.403   8.998  0.3394 -0.5311 -0.2926
 4448SOL    HW124977   1.190   0.383   8.911 -0.8862 -0.1684 -0.8838
 4448SOL    HW224978   1.236   0.408   9.048  0.5297  1.3262 -0.7571
 4449SOL     OW24979   1.649   2.641  12.715 -0.0659  0.0772 -0.4106
 4449SOL    HW124980   1.682   2.597  12.637  0.2638 -0.4247  0.0125
 4449SOL    HW224981   1.716   2.609  12.774  0.3739 -2.3049 -2.2065
 4450SOL     OW24982   1.604   0.690   4.936  0.3102  0.1985  0.5620
 4450SOL    HW124983   1.513   0.661   4.942  0.1847  0.3316 -0.7546
 4450SOL    HW224984   1.649   0.607   4.919 -0.9467 -0.6485  1.3346
 4451SOL     OW24985   4.541   3.319   3.668 -0.6898  0.4475 -0.6022
 4451SOL    HW124986   4.542   3.245   3.728 -1.0470  1.6093  0.8512
 4451SOL    HW224987   4.555   3.276   3.584 -0.7670  0.0111 -0.3923
 4452SOL     OW24988   3.489   3.797   5.113 -0.5715 -0.2703 -0.4935
 4452SOL    HW124989   3.445   3.839   5.039  2.0112  0.8371 -1.4053
 4452SOL    HW224990   3.568   3.849   5.124 -0.6688  0.0965 -1.4704
 4453SOL     OW24991   3.359   4.635   2.525 -0.6400  0.1875  0.3656
 4453SOL    HW124992   3.264   4.625   2.517 -0.6185 -0.6586  1.2697
 4453SOL    HW224993   3.376   4.703   2.459  2.4755 -0.6649  0.2897
 4454SOL     OW24994   3.159   3.320  16.235  0.4438 -0.5468 -0.0284
 4454SOL    HW124995   3.078   3.268  16.231 -0.1278  0.1684  2.9468
 4454SOL    HW224996   3.177   3.324  16.328 -0.6954  1.5199  0.0964
 4455SOL     OW24997   2.737   2.609   1.680 -0.2015 -0.7149 -0.0323
 4455SOL    HW124998   2.655   2.641   1.718 -0.3442  0.1673 -1.0706
 4455SOL    HW224999   2.802   2.673   1.708  1.1723 -2.7794  1.4484
 4456SOL     OW25000   2.872   2.464   1.492  0.0433 -0.4532  0.6294
 4456SOL    HW125001   2.819   2.515   1.553 -1.0942 -1.8130  0.7814
 4456SOL    HW225002   2.909   2.389   1.539  2.3011  0.1067 -0.2375
 4457SOL     OW25003   4.727   1.906  13.045 -0.3379 -0.9368 -0.0583
 4457SOL    HW125004   4.646   1.951  13.069 -0.6798 -1.6055  0.0677
 4457SOL    HW225005   4.724   1.831  13.105 -1.2853 -2.1834 -1.6896
 4458SOL     OW25006   3.139   1.664   5.654  0.0531  0.8770  0.2779
 4458SOL    HW125007   3.170   1.748   5.688  0.1321  1.1398 -0.4389
 4458SOL    HW225008   3.164   1.675   5.562 -1.7448 -0.8832 -0.4300
 4459SOL     OW25009   3.210   2.128   3.535 -0.7596 -0.1230  0.1090
 4459SOL    HW125010   3.202   2.052   3.592 -0.7036  0.3893  0.8016
 4459SOL    HW225011   3.279   2.102   3.473  0.3533  2.4476  0.2476
 4460SOL     OW25012   1.440   1.435   9.970 -0.7215  0.9656 -0.0217
 4460SOL    HW125013   1.411   1.517   9.929 -0.7294 -0.3599 -2.6456
 4460SOL    HW225014   1.430   1.374   9.896 -0.3177 -1.4786  1.9493
 4461SOL     OW25015   3.405   0.335   8.070 -0.1107  0.5895 -0.4617
 4461SOL    HW125016   3.425   0.425   8.095 -0.5968  0.1641  1.4505
 4461SOL    HW225017   3.459   0.287   8.133  1.3093 -1.1197 -2.9933
 4462SOL     OW25018   1.689   2.909   6.957 -0.4462 -0.5880 -0.0355
 4462SOL    HW125019   1.661   2.894   6.867 -0.1177  0.8450 -0.3809
 4462SOL    HW225020   1.777   2.871   6.955  0.4582  1.5056 -0.4230
 4463SOL     OW25021   1.028   1.855   7.646  0.1397  0.7314 -0.3512
 4463SOL    HW125022   1.051   1.942   7.679  0.4311 -0.3041  2.1992
 4463SOL    HW225023   1.093   1.850   7.575 -0.8842 -0.0846 -1.2282
 4464SOL     OW25024   2.434   2.565  10.643  0.0936  0.1737 -0.1533
 4464SOL    HW125025   2.364   2.519  10.598  0.9305 -0.0626 -1.2024
 4464SOL    HW225026   2.392   2.639  10.687  0.5321  0.8605 -0.8881
 4465SOL     OW25027   2.467   2.646   5.882 -0.3084 -0.2726  0.1663
 4465SOL    HW125028   2.373   2.660   5.877 -0.1815  0.3751 -0.3747
 4465SOL    HW225029   2.487   2.652   5.976  0.9981 -0.0743 -0.1179
 4466SOL     OW25030   1.008   4.677  13.689 -0.2508 -0.1530 -0.1861
 4466SOL    HW125031   1.088   4.670  13.638  0.2131 -2.1166  0.8315
 4466SOL    HW225032   1.050   4.657  13.773 -0.9531  1.4538  0.5477
 4467SOL     OW25033   2.964   0.165  12.892 -0.1384  0.4113 -0.1170
 4467SOL    HW125034   2.985   0.131  12.978 -0.3215 -0.7811 -0.5481
 4467SOL    HW225035   2.990   0.256  12.905 -1.8380  0.8891 -0.0252
 4468SOL     OW25036   2.703   2.414   3.248 -0.4140  0.2478  0.3926
 4468SOL    HW125037   2.754   2.421   3.329  0.1464 -2.2157  0.2381
 4468SOL    HW225038   2.646   2.491   3.246 -1.5753 -0.6566 -1.3210
 4469SOL     OW25039   1.551   2.387  10.020  0.1237 -0.2180  0.2616
 4469SOL    HW125040   1.500   2.318   9.978 -1.3606  0.1821  1.4156
 4469SOL    HW225041   1.521   2.468   9.977  2.0320  0.7824  0.7955
 4470SOL     OW25042   3.455   0.805   3.040  0.5265  0.3705 -0.2598
 4470SOL    HW125043   3.402   0.785   3.117  1.0330  0.2536  0.0546
 4470SOL    HW225044   3.421   0.744   2.974  0.5330  0.2106 -0.1124
 4471SOL     OW25045   1.791   3.077   9.259 -0.0950  0.0038  0.0469
 4471SOL    HW125046   1.757   3.041   9.177 -1.8565 -1.7485  1.5369
 4471SOL    HW225047   1.800   2.995   9.308 -0.3053 -0.6499 -1.0132
 4472SOL     OW25048   1.582   0.434   2.282 -0.0184  0.2504  0.2402
 4472SOL    HW125049   1.510   0.492   2.306 -2.9726 -2.5956 -1.7567
 4472SOL    HW225050   1.614   0.482   2.206  2.2512  2.4241  2.5505
 4473SOL     OW25051   0.088   3.152   2.978  0.6870 -0.6378  0.3815
 4473SOL    HW125052   0.098   3.096   3.055 -1.0453 -0.7159  0.5656
 4473SOL    HW225053   0.144   3.226   2.999 -1.8452  1.1027  1.0475
 4474SOL     OW25054   0.959   4.518   4.928 -0.0185 -0.0309 -0.7424
 4474SOL    HW125055   0.976   4.608   4.899 -0.9985 -0.6793 -3.2761
 4474SOL    HW225056   1.048   4.483   4.928 -0.1262 -0.2898 -2.2548
 4475SOL     OW25057   2.153   1.956  13.638 -0.9654 -0.5256 -0.1383
 4475SOL    HW125058   2.069   1.967  13.594 -1.2518 -0.5220  0.4123
 4475SOL    HW225059   2.176   1.882  13.581 -2.3090 -0.2749 -1.0088
 4476SOL     OW25060   2.973   1.748  14.682 -0.1564 -0.1607 -0.0563
 4476SOL    HW125061   2.935   1.820  14.733  1.5600  0.6973  0.0033
 4476SOL    HW225062   2.896   1.721  14.632 -0.7621 -2.4613  2.1377
 4477SOL     OW25063   4.426   3.523   9.355  0.0500 -0.0663 -0.0355
 4477SOL    HW125064   4.346   3.485   9.392 -0.3318 -0.5732 -1.3832
 4477SOL    HW225065   4.487   3.453   9.379 -1.4620 -2.0602 -1.9535
 4478SOL     OW25066   1.400   4.440   2.536  0.1771  0.5661  0.1948
 4478SOL    HW125067   1.378   4.518   2.586  0.6659 -0.8451  2.6293
 4478SOL    HW225068   1.332   4.440   2.468 -0.5684  0.1673  0.9411
 4479SOL     OW25069   4.586   0.934   1.986 -0.5585 -0.1468 -0.0178
 4479SOL    HW125070   4.542   1.018   1.986 -1.6868 -0.7391 -0.3598
 4479SOL    HW225071   4.588   0.903   1.895  2.7239 -1.2927  0.4243
 4480SOL     OW25072   1.920   1.581   7.951 -0.2932 -0.0062 -0.0134
 4480SOL    HW125073   1.872   1.498   7.945 -0.6606  0.2493 -0.6076
 4480SOL    HW225074   1.983   1.559   7.882  0.4429 -1.2330  1.0587
 4481SOL     OW25075   0.299   3.863   2.325  0.2672  0.2494 -0.4981
 4481SOL    HW125076   0.247   3.943   2.332 -0.7921 -0.4817 -0.0836
 4481SOL    HW225077   0.299   3.827   2.414  2.1874 -0.7083 -0.8871
 4482SOL     OW25078   2.258   2.564   3.258 -0.5446  0.4477  0.2211
 4482SOL    HW125079   2.190   2.569   3.190  0.2137 -1.9703 -0.6911
 4482SOL    HW225080   2.207   2.529   3.331 -0.6122  1.1850  0.5271
 4483SOL     OW25081   0.877   1.093   9.741 -0.2548 -0.4334 -0.1874
 4483SOL    HW125082   0.912   1.178   9.716 -1.3822 -0.5901 -2.2432
 4483SOL    HW225083   0.871   1.054   9.654  2.1736  1.5499 -1.2392
 4484SOL     OW25084   4.112   0.646   4.565 -0.4374  0.8797 -0.1674
 4484SOL    HW125085   4.062   0.566   4.543 -0.0004  1.0935 -1.9561
 4484SOL    HW225086   4.059   0.713   4.522 -0.2426  1.5978  0.7286
 4485SOL     OW25087   2.618   2.449  17.726  0.3669  0.2737 -0.8040
 4485SOL    HW125088   2.705   2.444  17.686  0.5273 -0.1878 -0.3892
 4485SOL    HW225089   2.581   2.362  17.711 -0.7510  0.6001  0.0904
 4486SOL     OW25090   2.019   3.348   6.710  0.2491  0.2068  0.3553
 4486SOL    HW125091   2.089   3.411   6.692 -1.1322  1.7696  0.4685
 4486SOL    HW225092   1.948   3.412   6.712  0.1604  0.0831  0.9658
 4487SOL     OW25093   1.532   3.274  10.076  0.3547 -0.0827  0.9171
 4487SOL    HW125094   1.498   3.309  10.159 -1.7116  0.3629 -0.1322
 4487SOL    HW225095   1.624   3.270  10.105  1.3844  0.1475 -2.3660
 4488SOL     OW25096   0.875   1.701  13.276 -0.0908  0.1452 -0.3089
 4488SOL    HW125097   0.969   1.702  13.293 -0.1677 -1.2819  0.1882
 4488SOL    HW225098   0.843   1.697  13.366  1.6264  1.8641  0.3540
 4489SOL     OW25099   1.403   4.662   4.826 -0.0812  0.1205  0.3877
 4489SOL    HW125100   1.488   4.638   4.863  1.1432  0.3776 -2.2477
 4489SOL    HW225101   1.434   4.731   4.766  0.4720 -0.4912 -0.0359
 4490SOL     OW25102   3.272   1.220   5.149  0.5007  0.3143 -0.3178
 4490SOL    HW125103   3.323   1.294   5.182  3.2942 -1.1463 -1.3197
 4490SOL    HW225104   3.324   1.198   5.071 -1.0584  1.8282 -1.7715
 4491SOL     OW25105   1.310   3.934   9.829  0.5651 -0.7205  0.0988
 4491SOL    HW125106   1.375   3.893   9.886  1.2184  0.7604  0.4158
 4491SOL    HW225107   1.228   3.900   9.864 -0.1286  0.6485 -0.2229
 4492SOL     OW25108   4.532   3.955   4.625  0.0726  0.1173 -0.4083
 4492SOL    HW125109   4.499   3.984   4.710 -0.4200  0.9904 -0.8832
 4492SOL    HW225110   4.626   3.968   4.632  0.2114  0.0538 -2.1514
 4493SOL     OW25111   4.177   3.802  10.139 -0.3456 -0.1665 -0.6161
 4493SOL    HW125112   4.171   3.762  10.226  1.9749  2.7220  0.8881
 4493SOL    HW225113   4.087   3.797  10.109 -1.0203 -0.0135  1.3455
 4494SOL     OW25114   2.678   1.604  17.541  0.3613 -0.0081  0.0766
 4494SOL    HW125115   2.634   1.560  17.468 -0.1504 -0.7653  0.8379
 4494SOL    HW225116   2.717   1.677  17.493  0.2454  1.8582  2.8398
 4495SOL     OW25117   0.449   2.017   1.311 -0.1848  0.3982  0.1195
 4495SOL    HW125118   0.437   1.923   1.325 -1.1166  0.7472  1.6337
 4495SOL    HW225119   0.370   2.047   1.266 -1.2227 -0.4776  1.3777
 4496SOL     OW25120   2.803   2.885   6.689  0.4094  0.0234  0.4054
 4496SOL    HW125121   2.796   2.826   6.764  0.4124  1.8450  1.8228
 4496SOL    HW225122   2.897   2.880   6.672  0.3169 -0.7401  0.1071
 4497SOL     OW25123   3.909   4.379   4.001  0.5001 -0.2546 -0.2575
 4497SOL    HW125124   3.925   4.364   4.095  0.1983 -0.6590 -0.2700
 4497SOL    HW225125   3.980   4.329   3.961  1.2631  0.3451  0.3609
 4498SOL     OW25126   4.366   0.158   9.086  0.1124  0.1162  0.3335
 4498SOL    HW125127   4.414   0.226   9.133  0.5242  1.0822 -1.4693
 4498SOL    HW225128   4.306   0.122   9.151  2.5548  0.7121  2.9227
 4499SOL     OW25129   1.031   2.945   3.558 -0.0193 -0.0440 -0.6704
 4499SOL    HW125130   0.943   2.974   3.535 -0.1886  1.6053  2.0681
 4499SOL    HW225131   1.057   2.898   3.479  0.0776 -0.9671 -0.0818
 4500SOL     OW25132   4.162   1.580   8.308  0.5738 -0.3835 -0.3233
 4500SOL    HW125133   4.157   1.675   8.291  0.9348 -0.4335 -0.7022
 4500SOL    HW225134   4.175   1.580   8.403 -2.2423  1.1223  0.0701
 4501SOL     OW25135   4.311   0.363   1.712 -0.6370  0.2150 -0.0520
 4501SOL    HW125136   4.346   0.452   1.722 -0.0178  0.3695 -3.3005
 4501SOL    HW225137   4.225   0.362   1.753  0.0082  2.6036  1.3718
 4502SOL     OW25138   1.516   2.895  13.033 -0.2444  0.1020 -0.5492
 4502SOL    HW125139   1.460   2.972  13.029 -0.7401 -0.2428 -0.2573
 4502SOL    HW225140   1.452   2.834  13.069  2.2199 -2.0961  0.0700
 4503SOL     OW25141   4.115   1.813   2.589  0.3564 -0.1579  0.0420
 4503SOL    HW125142   4.026   1.791   2.617 -0.3766  0.0385 -2.1621
 4503SOL    HW225143   4.164   1.790   2.668  1.0796  1.6810  0.1164
 4504SOL     OW25144   1.169   2.018   0.130  0.1043 -0.4285  0.2124
 4504SOL    HW125145   1.134   2.049   0.047  1.2538  0.5201  0.0834
 4504SOL    HW225146   1.259   2.048   0.123 -0.5528  1.3255 -0.9275
 4505SOL     OW25147   0.809   4.516   4.355 -0.8148 -0.3098  0.4042
 4505SOL    HW125148   0.806   4.429   4.394  1.9871 -0.3541  0.5199
 4505SOL    HW225149   0.729   4.557   4.388 -1.3298 -1.6182  0.7964
 4506SOL     OW25150   3.136   0.400  12.134 -0.0818  0.2825 -0.3317
 4506SOL    HW125151   3.099   0.441  12.212  1.3639  1.4433 -0.2495
 4506SOL    HW225152   3.222   0.381  12.173  0.2163  4.6467  1.1120
 4507SOL     OW25153   1.480   1.657  13.645  0.0695 -0.1735 -0.2968
 4507SOL    HW125154   1.485   1.748  13.616 -1.0478 -0.7247 -2.1473
 4507SOL    HW225155   1.570   1.653  13.677  0.3101 -0.1789 -0.9755
 4508SOL     OW25156   1.354   1.099   2.852  0.2992  0.6885 -0.1092
 4508SOL    HW125157   1.340   1.191   2.832  0.0592  0.8903  0.9944
 4508SOL    HW225158   1.260   1.076   2.851  0.4115  0.2203 -0.0261
 4509SOL     OW25159   0.081   4.726   8.352 -0.5312 -0.7414  0.0994
 4509SOL    HW125160   0.151   0.016   8.295 -0.3262  0.8818  1.2966
 4509SOL    HW225161   0.011   0.045   8.334  0.1773 -0.3089 -1.1543
 4510SOL     OW25162   1.990   3.788   8.640  0.3083 -0.3558 -0.3837
 4510SOL    HW125163   1.985   3.756   8.730  1.5764 -0.4857 -0.3480
 4510SOL    HW225164   1.910   3.744   8.612  0.0483  0.9032 -1.6362
 4511SOL     OW25165   4.567   1.265   4.865 -0.4306  0.0056 -0.2000
 4511SOL    HW125166   4.531   1.218   4.940  1.1047 -1.1992 -0.2083
 4511SOL    HW225167   4.571   1.355   4.898  0.5261  0.8447 -2.6409
 4512SOL     OW25168   3.832   2.371  15.151 -0.0325 -0.0801 -0.4560
 4512SOL    HW125169   3.748   2.326  15.147  0.3778 -0.8289 -0.6623
 4512SOL    HW225170   3.801   2.459  15.174  0.1981  0.2186 -1.2887
 4513SOL     OW25171   0.538   0.534   5.173  0.7735 -0.0144 -0.1238
 4513SOL    HW125172   0.513   0.607   5.115 -1.6471  0.2172  1.1934
 4513SOL    HW225173   0.574   0.476   5.106 -2.7700 -2.0633 -0.2449
 4514SOL     OW25174   4.151   1.070  15.354 -0.0752  0.4335  0.2482
 4514SOL    HW125175   4.055   1.078  15.350 -0.3265 -3.0972 -0.9815
 4514SOL    HW225176   4.160   0.994  15.412  1.9046  0.1422 -0.4609
 4515SOL     OW25177   1.282   1.028   9.476  0.6497  0.7036 -0.5005
 4515SOL    HW125178   1.282   0.935   9.453  2.3751  0.3913  0.8224
 4515SOL    HW225179   1.241   1.060   9.395 -1.3640 -1.1229 -0.2063
 4516SOL     OW25180   4.318   1.820   8.149  0.5112 -0.5193  0.3410
 4516SOL    HW125181   4.404   1.860   8.163  0.1158  0.3414  0.3493
 4516SOL    HW225182   4.259   1.893   8.129  1.7164  0.9844  2.2499
 4517SOL     OW25183   3.361   2.122   8.604  0.6567  0.3633  0.1946
 4517SOL    HW125184   3.410   2.041   8.610 -0.4245 -0.2485  0.7518
 4517SOL    HW225185   3.326   2.127   8.693 -0.5666  2.3378 -0.3975
 4518SOL     OW25186   3.068   2.684   2.847 -0.2316  0.3068 -0.9524
 4518SOL    HW125187   3.062   2.777   2.829  1.1635  0.8617  1.4433
 4518SOL    HW225188   2.985   2.660   2.888  0.8450  0.9448  1.5994
 4519SOL     OW25189   0.274   3.968  12.780  0.0426  0.0963  0.6735
 4519SOL    HW125190   0.265   3.896  12.842  1.0029  0.0521  0.7603
 4519SOL    HW225191   0.271   4.039  12.845  0.3662  0.8070 -0.0855
 4520SOL     OW25192   2.486   0.177   4.206 -0.1954 -0.0160  0.0206
 4520SOL    HW125193   2.486   0.162   4.301 -0.2229 -0.7504 -0.0896
 4520SOL    HW225194   2.546   0.106   4.181 -2.0234 -1.4439 -0.2895
 4521SOL     OW25195   0.575   0.434   3.805 -0.1891  0.1789  0.2230
 4521SOL    HW125196   0.535   0.416   3.719  0.1942 -0.2950  0.1486
 4521SOL    HW225197   0.666   0.439   3.776  0.7214  0.8664  3.1858
 4522SOL     OW25198   2.715   3.720  11.952 -0.2710 -0.4872 -0.5064
 4522SOL    HW125199   2.784   3.743  11.890 -1.7085 -0.2791 -2.0266
 4522SOL    HW225200   2.646   3.681  11.898 -0.7411  0.7888 -0.8346
 4523SOL     OW25201   2.615   4.035   2.453  0.1209 -0.4560 -0.7521
 4523SOL    HW125202   2.707   4.025   2.430  0.8616  3.4149  0.4490
 4523SOL    HW225203   2.578   3.947   2.454  0.8662 -0.7893 -2.5167
 4524SOL     OW25204   3.070   0.792   4.294  0.5846  0.1948  0.3755
 4524SOL    HW125205   3.152   0.793   4.343  0.1566 -4.3871  1.1267
 4524SOL    HW225206   3.010   0.792   4.369  0.1582  1.5597  0.0415
 4525SOL     OW25207   0.904   1.877   1.955 -0.1655  0.0560 -0.2621
 4525SOL    HW125208   0.967   1.936   1.913 -0.2410 -1.2415 -2.2257
 4525SOL    HW225209   0.841   1.943   1.982 -1.5788 -1.5167  0.2849
 4526SOL     OW25210   2.278   3.997   8.967 -0.0960  0.1652  0.2013
 4526SOL    HW125211   2.282   3.913   9.011 -2.1277 -1.2547 -2.3506
 4526SOL    HW225212   2.366   3.999   8.928  0.3414 -0.2331  1.1614
 4527SOL     OW25213   3.018   0.519   6.649  0.1184 -0.0140 -0.3967
 4527SOL    HW125214   3.101   0.486   6.684 -0.0980 -1.1821 -0.9780
 4527SOL    HW225215   2.963   0.441   6.636 -1.4968  0.8056  1.4932
 4528SOL     OW25216   3.593   2.369   2.855  0.0512  0.1770 -0.3524
 4528SOL    HW125217   3.641   2.363   2.938  2.6066 -2.2203 -2.0155
 4528SOL    HW225218   3.516   2.315   2.874  0.8486 -0.8894 -0.1359
 4529SOL     OW25219   2.978   3.137   7.764  0.3543  0.6490 -0.5099
 4529SOL    HW125220   2.952   3.229   7.754 -0.1567  0.6557  0.8259
 4529SOL    HW225221   3.014   3.141   7.853 -0.1476 -0.4710 -0.2569
 4530SOL     OW25222   1.706   0.509  15.996  0.0207 -0.4217  0.6945
 4530SOL    HW125223   1.623   0.477  16.030 -0.7792 -0.8378 -1.6568
 4530SOL    HW225224   1.677   0.577  15.936 -0.3400 -0.7112  0.5365
 4531SOL     OW25225   2.628   1.191   1.884  0.0565 -0.6267  0.3729
 4531SOL    HW125226   2.698   1.247   1.915 -2.0801  1.5099  1.3424
 4531SOL    HW225227   2.671   1.106   1.876  0.0883 -0.6497  0.8084
 4532SOL     OW25228   0.134   4.004   2.683  0.0664  0.2533 -0.6687
 4532SOL    HW125229   0.137   4.067   2.754  0.1503 -0.0840 -0.3764
 4532SOL    HW225230   0.219   4.023   2.643  0.3353 -0.0313 -0.2247
 4533SOL     OW25231   1.206   2.379  14.352  0.9078  0.3342 -0.8209
 4533SOL    HW125232   1.238   2.451  14.407  0.4971  0.5058 -0.8076
 4533SOL    HW225233   1.274   2.312  14.346 -1.1437 -1.7799 -0.2265
 4534SOL     OW25234   2.083   0.895   1.357 -0.3782 -0.7416  0.2200
 4534SOL    HW125235   2.085   0.936   1.271 -0.1985  1.5287  1.2763
 4534SOL    HW225236   1.991   0.909   1.381 -0.0439 -1.3987  1.9082
 4535SOL     OW25237   0.926   3.131   3.162  0.5859 -0.1853 -0.4150
 4535SOL    HW125238   0.917   3.078   3.083 -1.6464 -0.6365  0.1393
 4535SOL    HW225239   1.013   3.101   3.187  0.4037 -0.3493  0.0189
 4536SOL     OW25240   3.662   0.669  16.696  0.0220 -0.1788  0.0166
 4536SOL    HW125241   3.596   0.738  16.693 -0.6730 -0.9668 -2.7944
 4536SOL    HW225242   3.668   0.637  16.606  0.9585  2.8791 -1.0085
 4537SOL     OW25243   3.790   1.406   6.512 -0.4184  0.3276  0.7827
 4537SOL    HW125244   3.882   1.431   6.506 -0.3206 -0.1950  0.1581
 4537SOL    HW225245   3.795   1.312   6.498  0.5179 -0.0294  3.3767
 4538SOL     OW25246   3.485   0.948   7.896 -0.4594 -0.4210 -0.2705
 4538SOL    HW125247   3.449   1.029   7.934  0.7504 -0.0591  0.1357
 4538SOL    HW225248   3.408   0.892   7.898 -1.1063  0.4302 -1.5376
 4539SOL     OW25249   2.117   3.098   4.397 -0.2499 -0.2293 -0.4064
 4539SOL    HW125250   2.181   3.102   4.468 -0.2767  1.5221 -0.4875
 4539SOL    HW225251   2.076   3.184   4.403  0.7371  0.1831  0.4972
 4540SOL     OW25252   0.922   3.643   4.063 -0.5124  0.6683  0.3071
 4540SOL    HW125253   1.001   3.672   4.016 -1.0259  0.3737 -0.7356
 4540SOL    HW225254   0.947   3.623   4.153 -3.2301 -0.6694  0.7532
 4541SOL     OW25255   0.722   1.004   8.645  0.3608 -0.7488 -0.4521
 4541SOL    HW125256   0.779   0.936   8.681 -2.0642 -1.7479  1.4668
 4541SOL    HW225257   0.645   0.947   8.646 -1.2019  1.3752  0.0779
 4542SOL     OW25258   3.905   3.310   8.008  0.2724  0.2747  0.2182
 4542SOL    HW125259   3.882   3.228   7.964 -0.4317 -0.2640  1.5880
 4542SOL    HW225260   3.910   3.279   8.098  0.0688 -1.7746 -0.4840
 4543SOL     OW25261   3.142   4.066   5.946 -0.3065 -0.4539 -0.3465
 4543SOL    HW125262   3.055   4.067   5.984 -1.3449 -0.6177 -2.6895
 4543SOL    HW225263   3.185   4.145   5.978 -0.4005 -0.6461  0.2501
 4544SOL     OW25264   1.022   1.955   5.729 -0.1981 -0.5608  0.6409
 4544SOL    HW125265   1.086   1.931   5.662 -0.4110 -1.7152  0.8577
 4544SOL    HW225266   1.080   1.984   5.800  1.8547  1.6226 -1.9489
 4545SOL     OW25267   1.056   3.838  10.011 -0.2534 -0.1350 -0.3227
 4545SOL    HW125268   1.059   3.926  10.049 -2.3801  0.0252 -0.5308
 4545SOL    HW225269   0.995   3.792  10.069 -0.3460 -0.4637 -0.6807
 4546SOL     OW25270   4.246   0.982   4.329  0.6124 -0.0967  0.3235
 4546SOL    HW125271   4.243   1.000   4.235  1.5507  0.9446  0.4854
 4546SOL    HW225272   4.319   1.034   4.362  0.6817 -0.4288  0.6938
 4547SOL     OW25273   0.339   4.542   3.326 -0.0263  0.3767  0.3419
 4547SOL    HW125274   0.282   4.524   3.401  1.1222 -1.5277  0.7743
 4547SOL    HW225275   0.279   4.528   3.253  0.1988 -0.8241  0.3878
 4548SOL     OW25276   0.052   1.583   3.168  0.5420 -0.6517  0.0078
 4548SOL    HW125277   0.039   1.668   3.127  2.1717 -0.4427 -0.0827
 4548SOL    HW225278   0.104   1.547   3.096  1.0443  1.2479 -0.5754
 4549SOL     OW25279   3.227   0.794   9.559  0.1501  0.2884 -0.3338
 4549SOL    HW125280   3.154   0.856   9.571 -0.0760  0.0291 -0.3720
 4549SOL    HW225281   3.271   0.827   9.481 -0.4845 -0.7931 -1.1394
 4550SOL     OW25282   3.022   3.007   6.123  0.0229  0.0863 -0.2632
 4550SOL    HW125283   2.940   2.957   6.123  1.3698 -2.1296  0.2097
 4550SOL    HW225284   3.047   2.998   6.031 -1.7091 -0.5368 -0.6781
 4551SOL     OW25285   3.308   0.237   7.434  0.0957  0.2178 -0.8746
 4551SOL    HW125286   3.284   0.210   7.522 -1.8434 -0.0237 -1.4713
 4551SOL    HW225287   3.400   0.210   7.428 -0.2866 -1.5539  1.3295
 4552SOL     OW25288   1.351   2.419   5.829  0.1117  0.0386  0.4001
 4552SOL    HW125289   1.412   2.418   5.754 -0.6439 -0.3944 -0.2046
 4552SOL    HW225290   1.360   2.513   5.845 -0.5630  0.7903 -3.4618
 4553SOL     OW25291   2.136   0.330   1.323  0.1698 -0.0079 -0.7603
 4553SOL    HW125292   2.138   0.272   1.247  2.5971  0.0215 -0.7183
 4553SOL    HW225293   2.164   0.277   1.397  0.3950 -0.6069 -1.2745
 4554SOL     OW25294   0.324   1.939   6.516  0.0249 -0.1441  0.4059
 4554SOL    HW125295   0.342   1.983   6.600 -0.0649  2.2367 -0.8018
 4554SOL    HW225296   0.261   2.005   6.488  1.0158  1.5306  2.0931
 4555SOL     OW25297   3.983   3.253   8.566 -0.3206  0.0066 -0.3671
 4555SOL    HW125298   4.036   3.286   8.639  0.5872  0.6844 -1.3462
 4555SOL    HW225299   3.895   3.290   8.580  0.0047  0.7262 -0.2205
 4556SOL     OW25300   2.013   2.436   5.770  0.3094 -0.0924  0.1542
 4556SOL    HW125301   2.073   2.498   5.727 -1.3539 -0.8185 -3.1620
 4556SOL    HW225302   2.074   2.363   5.763  0.1092 -0.2102 -0.3439
 4557SOL     OW25303   4.359   0.632   5.637 -0.2734  0.3078  0.5122
 4557SOL    HW125304   4.373   0.632   5.543  1.0450  1.5870  0.7214
 4557SOL    HW225305   4.444   0.665   5.665  0.1506 -1.2268  1.0728
 4558SOL     OW25306   2.533   4.699   7.069 -0.6557  0.0649  0.1966
 4558SOL    HW125307   2.486   4.668   6.992  1.4612  0.5550 -1.2717
 4558SOL    HW225308   2.484   4.667   7.145  3.1096 -1.2242  2.0674
 4559SOL     OW25309   3.131   0.518   9.488 -0.5102  0.1519  0.4687
 4559SOL    HW125310   3.161   0.598   9.529 -0.6633  1.1482 -1.3495
 4559SOL    HW225311   3.036   0.530   9.485 -0.7302 -1.5080  0.6520
 4560SOL     OW25312   0.142   4.092   2.367  0.2653  0.2690 -0.0086
 4560SOL    HW125313   0.218   4.149   2.358 -0.3659  1.2625  0.8665
 4560SOL    HW225314   0.126   4.095   2.462  0.4084 -2.7198  0.1084
 4561SOL     OW25315   0.559   0.243   7.384  0.4977 -0.2860 -0.5374
 4561SOL    HW125316   0.634   0.301   7.400 -1.0524  0.9672  2.2931
 4561SOL    HW225317   0.511   0.301   7.324  0.6940  0.1340 -0.2899
 4562SOL     OW25318   3.051   3.359   5.325  0.7844 -0.3426 -0.2881
 4562SOL    HW125319   3.026   3.348   5.417 -0.3232  0.5884 -0.4671
 4562SOL    HW225320   3.074   3.271   5.298  0.4213 -0.1388 -1.2465
 4563SOL     OW25321   1.766   4.602   5.741 -0.1054 -0.0573  0.3888
 4563SOL    HW125322   1.819   4.527   5.769  1.9153  0.3072 -2.5048
 4563SOL    HW225323   1.679   4.577   5.773  0.0714 -0.6082  0.4473
 4564SOL     OW25324   0.975   4.657   3.505  0.6330 -0.0447  0.5923
 4564SOL    HW125325   0.944   4.591   3.443  0.9115 -0.0342  0.4443
 4564SOL    HW225326   1.023   4.597   3.562 -1.7287 -1.6277  0.9221
 4565SOL     OW25327   2.857   2.655   4.619 -0.3039 -0.2876 -0.1536
 4565SOL    HW125328   2.910   2.576   4.617 -1.5661 -1.1030 -1.7700
 4565SOL    HW225329   2.792   2.627   4.683 -0.4061  1.2333  0.3992
 4566SOL     OW25330   0.530   4.325   7.117 -0.0742 -0.1026 -0.0129
 4566SOL    HW125331   0.583   4.401   7.095 -2.1695  0.4536 -3.1402
 4566SOL    HW225332   0.498   4.344   7.205  0.5606 -0.3361  0.2697
 4567SOL     OW25333   4.618   4.039   6.339 -0.0705  0.1041  0.3799
 4567SOL    HW125334   4.537   4.005   6.301 -0.8028 -0.2984  2.3206
 4567SOL    HW225335   4.655   3.966   6.389  0.4077  0.6736  0.8595
 4568SOL     OW25336   3.492   3.687  14.691 -0.3311 -0.1737  0.1969
 4568SOL    HW125337   3.499   3.652  14.602  1.8390 -2.3237  1.2171
 4568SOL    HW225338   3.469   3.610  14.742 -1.0258 -0.0609  0.0571
 4569SOL     OW25339   1.221   1.973  14.742  0.3080  0.3487  0.7053
 4569SOL    HW125340   1.205   2.006  14.653  0.4689  1.6313  1.1562
 4569SOL    HW225341   1.197   2.052  14.790 -0.4217  0.7347 -0.2870
 4570SOL     OW25342   1.199   1.403  11.797  0.0064  0.2302 -0.6226
 4570SOL    HW125343   1.248   1.339  11.746  0.4575  0.3312 -0.3089
 4570SOL    HW225344   1.114   1.391  11.754 -1.0347 -1.2498  1.8346
 4571SOL     OW25345   3.592   2.479  13.947 -0.4371  0.0314  0.2810
 4571SOL    HW125346   3.647   2.525  13.883  0.6297  1.1782  2.0489
 4571SOL    HW225347   3.544   2.548  13.992  0.0133  0.7141 -0.2837
 4572SOL     OW25348   3.685   0.406  16.528 -0.3333  0.0422 -0.1469
 4572SOL    HW125349   3.746   0.396  16.600 -0.2689  1.4429 -0.0134
 4572SOL    HW225350   3.741   0.440  16.458  0.4532  2.0061  1.4487
 4573SOL     OW25351   3.771   1.988  15.926  0.4121 -0.0854 -0.7902
 4573SOL    HW125352   3.695   2.045  15.940  1.8178  1.8126 -0.8343
 4573SOL    HW225353   3.782   2.004  15.832  0.2333  0.7034 -0.6728
 4574SOL     OW25354   0.108   1.915   7.661  0.1697  0.2027  0.0656
 4574SOL    HW125355   0.021   1.953   7.653  0.2407  0.2971 -0.2397
 4574SOL    HW225356   0.086   1.826   7.688 -1.4574  1.2795  2.2852
 4575SOL     OW25357   0.224   1.064  17.053 -0.0794 -0.2827 -0.5498
 4575SOL    HW125358   0.231   1.141  17.110 -2.7963 -1.1541  0.9756
 4575SOL    HW225359   0.306   1.021  17.078 -0.6546  0.0760  1.9203
 4576SOL     OW25360   3.367   0.563  15.137  0.2224  0.1734 -0.2858
 4576SOL    HW125361   3.343   0.611  15.058 -2.1770  1.5416  1.2764
 4576SOL    HW225362   3.332   0.622  15.204  0.3537 -0.6668  0.5217
 4577SOL     OW25363   0.982   1.848   4.990  0.3716  0.2021  0.3797
 4577SOL    HW125364   1.043   1.920   4.979 -0.2319  0.4720 -1.2964
 4577SOL    HW225365   0.905   1.904   4.980 -0.0900 -0.5090 -0.0641
 4578SOL     OW25366   0.039   3.932   7.375  0.1326 -0.1331  0.3140
 4578SOL    HW125367   0.053   4.026   7.365 -0.2849  0.0252  1.2731
 4578SOL    HW225368   0.127   3.907   7.404  0.2257  0.5867  0.6379
 4579SOL     OW25369   3.424   3.967   9.348 -0.0974  0.7422 -0.4507
 4579SOL    HW125370   3.482   4.043   9.337  0.8221  0.2420  0.8653
 4579SOL    HW225371   3.337   4.005   9.356 -0.0570  0.2466  2.2992
 4580SOL     OW25372   4.142   3.067   4.596  0.0492  0.0010  0.3362
 4580SOL    HW125373   4.095   3.140   4.554 -0.7270 -0.2373  0.8080
 4580SOL    HW225374   4.093   3.066   4.678 -1.4385 -0.5069 -0.5661
 4581SOL     OW25375   0.175   3.824  14.900 -1.4232  0.1962 -0.2157
 4581SOL    HW125376   0.217   3.903  14.935 -1.0331  0.8381 -2.1384
 4581SOL    HW225377   0.090   3.827  14.945 -2.2030 -0.9057 -1.6194
 4582SOL     OW25378   4.367   3.660   2.390 -0.0978  0.0879  0.3724
 4582SOL    HW125379   4.412   3.676   2.474  0.9404  0.1339 -0.1858
 4582SOL    HW225380   4.417   3.724   2.339 -0.0419  0.0307  0.3551
 4583SOL     OW25381   1.381   0.209  15.810  0.0157 -0.1022  0.9675
 4583SOL    HW125382   1.350   0.129  15.767  0.0888  1.2284 -1.5537
 4583SOL    HW225383   1.321   0.280  15.787 -0.3919 -0.8369 -0.2211
 4584SOL     OW25384   3.377   4.630   5.984  0.5556  0.1454  0.9217
 4584SOL    HW125385   3.435   4.594   5.917  0.6583  1.7991  0.1071
 4584SOL    HW225386   3.405   4.721   5.999  0.3939  0.4375 -0.5141
 4585SOL     OW25387   2.920   0.351   7.415 -0.5034  0.4237  0.8584
 4585SOL    HW125388   2.883   0.267   7.442  0.3656 -0.1642  0.2138
 4585SOL    HW225389   2.951   0.386   7.498  1.2797 -1.1582  0.8513
 4586SOL     OW25390   2.941   0.716   8.944 -0.2842 -0.2714  0.7425
 4586SOL    HW125391   2.861   0.738   8.896  0.2949  1.2906  0.5075
 4586SOL    HW225392   2.911   0.638   8.990 -0.0304 -0.6213  0.3185
 4587SOL     OW25393   2.591   2.152   8.267  0.7719 -0.2182  0.3346
 4587SOL    HW125394   2.566   2.178   8.355 -0.2381 -4.4863  1.3031
 4587SOL    HW225395   2.614   2.063   8.295  0.7172  0.6089  2.9305
 4588SOL     OW25396   0.440   1.416  16.276 -0.0141  0.5490  0.1144
 4588SOL    HW125397   0.406   1.328  16.292  0.1045  0.5222  0.2204
 4588SOL    HW225398   0.435   1.456  16.363 -1.5284  0.9903 -0.1909
 4589SOL     OW25399   0.153   4.447  11.005  0.1044  0.1290  0.0812
 4589SOL    HW125400   0.167   4.461  10.911  1.2282 -0.1948  0.2083
 4589SOL    HW225401   0.076   4.392  10.989 -0.1132 -0.1631  2.1245
 4590SOL     OW25402   3.222   1.685  15.102 -0.0086 -0.0607 -0.1605
 4590SOL    HW125403   3.129   1.669  15.091 -0.2727  1.9624 -0.9741
 4590SOL    HW225404   3.221   1.731  15.186  0.5039  1.2568 -0.8679
 4591SOL     OW25405   4.406   3.937   6.227  0.3573  0.1328 -0.0097
 4591SOL    HW125406   4.314   3.913   6.231  0.0070  1.1069 -1.9396
 4591SOL    HW225407   4.424   3.903   6.139 -1.3668 -1.6054  0.3130
 4592SOL     OW25408   3.246   0.826   7.881 -0.2905  0.2423 -0.3989
 4592SOL    HW125409   3.186   0.810   7.953 -0.4507  1.7015 -0.2057
 4592SOL    HW225410   3.201   0.880   7.816  0.6159 -0.4597 -1.6122
 4593SOL     OW25411   1.657   2.658   2.874 -0.5387  0.1373 -0.1225
 4593SOL    HW125412   1.674   2.695   2.787 -2.8061 -1.4499 -1.2325
 4593SOL    HW225413   1.642   2.566   2.850  1.6361 -0.6127  1.3788
 4594SOL     OW25414   0.849   1.786   4.437  0.2078 -0.4649 -0.4302
 4594SOL    HW125415   0.817   1.762   4.525  1.8002  2.4475  0.9244
 4594SOL    HW225416   0.792   1.859   4.415 -0.0005 -0.7124 -0.7205
 4595SOL     OW25417   3.421   0.783   4.281  0.0194  0.0717  0.8614
 4595SOL    HW125418   3.390   0.810   4.194 -1.2310 -0.6583  1.0785
 4595SOL    HW225419   3.429   0.688   4.270  0.5638  0.0680  1.2618
 4596SOL     OW25420   3.797   3.985  15.404  0.0542 -0.1204  0.4129
 4596SOL    HW125421   3.806   4.002  15.498  0.9171  1.1257  0.1036
 4596SOL    HW225422   3.718   4.038  15.390  0.9862  0.8643 -0.9967
 4597SOL     OW25423   0.023   2.489   6.855 -0.1732  0.4086 -0.3609
 4597SOL    HW125424   4.743   2.409   6.808 -1.6588  0.2357  0.6701
 4597SOL    HW225425   4.681   2.531   6.854 -1.5733 -2.4535 -1.2005
 4598SOL     OW25426   1.540   0.598   5.320  0.2875  0.3578 -0.2585
 4598SOL    HW125427   1.488   0.572   5.396  1.4384 -2.1287 -0.3387
 4598SOL    HW225428   1.586   0.520   5.289 -0.2500  0.9496 -2.5808
 4599SOL     OW25429   1.571   3.867   5.292 -0.0048 -0.2241 -0.2354
 4599SOL    HW125430   1.574   3.921   5.213 -2.6431 -2.7539 -2.0572
 4599SOL    HW225431   1.601   3.783   5.257  0.9988 -0.6318  1.5826
 4600SOL     OW25432   0.849   4.456   6.489  0.5407 -0.3461 -0.4116
 4600SOL    HW125433   0.924   4.514   6.472 -0.7461  1.1586 -0.9300
 4600SOL    HW225434   0.781   4.516   6.460  0.2591  0.4022  1.8726
 4601SOL     OW25435   4.695   2.208  10.209  0.1071  0.1012  0.4204
 4601SOL    HW125436   4.719   2.159  10.288 -2.0650  1.6410  2.0399
 4601SOL    HW225437   4.641   2.276  10.250 -3.3468 -2.4146  0.1397
 4602SOL     OW25438   2.316   1.666   3.400 -0.1105 -0.2753  0.2368
 4602SOL    HW125439   2.398   1.687   3.355  1.0043  1.7519  3.1327
 4602SOL    HW225440   2.349   1.634   3.484  0.6481  0.4144  0.2036
 4603SOL     OW25441   1.855   1.916   3.892 -0.3464  0.1437  0.0355
 4603SOL    HW125442   1.796   1.847   3.863 -1.2540  0.8572  0.1796
 4603SOL    HW225443   1.813   1.953   3.969 -1.4239 -1.1187  0.0377
 4604SOL     OW25444   1.492   0.371   7.848 -0.4211 -0.1616 -0.2125
 4604SOL    HW125445   1.581   0.407   7.851  0.3008 -1.8853 -1.2136
 4604SOL    HW225446   1.491   0.297   7.788  0.5929 -0.1655 -0.2349
 4605SOL     OW25447   4.108   4.151   4.712 -0.9162 -0.5248 -0.0335
 4605SOL    HW125448   4.188   4.147   4.766 -1.5294 -2.8500  0.7030
 4605SOL    HW225449   4.098   4.058   4.690 -0.3121 -0.1290 -1.9607
 4606SOL     OW25450   0.072   4.225   6.316 -0.4414  0.6584  0.1568
 4606SOL    HW125451   0.079   4.161   6.245  1.2098  0.0794  0.8229
 4606SOL    HW225452   0.025   4.167   6.376  0.9781  1.7601  2.3557
 4607SOL     OW25453   3.769   4.035   5.705 -0.2910  1.0375  0.2783
 4607SOL    HW125454   3.724   4.083   5.776  0.4131 -0.5823  1.8174
 4607SOL    HW225455   3.776   3.949   5.745 -0.4331  0.9317  0.0707
 4608SOL     OW25456   2.738   1.030   3.849  0.0440 -0.4031  0.1375
 4608SOL    HW125457   2.707   1.061   3.934 -1.0078 -1.2389  0.0657
 4608SOL    HW225458   2.663   1.055   3.795 -0.3167  0.7209  1.1624
 4609SOL     OW25459   3.626   3.500   2.356 -0.3465 -0.1842 -0.0259
 4609SOL    HW125460   3.712   3.495   2.399  0.9147 -2.5624 -2.7554
 4609SOL    HW225461   3.607   3.588   2.388  2.0851  0.0504  0.8254
 4610SOL     OW25462   2.467   4.567  14.073 -0.2284  0.3135  0.1599
 4610SOL    HW125463   2.554   4.578  14.033 -1.3897  0.4639 -2.3404
 4610SOL    HW225464   2.461   4.645  14.128  0.2182  0.7979 -0.4761
 4611SOL     OW25465   3.228   1.811  12.874  0.1271 -0.0539 -0.0390
 4611SOL    HW125466   3.277   1.878  12.826 -0.5496  0.8452  0.5199
 4611SOL    HW225467   3.234   1.853  12.959  1.8021 -0.5072  0.0533
 4612SOL     OW25468   0.257   1.301   7.522 -0.0989 -0.0379 -0.1338
 4612SOL    HW125469   0.188   1.363   7.544 -0.0114 -0.1643  0.4956
 4612SOL    HW225470   0.242   1.284   7.429 -3.1137  1.2113  0.1133
 4613SOL     OW25471   0.259   1.688   8.580  0.2752  0.2597  0.6179
 4613SOL    HW125472   0.208   1.623   8.532  2.2656 -0.1755 -0.9427
 4613SOL    HW225473   0.219   1.775   8.573  0.5214  0.1995 -1.5466
 4614SOL     OW25474   3.131   0.471   2.350  0.3927  0.1836 -1.3337
 4614SOL    HW125475   3.073   0.408   2.305 -0.4062  0.7702 -1.1317
 4614SOL    HW225476   3.129   0.548   2.293 -1.6174  1.2915  0.1968
 4615SOL     OW25477   1.836   1.616  10.646 -0.0038  0.1475  0.1211
 4615SOL    HW125478   1.795   1.530  10.645  0.3172 -0.0249  1.7815
 4615SOL    HW225479   1.893   1.602  10.721  0.5904 -1.8330 -0.6963
 4616SOL     OW25480   1.398   0.533   1.354  0.1655 -0.0012 -0.0248
 4616SOL    HW125481   1.420   0.496   1.439 -2.1068  1.4998  1.2214
 4616SOL    HW225482   1.303   0.528   1.367  0.0302  0.6715 -0.7152
 4617SOL     OW25483   1.388   4.631  13.340  0.4464  0.1935 -0.0649
 4617SOL    HW125484   1.443   4.553  13.341  0.6075  0.3154  1.5654
 4617SOL    HW225485   1.454   4.699  13.348 -0.8653  1.3754  0.8048
 4618SOL     OW25486   1.000   1.366   3.002 -0.2716 -0.1856 -0.0237
 4618SOL    HW125487   1.076   1.343   3.056  0.7712 -1.8399 -2.2026
 4618SOL    HW225488   1.031   1.352   2.913  0.9210  0.0814  0.3537
 4619SOL     OW25489   4.600   0.274   2.918  0.2089  0.4854 -0.0463
 4619SOL    HW125490   4.600   0.186   2.882 -2.3911  0.5490 -0.1629
 4619SOL    HW225491   4.691   0.301   2.904  0.7279 -0.8981  0.6737
 4620SOL     OW25492   4.012   1.710  14.540  0.3957  0.3401  0.3797
 4620SOL    HW125493   4.025   1.689  14.448 -2.5712  1.9374 -0.4045
 4620SOL    HW225494   4.105   1.722  14.559  1.2781 -2.4409 -2.2526
 4621SOL     OW25495   2.579   4.248   3.450 -0.7784 -0.4334  0.6269
 4621SOL    HW125496   2.568   4.236   3.545 -1.0410 -3.2343  0.2288
 4621SOL    HW225497   2.669   4.282   3.449 -0.7124 -0.6573 -0.4525
 4622SOL     OW25498   1.736   4.227   9.280 -0.2674  0.2618  0.5533
 4622SOL    HW125499   1.651   4.192   9.252  0.8174  0.2667 -2.6513
 4622SOL    HW225500   1.703   4.309   9.317 -0.9930 -0.5549  1.7041
 4623SOL     OW25501   1.026   3.771   1.640 -0.7870  0.2430  0.4162
 4623SOL    HW125502   0.984   3.829   1.577 -0.1147  0.3122  0.0277
 4623SOL    HW225503   0.967   3.772   1.716 -0.8528 -0.6400  0.3766
 4624SOL     OW25504   2.107   3.859   4.137  0.0182 -0.3279  0.0652
 4624SOL    HW125505   2.180   3.833   4.194 -0.5260 -0.2204  0.8022
 4624SOL    HW225506   2.068   3.779   4.100  0.1477  1.1261 -3.2349
 4625SOL     OW25507   3.042   0.118  11.032  0.0996 -0.1418  0.2770
 4625SOL    HW125508   2.975   0.058  11.065 -1.0741  0.9954 -0.0935
 4625SOL    HW225509   3.113   0.054  11.023  0.8902  1.1178 -2.3150
 4626SOL     OW25510   3.214   3.934   6.478 -0.3512 -0.1931 -0.2365
 4626SOL    HW125511   3.137   3.896   6.520  0.6542 -2.4902 -0.4916
 4626SOL    HW225512   3.240   3.992   6.550 -1.6024  0.6730 -0.4720
 4627SOL     OW25513   4.124   3.051   4.161 -0.6349 -0.1854  0.3992
 4627SOL    HW125514   4.166   3.112   4.222  0.3205  1.5494 -1.9965
 4627SOL    HW225515   4.052   3.018   4.215 -1.1133  0.2438  0.0275
 4628SOL     OW25516   2.816   4.526   8.427  0.4087  0.2696 -0.6650
 4628SOL    HW125517   2.818   4.594   8.495  0.8433  0.1995 -0.6068
 4628SOL    HW225518   2.741   4.558   8.377 -0.5848 -3.5324 -1.5464
 4629SOL     OW25519   2.786   2.291   4.040  0.5406  0.2244  0.0991
 4629SOL    HW125520   2.845   2.306   3.967 -2.7572  1.8925 -2.2255
 4629SOL    HW225521   2.759   2.381   4.058  0.3466  0.1635  0.1195
 4630SOL     OW25522   1.213   4.676  13.536  0.9275  0.7325 -0.1555
 4630SOL    HW125523   1.305   4.687  13.558  1.5668 -0.9556 -2.0150
 4630SOL    HW225524   1.219   4.653  13.444  0.1514  0.6677 -0.1907
 4631SOL     OW25525   3.055   0.357   4.912  0.0216  0.2994  0.0092
 4631SOL    HW125526   3.123   0.423   4.907 -0.5943  0.9112 -0.2557
 4631SOL    HW225527   2.991   0.405   4.964  0.2026  1.3493 -0.7391
 4632SOL     OW25528   2.095   3.511   3.069 -0.4930 -0.1976  0.4546
 4632SOL    HW125529   2.137   3.581   3.117 -0.2388  0.2887 -0.4708
 4632SOL    HW225530   2.032   3.563   3.019  1.2033  1.8819  0.5016
 4633SOL     OW25531   1.456   0.561   3.186  0.5975 -0.4570  0.2465
 4633SOL    HW125532   1.364   0.586   3.179  0.1909 -1.7055  1.3360
 4633SOL    HW225533   1.459   0.509   3.266 -0.6384  0.6578  1.0151
 4634SOL     OW25534   0.632   0.657   2.126  0.0564 -0.5854  0.2585
 4634SOL    HW125535   0.624   0.737   2.178  1.6209 -0.1876 -0.0960
 4634SOL    HW225536   0.622   0.686   2.036 -0.7680  0.7818  0.7889
 4635SOL     OW25537   0.963   3.056  16.704 -0.6529 -0.0756 -0.6081
 4635SOL    HW125538   1.031   3.029  16.643 -1.1309 -1.0760 -0.7003
 4635SOL    HW225539   0.999   3.022  16.786 -1.0035 -0.8628 -0.7739
 4636SOL     OW25540   1.697   4.245   6.737 -0.2401  0.5477  0.4587
 4636SOL    HW125541   1.661   4.195   6.663  0.5364 -0.4320  0.7453
 4636SOL    HW225542   1.631   4.313   6.749 -0.0342  1.0240 -1.1881
 4637SOL     OW25543   2.944   0.575  14.222 -0.1444 -0.1544  0.3536
 4637SOL    HW125544   2.947   0.594  14.316 -1.1728 -0.1574  0.3771
 4637SOL    HW225545   2.860   0.615  14.201  0.7323  1.1010 -0.7137
 4638SOL     OW25546   0.671   2.374   6.237  0.0148  0.7350  0.0463
 4638SOL    HW125547   0.747   2.344   6.286 -1.4920 -1.8712  0.7672
 4638SOL    HW225548   0.602   2.382   6.303  1.8516  1.4079  1.8964
 4639SOL     OW25549   4.632   2.953   7.455 -0.3386  0.1785 -0.0834
 4639SOL    HW125550   4.622   3.005   7.375  1.2436 -2.0878 -1.7569
 4639SOL    HW225551   4.720   2.975   7.486  0.1972 -0.5900 -1.0618
 4640SOL     OW25552   0.140   4.372   7.679  0.0917  0.0352 -0.2935
 4640SOL    HW125553   0.210   4.388   7.743  0.7564 -1.2309 -0.6963
 4640SOL    HW225554   0.091   4.315   7.740  1.5828  0.3432  1.1872
 4641SOL     OW25555   3.788   0.197  11.578  0.0373  0.2056  0.2859
 4641SOL    HW125556   3.859   0.250  11.541  0.6260 -1.4630 -0.9861
 4641SOL    HW225557   3.736   0.251  11.637  1.1196 -0.0483  1.4540
 4642SOL     OW25558   1.172   2.990  12.899 -0.3724  0.5324 -0.0775
 4642SOL    HW125559   1.156   2.994  12.994  1.1145 -0.8172  0.2288
 4642SOL    HW225560   1.119   2.912  12.879  1.2322 -0.2553 -1.2121
 4643SOL     OW25561   3.100   2.687   5.736 -0.0865 -0.0175 -0.5220
 4643SOL    HW125562   3.183   2.713   5.695  0.2132  0.5657  0.4321
 4643SOL    HW225563   3.088   2.594   5.720  0.3840 -0.1510 -0.1197
 4644SOL     OW25564   1.121   4.738   4.789  0.0251  0.5605  0.2268
 4644SOL    HW125565   1.184   4.680   4.746  0.2681  0.8299  0.2237
 4644SOL    HW225566   1.176   0.022   4.861  1.0648  0.5116 -0.5529
 4645SOL     OW25567   2.693   0.915   9.170  0.2258 -0.1641 -0.1522
 4645SOL    HW125568   2.713   0.833   9.214  2.4865  1.1119  1.2308
 4645SOL    HW225569   2.680   0.976   9.243  3.0576 -1.7784  1.6656
 4646SOL     OW25570   0.007   2.302   8.400 -0.4896  0.6080 -1.0406
 4646SOL    HW125571   4.722   2.343   8.319 -1.0098 -0.5745 -1.4680
 4646SOL    HW225572   0.040   2.215   8.379 -2.0359 -0.1886 -0.2290
 4647SOL     OW25573   2.847   2.578  12.702  0.6011 -0.2641 -0.0182
 4647SOL    HW125574   2.939   2.605  12.696 -0.0278  1.7978 -0.3702
 4647SOL    HW225575   2.817   2.595  12.613  1.4069  0.5144 -0.1353
 4648SOL     OW25576   3.039   0.586   6.164 -0.6600 -0.2996 -0.0198
 4648SOL    HW125577   3.039   0.659   6.102 -1.3068 -1.1819 -1.0450
 4648SOL    HW225578   3.000   0.518   6.109 -0.6150 -0.2708 -0.0878
 4649SOL     OW25579   4.358   2.014   0.250 -0.5569  0.3562 -0.2401
 4649SOL    HW125580   4.378   1.936   0.302  2.3572  0.6094 -1.0152
 4649SOL    HW225581   4.420   1.996   0.180  0.9241 -0.6515  1.3130
 4650SOL     OW25582   2.701   1.261   7.176 -0.7040 -0.5476  0.0010
 4650SOL    HW125583   2.783   1.213   7.160  0.6542  0.9989  2.4263
 4650SOL    HW225584   2.713   1.323   7.104  1.0893 -0.9002 -0.0057
 4651SOL     OW25585   1.113   2.561   2.088  1.1478 -0.6343  0.8785
 4651SOL    HW125586   1.085   2.473   2.062 -0.0418  0.1936 -0.6039
 4651SOL    HW225587   1.091   2.558   2.181 -0.7943 -1.6679  0.3733
 4652SOL     OW25588   0.751   2.566  14.348 -0.1144 -0.5585  0.1603
 4652SOL    HW125589   0.669   2.602  14.314  0.1654  2.0813  2.3180
 4652SOL    HW225590   0.819   2.618  14.306 -0.2381  0.4559  1.2286
 4653SOL     OW25591   2.948   1.089  12.436 -0.4171  0.1332  0.1173
 4653SOL    HW125592   3.012   1.090  12.365  0.2882  1.7072  0.7746
 4653SOL    HW225593   3.013   1.091  12.507 -0.4975 -0.9073  0.2180
 4654SOL     OW25594   4.254   2.760   2.494  0.3172  0.5638 -0.0579
 4654SOL    HW125595   4.160   2.740   2.498 -0.0714  2.5093  0.4036
 4654SOL    HW225596   4.257   2.830   2.559 -0.8280 -0.8307  1.5134
 4655SOL     OW25597   2.959   2.263   6.881 -0.2055 -0.2899  0.4381
 4655SOL    HW125598   2.955   2.168   6.869  0.6389 -0.2218 -0.4575
 4655SOL    HW225599   3.026   2.265   6.950  1.5705 -0.5506 -1.2657
 4656SOL     OW25600   4.666   2.133   7.108  0.3803 -0.0464 -0.1354
 4656SOL    HW125601   4.576   2.143   7.139  0.7336  2.9648 -0.1090
 4656SOL    HW225602   4.659   2.049   7.062  3.2481  0.5408 -1.6451
 4657SOL     OW25603   4.477   1.737   9.109  0.5402 -0.0582  0.2317
 4657SOL    HW125604   4.557   1.789   9.099  1.5719 -0.9947  3.7044
 4657SOL    HW225605   4.416   1.781   9.050  1.5615  0.1367 -0.6915
 4658SOL     OW25606   1.511   0.397   3.400 -0.5385 -0.1016  0.6732
 4658SOL    HW125607   1.569   0.321   3.394 -0.9773 -0.3593 -0.4200
 4658SOL    HW225608   1.522   0.421   3.492 -0.4784  0.9036  0.4005
 4659SOL     OW25609   1.718   4.111   0.494  0.4521  0.1215 -0.3300
 4659SOL    HW125610   1.810   4.084   0.496 -0.0038 -1.3219  0.8979
 4659SOL    HW225611   1.702   4.121   0.588  0.3794 -0.8818 -0.2389
 4660SOL     OW25612   4.133   1.549   3.239  0.0105 -0.1305  0.5724
 4660SOL    HW125613   4.055   1.588   3.279 -0.3605  0.5044 -0.7556
 4660SOL    HW225614   4.099   1.486   3.175  1.9326  0.5507 -1.1114
 4661SOL     OW25615   0.852   1.409  16.373 -0.0181 -0.4310 -0.0647
 4661SOL    HW125616   0.802   1.417  16.292 -1.1569  0.3468  0.7140
 4661SOL    HW225617   0.880   1.499  16.388  0.6879 -0.4609 -1.1857
 4662SOL     OW25618   4.529   3.750   5.552  0.2914  0.0169 -0.0068
 4662SOL    HW125619   4.528   3.759   5.647  4.5541 -0.5406  0.1123
 4662SOL    HW225620   4.624   3.754   5.537  0.1083  0.8364 -0.9506
 4663SOL     OW25621   4.060   2.357   8.631 -0.7369 -0.2001 -0.1937
 4663SOL    HW125622   4.152   2.354   8.604 -0.3580  0.2238  1.0299
 4663SOL    HW225623   4.038   2.447   8.608 -1.5786 -0.7802 -1.6180
 4664SOL     OW25624   4.568   3.654   8.271  0.1257 -0.3911 -0.1455
 4664SOL    HW125625   4.623   3.652   8.192 -0.9493  0.3680 -0.9066
 4664SOL    HW225626   4.579   3.746   8.296 -2.2441 -0.9834  3.0069
 4665SOL     OW25627   3.010   1.402   3.077 -1.0415  0.5149 -0.1472
 4665SOL    HW125628   3.089   1.348   3.086 -0.8808  0.2209 -3.6093
 4665SOL    HW225629   3.027   1.467   3.146 -2.2495  0.6702 -0.0022
 4666SOL     OW25630   4.110   0.568   9.608 -0.2563  0.2861  0.2110
 4666SOL    HW125631   4.027   0.606   9.638 -0.4635  2.9689 -3.8624
 4666SOL    HW225632   4.073   0.479   9.606 -3.8781  1.7410  2.1869
 4667SOL     OW25633   1.527   3.323  15.914 -0.5074  0.1514 -0.6065
 4667SOL    HW125634   1.600   3.373  15.876  0.1935  0.6724  1.3892
 4667SOL    HW225635   1.463   3.393  15.928 -0.8457 -0.6613  1.9515
 4668SOL     OW25636   3.040   2.326   9.296  0.4060  0.2108 -0.0632
 4668SOL    HW125637   2.966   2.284   9.253  0.1798 -2.3108  2.7661
 4668SOL    HW225638   3.038   2.268   9.372  1.6226 -0.5408 -0.5875
 4669SOL     OW25639   1.476   2.617   4.879 -0.0088 -0.2252  0.1939
 4669SOL    HW125640   1.406   2.552   4.876 -0.4876  0.2094  1.7257
 4669SOL    HW225641   1.557   2.570   4.860  0.0439 -0.8436  2.0209
 4670SOL     OW25642   1.292   2.964   6.652 -0.0648 -0.2836 -0.5638
 4670SOL    HW125643   1.324   3.055   6.648  1.1570 -0.6911 -0.0940
 4670SOL    HW225644   1.349   2.925   6.585  0.4879  1.1054 -0.9036
 4671SOL     OW25645   0.084   3.523   3.550 -0.3819 -0.2124 -0.5762
 4671SOL    HW125646   0.129   3.552   3.470  0.6419 -0.3153 -0.0452
 4671SOL    HW225647   4.736   3.537   3.526 -0.0400  2.8838 -0.1357
 4672SOL     OW25648   3.855   4.680  10.131 -0.0116  0.0652  0.5685
 4672SOL    HW125649   3.941   4.723  10.137 -0.0576  0.4212 -1.5273
 4672SOL    HW225650   3.853   4.662  10.037 -0.8734  2.9356  0.0359
 4673SOL     OW25651   1.090   0.747   4.242  0.0861  0.5782 -0.0130
 4673SOL    HW125652   1.015   0.772   4.296 -0.3997 -1.0950  0.0886
 4673SOL    HW225653   1.071   0.654   4.246  2.2841  0.0817 -1.1893
 4674SOL     OW25654   0.967   3.979   2.240  0.5447 -0.0909 -0.0406
 4674SOL    HW125655   0.977   4.066   2.279  1.4724  0.7777 -2.2485
 4674SOL    HW225656   0.874   3.958   2.249  0.4839 -0.0529 -0.5931
 4675SOL     OW25657   0.064   4.035   4.168  0.0830  0.0605 -0.4124
 4675SOL    HW125658   0.141   3.978   4.173 -0.4620 -0.5362  1.2980
 4675SOL    HW225659   0.074   4.081   4.251 -1.9288 -1.3208  0.6006
 4676SOL     OW25660   0.358   4.530   3.957  0.7094  0.0308 -0.0053
 4676SOL    HW125661   0.374   4.624   3.967  1.4347  0.1657 -2.6258
 4676SOL    HW225662   0.341   4.497   4.046 -0.5483  1.0014  0.1263
 4677SOL     OW25663   3.760   0.405  14.111 -0.7740  0.3831 -0.0546
 4677SOL    HW125664   3.691   0.397  14.045 -3.2444  0.0362  2.5658
 4677SOL    HW225665   3.816   0.469  14.066 -0.3311 -1.4679 -2.1604
 4678SOL     OW25666   4.388   3.133   8.838  0.5247 -0.2662 -0.2741
 4678SOL    HW125667   4.407   3.067   8.771 -1.2773  1.4956 -2.4978
 4678SOL    HW225668   4.457   3.197   8.822 -0.0991  0.8024  1.2801
 4679SOL     OW25669   4.259   2.295   4.530  0.0007 -0.0080 -0.1159
 4679SOL    HW125670   4.337   2.329   4.488  1.1313 -0.2587  1.7864
 4679SOL    HW225671   4.238   2.357   4.600 -1.2739  0.4780 -0.9183
 4680SOL     OW25672   0.268   0.132   0.451 -0.2258  0.1337 -0.5013
 4680SOL    HW125673   0.203   0.197   0.427 -0.9284  0.1670  1.4850
 4680SOL    HW225674   0.234   0.064   0.393 -2.3435 -1.5740  2.7537
 4681SOL     OW25675   0.586   4.287  11.268 -0.6713 -0.1897  0.4242
 4681SOL    HW125676   0.628   4.366  11.232  1.1703 -1.5557 -0.4275
 4681SOL    HW225677   0.501   4.285  11.224 -0.4993 -0.1050  0.0890
 4682SOL     OW25678   4.620   3.711   5.260 -0.2103  0.0550  0.1591
 4682SOL    HW125679   4.615   3.625   5.300  1.2151 -0.0458  0.0954
 4682SOL    HW225680   4.711   3.710   5.231 -0.1164 -0.8103  0.4946
 4683SOL     OW25681   4.392   3.022   7.840  0.3258 -0.4724  0.2892
 4683SOL    HW125682   4.471   3.074   7.825  0.3389 -0.6552 -0.2711
 4683SOL    HW225683   4.392   2.963   7.765  0.1760 -1.3981  1.0126
 4684SOL     OW25684   1.645   4.131   5.994  0.0936  0.3679 -0.4336
 4684SOL    HW125685   1.642   4.146   5.900 -1.2638 -2.1710 -0.7640
 4684SOL    HW225686   1.555   4.158   6.011 -0.9816 -2.5076 -1.6331
 4685SOL     OW25687   3.959   4.002   0.406 -0.1587 -0.0298 -0.3977
 4685SOL    HW125688   3.926   4.044   0.327  0.1035  1.9543  0.5467
 4685SOL    HW225689   3.981   4.076   0.462  0.6071 -0.9053  0.4433
 4686SOL     OW25690   4.542   2.892   3.432  0.3540 -0.6510  0.5802
 4686SOL    HW125691   4.570   2.853   3.349 -1.6586 -0.2755 -0.2710
 4686SOL    HW225692   4.610   2.858   3.491 -0.3753  1.8071  2.8668
 4687SOL     OW25693   0.790   0.853   3.007 -0.2820 -0.1575 -0.4018
 4687SOL    HW125694   0.836   0.932   3.035  1.6436 -1.0497 -1.0221
 4687SOL    HW225695   0.850   0.821   2.940  1.6789 -1.5228  1.9827
 4688SOL     OW25696   3.248   1.280   6.998  0.5334  0.5230  0.3081
 4688SOL    HW125697   3.329   1.286   7.049 -0.1459  0.8444  1.3585
 4688SOL    HW225698   3.232   1.187   7.015  1.0003  0.7242  1.9031
 4689SOL     OW25699   0.757   4.126  13.080  0.2247 -0.8207 -0.2938
 4689SOL    HW125700   0.851   4.143  13.075 -0.2638  1.7643 -0.4942
 4689SOL    HW225701   0.740   4.108  13.172  2.8812  1.5143  0.6607
 4690SOL     OW25702   4.207   3.236   6.975  0.1957  0.0333  0.2898
 4690SOL    HW125703   4.179   3.324   6.948 -0.0537  0.4235  1.7696
 4690SOL    HW225704   4.127   3.191   7.000  1.1247 -1.6125  0.2711
 4691SOL     OW25705   0.126   1.587   2.541  0.0920 -0.3408  0.2281
 4691SOL    HW125706   0.039   1.547   2.547 -0.3424  0.2100 -2.3571
 4691SOL    HW225707   0.148   1.581   2.448 -0.6556 -0.3646  0.0522
 4692SOL     OW25708   0.758   2.934   1.809  0.6841 -0.1163 -0.6205
 4692SOL    HW125709   0.746   3.026   1.785 -0.7150 -0.3050 -0.6540
 4692SOL    HW225710   0.741   2.887   1.727  0.5806  0.9234 -1.1872
 4693SOL     OW25711   1.503   1.284   1.608 -0.3126 -0.3286 -0.1571
 4693SOL    HW125712   1.574   1.323   1.556  0.4000  1.7179  2.3406
 4693SOL    HW225713   1.495   1.349   1.678  1.2453  1.3908 -1.5760
 4694SOL     OW25714   1.614   4.370   8.360 -0.1497  0.2686  0.2549
 4694SOL    HW125715   1.528   4.353   8.320  0.5986  2.0846 -2.0981
 4694SOL    HW225716   1.594   4.456   8.396 -1.0062  1.1639 -2.3418
 4695SOL     OW25717   3.239   1.475  15.755  0.1301 -0.2125 -0.8212
 4695SOL    HW125718   3.253   1.513  15.668  0.9988  0.2024 -0.5039
 4695SOL    HW225719   3.159   1.517  15.785  1.4562  0.7200  1.4007
 4696SOL     OW25720   1.750   0.840   1.577  0.3519  0.1676  0.5292
 4696SOL    HW125721   1.725   0.925   1.612 -0.4641  1.1227 -2.3430
 4696SOL    HW225722   1.677   0.796   1.620 -0.0405 -1.5962 -1.9137
 4697SOL     OW25723   0.290   4.509  12.502  0.0216 -0.3292  0.5666
 4697SOL    HW125724   0.272   4.602  12.519 -0.8302  0.0162 -2.2079
 4697SOL    HW225725   0.386   4.505  12.503  0.1027  0.9756 -1.6492
 4698SOL     OW25726   3.924   4.004  14.423 -0.1425 -0.0044  0.3329
 4698SOL    HW125727   3.985   3.989  14.496 -0.9554 -0.3387  0.9440
 4698SOL    HW225728   3.973   4.049  14.355  1.3917 -3.1641 -0.6606
 4699SOL     OW25729   2.950   4.102   3.075 -0.1977  0.1079  0.0791
 4699SOL    HW125730   2.957   4.124   2.982  0.4930 -0.5518 -0.0194
 4699SOL    HW225731   2.900   4.020   3.076  1.7163 -1.0815 -1.3517
 4700SOL     OW25732   0.564   4.615   1.919  0.2933 -0.4823 -0.1651
 4700SOL    HW125733   0.471   4.595   1.931  0.5326 -0.6544  1.2875
 4700SOL    HW225734   0.550   4.653   1.832 -0.1422 -1.6112 -0.5915
 4701SOL     OW25735   0.368   2.269  13.912 -0.3649 -0.3582  0.5952
 4701SOL    HW125736   0.341   2.192  13.861 -3.0287  1.9487 -1.4472
 4701SOL    HW225737   0.459   2.279  13.885  0.6179  1.2654  4.5392
 4702SOL     OW25738   3.545   4.524   2.901  0.1906 -0.0531  0.6483
 4702SOL    HW125739   3.557   4.618   2.896  0.8985 -0.1413  0.7225
 4702SOL    HW225740   3.463   4.515   2.950 -0.1994  0.6824  0.1343
 4703SOL     OW25741   2.940   1.148   6.144  0.0543  0.3110  0.1129
 4703SOL    HW125742   2.851   1.180   6.159  0.2624  0.8063  0.2942
 4703SOL    HW225743   2.929   1.081   6.076 -3.7777  0.9047  0.1877
 4704SOL     OW25744   1.448   0.992   5.832  0.0672 -0.2192 -0.5057
 4704SOL    HW125745   1.394   0.942   5.772 -0.5441  0.5222 -0.5731
 4704SOL    HW225746   1.498   0.924   5.878  0.1740  0.3695  0.2560
 4705SOL     OW25747   0.557   4.507  13.350 -0.3327 -0.5416 -0.3840
 4705SOL    HW125748   0.508   4.546  13.423  0.8822  2.0196 -0.9249
 4705SOL    HW225749   0.519   4.421  13.371 -0.6336 -0.4234 -0.4410
 4706SOL     OW25750   0.173   2.325   2.277  0.0813  0.1816  0.6894
 4706SOL    HW125751   0.082   2.321   2.306 -0.2917 -1.1953 -0.6754
 4706SOL    HW225752   0.175   2.392   2.208 -2.1883  1.1965  1.5762
 4707SOL     OW25753   2.496   1.560   1.834  0.3719 -0.1686  0.1248
 4707SOL    HW125754   2.454   1.604   1.760 -2.4237  0.2547  1.9670
 4707SOL    HW225755   2.584   1.539   1.804  1.1030  0.2068  2.0028
 4708SOL     OW25756   0.225   1.625   5.059  0.2734  0.0276  0.0110
 4708SOL    HW125757   0.229   1.551   5.120 -1.6162 -1.4728 -1.6799
 4708SOL    HW225758   0.134   1.653   5.047  0.3036  0.0816 -0.0904
 4709SOL     OW25759   4.030   0.902   4.493 -0.1228 -0.1726 -0.0273
 4709SOL    HW125760   4.072   0.909   4.407 -0.2504 -1.3049 -0.1818
 4709SOL    HW225761   4.064   0.983   4.532  0.3725  0.4087 -1.6587
 4710SOL     OW25762   3.695   2.319   8.111  0.3270  0.1813 -0.3759
 4710SOL    HW125763   3.689   2.274   8.196 -0.9727 -2.2766 -1.7843
 4710SOL    HW225764   3.701   2.243   8.054 -0.4426 -0.3425  0.2428
 4711SOL     OW25765   1.800   3.962   3.807  0.3425 -0.4497 -0.2397
 4711SOL    HW125766   1.823   4.032   3.746  0.4013 -0.6870 -0.4901
 4711SOL    HW225767   1.722   3.931   3.760 -0.3693  0.4460  0.3631
 4712SOL     OW25768   0.724   3.507   0.266 -0.0570  0.4873 -0.4723
 4712SOL    HW125769   0.634   3.475   0.263 -0.4194  1.4564  0.2563
 4712SOL    HW225770   0.731   3.558   0.346 -3.5211  0.9236 -0.4706
 4713SOL     OW25771   4.608   0.756   7.995 -0.5277 -0.7224  0.2837
 4713SOL    HW125772   4.558   0.695   7.941 -1.3895  0.2413 -0.0039
 4713SOL    HW225773   4.581   0.737   8.085  2.4338  0.0070  1.3308
 4714SOL     OW25774   1.932   2.800   7.030 -0.6253 -0.2330  0.0011
 4714SOL    HW125775   1.905   2.722   7.078 -1.9080 -0.2065 -0.6836
 4714SOL    HW225776   1.998   2.829   7.093 -0.7568 -0.9892  0.4890
 4715SOL     OW25777   2.196   1.857  15.441  0.6670  0.4208  0.4988
 4715SOL    HW125778   2.278   1.816  15.412  1.4558  1.7923  0.7850
 4715SOL    HW225779   2.195   1.829  15.533 -0.8833  2.6803  1.1679
 4716SOL     OW25780   3.048   0.132   2.665 -0.3965  0.0817 -0.3728
 4716SOL    HW125781   2.969   0.168   2.706 -0.6910 -1.2338  0.2112
 4716SOL    HW225782   3.079   0.070   2.731 -0.0700 -0.1772 -0.7705
 4717SOL     OW25783   2.557   4.204   4.522  0.3934  0.8145  0.2388
 4717SOL    HW125784   2.641   4.163   4.500  0.2554  0.5482  0.1988
 4717SOL    HW225785   2.497   4.171   4.455 -0.8502  0.4558  1.5359
 4718SOL     OW25786   2.152   4.467   9.308  0.1296  0.4974 -0.2907
 4718SOL    HW125787   2.221   4.510   9.358  0.4717  0.5082 -0.7688
 4718SOL    HW225788   2.128   4.399   9.371  0.5871 -1.6373 -2.4326
 4719SOL     OW25789   0.488   4.694  17.240 -0.4951 -0.7464  0.5487
 4719SOL    HW125790   0.414   4.743  17.276  0.7435 -0.1470  2.2966
 4719SOL    HW225791   0.553   4.688  17.310 -1.0937 -2.4164  0.9523
 4720SOL     OW25792   3.612   2.460   7.263  0.4885  0.2024 -0.5211
 4720SOL    HW125793   3.646   2.535   7.214  2.0567  1.4443  2.4826
 4720SOL    HW225794   3.684   2.398   7.258 -1.0035 -1.5816 -0.1443
 4721SOL     OW25795   2.678   0.631   8.113  0.7124  0.0338  0.2585
 4721SOL    HW125796   2.678   0.645   8.018 -1.1553 -0.7584  0.1478
 4721SOL    HW225797   2.684   0.723   8.141 -0.9131 -0.0762  0.9516
 4722SOL     OW25798   3.990   3.259   5.938  0.1802 -0.2780  0.0812
 4722SOL    HW125799   4.065   3.256   5.997 -0.7646 -0.9335  1.2489
 4722SOL    HW225800   3.975   3.169   5.908 -0.5465 -0.2536  0.3652
 4723SOL     OW25801   2.298   1.326   6.880 -0.6664 -0.0628  0.2868
 4723SOL    HW125802   2.311   1.388   6.808 -1.9246  0.7882  0.8054
 4723SOL    HW225803   2.375   1.349   6.932 -0.7030  0.6134  0.0349
 4724SOL     OW25804   4.504   2.625   2.983  0.2067 -0.0833 -0.5588
 4724SOL    HW125805   4.565   2.577   3.040 -0.5428 -0.1351  0.2054
 4724SOL    HW225806   4.542   2.712   2.969 -1.5801  0.5601 -1.3958
 4725SOL     OW25807   3.625   0.504   5.346 -0.4915 -0.3661  0.2284
 4725SOL    HW125808   3.641   0.559   5.423  0.1303 -2.7963  1.8326
 4725SOL    HW225809   3.717   0.487   5.325 -0.4625  0.6694 -0.5030
 4726SOL     OW25810   3.713   0.381  17.084 -0.8906 -0.2721  0.4321
 4726SOL    HW125811   3.775   0.417  17.021  0.0582  0.4122  1.7505
 4726SOL    HW225812   3.646   0.445  17.107 -1.4730 -0.2894 -1.2446
 4727SOL     OW25813   4.182   4.411   8.447  0.2152  0.1034 -0.5034
 4727SOL    HW125814   4.106   4.459   8.480  0.1869  0.6827 -1.4163
 4727SOL    HW225815   4.137   4.328   8.435 -3.3802  1.9800 -0.1189
 4728SOL     OW25816   1.983   1.347  15.513 -0.0133 -0.2834  0.0217
 4728SOL    HW125817   1.911   1.331  15.452  1.4132 -1.7571 -1.2726
 4728SOL    HW225818   1.982   1.442  15.519  2.8865 -0.3311  1.0833
 4729SOL     OW25819   2.326   2.741   1.320  0.3682 -0.2121  0.2784
 4729SOL    HW125820   2.365   2.662   1.284  2.0400  0.5676  0.3958
 4729SOL    HW225821   2.261   2.693   1.371 -1.3113  2.5552  0.8046
 4730SOL     OW25822   0.823   4.544   9.045 -0.2939 -0.0277  0.1406
 4730SOL    HW125823   0.780   4.623   9.078  2.7890  0.7113  2.4024
 4730SOL    HW225824   0.842   4.504   9.130 -0.4741  1.2684  0.7865
 4731SOL     OW25825   2.959   3.403   8.585  0.0173 -0.1239 -0.1283
 4731SOL    HW125826   2.989   3.329   8.533  1.5398 -0.1589  0.7914
 4731SOL    HW225827   2.931   3.373   8.672  1.2214 -1.0091 -0.0405
 4732SOL     OW25828   4.021   0.623   7.895 -0.2922  0.2802 -0.0726
 4732SOL    HW125829   3.982   0.658   7.975 -0.4321 -1.9294  0.8403
 4732SOL    HW225830   3.948   0.630   7.833 -1.0391  3.1906  1.1383
 4733SOL     OW25831   3.452   3.789   8.696 -0.2248 -0.0264 -0.0436
 4733SOL    HW125832   3.427   3.718   8.637  2.5868  0.4119 -1.7984
 4733SOL    HW225833   3.521   3.747   8.748  1.5503  1.4928 -1.1422
 4734SOL     OW25834   0.715   2.814   9.169 -0.2105 -0.1278 -0.2800
 4734SOL    HW125835   0.663   2.855   9.238  1.4950  2.0974 -0.3099
 4734SOL    HW225836   0.757   2.892   9.133 -0.4746  0.3398  0.4266
 4735SOL     OW25837   1.357   2.749   5.457  0.3552 -0.0314  0.5897
 4735SOL    HW125838   1.415   2.692   5.508  0.3232 -1.1151 -0.5916
 4735SOL    HW225839   1.282   2.691   5.464  1.1947 -1.1535  0.1488
 4736SOL     OW25840   2.341   1.284  15.971 -0.1621 -0.2990 -0.6491
 4736SOL    HW125841   2.293   1.204  15.952  0.8518 -1.2141  0.6602
 4736SOL    HW225842   2.285   1.346  16.019  0.5877 -0.5486  0.5674
 4737SOL     OW25843   4.456   1.186   2.878  0.1801 -0.6840 -0.2404
 4737SOL    HW125844   4.478   1.147   2.793  2.2445 -1.2792  0.5796
 4737SOL    HW225845   4.494   1.274   2.877 -1.2591 -0.0562  1.1374
 4738SOL     OW25846   2.993   1.549   6.383  1.1499  0.5853  0.4491
 4738SOL    HW125847   2.931   1.498   6.436  0.3622  1.2869  0.2127
 4738SOL    HW225848   2.999   1.636   6.423 -1.4527  1.8453 -1.8400
 4739SOL     OW25849   1.799   2.586   7.147  0.5502 -0.3852 -1.2392
 4739SOL    HW125850   1.743   2.662   7.133  1.4121  1.0315  3.0127
 4739SOL    HW225851   1.780   2.567   7.238  1.7008 -0.0086 -0.9245
 4740SOL     OW25852   0.811   0.457  17.314 -0.3157 -0.3323 -0.4562
 4740SOL    HW125853   0.903   0.474  17.295 -0.6446  1.7176 -0.1499
 4740SOL    HW225854   0.765   0.451  17.230 -2.3178  2.1199  0.4948
 4741SOL     OW25855   1.545   3.070   4.472  0.3901  0.2035 -0.3708
 4741SOL    HW125856   1.473   3.009   4.454  4.1354 -4.1936 -0.3809
 4741SOL    HW225857   1.577   3.055   4.561  4.1893  0.2863 -1.7096
 4742SOL     OW25858   2.972   3.629   1.799 -0.3142  0.0864 -0.0590
 4742SOL    HW125859   3.006   3.705   1.753  2.5085  0.3146  2.3670
 4742SOL    HW225860   3.047   3.569   1.799 -1.2847 -1.1256  5.2578
 4743SOL     OW25861   2.991   1.681  10.888 -0.0176 -0.2012 -0.1064
 4743SOL    HW125862   3.019   1.770  10.909 -2.2212  0.5442 -0.3441
 4743SOL    HW225863   2.956   1.694  10.800 -0.8670 -2.0360 -0.0399
 4744SOL     OW25864   2.247   2.259   6.867 -0.4154  0.0163 -0.4529
 4744SOL    HW125865   2.297   2.338   6.884 -0.9196 -0.1632  1.8371
 4744SOL    HW225866   2.173   2.264   6.928 -1.2592  0.2851 -1.4936
 4745SOL     OW25867   1.660   3.197   3.513 -0.1365  0.1549 -0.0714
 4745SOL    HW125868   1.714   3.157   3.581 -0.2008 -0.9905 -0.6880
 4745SOL    HW225869   1.699   3.174   3.428 -2.5758  0.2700 -1.2298
 4746SOL     OW25870   0.936   4.135   0.327 -0.1841 -0.1422  0.2432
 4746SOL    HW125871   0.894   4.221   0.321 -0.9880 -0.5832 -0.5296
 4746SOL    HW225872   0.920   4.113   0.419 -0.5890 -3.7124 -0.6609
 4747SOL     OW25873   2.923   2.912   4.624  0.8481  0.3954  0.6310
 4747SOL    HW125874   2.864   2.945   4.691  1.0932  0.7137  0.6872
 4747SOL    HW225875   2.909   2.820   4.646 -0.0668  0.9712  2.4434
 4748SOL     OW25876   2.817   2.176   9.197 -0.1563 -0.0105 -0.5153
 4748SOL    HW125877   2.797   2.093   9.155  0.6846  0.4993 -1.9353
 4748SOL    HW225878   2.783   2.161   9.285  0.8899 -1.5596 -0.3820
 4749SOL     OW25879   2.820   2.614   2.950 -0.4253 -0.4094 -1.0551
 4749SOL    HW125880   2.816   2.675   3.024  0.0592  1.1736 -2.3217
 4749SOL    HW225881   2.741   2.562   2.963 -0.7712 -0.3080 -2.7506
 4750SOL     OW25882   0.712   4.669  15.364  0.2781 -1.0953  0.2751
 4750SOL    HW125883   0.736   0.012  15.329 -0.5201 -0.0368  2.3815
 4750SOL    HW225884   0.692   4.701  15.452  0.7604 -1.9259  0.6792
 4751SOL     OW25885   3.410   2.747  14.259 -0.7275 -0.5486 -0.2876
 4751SOL    HW125886   3.375   2.690  14.327  0.3803 -2.3366 -1.2170
 4751SOL    HW225887   3.438   2.829  14.301  2.5392 -2.5860  1.5160
 4752SOL     OW25888   1.045   2.493   7.858  0.8756  0.7081  0.0468
 4752SOL    HW125889   1.010   2.550   7.927 -0.6229  1.4847 -1.3769
 4752SOL    HW225890   0.964   2.457   7.824  2.3512 -2.0617 -0.5446
 4753SOL     OW25891   1.240   3.596  15.881  0.5822 -0.7306 -0.1035
 4753SOL    HW125892   1.168   3.576  15.941  0.6809  1.7896  0.8307
 4753SOL    HW225893   1.198   3.625  15.800 -0.7058 -1.4955  0.2780
 4754SOL     OW25894   1.189   3.407   1.084 -0.1459  0.3111  0.5822
 4754SOL    HW125895   1.252   3.347   1.123 -1.3365 -1.3307 -0.0411
 4754SOL    HW225896   1.205   3.382   0.993  0.8429 -1.6428  1.3028
 4755SOL     OW25897   1.640   0.132   5.510 -0.2885  0.0649  0.0052
 4755SOL    HW125898   1.683   0.157   5.592 -0.3469  1.2844 -0.3358
 4755SOL    HW225899   1.550   0.166   5.506  0.1470  1.3365  0.7720
 4756SOL     OW25900   4.186   2.764   5.765 -0.9122  0.3214 -0.7216
 4756SOL    HW125901   4.255   2.762   5.698 -1.1510 -2.2853 -0.8645
 4756SOL    HW225902   4.193   2.672   5.790 -1.7130  0.7653  1.2047
 4757SOL     OW25903   1.424   0.575   2.032  0.2121 -0.4896 -0.3120
 4757SOL    HW125904   1.387   0.578   1.944 -1.6081  0.1746  0.4573
 4757SOL    HW225905   1.517   0.577   2.011  0.1527 -2.0491 -0.6747
 4758SOL     OW25906   2.165   0.842   7.228 -0.4659  0.7091 -0.4353
 4758SOL    HW125907   2.091   0.783   7.242  1.1678 -0.7435  2.0656
 4758SOL    HW225908   2.148   0.884   7.143 -0.9755  3.1511  0.8752
 4759SOL     OW25909   0.204   4.696   0.272  0.0153 -0.5369 -0.7315
 4759SOL    HW125910   0.192   4.619   0.327 -0.6237 -0.1076 -0.2686
 4759SOL    HW225911   0.111   4.704   0.252  0.6041  2.2263 -2.4377
 4760SOL     OW25912   1.245   1.939   4.729 -0.5983  0.2008  0.2188
 4760SOL    HW125913   1.299   1.870   4.691 -0.6801 -0.4144  1.2088
 4760SOL    HW225914   1.155   1.925   4.698 -0.0624 -0.2936 -1.0680
 4761SOL     OW25915   2.562   3.404   5.514  0.1425 -0.7029  0.0277
 4761SOL    HW125916   2.610   3.450   5.583 -1.1666 -0.4273  0.7441
 4761SOL    HW225917   2.474   3.414   5.549 -0.0160  0.6645 -0.7398
 4762SOL     OW25918   2.334   0.791   2.670  0.1170  0.0528 -0.3278
 4762SOL    HW125919   2.369   0.711   2.708  0.4204 -0.3159 -1.4027
 4762SOL    HW225920   2.410   0.839   2.637 -1.1621  1.3051 -1.4893
 4763SOL     OW25921   3.392   2.256   5.997  0.5650 -0.4097  0.0030
 4763SOL    HW125922   3.450   2.233   6.070 -0.0475 -0.2095  0.5519
 4763SOL    HW225923   3.459   2.261   5.928 -0.3671 -0.5694 -0.9103
 4764SOL     OW25924   2.189   4.231   3.380 -0.4262 -0.2806  0.4104
 4764SOL    HW125925   2.223   4.156   3.330  1.5447  2.2813 -2.1071
 4764SOL    HW225926   2.226   4.212   3.466  0.1520 -0.9055  0.0277
 4765SOL     OW25927   1.662   4.006   9.590 -1.0523 -0.0737  0.4530
 4765SOL    HW125928   1.680   4.008   9.684 -2.0650 -0.7623  0.6655
 4765SOL    HW225929   1.583   4.058   9.576 -0.3858  0.9461  0.4947
 4766SOL     OW25930   4.730   3.648   8.067 -0.1775  0.0281  0.1692
 4766SOL    HW125931   0.052   3.595   8.021  0.3794 -0.3159  1.3812
 4766SOL    HW225932   0.037   3.714   8.112  0.0563 -1.4551  2.0779
 4767SOL     OW25933   4.583   4.199  15.645 -0.5468  0.1184 -0.1459
 4767SOL    HW125934   4.639   4.121  15.643 -1.1813 -0.3334 -0.4701
 4767SOL    HW225935   4.620   4.256  15.578 -0.4949 -0.0406 -0.2534
 4768SOL     OW25936   0.719   1.995   5.322 -0.6545  0.1200 -0.9302
 4768SOL    HW125937   0.711   2.033   5.409 -1.8538 -1.8756 -0.1523
 4768SOL    HW225938   0.784   1.930   5.347 -2.5839 -1.3292  0.3748
 4769SOL     OW25939   4.292   1.893   2.126  0.1159 -0.2805  0.0400
 4769SOL    HW125940   4.379   1.877   2.090  0.4232  0.0723  0.6364
 4769SOL    HW225941   4.296   1.981   2.161  1.0517  0.2261 -1.3404
 4770SOL     OW25942   2.587   3.819   1.880  0.5404 -0.1662 -0.0817
 4770SOL    HW125943   2.661   3.826   1.820 -0.4740  0.5585 -1.2371
 4770SOL    HW225944   2.524   3.786   1.816 -1.6309  3.3786  0.2629
 4771SOL     OW25945   3.709   2.910   5.931 -0.1098  0.2923  0.2582
 4771SOL    HW125946   3.725   2.954   6.015 -0.1658 -2.0825  1.5065
 4771SOL    HW225947   3.772   2.838   5.938  0.9356  1.1034 -0.8077
 4772SOL     OW25948   4.712   0.867   4.126  0.7977  0.1820  0.2983
 4772SOL    HW125949   4.675   0.900   4.208 -0.1684  2.5886 -1.1125
 4772SOL    HW225950   4.656   0.796   4.095  0.3192  0.1131  1.3233
 4773SOL     OW25951   2.057   1.214   0.990 -0.4883 -0.0733  0.3122
 4773SOL    HW125952   2.085   1.283   1.050  0.4742 -1.6009  1.6035
 4773SOL    HW225953   1.965   1.237   0.974  0.0282  1.9381  0.1805
 4774SOL     OW25954   1.988   0.254   6.925 -0.6238 -0.0362 -0.0268
 4774SOL    HW125955   2.071   0.232   6.967 -0.8744 -1.2269 -0.1442
 4774SOL    HW225956   1.976   0.174   6.873 -1.7166  0.1085  0.0174
 4775SOL     OW25957   1.889   1.631   2.785  0.5539 -0.1225  0.4140
 4775SOL    HW125958   1.873   1.540   2.813  0.1387 -0.5191 -1.1167
 4775SOL    HW225959   1.959   1.662   2.842  1.1265 -0.9456  0.1725
 4776SOL     OW25960   2.768   3.348   8.258  0.1942 -0.2370 -0.0775
 4776SOL    HW125961   2.691   3.392   8.295  0.5403 -0.7424  1.2420
 4776SOL    HW225962   2.791   3.404   8.185 -1.7786 -1.2088 -1.4519
 4777SOL     OW25963   3.174   1.725  12.096 -0.1326 -0.3251 -0.1898
 4777SOL    HW125964   3.189   1.758  12.185  3.2198  2.3401 -1.7338
 4777SOL    HW225965   3.190   1.801  12.040 -0.4275 -0.9262 -1.0894
 4778SOL     OW25966   1.308   3.899  11.056  0.1011  0.3197 -0.4220
 4778SOL    HW125967   1.370   3.973  11.057 -0.6870  0.9647  1.0086
 4778SOL    HW225968   1.357   3.839  11.000 -0.7998 -2.1451  1.4803
 4779SOL     OW25969   3.708   2.478   5.804 -0.1060 -0.1830 -0.3171
 4779SOL    HW125970   3.710   2.394   5.850  0.5552 -1.2892 -2.3901
 4779SOL    HW225971   3.784   2.477   5.746  0.4761  1.9372  0.4258
 4780SOL     OW25972   4.670   1.932   6.038 -0.1454  0.0674  0.1646
 4780SOL    HW125973   4.725   1.976   5.972  0.8655 -2.3137 -0.5826
 4780SOL    HW225974   4.605   1.998   6.060  0.9940  1.3432 -0.2857
 4781SOL     OW25975   0.607   3.507  13.623  0.1934  0.0872 -0.0700
 4781SOL    HW125976   0.666   3.432  13.617 -1.2662 -1.2931  2.5061
 4781SOL    HW225977   0.620   3.553  13.541 -0.6913 -0.0057 -0.2657
 4782SOL     OW25978   3.154   0.639   2.138 -0.0011 -0.4097 -0.2972
 4782SOL    HW125979   3.085   0.678   2.085 -0.3135  1.1902  1.3038
 4782SOL    HW225980   3.206   0.590   2.073  0.3557  0.1876 -0.4609
 4783SOL     OW25981   3.085   0.472   3.857 -0.1932  0.0968 -0.1521
 4783SOL    HW125982   3.001   0.431   3.842 -0.2635 -0.6937  2.5190
 4783SOL    HW225983   3.061   0.538   3.922  0.8039 -2.2033  2.5313
 4784SOL     OW25984   0.247   0.915   3.339  0.4896 -0.2132  0.4813
 4784SOL    HW125985   0.210   0.828   3.327 -0.5841  0.4544 -1.0516
 4784SOL    HW225986   0.193   0.958   3.405 -0.4586 -0.0726 -0.3733
 4785SOL     OW25987   4.323   1.073   3.992 -0.2475 -0.5279  0.4415
 4785SOL    HW125988   4.253   1.044   3.934 -1.3660 -1.4003  2.2094
 4785SOL    HW225989   4.379   0.997   3.980 -1.2302 -1.4691  1.7403
 4786SOL     OW25990   0.385   4.284   6.654 -0.0485  0.2656 -0.6600
 4786SOL    HW125991   0.481   4.289   6.653 -0.0073 -0.4636  0.3219
 4786SOL    HW225992   0.364   4.377   6.664 -0.7004 -0.0749  1.0528
 4787SOL     OW25993   3.258   3.002   4.417  0.5154 -0.3309  0.7155
 4787SOL    HW125994   3.321   2.996   4.346 -3.2660  0.2757 -2.7088
 4787SOL    HW225995   3.288   3.079   4.466 -1.8855  0.5924  0.7494
 4788SOL     OW25996   2.455   0.552   2.453 -0.2116  0.8123 -0.1889
 4788SOL    HW125997   2.477   0.568   2.545 -0.6133  1.2211 -0.1679
 4788SOL    HW225998   2.380   0.498   2.475  0.3775 -0.0311 -0.2360
 4789SOL     OW25999   0.682   2.792  10.713 -0.3094 -0.1215  0.1300
 4789SOL    HW126000   0.696   2.847  10.637  3.2620 -0.3184  0.6830
 4789SOL    HW226001   0.589   2.813  10.728 -1.1665 -2.2611 -2.1418
 4790SOL     OW26002   1.120   4.224   4.496 -0.0146  0.0770 -0.5868
 4790SOL    HW126003   1.133   4.131   4.511  1.0231  0.2494 -0.4490
 4790SOL    HW226004   1.098   4.209   4.404  0.4055 -1.7930 -0.3702
 4791SOL     OW26005   0.523   0.057  16.983 -0.1690  0.1311 -0.0226
 4791SOL    HW126006   0.513   0.015  17.068  0.3932 -0.3882 -0.2081
 4791SOL    HW226007   0.473   0.133  17.013 -0.1576 -0.2866  1.0413
 4792SOL     OW26008   0.419   0.832   7.982 -0.4004 -0.3620  0.4444
 4792SOL    HW126009   0.336   0.787   7.999 -0.7886  0.5289  0.9089
 4792SOL    HW226010   0.483   0.764   8.002  0.8855 -0.5746 -4.3432
 4793SOL     OW26011   1.959   0.290   6.244  0.3603 -0.5795 -0.2981
 4793SOL    HW126012   2.029   0.350   6.218 -0.4818  0.7861  0.6010
 4793SOL    HW226013   1.994   0.244   6.320 -0.1491  1.1529  0.9663
 4794SOL     OW26014   4.354   4.620   9.434 -0.7027 -0.1717 -0.0662
 4794SOL    HW126015   4.278   4.661   9.393  1.7274  2.8385 -1.6183
 4794SOL    HW226016   4.313   4.604   9.519 -0.8790  0.1230 -0.0931
 4795SOL     OW26017   2.109   0.316  14.505  0.4673 -0.5912 -0.0304
 4795SOL    HW126018   2.036   0.259  14.483  0.2689 -1.0080  1.7444
 4795SOL    HW226019   2.176   0.290  14.443  1.4377  2.1302 -0.1280
 4796SOL     OW26020   3.940   3.005   5.777  0.1739 -0.1892  0.4496
 4796SOL    HW126021   3.923   2.949   5.702  1.3342 -0.7991  0.6371
 4796SOL    HW226022   3.854   3.040   5.801  0.4505  0.4463  0.5171
 4797SOL     OW26023   3.746   4.111  14.941  0.0187  0.2643  0.2696
 4797SOL    HW126024   3.742   4.029  14.892  1.2487  1.3559 -1.6283
 4797SOL    HW226025   3.652   4.121  14.953 -0.2871  0.8559 -2.7506
 4798SOL     OW26026   3.154   4.245   8.220  0.2273 -0.1319 -0.3858
 4798SOL    HW126027   3.157   4.204   8.134  1.1487 -0.5375 -0.1547
 4798SOL    HW226028   3.062   4.272   8.226  0.8418  0.9564  4.0632
 4799SOL     OW26029   2.598   1.030   5.415  0.4068 -0.0564 -0.4788
 4799SOL    HW126030   2.555   0.984   5.487 -0.8626  2.1764  0.1833
 4799SOL    HW226031   2.544   1.010   5.338  1.6735  2.6949 -2.0831
 4800SOL     OW26032   1.384   1.410   4.678 -0.3653 -0.5874 -0.0456
 4800SOL    HW126033   1.311   1.349   4.690 -1.2434  0.7136  1.1836
 4800SOL    HW226034   1.341   1.482   4.632 -1.3595 -1.9941 -1.3068
 4801SOL     OW26035   0.605   1.384   8.453  0.2662 -0.5035  0.0414
 4801SOL    HW126036   0.638   1.350   8.537 -0.9257  2.1869  1.6073
 4801SOL    HW226037   0.647   1.469   8.444 -0.6957 -0.4034 -3.5612
 4802SOL     OW26038   3.168   4.624  15.057 -0.9516  1.0280  0.1230
 4802SOL    HW126039   3.230   4.697  15.064  1.8741 -1.3524 -0.3402
 4802SOL    HW226040   3.088   4.651  15.103 -0.8154  1.4019  0.1421
 4803SOL     OW26041   0.581   1.403   7.035  0.1272 -0.6819 -0.4008
 4803SOL    HW126042   0.650   1.399   7.101 -0.3344 -1.9792  0.0033
 4803SOL    HW226043   0.555   1.312   7.016  1.4906 -1.2103  0.3070
 4804SOL     OW26044   3.314   2.286   2.931  0.1577 -0.0659  0.0186
 4804SOL    HW126045   3.301   2.299   3.025  1.8800  0.8193  0.1240
 4804SOL    HW226046   3.226   2.260   2.904  0.9202 -1.4348 -1.1579
 4805SOL     OW26047   2.417   3.881   4.100 -0.2226 -0.4560 -0.4786
 4805SOL    HW126048   2.507   3.848   4.098 -0.4877 -1.0970 -1.7381
 4805SOL    HW226049   2.389   3.843   4.183  1.4856  0.3670  0.4790
 4806SOL     OW26050   3.090   3.604  16.459 -0.0891  0.4901 -0.0020
 4806SOL    HW126051   3.118   3.693  16.480  1.0394  0.2919 -0.6231
 4806SOL    HW226052   2.995   3.614  16.463 -0.4654 -2.7340 -0.6175
 4807SOL     OW26053   2.122   3.571   6.407  0.0182  0.0219  0.0052
 4807SOL    HW126054   2.155   3.623   6.334  1.7367  1.9949  2.2382
 4807SOL    HW226055   2.150   3.484   6.378  3.1084  1.0062  0.0329
 4808SOL     OW26056   4.135   3.772   9.646  0.6990 -0.3638 -0.5072
 4808SOL    HW126057   4.139   3.832   9.720 -3.0872  1.1914 -1.5574
 4808SOL    HW226058   4.079   3.707   9.689  0.1891 -0.1907 -0.9061
 4809SOL     OW26059   2.611   0.848   7.699 -0.1909  0.2870 -0.3813
 4809SOL    HW126060   2.605   0.826   7.606 -0.5573  2.3213 -0.8469
 4809SOL    HW226061   2.520   0.877   7.710  0.6546  2.3393  1.1335
 4810SOL     OW26062   3.871   1.381  16.697  0.6664  0.1743 -0.0580
 4810SOL    HW126063   3.939   1.371  16.630 -0.5827 -0.4475 -1.2462
 4810SOL    HW226064   3.845   1.473  16.683 -1.6696 -0.3831  0.5761
 4811SOL     OW26065   0.729   2.649  13.074  0.1240 -0.0865 -0.3708
 4811SOL    HW126066   0.712   2.555  13.072 -1.9033  0.2285  2.4832
 4811SOL    HW226067   0.691   2.685  12.994 -0.4377 -0.7467 -0.4064
 4812SOL     OW26068   4.604   1.573   0.825  0.4250  0.0894 -0.7279
 4812SOL    HW126069   4.596   1.479   0.842  0.3765  0.1621 -0.3512
 4812SOL    HW226070   4.512   1.594   0.840  0.8924  1.8285 -0.3505
 4813SOL     OW26071   0.082   1.946   5.770 -0.7303  0.4862  0.4128
 4813SOL    HW126072   0.121   1.867   5.733 -0.8673  1.0604 -1.0002
 4813SOL    HW226073   0.159   2.003   5.775 -1.6015  1.7409 -0.2679
 4814SOL     OW26074   1.229   2.061   5.904  0.1267  0.0309 -0.0018
 4814SOL    HW126075   1.267   2.055   5.992  0.5517 -0.4603 -0.2204
 4814SOL    HW226076   1.197   2.151   5.896 -0.7833 -0.4369 -1.6117
 4815SOL     OW26077   2.484   1.201  14.993  0.4539  0.5654 -0.3728
 4815SOL    HW126078   2.428   1.261  14.944  2.6979  1.5805 -1.6978
 4815SOL    HW226079   2.561   1.256  15.003 -0.8299  2.0021  1.4873
 4816SOL     OW26080   1.566   1.905  13.606 -0.5063  0.2881 -0.4319
 4816SOL    HW126081   1.528   1.993  13.598 -1.2522  0.2530  2.6094
 4816SOL    HW226082   1.658   1.925  13.589 -0.5869  3.5628  2.9676
 4817SOL     OW26083   2.862   0.309   8.028  0.5240 -0.2578 -0.1907
 4817SOL    HW126084   2.937   0.278   8.078 -0.2661 -1.1354  0.4392
 4817SOL    HW226085   2.879   0.398   7.996 -0.2349  0.3534  1.1236
 4818SOL     OW26086   0.305   3.029   3.324 -0.5689  0.0688 -0.3865
 4818SOL    HW126087   0.344   3.074   3.248 -3.0716 -0.2121 -1.8459
 4818SOL    HW226088   0.375   2.967   3.343  0.3674  1.4453  0.6382
 4819SOL     OW26089   1.623   4.670   3.528  0.1230 -0.0444 -0.8061
 4819SOL    HW126090   1.531   4.695   3.524 -0.1790 -0.8760  1.0886
 4819SOL    HW226091   1.657   0.003   3.483  0.4792 -0.8438 -1.9038
 4820SOL     OW26092   2.576   4.200   2.199 -0.2551  0.1972 -0.0394
 4820SOL    HW126093   2.590   4.109   2.224 -2.1543 -0.6468 -2.0357
 4820SOL    HW226094   2.482   4.212   2.184 -0.3994  0.3823  0.9988
 4821SOL     OW26095   1.650   0.505   1.907  0.0842  0.0746  0.1136
 4821SOL    HW126096   1.741   0.535   1.904 -0.6297  2.4473  1.7041
 4821SOL    HW226097   1.661   0.414   1.879 -2.3874 -0.8070  2.0830
 4822SOL     OW26098   1.632   4.264   4.014  0.3396 -0.0803  0.3165
 4822SOL    HW126099   1.584   4.182   4.010  2.7134 -1.3067 -3.1741
 4822SOL    HW226100   1.577   4.316   3.955  2.1061  1.6531  0.1966
 4823SOL     OW26101   4.054   0.424   1.788  0.2238  0.0221  0.4544
 4823SOL    HW126102   4.016   0.396   1.872 -2.3800 -0.3343 -0.8289
 4823SOL    HW226103   4.052   0.349   1.729  2.3845 -0.8386  1.4974
 4824SOL     OW26104   1.851   3.738   8.160 -0.0263  0.9467  0.3697
 4824SOL    HW126105   1.902   3.671   8.205  2.0760  0.5334 -2.6354
 4824SOL    HW226106   1.844   3.689   8.078 -3.0099 -1.2464  1.9265
 4825SOL     OW26107   3.215   0.114   7.733  0.3488 -0.4926  0.4308
 4825SOL    HW126108   3.299   0.069   7.744  1.4835  1.3690 -0.5327
 4825SOL    HW226109   3.148   0.046   7.743  0.7654 -1.2682 -2.1055
 4826SOL     OW26110   2.413   2.634   7.943 -0.1247 -0.0443  0.2237
 4826SOL    HW126111   2.406   2.626   8.039 -1.4017 -0.9599  0.0592
 4826SOL    HW226112   2.499   2.608   7.911 -0.3612 -0.6688  0.1026
 4827SOL     OW26113   2.794   1.008   3.303  0.3749  0.1372 -0.0100
 4827SOL    HW126114   2.709   1.049   3.284  0.2191  1.1186  2.8202
 4827SOL    HW226115   2.797   1.021   3.397 -1.4784 -2.5595  0.4530
 4828SOL     OW26116   2.933   1.151   8.621  0.3660  0.3619 -0.2498
 4828SOL    HW126117   2.895   1.066   8.598  2.2198  0.0979 -2.4288
 4828SOL    HW226118   3.024   1.130   8.642  0.1053 -0.1070  0.4075
 4829SOL     OW26119   4.616   0.821  13.415 -0.0644  0.6211 -0.0719
 4829SOL    HW126120   4.708   0.823  13.388  0.8835 -0.4448  3.0441
 4829SOL    HW226121   4.586   0.911  13.402  0.1206  1.0873  2.6751
 4830SOL     OW26122   0.651   4.093  12.811 -1.0930  0.3996  0.4912
 4830SOL    HW126123   0.681   4.091  12.902 -0.6420 -1.0983  0.3079
 4830SOL    HW226124   0.598   4.172  12.805 -0.0156  1.1550  0.9561
 4831SOL     OW26125   3.829   0.087  13.042 -0.0532 -0.0505  0.1218
 4831SOL    HW126126   3.795   0.163  12.994 -0.5756  0.2221  0.9370
 4831SOL    HW226127   3.789   0.019  12.988  0.3658  1.3267 -1.9499
 4832SOL     OW26128   3.648   0.165   3.980  0.1607 -0.1278 -0.5645
 4832SOL    HW126129   3.620   0.243   4.027  1.2211 -0.4339  0.5736
 4832SOL    HW226130   3.703   0.122   4.046  1.1584  0.2536 -1.1438
 4833SOL     OW26131   4.051   0.092   2.730  0.2529  0.2180 -0.1729
 4833SOL    HW126132   4.131   0.106   2.781  0.4164 -4.4548  0.9273
 4833SOL    HW226133   3.980   0.065   2.789  0.4482  1.1359  0.4700
 4834SOL     OW26134   0.152   0.520   7.834 -0.0455 -0.2805 -0.0166
 4834SOL    HW126135   0.170   0.492   7.924  1.8743 -0.8951 -0.5808
 4834SOL    HW226136   0.060   0.493   7.825 -0.3685  0.7267  0.2833
 4835SOL     OW26137   4.221   0.146   3.969 -0.5719 -0.8013 -0.3223
 4835SOL    HW126138   4.270   0.228   3.975 -0.8813 -0.6657  0.3751
 4835SOL    HW226139   4.290   0.080   3.968  0.3444  0.1189  2.0471
 4836SOL     OW26140   3.710   4.610   5.877  0.0265 -0.2179 -1.0529
 4836SOL    HW126141   3.774   4.567   5.934  0.0157 -2.4553 -2.6862
 4836SOL    HW226142   3.717   4.702   5.900  0.6183 -0.1432 -1.5308
 4837SOL     OW26143   3.104   0.540  13.293 -0.5703  0.1986 -0.5598
 4837SOL    HW126144   3.107   0.613  13.231 -2.1989 -0.7563 -1.7787
 4837SOL    HW226145   3.195   0.528  13.319 -0.4335 -0.8177 -1.5287
 4838SOL     OW26146   1.970   1.950   7.542 -0.2092 -0.1286  0.4094
 4838SOL    HW126147   1.960   1.962   7.636 -4.2702 -1.3853  0.1272
 4838SOL    HW226148   1.957   2.033   7.496  0.9961 -0.7527 -1.0598
 4839SOL     OW26149   3.124   2.435   5.649 -0.4616 -0.2658  0.0817
 4839SOL    HW126150   3.171   2.414   5.730  1.8100  2.2801 -0.5962
 4839SOL    HW226151   3.062   2.362   5.643 -0.4365 -0.0291 -2.7940
 4840SOL     OW26152   0.239   2.996   8.039  0.8374 -0.7069  0.2636
 4840SOL    HW126153   0.311   2.962   7.985 -0.6438 -0.4521 -1.8794
 4840SOL    HW226154   0.170   2.981   7.975  1.3625 -1.4876 -0.1174
 4841SOL     OW26155   3.015   2.129   9.468  0.0492  0.1337 -0.0211
 4841SOL    HW126156   2.960   2.058   9.501  0.2860 -0.1937 -0.3274
 4841SOL    HW226157   3.079   2.069   9.431  0.0708  1.1959 -1.6952
 4842SOL     OW26158   2.708   2.939   8.664 -0.1077 -0.9273  0.3650
 4842SOL    HW126159   2.685   2.847   8.678 -3.3745  0.0568  1.5246
 4842SOL    HW226160   2.760   2.931   8.584  2.9233 -1.6109  2.4040
 4843SOL     OW26161   0.385   1.364   6.730  0.1359 -1.3785  0.0389
 4843SOL    HW126162   0.413   1.274   6.714  1.8883 -0.9339  0.6918
 4843SOL    HW226163   0.434   1.385   6.809 -0.8730 -0.4900  0.4261
 4844SOL     OW26164   0.373   0.600  16.649 -0.2118  0.5419 -0.0284
 4844SOL    HW126165   0.402   0.686  16.618 -1.3679  1.0337  0.2878
 4844SOL    HW226166   0.279   0.609  16.636  0.2352 -0.6377 -4.1823
 4845SOL     OW26167   3.556   3.918   4.746 -0.0405  0.1727 -0.0181
 4845SOL    HW126168   3.485   3.931   4.808  1.1073 -0.7877  1.4842
 4845SOL    HW226169   3.514   3.851   4.691 -0.2913  0.6993 -0.4653
 4846SOL     OW26170   4.434   2.482   3.825  0.3763 -0.6551  0.3759
 4846SOL    HW126171   4.418   2.568   3.787  2.4367 -0.7589 -0.7208
 4846SOL    HW226172   4.348   2.440   3.829  0.5134 -1.2021 -2.3413
 4847SOL     OW26173   0.258   0.035   2.572 -0.0392 -0.2603  0.9142
 4847SOL    HW126174   0.168   0.005   2.555  0.6311 -0.9405 -1.4625
 4847SOL    HW226175   0.277   0.070   2.485  1.0617 -1.8778  0.5037
 4848SOL     OW26176   3.219   1.541  10.821  0.5838  0.1878  0.6519
 4848SOL    HW126177   3.199   1.450  10.843  0.9981 -0.8497 -3.1071
 4848SOL    HW226178   3.141   1.578  10.862 -1.8267 -1.5398 -2.2957
 4849SOL     OW26179   4.542   4.030   1.928 -0.5891  0.2104  0.1548
 4849SOL    HW126180   4.612   4.008   1.989  0.4752 -1.1758 -1.5815
 4849SOL    HW226181   4.586   4.033   1.843 -3.2293 -0.4590 -1.2096
 4850SOL     OW26182   2.356   3.878   9.838  0.1169 -0.3275  0.2045
 4850SOL    HW126183   2.440   3.867   9.883 -0.4870  0.5136  1.5329
 4850SOL    HW226184   2.378   3.967   9.811 -0.7422  0.5212  2.2575
 4851SOL     OW26185   0.474   3.956   7.243  0.1753 -0.1309  0.0063
 4851SOL    HW126186   0.541   3.998   7.188 -1.5389  1.2502 -1.0289
 4851SOL    HW226187   0.492   4.005   7.322 -0.6140  0.8967 -0.4564
 4852SOL     OW26188   3.984   1.047  12.736  0.0012 -0.7588 -0.7261
 4852SOL    HW126189   3.951   1.030  12.824  1.3114  0.6258  0.0359
 4852SOL    HW226190   3.945   0.970  12.695  1.1501 -1.4739 -0.4486
 4853SOL     OW26191   2.781   2.203   8.924 -0.4126 -0.1755  0.0707
 4853SOL    HW126192   2.779   2.212   9.020  0.2846  0.1685  0.0522
 4853SOL    HW226193   2.687   2.197   8.912 -0.2837  1.4404 -1.7156
 4854SOL     OW26194   2.871   1.407   2.614  0.1269  0.0253 -0.8803
 4854SOL    HW126195   2.935   1.478   2.617  2.7132 -2.3757  0.6880
 4854SOL    HW226196   2.889   1.353   2.691 -0.2906  0.1006 -0.7282
 4855SOL     OW26197   4.336   0.476  10.974 -0.2051 -0.2123  0.7612
 4855SOL    HW126198   4.378   0.514  11.051 -0.6013  0.5699  0.5879
 4855SOL    HW226199   4.347   0.385  11.002  0.8456 -0.6479 -1.0608
 4856SOL     OW26200   1.112   4.620   9.401 -0.2359 -0.1734  0.5494
 4856SOL    HW126201   1.042   4.589   9.344  1.2217 -2.0630 -0.2202
 4856SOL    HW226202   1.085   4.597   9.490  1.0135 -0.0174  0.9699
 4857SOL     OW26203   2.823   0.208   7.748 -0.2024  0.1611 -0.0569
 4857SOL    HW126204   2.827   0.231   7.840  0.2970 -0.1930  0.0156
 4857SOL    HW226205   2.898   0.256   7.712 -0.8421 -0.0350 -1.6745
 4858SOL     OW26206   0.342   3.736  16.626 -0.2672 -0.1608 -0.5878
 4858SOL    HW126207   0.396   3.711  16.701 -0.5931  0.2748 -0.2062
 4858SOL    HW226208   0.369   3.828  16.629 -1.3433  0.2029 -2.3983
 4859SOL     OW26209   0.281   0.022  12.307 -0.2628 -0.1542  0.1352
 4859SOL    HW126210   0.358   4.710  12.298  0.4562  1.0467 -1.1091
 4859SOL    HW226211   0.330   0.101  12.326 -0.4017  0.2681 -1.2455
 4860SOL     OW26212   1.055   2.655   8.083 -0.0447 -0.4613 -0.1273
 4860SOL    HW126213   0.965   2.655   8.114  0.5463 -0.7630  1.5698
 4860SOL    HW226214   1.102   2.734   8.111  2.5133 -0.8954 -3.1153
 4861SOL     OW26215   4.414   0.352   3.952 -0.3652 -0.1258  0.2462
 4861SOL    HW126216   4.455   0.315   3.874  0.0921 -2.8493  1.7482
 4861SOL    HW226217   4.401   0.442   3.924 -0.3324  0.0077  0.6591
 4862SOL     OW26218   4.570   3.827   4.965  0.1551  0.8082 -0.1993
 4862SOL    HW126219   4.476   3.825   4.977  0.3622  1.0008  1.4153
 4862SOL    HW226220   4.601   3.912   4.996  0.8638  0.3917  0.2392
 4863SOL     OW26221   1.347   3.289   5.676 -0.3392  0.3236 -0.0196
 4863SOL    HW126222   1.424   3.287   5.620 -0.9458  2.7216 -0.9605
 4863SOL    HW226223   1.301   3.358   5.628  0.7742 -0.0671 -1.6213
 4864SOL     OW26224   3.059   2.202   2.893 -0.3632 -0.8115  0.0769
 4864SOL    HW126225   3.020   2.227   2.809  0.0494  0.8496  0.3811
 4864SOL    HW226226   2.991   2.229   2.956  1.3040  0.1506  1.4770
 4865SOL     OW26227   4.548   0.273  12.357  0.6867 -0.1054  0.3370
 4865SOL    HW126228   4.513   0.219  12.286  0.9676  2.9737 -2.1459
 4865SOL    HW226229   4.628   0.225  12.378  0.6702  0.5565  1.9000
 4866SOL     OW26230   1.556   2.109   3.156 -0.2734  0.2795 -0.6823
 4866SOL    HW126231   1.531   2.057   3.079 -0.6016 -1.5407  0.6710
 4866SOL    HW226232   1.490   2.074   3.216  0.7893 -1.0215 -0.2893
 4867SOL     OW26233   0.224   1.936   6.914  0.0601  0.2129  0.5251
 4867SOL    HW126234   0.265   1.999   6.855  2.1380 -2.0351 -0.4078
 4867SOL    HW226235   0.132   1.964   6.911  0.1487  0.5420  0.9315
 4868SOL     OW26236   3.770   4.432   4.464  0.0433  0.3470  0.9458
 4868SOL    HW126237   3.746   4.362   4.524 -0.0825 -1.3722 -1.0955
 4868SOL    HW226238   3.847   4.477   4.499 -0.4821  2.5010 -0.7113
 4869SOL     OW26239   0.263   4.565   7.504 -0.2004 -0.1148  0.1508
 4869SOL    HW126240   0.313   4.629   7.554 -0.1254  0.6118 -0.8482
 4869SOL    HW226241   0.203   4.525   7.567  0.4195  0.1931  0.9373
 4870SOL     OW26242   4.274   2.414  17.448 -1.3734  0.2620  0.0529
 4870SOL    HW126243   4.278   2.501  17.488  0.7385  0.7157 -1.1850
 4870SOL    HW226244   4.183   2.408  17.419 -1.6384 -0.0175  0.9313
 4871SOL     OW26245   1.681   2.012   8.018 -0.1702  0.7868  0.5994
 4871SOL    HW126246   1.648   2.099   8.039  0.0502  0.8314  0.7678
 4871SOL    HW226247   1.738   1.997   8.093  0.3232 -0.0427  0.0651
 4872SOL     OW26248   3.010   1.801   2.763  0.1401  0.4335 -0.4230
 4872SOL    HW126249   3.013   1.737   2.692  0.8078 -0.9016  0.8131
 4872SOL    HW226250   3.091   1.801   2.814 -0.1599 -0.5314  0.0518
 4873SOL     OW26251   0.229   0.210   7.139  0.1165 -0.1397 -0.0303
 4873SOL    HW126252   0.237   0.133   7.194 -0.5410 -0.4009 -0.3020
 4873SOL    HW226253   0.313   0.221   7.093  0.6002  2.0717  1.3901
 4874SOL     OW26254   3.603   4.085  12.743  0.0916 -0.7955  0.1708
 4874SOL    HW126255   3.614   4.013  12.806 -0.6669 -1.8202 -0.8731
 4874SOL    HW226256   3.511   4.106  12.760 -0.0388 -0.5140 -0.8651
 4875SOL     OW26257   1.218   2.961   9.017 -0.1440 -0.1363 -0.2736
 4875SOL    HW126258   1.147   2.924   9.070  0.8529 -0.5009  0.7900
 4875SOL    HW226259   1.174   3.041   8.988  0.0448 -0.6007 -1.8067
 4876SOL     OW26260   3.263   3.922   8.262 -0.3437  0.3388 -0.2292
 4876SOL    HW126261   3.351   3.883   8.261  0.3100  1.7417  1.8935
 4876SOL    HW226262   3.251   3.957   8.174 -1.7713  0.7136  0.1210
 4877SOL     OW26263   1.911   4.315   4.044 -0.0210 -0.0109 -0.1392
 4877SOL    HW126264   1.820   4.335   4.020 -0.1868  0.3239  0.7844
 4877SOL    HW226265   1.916   4.228   4.004 -1.9425  0.2140 -0.8889
 4878SOL     OW26266   3.882   4.334   8.096 -0.8700 -0.2643  0.0578
 4878SOL    HW126267   3.864   4.427   8.102 -1.1326 -0.2152 -1.4897
 4878SOL    HW226268   3.894   4.319   8.002  1.4587  0.2758  0.2752
 4879SOL     OW26269   0.688   0.115  12.547 -0.1037 -0.0010 -0.1555
 4879SOL    HW126270   0.750   0.186  12.565 -0.8573  0.7003 -0.3414
 4879SOL    HW226271   0.645   0.143  12.466 -1.1135  1.6188  0.9482
 4880SOL     OW26272   3.676   1.301   0.733  0.1786  0.2801  0.0211
 4880SOL    HW126273   3.589   1.280   0.700 -0.4936 -0.7383  2.4968
 4880SOL    HW226274   3.672   1.283   0.827 -0.4437 -1.4502 -0.3458
 4881SOL     OW26275   1.317   2.113   3.292  0.1652 -0.1837  0.4537
 4881SOL    HW126276   1.268   2.195   3.283 -0.5877 -0.4976  1.6541
 4881SOL    HW226277   1.273   2.056   3.229  1.9672 -1.5729  0.4245
 4882SOL     OW26278   2.927   1.225   0.694  0.1149  0.2238  0.6034
 4882SOL    HW126279   2.838   1.243   0.665 -0.1854  0.1774  1.4728
 4882SOL    HW226280   2.930   1.238   0.789  0.3712 -0.6122  0.7088
 4883SOL     OW26281   3.753   3.199   2.816 -0.4888  0.4505 -0.1481
 4883SOL    HW126282   3.664   3.223   2.789 -0.3479  1.0367 -0.0815
 4883SOL    HW226283   3.759   3.255   2.893  2.3491 -0.5825  0.3863
 4884SOL     OW26284   0.197   1.420   4.812  0.3143 -0.0648 -0.1956
 4884SOL    HW126285   0.239   1.366   4.879 -1.2217  0.3357  1.0947
 4884SOL    HW226286   0.274   1.470   4.784  0.8392 -0.1723  1.0576
 4885SOL     OW26287   0.412   2.350   2.734  0.4448 -0.0715 -0.3919
 4885SOL    HW126288   0.334   2.399   2.706 -0.7409 -2.0771 -0.5832
 4885SOL    HW226289   0.447   2.419   2.790 -0.9587  1.2716 -1.1626
 4886SOL     OW26290   3.082   1.897  10.411 -0.2708  0.3279  0.2224
 4886SOL    HW126291   3.103   1.812  10.449 -1.0829 -0.0825 -0.2413
 4886SOL    HW226292   3.138   1.895  10.333  1.2657 -0.6930  1.3545
 4887SOL     OW26293   1.777   0.949   2.325 -0.6723  0.0078  0.1951
 4887SOL    HW126294   1.847   1.015   2.322 -0.3789 -0.3338 -0.4701
 4887SOL    HW226295   1.764   0.949   2.230  2.7384  1.9310 -0.2912
 4888SOL     OW26296   2.578   2.707   9.490  0.4695 -0.0655  0.4845
 4888SOL    HW126297   2.629   2.768   9.436 -0.6363  1.4563  1.1575
 4888SOL    HW226298   2.641   2.683   9.558 -2.6565  0.3899  3.5250
 4889SOL     OW26299   0.393   3.154   3.097 -0.2496 -0.2572 -0.8008
 4889SOL    HW126300   0.417   3.136   3.006  0.0586  0.8077 -0.9201
 4889SOL    HW226301   0.428   3.241   3.113 -2.1296 -0.1986  3.0566
 4890SOL     OW26302   3.774   3.605   7.524  0.4984 -0.3696  0.3327
 4890SOL    HW126303   3.741   3.692   7.545 -1.7163 -0.7685 -1.4003
 4890SOL    HW226304   3.804   3.576   7.610 -1.8522  0.5011  1.4626
 4891SOL     OW26305   3.482   1.965   5.605 -0.5254  0.1396  0.2357
 4891SOL    HW126306   3.424   1.915   5.662 -0.8297  1.2589  0.9069
 4891SOL    HW226307   3.562   1.968   5.658 -1.9477 -2.3606  2.5147
 4892SOL     OW26308   4.075   2.088   3.057  0.1778 -0.4314 -0.0046
 4892SOL    HW126309   4.035   2.086   2.970 -0.1516 -1.8393  0.1884
 4892SOL    HW226310   4.164   2.111   3.029 -0.2466 -0.1422 -1.1291
 4893SOL     OW26311   3.007   1.358   2.155  0.5046  0.6840  0.3595
 4893SOL    HW126312   2.954   1.331   2.230  1.8108 -0.6256  0.8184
 4893SOL    HW226313   3.065   1.285   2.134  0.9823  0.4540  2.5185
 4894SOL     OW26314   2.125   3.182   4.816 -0.6985  0.0324  0.3366
 4894SOL    HW126315   2.115   3.262   4.867 -0.5578  0.6246 -0.5699
 4894SOL    HW226316   2.054   3.123   4.840 -2.3098  0.7261 -2.7791
 4895SOL     OW26317   3.163   3.110   7.564  0.8132  0.6272  0.3990
 4895SOL    HW126318   3.087   3.111   7.622 -0.1068  1.1576 -0.8342
 4895SOL    HW226319   3.136   3.045   7.499  0.0934  2.3635 -1.0311
 4896SOL     OW26320   0.256   4.694   4.905 -0.6182 -0.3736  0.0790
 4896SOL    HW126321   0.275   0.042   4.926  1.9952 -0.3932 -2.1359
 4896SOL    HW226322   0.329   4.677   4.846  0.2080 -2.4856  1.7240
 4897SOL     OW26323   4.529   1.122   2.561  0.6403 -0.5737 -0.5264
 4897SOL    HW126324   4.433   1.121   2.556  0.4544  1.6676  2.6282
 4897SOL    HW226325   4.552   1.037   2.598  0.7557 -0.7105 -0.9078
 4898SOL     OW26326   2.723   4.717   7.935 -0.0306  0.1381  0.5168
 4898SOL    HW126327   2.722   0.037   7.864  0.2445  1.0892  1.3739
 4898SOL    HW226328   2.764   0.022   8.006  2.7466 -0.1305 -0.8816
 4899SOL     OW26329   2.627   2.034   6.292  0.3010  0.0477  0.5740
 4899SOL    HW126330   2.583   2.013   6.210  0.1540  2.1997  0.1057
 4899SOL    HW226331   2.555   2.017   6.353  0.3703 -2.2488  0.0264
 4900SOL     OW26332   4.370   4.035   2.421  0.1981 -0.3286  0.0274
 4900SOL    HW126333   4.432   4.057   2.351  0.4053  3.1046  1.2733
 4900SOL    HW226334   4.291   4.025   2.368 -1.1678  1.1008  1.8441
 4901SOL     OW26335   1.606   1.769   9.969 -0.5626 -0.1294  0.2543
 4901SOL    HW126336   1.549   1.813   9.907 -1.1181 -1.3419 -0.0873
 4901SOL    HW226337   1.684   1.824   9.979  0.4891 -1.5657 -0.1334
 4902SOL     OW26338   3.773   3.987   8.504  0.1134  0.4311 -0.5231
 4902SOL    HW126339   3.791   4.034   8.422  2.4049 -0.2077 -0.3692
 4902SOL    HW226340   3.746   3.904   8.465 -0.2856  0.9117 -1.2736
 4903SOL     OW26341   0.932   3.456  13.707 -0.0611  0.1785  0.0181
 4903SOL    HW126342   0.913   3.547  13.684 -0.7745  0.4912  1.9089
 4903SOL    HW226343   0.923   3.456  13.802 -0.9429  2.3601 -0.0540
 4904SOL     OW26344   1.826   0.533   2.947 -0.6244 -0.0811 -0.3291
 4904SOL    HW126345   1.750   0.503   2.997  0.6228  0.3659  1.8382
 4904SOL    HW226346   1.793   0.520   2.858  0.3349  0.5896 -0.7755
 4905SOL     OW26347   4.602   3.591  14.508 -0.6623 -0.4625  0.7516
 4905SOL    HW126348   4.615   3.605  14.602  0.5656 -0.6805  0.6063
 4905SOL    HW226349   4.615   3.679  14.473 -1.5328 -0.5751  0.1315
 4906SOL     OW26350   3.222   1.500   4.024 -0.2389  0.0299 -0.0109
 4906SOL    HW126351   3.275   1.548   4.087 -0.1716  0.7142 -0.5906
 4906SOL    HW226352   3.282   1.471   3.955 -1.4972 -0.0119 -1.0798
 4907SOL     OW26353   3.570   1.038  15.401  0.1174 -0.0059  0.1682
 4907SOL    HW126354   3.529   1.036  15.314 -2.2973 -0.3401  1.3232
 4907SOL    HW226355   3.515   0.973  15.445 -2.9602  4.8931  3.4030
 4908SOL     OW26356   3.793   3.702  11.290  0.1249 -0.2759 -0.4658
 4908SOL    HW126357   3.844   3.775  11.324 -0.1395 -0.1705 -0.2887
 4908SOL    HW226358   3.743   3.674  11.367 -1.1034  2.3753 -0.2636
 4909SOL     OW26359   4.510   0.906   1.707  0.0062 -0.6137  0.8982
 4909SOL    HW126360   4.495   0.999   1.691  0.6951 -1.0520 -2.3861
 4909SOL    HW226361   4.566   0.883   1.632 -0.6681  0.0297  0.2002
 4910SOL     OW26362   0.965   3.583   4.582  0.7022 -0.2398  0.4562
 4910SOL    HW126363   0.902   3.653   4.600 -1.4897 -2.1435  0.2488
 4910SOL    HW226364   0.907   3.517   4.544 -1.6460  1.2254  1.5438
 4911SOL     OW26365   1.191   1.739  12.138 -0.1691 -0.6969 -0.6353
 4911SOL    HW126366   1.178   1.766  12.047 -0.4085  0.6168 -0.2124
 4911SOL    HW226367   1.196   1.644  12.124  0.4549 -0.7697  0.0644
 4912SOL     OW26368   2.814   1.402   6.498 -0.0576  0.2964 -0.2676
 4912SOL    HW126369   2.783   1.324   6.452 -0.9415  0.3396  0.2539
 4912SOL    HW226370   2.762   1.401   6.578  0.4383 -0.8989  0.0451
 4913SOL     OW26371   1.261   2.904   7.348 -0.3186  0.2617 -0.6704
 4913SOL    HW126372   1.268   2.824   7.400  0.0704  0.8494  0.1632
 4913SOL    HW226373   1.347   2.945   7.342  0.0058 -0.2840  0.4620
 4914SOL     OW26374   0.509   0.177   7.037 -0.3230  0.0352  0.2031
 4914SOL    HW126375   0.501   0.167   6.942 -4.2572 -0.9054  0.6613
 4914SOL    HW226376   0.603   0.164   7.055 -0.2560 -0.0277 -0.2052
 4915SOL     OW26377   1.900   3.995   9.193 -0.0203  0.5103 -0.4232
 4915SOL    HW126378   1.958   4.058   9.151  0.3395 -0.6494 -1.6886
 4915SOL    HW226379   1.833   4.050   9.234 -0.7743 -1.4479  0.9587
 4916SOL     OW26380   1.969   4.105   9.667 -0.6488  0.7728 -0.1385
 4916SOL    HW126381   1.933   4.038   9.724 -0.2248  0.3539 -0.3675
 4916SOL    HW226382   2.059   4.076   9.678 -0.4451  1.2751 -0.4746
 4917SOL     OW26383   2.286   3.423   7.778 -0.4137  0.5331 -0.6124
 4917SOL    HW126384   2.216   3.410   7.841  0.9549  0.0239  0.7869
 4917SOL    HW226385   2.253   3.358   7.716  0.0088  0.4335 -0.7352
 4918SOL     OW26386   3.058   4.034   9.916  0.1800 -0.0963  0.0801
 4918SOL    HW126387   3.085   4.019  10.006  0.6811  0.3299  0.0013
 4918SOL    HW226388   3.122   3.979   9.870  0.6620  0.6481 -0.1425
 4919SOL     OW26389   4.642   0.975  10.519 -0.0723  0.3301 -0.4851
 4919SOL    HW126390   4.717   1.035  10.510 -0.3559  0.7407 -0.0850
 4919SOL    HW226391   4.595   0.995  10.438  2.5181 -0.6013 -2.2661
 4920SOL     OW26392   4.065   3.690   5.700 -0.0591  0.7357  0.1986
 4920SOL    HW126393   4.046   3.610   5.651  1.9343 -0.6243  1.6097
 4920SOL    HW226394   4.037   3.666   5.788  1.6466  0.3504  0.6309
 4921SOL     OW26395   3.576   3.382   7.703  0.7381 -0.1193  0.1714
 4921SOL    HW126396   3.547   3.468   7.673  0.1994 -0.4908 -0.3969
 4921SOL    HW226397   3.511   3.333   7.651  0.4157 -1.0892  1.4998
 4922SOL     OW26398   3.082   2.343   0.716  0.0640  0.2656 -0.3548
 4922SOL    HW126399   3.086   2.357   0.811  2.6457  0.4054 -0.4861
 4922SOL    HW226400   3.170   2.375   0.695 -0.2543  0.7493 -0.9552
 4923SOL     OW26401   3.408   3.922   2.867 -0.2012 -0.6190 -0.2010
 4923SOL    HW126402   3.371   3.889   2.785 -1.1125 -0.5692  0.1969
 4923SOL    HW226403   3.346   3.887   2.931  0.1870 -1.8068 -0.4594
 4924SOL     OW26404   1.801   4.731   5.319  0.4717 -0.5637  0.1765
 4924SOL    HW126405   1.779   4.657   5.375  0.7671 -0.2046  0.7745
 4924SOL    HW226406   1.749   0.055   5.361  1.7364  0.8272 -0.4871
 4925SOL     OW26407   4.668   0.613   3.111  0.1659  0.0985 -0.0053
 4925SOL    HW126408   4.597   0.589   3.172 -0.0737 -0.0569 -0.3448
 4925SOL    HW226409   4.733   0.548   3.136 -1.3287 -1.2563  0.3639
 4926SOL     OW26410   0.435   3.046  10.552  0.5676 -0.7467  0.5103
 4926SOL    HW126411   0.508   3.014  10.500  0.2736  1.2574 -1.1169
 4926SOL    HW226412   0.436   2.988  10.629  1.1171  1.5611  2.2602
 4927SOL     OW26413   2.984   1.206  10.212 -0.0719  0.0271 -0.4273
 4927SOL    HW126414   2.954   1.296  10.194  2.6272  0.9994 -0.0831
 4927SOL    HW226415   3.076   1.210  10.185  0.3515 -3.7368  0.5573
 4928SOL     OW26416   0.765   1.612  14.647 -0.0890 -0.4913 -0.0312
 4928SOL    HW126417   0.807   1.694  14.620  0.2603 -1.0563 -1.2077
 4928SOL    HW226418   0.677   1.621  14.609 -0.1793 -2.2897 -0.2287
 4929SOL     OW26419   3.073   2.840   1.987  0.1732 -0.2856 -0.4313
 4929SOL    HW126420   3.122   2.823   2.067  1.6376  0.2360 -1.2231
 4929SOL    HW226421   2.994   2.888   2.013  0.3785 -0.6165  0.8031
 4930SOL     OW26422   0.293   0.742   7.314 -0.4665  0.1461 -0.0162
 4930SOL    HW126423   0.324   0.831   7.331  0.2899 -0.5700  2.3429
 4930SOL    HW226424   0.267   0.714   7.402 -2.0880 -0.6116 -0.7401
 4931SOL     OW26425   0.946   4.141  13.746 -0.1305 -0.5029  0.5126
 4931SOL    HW126426   0.980   4.230  13.755 -4.1266  1.0233  0.1715
 4931SOL    HW226427   0.864   4.166  13.788  0.7702  1.4293  1.1439
 4932SOL     OW26428   2.928   3.863   0.852  0.2642 -0.0538  0.1825
 4932SOL    HW126429   2.998   3.916   0.890 -0.2415  1.3828 -0.8902
 4932SOL    HW226430   2.929   3.908   0.768 -0.3858 -0.3349  0.0263
 4933SOL     OW26431   1.514   3.882   0.425 -0.0326 -0.2983  0.2736
 4933SOL    HW126432   1.419   3.895   0.435  0.3694  2.4686  0.2312
 4933SOL    HW226433   1.545   3.972   0.424  1.1340 -0.6997  0.7116
 4934SOL     OW26434   1.564   4.352   9.794 -0.0059 -0.4218 -0.5530
 4934SOL    HW126435   1.656   4.326   9.794  0.6868  2.1247  0.8703
 4934SOL    HW226436   1.524   4.306   9.720  0.7090 -1.8985 -0.0211
 4935SOL     OW26437   4.116   0.307   3.078  0.2475  0.3245  0.1101
 4935SOL    HW126438   4.061   0.241   3.121  0.4997  1.0830  1.5698
 4935SOL    HW226439   4.165   0.243   3.026 -1.0006 -0.4399 -0.1324
 4936SOL     OW26440   2.170   0.894   6.033  0.4471  0.4162  0.0083
 4936SOL    HW126441   2.115   0.902   6.111  0.5967  3.6366 -0.2341
 4936SOL    HW226442   2.129   0.820   5.988  2.4806 -0.3887 -0.5219
 4937SOL     OW26443   0.826   3.077   1.528 -0.0340 -0.3086  0.0098
 4937SOL    HW126444   0.892   3.076   1.597  0.2457  1.1144 -0.2157
 4937SOL    HW226445   0.861   3.036   1.449  0.2024 -1.8834  0.9328
 4938SOL     OW26446   0.800   1.269   6.304 -0.2167 -0.5273 -0.7440
 4938SOL    HW126447   0.855   1.254   6.227  0.3034  0.2084 -0.5076
 4938SOL    HW226448   0.832   1.353   6.336 -3.5208  1.7151 -3.3090
 4939SOL     OW26449   3.920   3.562   5.873  0.6263 -0.1593  0.4778
 4939SOL    HW126450   3.835   3.534   5.908 -1.4218 -0.7808 -4.9459
 4939SOL    HW226451   3.957   3.477   5.852  2.9264  1.3544 -1.5494
 4940SOL     OW26452   2.426   2.611  17.125 -0.3481  0.3711  0.0773
 4940SOL    HW126453   2.398   2.520  17.135 -0.1659  0.1901 -1.1178
 4940SOL    HW226454   2.372   2.630  17.048 -0.0559  2.3108  0.3577
 4941SOL     OW26455   1.760   1.601   2.458  0.2315 -0.6482  0.1939
 4941SOL    HW126456   1.749   1.524   2.403  2.8705 -0.4288 -0.6360
 4941SOL    HW226457   1.682   1.647   2.425  2.0517  0.4179 -2.7052
 4942SOL     OW26458   4.576   2.564   5.395  0.7264 -0.6131 -0.0760
 4942SOL    HW126459   4.628   2.571   5.315  0.8134 -1.3512 -0.0884
 4942SOL    HW226460   4.615   2.634   5.448  0.6704  0.2586 -1.1932
 4943SOL     OW26461   2.505   2.077   5.586  0.4116 -0.7629  0.3283
 4943SOL    HW126462   2.591   2.080   5.628 -0.1790  1.3552  1.3958
 4943SOL    HW226463   2.489   1.993   5.544  0.4457  0.1517 -1.5220
 4944SOL     OW26464   1.780   3.450  16.038 -0.3235  0.2957  0.6697
 4944SOL    HW126465   1.751   3.390  16.108 -0.8064  0.6839  0.7989
 4944SOL    HW226466   1.846   3.505  16.080  0.4587  0.4993 -0.8278
 4945SOL     OW26467   4.434   2.562   6.880 -0.1850  0.3077  0.3657
 4945SOL    HW126468   4.351   2.601   6.852  0.6325  2.0764  0.3707
 4945SOL    HW226469   4.449   2.622   6.954 -3.2814  1.9491 -0.3088
 4946SOL     OW26470   3.042   3.989   8.941  0.4911  0.3122 -0.1194
 4946SOL    HW126471   3.128   4.010   8.978  1.0192 -1.9780 -0.0159
 4946SOL    HW226472   3.075   3.940   8.865 -1.5719 -0.3981 -0.5608
 4947SOL     OW26473   0.233   2.328   6.336 -0.0974 -0.6010 -0.4462
 4947SOL    HW126474   0.184   2.340   6.254  0.0022  1.6550 -0.1839
 4947SOL    HW226475   0.200   2.239   6.347  0.4512 -0.5546  1.5040
 4948SOL     OW26476   2.041   3.995   3.097  0.4325  0.7565  0.2673
 4948SOL    HW126477   2.048   4.078   3.049 -1.1610  0.9212  0.3222
 4948SOL    HW226478   1.955   4.014   3.136  0.1498 -0.4396  0.2292
 4949SOL     OW26479   0.492   3.405   5.198  0.1865 -0.1143 -0.2330
 4949SOL    HW126480   0.425   3.431   5.135  0.5756 -0.4344 -0.7852
 4949SOL    HW226481   0.575   3.420   5.152 -1.1563 -0.9493 -2.9273
 4950SOL     OW26482   1.188   4.035   4.109  0.3351 -0.0964 -0.2727
 4950SOL    HW126483   1.279   4.059   4.095  0.0741 -0.2147 -2.1357
 4950SOL    HW226484   1.154   4.116   4.148 -1.6969 -0.1597 -1.9183
 4951SOL     OW26485   4.603   3.708   9.685  0.3022 -0.1091  0.2046
 4951SOL    HW126486   4.523   3.680   9.640 -0.4962  0.2731  1.4148
 4951SOL    HW226487   4.590   3.802   9.692  3.0179  0.3382 -0.7441
 4952SOL     OW26488   4.078   2.620   1.880 -0.4783  0.5129 -0.8105
 4952SOL    HW126489   4.023   2.569   1.821 -0.3477  2.1071 -2.3099
 4952SOL    HW226490   4.033   2.705   1.881 -0.5000  0.4723  1.2277
 4953SOL     OW26491   3.005   3.526  11.893  0.6654  0.3602  0.6167
 4953SOL    HW126492   3.082   3.488  11.851  0.3060 -0.2566  0.5186
 4953SOL    HW226493   2.963   3.580  11.827  0.9266  0.0550  0.2046
 4954SOL     OW26494   0.462   4.355  15.769 -0.6603 -0.4579  0.4879
 4954SOL    HW126495   0.408   4.426  15.804  2.0184  0.8925  1.9640
 4954SOL    HW226496   0.468   4.289  15.838 -0.4371  0.8880  1.7535
 4955SOL     OW26497   2.892   1.258  12.024  0.5506 -0.5355 -0.0664
 4955SOL    HW126498   2.938   1.187  12.070  0.0934 -0.6815  0.1688
 4955SOL    HW226499   2.955   1.321  12.058  0.1732  0.1292 -0.5966
 4956SOL     OW26500   0.833   3.845   7.467  0.2379  0.0509 -0.3694
 4956SOL    HW126501   0.836   3.749   7.461  0.2238 -0.2722  4.6884
 4956SOL    HW226502   0.925   3.870   7.459 -0.3389  2.0802 -0.6421
 4957SOL     OW26503   2.770   3.110   8.056 -0.4624 -0.2028 -0.0330
 4957SOL    HW126504   2.743   3.099   8.147 -1.2403 -0.4886 -0.3045
 4957SOL    HW226505   2.697   3.066   8.013 -0.7147 -0.8375  1.0457
 4958SOL     OW26506   3.505   2.090   4.300 -0.0525  0.2100 -0.1915
 4958SOL    HW126507   3.464   2.166   4.341 -0.0051  0.3635 -0.4292
 4958SOL    HW226508   3.537   2.053   4.382  0.8570  1.7000  0.1187
 4959SOL     OW26509   1.469   4.050   4.325 -0.6571  0.0774  0.8063
 4959SOL    HW126510   1.388   4.005   4.348  0.0689 -0.6847  1.8376
 4959SOL    HW226511   1.468   4.131   4.375  0.2656  0.7677 -0.2963
 4960SOL     OW26512   2.663   1.595   6.683  0.0714 -0.2276  0.5540
 4960SOL    HW126513   2.702   1.669   6.637 -1.2428 -0.3488 -0.7513
 4960SOL    HW226514   2.611   1.630   6.754  0.9901 -0.3511  1.2852
 4961SOL     OW26515   4.617   3.242   6.941 -0.3397 -0.1313 -0.2625
 4961SOL    HW126516   4.626   3.216   6.849  1.4625  0.3771 -0.2350
 4961SOL    HW226517   4.569   3.325   6.943 -2.6738 -1.4299 -3.1173
 4962SOL     OW26518   2.104   4.113   6.193  0.3801 -0.3276  0.7842
 4962SOL    HW126519   2.023   4.155   6.162  0.5940  0.6160  1.5095
 4962SOL    HW226520   2.113   4.158   6.277  0.0523  0.1960  0.5353
 4963SOL     OW26521   2.354   0.527   8.732  0.3870  0.2207 -0.5314
 4963SOL    HW126522   2.309   0.518   8.816  0.3246  1.1570 -0.4656
 4963SOL    HW226523   2.380   0.435   8.724  0.9914  0.5744 -2.6816
 4964SOL     OW26524   4.604   2.450  14.371 -0.1032  0.0963  0.2701
 4964SOL    HW126525   4.700   2.441  14.370 -0.2050 -0.6837 -2.5545
 4964SOL    HW226526   4.569   2.376  14.420  0.3632 -0.6686 -0.5642
 4965SOL     OW26527   1.523   4.072   7.385 -0.3006  0.2254 -0.0580
 4965SOL    HW126528   1.508   4.105   7.297  1.8269  2.2761  0.3419
 4965SOL    HW226529   1.616   4.092   7.396 -0.3606  0.2132  0.4730
 4966SOL     OW26530   4.158   3.185   3.449  0.3947 -0.2574 -0.3250
 4966SOL    HW126531   4.235   3.168   3.396  2.1127 -0.2841  2.1708
 4966SOL    HW226532   4.086   3.168   3.388  0.5534 -2.9362  0.2243
 4967SOL     OW26533   0.358   0.682   2.882 -0.0229 -0.3749  0.0711
 4967SOL    HW126534   0.382   0.761   2.833 -0.3697 -0.8771 -0.8986
 4967SOL    HW226535   0.283   0.662   2.827 -0.8349 -0.6463  1.2897
 4968SOL     OW26536   0.882   3.520   7.235  0.1851  0.4749  0.2134
 4968SOL    HW126537   0.855   3.514   7.327 -1.3598  0.1767 -0.2524
 4968SOL    HW226538   0.871   3.431   7.202  0.1959  1.0545 -1.3670
 4969SOL     OW26539   0.362   2.966  13.499 -0.1734  0.1256 -0.1682
 4969SOL    HW126540   0.432   3.028  13.522 -1.4651  0.8722  1.7131
 4969SOL    HW226541   0.297   3.030  13.470  0.1073  0.3100 -0.3977
 4970SOL     OW26542   3.287   3.201   2.289  0.1991  0.1055  0.0614
 4970SOL    HW126543   3.262   3.160   2.372 -0.6273 -1.2426 -0.8474
 4970SOL    HW226544   3.315   3.289   2.313  0.2354  0.0832  0.0997
 4971SOL     OW26545   0.783   4.282   2.845  0.0551  0.0470 -0.2722
 4971SOL    HW126546   0.688   4.293   2.847 -0.0315 -0.9257  1.1672
 4971SOL    HW226547   0.802   4.210   2.905  2.0618  0.2367 -0.6786
 4972SOL     OW26548   0.893   1.859  13.887 -0.2983 -0.3601  0.4551
 4972SOL    HW126549   0.877   1.945  13.849  1.2967  0.1079  0.8396
 4972SOL    HW226550   0.801   1.840  13.900  0.2279 -1.8172  2.1275
 4973SOL     OW26551   4.566   2.234  14.537  0.2093 -0.0608 -0.8084
 4973SOL    HW126552   4.633   2.175  14.570 -0.4368 -0.5077 -0.2986
 4973SOL    HW226553   4.502   2.233  14.608  0.0592 -1.6084 -0.9762
 4974SOL     OW26554   4.160   0.975   2.791 -0.1598  0.4825  0.2507
 4974SOL    HW126555   4.091   0.921   2.753 -1.2993  1.7971  0.4272
 4974SOL    HW226556   4.202   0.919   2.856 -0.2065 -1.2628 -1.2422
 4975SOL     OW26557   4.239   2.666   8.352 -0.2270 -0.3230 -0.3316
 4975SOL    HW126558   4.329   2.643   8.373 -0.0745 -0.2464 -0.9054
 4975SOL    HW226559   4.235   2.648   8.258 -1.2480 -1.3464 -0.1044
 4976SOL     OW26560   1.179   2.726   6.408 -0.5858 -0.4718  0.2048
 4976SOL    HW126561   1.124   2.674   6.466  1.2740 -0.2615  2.1760
 4976SOL    HW226562   1.250   2.753   6.467 -0.5203 -3.4688  1.5582
 4977SOL     OW26563   3.970   2.540  11.427 -0.5403 -0.2201  0.0443
 4977SOL    HW126564   3.931   2.619  11.391  1.2534  0.6953  0.1103
 4977SOL    HW226565   4.050   2.536  11.374 -0.5720 -1.1025  0.0517
 4978SOL     OW26566   1.502   1.377  13.529 -0.1886  0.3956  0.2784
 4978SOL    HW126567   1.499   1.443  13.599 -2.2521  0.9409 -0.3207
 4978SOL    HW226568   1.519   1.435  13.455 -1.2254  0.5469  0.1619
 4979SOL     OW26569   1.466   2.165   8.539 -0.2555 -0.3544 -0.3145
 4979SOL    HW126570   1.400   2.172   8.608  0.1914  1.5245 -0.0756
 4979SOL    HW226571   1.523   2.089   8.551 -0.8349 -1.1471 -2.5529
 4980SOL     OW26572   2.460   0.099   2.481 -0.3682  1.0123  0.6742
 4980SOL    HW126573   2.466   0.013   2.440  1.4039 -0.0530  3.1720
 4980SOL    HW226574   2.545   0.136   2.456  0.4814 -1.5107 -0.1779
 4981SOL     OW26575   0.624   4.273   6.315 -0.7374  0.1269 -0.6336
 4981SOL    HW126576   0.655   4.300   6.402 -1.5500  2.0721 -0.9530
 4981SOL    HW226577   0.529   4.277   6.316 -0.7229  0.5000 -0.5202
 4982SOL     OW26578   3.439   1.675   3.770 -0.1195  0.4542  0.2012
 4982SOL    HW126579   3.501   1.685   3.842 -2.1517  1.3715  1.8185
 4982SOL    HW226580   3.485   1.609   3.718  0.2092  0.8754 -0.0489
 4983SOL     OW26581   3.497   1.219   2.068 -0.2969  0.1200  0.2459
 4983SOL    HW126582   3.493   1.124   2.084  0.3394 -0.3164 -2.1731
 4983SOL    HW226583   3.484   1.254   2.156 -0.1286 -0.6026  0.5628
 4984SOL     OW26584   4.210   3.219   3.696 -0.2852 -0.0587  0.2292
 4984SOL    HW126585   4.283   3.157   3.702 -2.0958 -2.0919  1.0331
 4984SOL    HW226586   4.191   3.210   3.602 -1.8086  0.3500  0.5005
 4985SOL     OW26587   2.686   2.290   1.270  0.0329  0.0261 -0.3963
 4985SOL    HW126588   2.764   2.237   1.253 -0.5220 -0.2468 -2.0814
 4985SOL    HW226589   2.715   2.355   1.333  0.5120 -0.4350 -0.1360
 4986SOL     OW26590   2.509   0.840   6.675  0.1284  0.0330 -0.8237
 4986SOL    HW126591   2.602   0.862   6.685 -0.4408  0.9151  2.3090
 4986SOL    HW226592   2.507   0.750   6.706  1.3528  0.0363 -0.7169
 4987SOL     OW26593   3.265   0.041   8.699 -0.6050  0.2743  0.3424
 4987SOL    HW126594   3.279   0.135   8.695  1.1964  0.0585  1.5489
 4987SOL    HW226595   3.210   0.022   8.623  1.3966  1.8621 -1.5047
 4988SOL     OW26596   4.576   1.797  15.746 -0.3541  0.5157  0.2262
 4988SOL    HW126597   4.531   1.734  15.689 -0.1679  0.2098  0.4156
 4988SOL    HW226598   4.500   1.828  15.795 -1.5321  0.5082 -1.6073
 4989SOL     OW26599   3.667   3.723   9.162 -0.4905  0.5651  0.1737
 4989SOL    HW126600   3.628   3.724   9.250 -0.6841 -0.7354  0.0975
 4989SOL    HW226601   3.649   3.631   9.141 -0.6988  0.6915 -0.1960
 4990SOL     OW26602   2.249   3.321   6.307  0.0028 -0.2215 -0.0753
 4990SOL    HW126603   2.316   3.341   6.242 -2.6752  1.3656 -2.3803
 4990SOL    HW226604   2.277   3.230   6.319  1.6289 -0.0463 -2.6175
 4991SOL     OW26605   0.887   0.370   3.001  0.6401  0.7362 -0.4356
 4991SOL    HW126606   0.952   0.335   3.062 -0.9514  0.0047  0.8439
 4991SOL    HW226607   0.813   0.381   3.061 -0.5305  0.7472 -1.8628
 4992SOL     OW26608   1.539   0.245   8.105  0.4804  0.2537  0.5143
 4992SOL    HW126609   1.534   0.266   8.011  0.5348  0.3362  0.5296
 4992SOL    HW226610   1.633   0.261   8.117  0.3655  0.0949  1.6132
 4993SOL     OW26611   0.574   2.199   9.312  0.0196 -0.5184  0.2482
 4993SOL    HW126612   0.575   2.292   9.292 -0.0828 -0.4435  0.5947
 4993SOL    HW226613   0.559   2.167   9.223  0.1136  0.6948 -0.2053
 4994SOL     OW26614   3.860   2.827   2.688  0.3706 -0.6951 -0.3436
 4994SOL    HW126615   3.773   2.852   2.655 -0.8060 -1.7546  1.9210
 4994SOL    HW226616   3.890   2.768   2.618 -5.2924 -0.9945 -2.5221
 4995SOL     OW26617   2.848   3.905   6.327 -0.3073  0.2643 -0.1575
 4995SOL    HW126618   2.779   3.965   6.356 -0.8917  0.3594 -1.7104
 4995SOL    HW226619   2.892   3.877   6.406 -2.0540 -0.2487  0.6410
 4996SOL     OW26620   0.958   2.980   5.240 -0.2260 -0.1585 -0.3952
 4996SOL    HW126621   0.990   3.069   5.256  0.9271 -0.0089 -3.7073
 4996SOL    HW226622   1.013   2.957   5.165 -0.2836 -2.0699  0.1536
 4997SOL     OW26623   2.322   0.667   3.841 -0.7513  0.2974 -0.3594
 4997SOL    HW126624   2.259   0.616   3.790  0.8656 -1.9678 -0.1106
 4997SOL    HW226625   2.258   0.714   3.894 -0.8710  1.2804 -1.3746
 4998SOL     OW26626   0.014   2.023  10.391  0.0085 -0.0211 -0.3582
 4998SOL    HW126627   0.094   2.024  10.337  1.0202  1.9910  1.1874
 4998SOL    HW226628   0.035   1.955  10.455 -0.1111  1.9469  1.7443
 4999SOL     OW26629   0.011   3.956   5.729  0.0095 -0.0923  0.3045
 4999SOL    HW126630   4.699   4.021   5.687  0.7512 -0.7255 -1.6627
 4999SOL    HW226631   0.009   3.876   5.677 -1.0340  0.7155 -0.8969
 5000SOL     OW26632   3.994   0.893  11.400 -0.4704  0.2169 -0.4445
 5000SOL    HW126633   3.966   0.871  11.311 -0.5712  0.1288 -0.3908
 5000SOL    HW226634   4.063   0.956  11.378 -0.7266  0.0591 -1.7008
 5001SOL     OW26635   3.415   3.710   9.301 -0.1952  0.2202  0.1182
 5001SOL    HW126636   3.394   3.722   9.208  1.7863  1.0962 -0.2062
 5001SOL    HW226637   3.420   3.798   9.340 -0.0051 -0.4207  1.5349
 5002SOL     OW26638   4.648   4.280   3.377  0.4652  0.1090  0.3094
 5002SOL    HW126639   4.587   4.230   3.432  0.4621 -1.7418 -1.3758
 5002SOL    HW226640   4.726   4.281   3.431 -0.5437  1.2441  1.7504
 5003SOL     OW26641   3.481   2.029   8.162 -0.1812 -0.8512  0.4816
 5003SOL    HW126642   3.406   2.085   8.143 -0.1072 -0.2677  1.9197
 5003SOL    HW226643   3.458   1.952   8.109  1.5099 -0.5446 -0.6944
 5004SOL     OW26644   2.690   4.057   3.216  0.2202  0.4333  0.6757
 5004SOL    HW126645   2.639   4.071   3.295 -0.0231  0.0066  0.5953
 5004SOL    HW226646   2.767   4.015   3.255 -0.1529 -0.4711  0.4467
 5005SOL     OW26647   4.430   2.805   1.294 -0.2323  0.1550 -0.4562
 5005SOL    HW126648   4.506   2.851   1.259  0.4488 -1.5330 -1.2010
 5005SOL    HW226649   4.436   2.725   1.242 -1.4934 -0.1731 -0.0813
 5006SOL     OW26650   2.022   1.542   0.495  0.1933 -0.2130 -0.9855
 5006SOL    HW126651   2.073   1.591   0.560  0.7175  0.4494 -1.8943
 5006SOL    HW226652   1.961   1.498   0.554  0.3670  0.4557 -0.2963
 5007SOL     OW26653   0.375   3.421   8.372 -0.4682 -0.7188  0.5806
 5007SOL    HW126654   0.308   3.436   8.439  1.0858  0.1246  1.9390
 5007SOL    HW226655   0.314   3.377   8.313 -0.3426  0.7435 -0.6354
 5008SOL     OW26656   2.270   0.070   4.048  0.0993  0.4442  0.1540
 5008SOL    HW126657   2.359   0.060   4.082  0.0758 -0.9035 -0.1782
 5008SOL    HW226658   2.277   0.057   3.953  0.1093  1.2072  0.0537
 5009SOL     OW26659   3.142   4.105   6.718 -0.5411 -0.1117  0.6438
 5009SOL    HW126660   3.056   4.101   6.759 -1.7141 -0.0392 -1.8533
 5009SOL    HW226661   3.121   4.169   6.650  2.1901  0.5992  0.4704
 5010SOL     OW26662   0.494   1.706   7.703  0.3703 -0.0366 -0.2779
 5010SOL    HW126663   0.440   1.754   7.640 -0.1862  0.4094  0.5417
 5010SOL    HW226664   0.480   1.618   7.668  2.1456 -0.5509  0.3172
 5011SOL     OW26665   2.092   4.466   5.562  0.1418 -0.0239 -0.3495
 5011SOL    HW126666   1.999   4.444   5.558  0.4874 -1.6573  0.5616
 5011SOL    HW226667   2.113   4.523   5.488 -1.7199 -0.0353 -0.8898
 5012SOL     OW26668   4.720   1.498   8.711 -0.0088  0.0248  0.1648
 5012SOL    HW126669   0.008   1.534   8.628 -1.2933  1.1212  0.1476
 5012SOL    HW226670   0.040   1.428   8.723  0.4063  0.0224 -2.0358
 5013SOL     OW26671   3.523   4.713  16.944  0.0648 -0.0899  0.9756
 5013SOL    HW126672   3.559   0.013  16.866  1.1217 -0.1272  1.4388
 5013SOL    HW226673   3.437   0.011  16.938  0.8780  1.9003  2.8024
 5014SOL     OW26674   2.687   0.673  14.126  0.5057 -0.0347 -0.6830
 5014SOL    HW126675   2.671   0.765  14.106  1.5429  0.3571  0.2927
 5014SOL    HW226676   2.633   0.628  14.061 -0.7479  0.0877  0.2622
 5015SOL     OW26677   0.660   2.906   3.122  0.5192 -0.4102  0.3404
 5015SOL    HW126678   0.669   3.000   3.107 -0.2177 -0.5473 -1.0359
 5015SOL    HW226679   0.750   2.886   3.148  1.4218  0.5797 -1.9983
 5016SOL     OW26680   2.453   2.381   7.319 -0.1000 -0.1126  0.6494
 5016SOL    HW126681   2.477   2.368   7.227 -0.1669 -1.4512  0.8151
 5016SOL    HW226682   2.359   2.361   7.320 -0.0200 -0.5431 -0.2546
 5017SOL     OW26683   4.660   0.881  14.483 -0.0148 -0.4919  0.0659
 5017SOL    HW126684   4.585   0.935  14.461  0.4213 -0.3662 -1.1124
 5017SOL    HW226685   4.629   0.806  14.534 -0.7430  1.0180  1.8731
 5018SOL     OW26686   1.023   1.923   4.595 -0.0023  0.2685  0.0991
 5018SOL    HW126687   0.993   2.000   4.547 -1.0029  2.3724  4.0804
 5018SOL    HW226688   0.989   1.848   4.547  1.2118 -0.3154  0.1553
 5019SOL     OW26689   3.900   2.975   4.288  0.1860  0.0590  0.4848
 5019SOL    HW126690   3.826   2.956   4.231 -0.2313  0.8521  0.7688
 5019SOL    HW226691   3.887   2.895   4.340  0.6473  1.2177  2.3833
 5020SOL     OW26692   4.010   2.697   7.907 -0.6426  0.0267  0.2870
 5020SOL    HW126693   4.026   2.632   7.839 -1.5190 -0.3528  0.4373
 5020SOL    HW226694   3.961   2.652   7.976  1.0500 -2.3687 -0.1005
 5021SOL     OW26695   0.896   0.670   7.455  0.0566  0.1477  0.1275
 5021SOL    HW126696   0.964   0.698   7.517  0.6203  1.4656 -1.0761
 5021SOL    HW226697   0.821   0.701   7.505  1.2944 -1.1795  2.7828
 5022SOL     OW26698   2.018   0.715  10.869  0.8005  0.1679  0.4608
 5022SOL    HW126699   2.077   0.656  10.917 -0.3095  0.3679  2.0272
 5022SOL    HW226700   2.074   0.790  10.849 -0.4846  0.4303 -2.1210
 5023SOL     OW26701   2.324   1.573   9.136 -0.5048 -0.2029  0.3388
 5023SOL    HW126702   2.412   1.593   9.104 -0.1506  0.7599  1.9381
 5023SOL    HW226703   2.327   1.480   9.157 -0.8014 -0.6476 -1.5068
 5024SOL     OW26704   1.589   2.646   5.562  0.1410 -0.0845 -0.0231
 5024SOL    HW126705   1.644   2.671   5.636 -0.2867 -2.6335  1.1686
 5024SOL    HW226706   1.566   2.559   5.596  1.7758 -0.3390  0.3962
 5025SOL     OW26707   1.594   0.150   7.703 -0.2480 -0.3440 -0.1890
 5025SOL    HW126708   1.624   0.199   7.626 -1.5105  0.2217 -0.3177
 5025SOL    HW226709   1.552   0.078   7.657 -1.5269  0.5807 -0.4877
 5026SOL     OW26710   2.851   2.472   7.694 -0.8484  0.4630 -0.7370
 5026SOL    HW126711   2.930   2.420   7.709 -1.2276 -0.0276 -0.4602
 5026SOL    HW226712   2.785   2.403   7.696 -0.5255  0.1464 -1.0108
 5027SOL     OW26713   1.991   2.412  12.281 -0.1119 -0.2216 -0.0207
 5027SOL    HW126714   1.978   2.319  12.301 -0.5212  0.0825  1.1163
 5027SOL    HW226715   2.035   2.410  12.196 -0.1053  0.0639 -0.0219
 5028SOL     OW26716   4.652   3.936   8.782 -0.5749 -0.0311  0.0226
 5028SOL    HW126717   4.712   3.869   8.814  0.4955  0.3695 -1.1465
 5028SOL    HW226718   4.666   4.018   8.830  1.7173 -0.4208 -0.0126
 5029SOL     OW26719   1.347   1.293   8.398 -0.9699 -0.0971 -0.4375
 5029SOL    HW126720   1.440   1.312   8.386 -0.6597 -1.4840 -0.1474
 5029SOL    HW226721   1.355   1.198   8.411  0.8934  0.2840  1.2137
 5030SOL     OW26722   3.888   2.170   7.001 -0.5089  0.0666  0.3073
 5030SOL    HW126723   3.842   2.176   6.917 -1.0668 -1.6794  0.4929
 5030SOL    HW226724   3.829   2.215   7.062  1.7195  1.9075  1.1024
 5031SOL     OW26725   2.962   0.716   7.650  0.4089  0.2711 -0.0029
 5031SOL    HW126726   2.971   0.713   7.555  0.0468  0.1230 -0.0320
 5031SOL    HW226727   2.871   0.690   7.659  0.5164 -0.4158 -0.9523
 5032SOL     OW26728   4.433   0.477   2.965 -0.5721  0.2828 -0.2925
 5032SOL    HW126729   4.409   0.458   2.874 -0.8900 -0.0357 -0.1468
 5032SOL    HW226730   4.502   0.411   2.970  1.0544  1.8057 -2.5350
 5033SOL     OW26731   4.278   4.149   8.158  0.0451  0.1942  0.0619
 5033SOL    HW126732   4.360   4.193   8.180  0.3674 -0.2765 -0.1825
 5033SOL    HW226733   4.221   4.173   8.231  1.4955  2.1355  0.5593
 5034SOL     OW26734   2.787   1.784   5.027 -0.2985 -0.0817  0.4852
 5034SOL    HW126735   2.796   1.857   5.089  1.6767  1.4183 -1.5783
 5034SOL    HW226736   2.775   1.844   4.954 -0.5538  2.2218  2.3976
 5035SOL     OW26737   3.619   1.381   9.496  0.1310 -0.3381  0.2301
 5035SOL    HW126738   3.642   1.293   9.524 -1.3955 -1.1462 -1.0975
 5035SOL    HW226739   3.536   1.387   9.541 -0.7661 -2.1471 -1.1807
 5036SOL     OW26740   0.844   3.566   1.322 -0.0414  0.2209  0.2353
 5036SOL    HW126741   0.788   3.488   1.324 -0.4528  0.5223  0.3573
 5036SOL    HW226742   0.864   3.578   1.230 -0.0906  0.3809  0.2464
 5037SOL     OW26743   2.479   4.135   5.812 -0.3142  0.5157 -0.1518
 5037SOL    HW126744   2.437   4.199   5.755  0.7379  0.9475 -0.4461
 5037SOL    HW226745   2.407   4.113   5.871 -0.6943  0.2934 -0.7015
 5038SOL     OW26746   4.266   3.102   7.456 -0.3934  0.0074 -0.1121
 5038SOL    HW126747   4.321   3.159   7.403  0.5423 -0.9137 -0.1324
 5038SOL    HW226748   4.180   3.144   7.458 -0.6787 -0.5727 -0.1907
 5039SOL     OW26749   1.011   1.292  10.205 -0.0979 -0.1974 -0.4223
 5039SOL    HW126750   1.096   1.337  10.207  1.2670 -2.7619 -0.2413
 5039SOL    HW226751   1.008   1.267  10.112 -2.4348 -1.8002  0.0917
 5040SOL     OW26752   3.608   4.255   5.597  0.0946 -0.0929 -0.0818
 5040SOL    HW126753   3.623   4.179   5.541  1.9273 -0.5350  1.0220
 5040SOL    HW226754   3.698   4.271   5.624  0.3822 -0.3982 -0.8444
 5041SOL     OW26755   1.779   0.613   8.282  0.3729  0.1559  0.4651
 5041SOL    HW126756   1.726   0.621   8.361  0.9043 -1.1614  0.9650
 5041SOL    HW226757   1.708   0.637   8.222  0.9715  1.8292  0.4407
 5042SOL     OW26758   1.035   1.617  10.215  0.3911  0.5654 -0.2325
 5042SOL    HW126759   0.991   1.536  10.191  0.0530  1.2993 -2.1175
 5042SOL    HW226760   0.968   1.680  10.187 -0.2455 -0.8826 -1.9474
 5043SOL     OW26761   3.649   3.403   3.990  0.4564  0.1504  0.1141
 5043SOL    HW126762   3.591   3.455   4.045 -0.8732 -0.5855 -0.5882
 5043SOL    HW226763   3.737   3.437   4.004  0.2779  0.9496 -0.7082
 5044SOL     OW26764   0.015   0.274   2.228 -0.3479 -0.9275 -0.0669
 5044SOL    HW126765   4.737   0.189   2.264  0.0256 -2.1803 -2.7915
 5044SOL    HW226766   4.699   0.271   2.153 -0.0260 -3.4748 -0.2215
 5045SOL     OW26767   2.160   4.398  13.328  0.1003  0.2563 -0.2459
 5045SOL    HW126768   2.113   4.364  13.404 -2.4423 -1.7507 -2.7192
 5045SOL    HW226769   2.202   4.319  13.294 -0.8847 -0.8859  1.2186
 5046SOL     OW26770   3.124   1.903   9.375  0.7161 -0.3577  0.1020
 5046SOL    HW126771   3.065   1.855   9.318  0.3364 -1.5406  1.4906
 5046SOL    HW226772   3.171   1.830   9.415  0.9734  0.3532  1.1194
 5047SOL     OW26773   1.914   2.718   6.569 -0.1617 -0.4756 -0.7120
 5047SOL    HW126774   1.842   2.656   6.575 -1.6815  1.0660 -2.8566
 5047SOL    HW226775   1.978   2.671   6.623 -0.0287 -0.0122 -0.4651
 5048SOL     OW26776   0.932   3.951   6.688  0.2740 -0.5116 -1.1833
 5048SOL    HW126777   0.920   3.901   6.769  3.1298 -1.3646 -1.3021
 5048SOL    HW226778   0.841   3.950   6.658 -0.7355 -0.9747  1.9605
 5049SOL     OW26779   0.502   2.483   9.225  0.1123 -0.1860 -0.2562
 5049SOL    HW126780   0.450   2.562   9.208  1.2265  0.8818  1.4158
 5049SOL    HW226781   0.578   2.515   9.178 -0.2221 -0.7909 -1.2210
 5050SOL     OW26782   1.390   1.451   1.018  0.1860 -0.7541 -0.0961
 5050SOL    HW126783   1.365   1.472   1.108 -0.8107 -0.4789 -0.4322
 5050SOL    HW226784   1.483   1.432   1.026 -0.0750 -1.2799  1.5443
 5051SOL     OW26785   3.206   3.084   2.505  0.1333 -0.7758  1.6069
 5051SOL    HW126786   3.114   3.065   2.523 -0.5837 -0.0831 -1.2429
 5051SOL    HW226787   3.238   2.998   2.479 -1.5082 -0.9173  0.0387
 5052SOL     OW26788   1.983   4.330   8.030  0.5075  0.0966  0.0940
 5052SOL    HW126789   2.056   4.296   8.081  0.4694  0.3762  0.3343
 5052SOL    HW226790   2.033   4.399   7.987  0.9178 -1.6240 -2.1780
 5053SOL     OW26791   3.519   1.404   6.550 -0.0958  0.2788  0.1930
 5053SOL    HW126792   3.613   1.403   6.571 -0.1223 -4.9656 -0.0097
 5053SOL    HW226793   3.488   1.424   6.638  2.6781  0.1210  1.2296
 5054SOL     OW26794   0.163   3.664   2.970 -0.2344  0.1693 -0.2736
 5054SOL    HW126795   0.142   3.745   2.923  0.8683  0.9873  0.6479
 5054SOL    HW226796   0.123   3.683   3.055  0.0918  0.8030 -0.2581
 5055SOL     OW26797   3.768   3.003  12.483  0.4961 -0.0812 -0.1388
 5055SOL    HW126798   3.702   3.037  12.544 -0.3554 -1.0722 -0.4952
 5055SOL    HW226799   3.719   2.999  12.401  0.2970 -0.1998 -0.0157
 5056SOL     OW26800   1.617   3.468   3.284 -0.0701 -0.6299  0.2341
 5056SOL    HW126801   1.563   3.536   3.326 -0.2164 -1.2436  1.0305
 5056SOL    HW226802   1.577   3.474   3.198  0.1992  1.3978  0.2482
 5057SOL     OW26803   2.803   2.450   6.992 -0.1169 -0.5213  0.2219
 5057SOL    HW126804   2.846   2.378   6.946  1.4256 -1.0733  2.5741
 5057SOL    HW226805   2.837   2.450   7.081 -0.3322 -0.9698  0.3045
 5058SOL     OW26806   0.816   1.863   7.351  0.5033 -0.2685 -0.1101
 5058SOL    HW126807   0.874   1.939   7.352  0.5451 -0.3232  0.8981
 5058SOL    HW226808   0.819   1.843   7.444 -0.2996 -1.8617 -0.4303
 5059SOL     OW26809   3.583   3.358  12.492  0.5070 -0.1686  0.6243
 5059SOL    HW126810   3.594   3.400  12.577 -1.0446  0.5199  0.4692
 5059SOL    HW226811   3.593   3.429  12.429 -0.7383  1.8123  2.6552
 5060SOL     OW26812   1.913   1.131   0.092  0.0774  0.1859  0.3309
 5060SOL    HW126813   1.892   1.198   0.158  0.2659 -1.0698  1.6611
 5060SOL    HW226814   1.961   1.180   0.025 -1.3727 -0.1581 -0.9611
 5061SOL     OW26815   0.548   4.506   1.325  0.4056  0.2794 -0.6772
 5061SOL    HW126816   0.500   4.588   1.338  1.9511  1.2245 -0.8802
 5061SOL    HW226817   0.603   4.497   1.403 -0.5644  0.6071  0.0419
 5062SOL     OW26818   2.801   4.497  15.202  0.5505 -0.1371 -0.0070
 5062SOL    HW126819   2.746   4.532  15.272  0.0744 -0.2382 -0.3274
 5062SOL    HW226820   2.821   4.407  15.228  0.4534  0.2079  1.3096
 5063SOL     OW26821   1.934   4.225  15.680  0.2819  0.2010  0.4215
 5063SOL    HW126822   1.887   4.308  15.686 -1.6894 -1.0462  2.2138
 5063SOL    HW226823   2.019   4.242  15.721  0.2155 -0.1802  0.7227
 5064SOL     OW26824   0.100   0.454   2.415  0.6529  0.0077 -0.4815
 5064SOL    HW126825   0.185   0.413   2.429  0.3517 -0.1249  0.9458
 5064SOL    HW226826   0.071   0.414   2.332 -0.7509 -0.9156  0.4476
 5065SOL     OW26827   1.615   1.745   5.599  0.8066 -0.6066  0.1229
 5065SOL    HW126828   1.613   1.809   5.670 -1.5964 -0.5732  0.0398
 5065SOL    HW226829   1.570   1.669   5.636 -0.0341 -0.2893 -0.2436
 5066SOL     OW26830   0.693   1.028   1.332 -0.2455 -0.1310  0.5693
 5066SOL    HW126831   0.681   1.085   1.257 -2.2486 -2.8228 -1.1386
 5066SOL    HW226832   0.744   0.959   1.289  0.5052  0.3560  0.6666
 5067SOL     OW26833   3.048   2.221  10.167  0.4160 -0.4026 -0.4924
 5067SOL    HW126834   3.103   2.202  10.243 -0.9780  1.2306  0.9147
 5067SOL    HW226835   3.092   2.296  10.129 -0.9846  0.4194 -0.5050
 5068SOL     OW26836   0.243   0.540   9.430 -0.8345  0.0807 -0.1340
 5068SOL    HW126837   0.261   0.604   9.498 -2.1421 -1.1186  1.3403
 5068SOL    HW226838   0.170   0.579   9.382  0.0568  3.0764  0.9721
 5069SOL     OW26839   1.951   0.525   4.567 -0.1205  0.4351 -0.1984
 5069SOL    HW126840   1.999   0.519   4.485  1.0790 -0.5546  0.5610
 5069SOL    HW226841   1.916   0.613   4.556  0.3681  0.6063 -0.3779
 5070SOL     OW26842   1.969   1.019   6.226  0.2233  0.0834  0.5005
 5070SOL    HW126843   2.050   1.052   6.266  0.3407  1.1728 -0.6231
 5070SOL    HW226844   1.964   1.078   6.150 -1.2075  0.2427  0.7193
 5071SOL     OW26845   1.593   0.205  10.245 -0.3357  0.2366  0.0410
 5071SOL    HW126846   1.631   0.259  10.315 -1.8831  0.3937  0.7486
 5071SOL    HW226847   1.506   0.180  10.276 -0.2338  0.7649  0.7414
 5072SOL     OW26848   0.313   2.503   3.903  0.4919  0.2753  0.7550
 5072SOL    HW126849   0.313   2.575   3.966  1.6833  0.7909  0.1697
 5072SOL    HW226850   0.227   2.468   3.924  0.9562 -0.3802  1.6101
 5073SOL     OW26851   3.880   2.816   8.478 -0.1302  0.3192  0.1215
 5073SOL    HW126852   3.937   2.866   8.536  0.1443 -0.4014  0.4775
 5073SOL    HW226853   3.855   2.890   8.423  2.8595  1.8050  0.7240
 5074SOL     OW26854   1.505   2.168   3.897 -0.1276 -0.7547 -0.5283
 5074SOL    HW126855   1.432   2.230   3.888  2.4245  2.4881  0.9665
 5074SOL    HW226856   1.503   2.122   3.814  1.6950 -1.4311 -0.1993
 5075SOL     OW26857   1.842   3.289  12.520  0.4004 -0.1382 -0.1913
 5075SOL    HW126858   1.844   3.216  12.582  0.7846 -0.0159 -0.0622
 5075SOL    HW226859   1.761   3.333  12.549 -0.1345  1.3223 -3.9125
 5076SOL     OW26860   3.109   1.775   8.757  0.7046  0.8263  0.5423
 5076SOL    HW126861   3.073   1.818   8.835 -0.6954  0.4183  0.1318
 5076SOL    HW226862   3.037   1.721   8.724  1.2113  0.1025  0.6193
 5077SOL     OW26863   3.198   1.195   7.759  0.5483 -0.5203  0.0010
 5077SOL    HW126864   3.245   1.159   7.685  0.6527  0.3573 -0.3542
 5077SOL    HW226865   3.124   1.135   7.761  0.8029 -0.9440 -3.2229
 5078SOL     OW26866   0.734   3.129   4.101 -0.3352  0.4427 -0.1000
 5078SOL    HW126867   0.699   3.099   4.017 -1.8050 -0.3839  0.8117
 5078SOL    HW226868   0.722   3.223   4.092 -1.1689  0.3950  0.5299
 5079SOL     OW26869   4.399   3.840   2.650 -0.0799  0.6342 -0.0453
 5079SOL    HW126870   4.350   3.900   2.595  1.2795  1.3202 -0.4961
 5079SOL    HW226871   4.465   3.900   2.683 -2.2666  1.9436  1.9739
 5080SOL     OW26872   0.093   3.820   3.573 -0.0005  0.0612 -0.4950
 5080SOL    HW126873   4.743   3.834   3.556 -0.2372 -0.8218  0.0771
 5080SOL    HW226874   0.101   3.725   3.585 -2.4695  0.2238  2.7469
 5081SOL     OW26875   2.094   1.458   8.944 -0.0581  0.0151 -0.4988
 5081SOL    HW126876   2.171   1.453   9.001 -1.7215 -0.2524  1.7286
 5081SOL    HW226877   2.124   1.424   8.860  0.2935 -0.6438 -0.1077
 5082SOL     OW26878   1.870   3.108  10.910  0.1126  0.2536 -1.2556
 5082SOL    HW126879   1.923   3.166  10.966  1.5753 -0.3857 -1.9838
 5082SOL    HW226880   1.856   3.033  10.968  1.9601  1.3654  0.6302
 5083SOL     OW26881   0.510   1.880   5.691  0.3159 -0.3892 -0.1732
 5083SOL    HW126882   0.600   1.873   5.722  0.8498 -0.2485 -1.7193
 5083SOL    HW226883   0.503   1.975   5.679 -1.8164 -0.4313  0.5782
 5084SOL     OW26884   0.516   2.297   5.130 -0.6597 -0.1225 -0.5113
 5084SOL    HW126885   0.431   2.253   5.141  0.8872 -2.7914  0.6465
 5084SOL    HW226886   0.554   2.294   5.218 -1.4925 -1.3310 -0.1856
 5085SOL     OW26887   1.164   1.717   3.686 -0.0529  0.0994  0.2283
 5085SOL    HW126888   1.087   1.690   3.635  1.4371 -0.7870 -1.5835
 5085SOL    HW226889   1.155   1.656   3.759  0.0435  0.2322  0.3486
 5086SOL     OW26890   4.616   1.013   7.948  0.2047 -0.2871  0.4649
 5086SOL    HW126891   4.532   1.050   7.973  0.1375  0.2598 -0.5681
 5086SOL    HW226892   4.595   0.920   7.952  0.3927 -0.4296 -1.4465
 5087SOL     OW26893   4.649   0.355   2.585  0.8425 -0.1897  0.8071
 5087SOL    HW126894   4.716   0.388   2.525 -1.2687  3.2686  0.2970
 5087SOL    HW226895   4.686   0.269   2.602  2.2162  0.3041  0.2732
 5088SOL     OW26896   2.099   3.119  12.258  0.2196  0.2210  0.0068
 5088SOL    HW126897   2.018   3.128  12.207 -1.1126 -1.0804  1.8741
 5088SOL    HW226898   2.071   3.041  12.305 -0.0782  0.5391  0.3617
 5089SOL     OW26899   2.986   0.420   1.913  0.2046 -0.1850  0.3569
 5089SOL    HW126900   2.943   0.368   1.845  0.9999 -1.4875  0.8325
 5089SOL    HW226901   2.912   0.459   1.959  0.6269  1.4169 -0.3422
 5090SOL     OW26902   4.009   1.058   9.562  0.1704  0.0011 -0.7302
 5090SOL    HW126903   4.101   1.063   9.537  0.5465  2.0933  1.0659
 5090SOL    HW226904   3.973   0.997   9.498  2.4033 -2.5813  0.4851
 5091SOL     OW26905   3.163   3.298   4.573 -0.0039  0.5853  0.0100
 5091SOL    HW126906   3.134   3.224   4.627  2.1443 -1.1806 -1.2692
 5091SOL    HW226907   3.085   3.320   4.522 -0.7994 -0.3380  0.8322
 5092SOL     OW26908   2.668   4.305   1.417  0.0730  0.0822  1.2629
 5092SOL    HW126909   2.682   4.243   1.488  1.1784  1.2470  2.0545
 5092SOL    HW226910   2.573   4.316   1.417  0.1402  0.7272 -2.3480
 5093SOL     OW26911   4.413   3.277   4.812 -0.4291 -0.4750 -0.5804
 5093SOL    HW126912   4.400   3.190   4.774  1.5110 -0.8481 -0.3786
 5093SOL    HW226913   4.477   3.249   4.877 -0.4163  1.5291  0.2611
 5094SOL     OW26914   0.167   1.781  10.560  0.2723  0.4503  0.4045
 5094SOL    HW126915   0.117   1.813  10.635  0.5334 -1.7266  1.4971
 5094SOL    HW226916   0.149   1.687  10.564 -1.2951  0.7014 -0.8258
 5095SOL     OW26917   2.760   0.417  10.310  0.0306 -0.4190  0.6116
 5095SOL    HW126918   2.810   0.335  10.312  0.8420  0.0720  0.8107
 5095SOL    HW226919   2.675   0.388  10.277  1.0300 -1.5683 -0.9446
 5096SOL     OW26920   0.727   4.384  13.619 -0.2892 -0.3638  0.2490
 5096SOL    HW126921   0.723   4.334  13.701 -2.9547 -0.3514  0.1444
 5096SOL    HW226922   0.636   4.389  13.589 -0.1986  1.0510  0.1878
 5097SOL     OW26923   3.678   2.528   2.659 -0.0467 -0.3897 -0.2703
 5097SOL    HW126924   3.636   2.471   2.723 -1.9321  0.6089 -0.6115
 5097SOL    HW226925   3.763   2.553   2.695  0.2456 -2.3625  0.3861
 5098SOL     OW26926   2.140   3.319   3.303 -0.2662 -0.1548  0.7640
 5098SOL    HW126927   2.082   3.394   3.294  2.2112  1.9695  2.5107
 5098SOL    HW226928   2.166   3.303   3.212 -0.5384 -1.4038  0.8980
 5099SOL     OW26929   1.655   4.692  15.819 -0.3919 -0.1591  0.7840
 5099SOL    HW126930   1.676   0.040  15.834  2.0425 -0.6531  0.4330
 5099SOL    HW226931   1.722   4.645  15.869  2.4296  3.4001  0.3631
 5100SOL     OW26932   4.474   3.365   5.176 -0.5932 -0.6644 -0.3411
 5100SOL    HW126933   4.401   3.417   5.209 -0.2075 -0.5335  0.3178
 5100SOL    HW226934   4.517   3.424   5.113  1.5789 -1.5253  0.3169
 5101SOL     OW26935   0.666   3.725   5.419  0.2183  0.3246  0.5715
 5101SOL    HW126936   0.629   3.811   5.435  0.7727  0.9275 -1.3285
 5101SOL    HW226937   0.646   3.723   5.325 -1.2818  2.2079  0.8643
 5102SOL     OW26938   2.372   2.475  13.346  0.7217 -0.4532  0.0705
 5102SOL    HW126939   2.459   2.512  13.364  0.5776  0.5372 -1.2687
 5102SOL    HW226940   2.318   2.554  13.351  2.0858  0.4536  0.6322
 5103SOL     OW26941   3.947   0.167  11.853  0.9551  0.0301  0.3079
 5103SOL    HW126942   3.867   0.116  11.846  0.4578  0.6243  1.8010
 5103SOL    HW226943   3.968   0.131  11.939 -0.5704  0.1426  0.7227
 5104SOL     OW26944   4.352   0.801  11.683 -0.3360  0.2547  0.2005
 5104SOL    HW126945   4.330   0.798  11.776 -1.5563  2.2658 -0.0034
 5104SOL    HW226946   4.438   0.838  11.700  0.4561 -1.2105 -0.6636
 5105SOL     OW26947   0.252   2.326   1.337  0.2318  0.0145  0.0813
 5105SOL    HW126948   0.198   2.295   1.410 -2.1734 -0.8923 -2.0667
 5105SOL    HW226949   0.343   2.329   1.365 -1.1318  1.1480  4.3631
 5106SOL     OW26950   3.856   1.828   7.136 -0.4740  0.0297 -0.2465
 5106SOL    HW126951   3.941   1.789   7.154 -1.0374 -1.0767 -0.0094
 5106SOL    HW226952   3.793   1.790   7.196  1.3191 -1.8849  0.4067
 5107SOL     OW26953   1.772   0.409   6.459  0.7164  0.1254 -0.0284
 5107SOL    HW126954   1.826   0.368   6.391  0.2989  0.9084 -0.8361
 5107SOL    HW226955   1.707   0.457   6.408 -0.5493  0.9197  2.3470
 5108SOL     OW26956   4.149   2.161  17.581  0.3554  0.5353  0.1984
 5108SOL    HW126957   4.105   2.228  17.529  0.8608  0.1938 -0.6803
 5108SOL    HW226958   4.186   2.216  17.650 -0.2090 -0.3115  1.1740
 5109SOL     OW26959   3.415   2.617  13.473  0.0154  0.5672 -0.6004
 5109SOL    HW126960   3.401   2.527  13.501  0.6846  0.1775 -1.5170
 5109SOL    HW226961   3.457   2.667  13.543  3.1853  0.6860 -2.5414
 5110SOL     OW26962   2.750   1.904   7.036 -0.8650  0.2919  0.1287
 5110SOL    HW126963   2.668   1.879   6.995 -0.5238  3.0297 -2.2279
 5110SOL    HW226964   2.811   1.928   6.966  1.3883 -0.6561  1.7771
 5111SOL     OW26965   2.701   4.052   1.196 -0.3203 -0.1378  0.1859
 5111SOL    HW126966   2.724   4.137   1.232  2.4194 -0.5677 -0.5141
 5111SOL    HW226967   2.616   4.035   1.237 -1.1021 -1.6747 -2.0176
 5112SOL     OW26968   1.004   4.496   1.433  0.3147  0.3317  0.2193
 5112SOL    HW126969   1.043   4.584   1.429 -0.3022  0.4447 -2.9705
 5112SOL    HW226970   0.977   4.488   1.342  0.5922 -0.9632  0.2486
 5113SOL     OW26971   3.493   1.699  11.754  0.4492 -0.1453 -0.7613
 5113SOL    HW126972   3.503   1.671  11.844 -1.5696 -1.7043 -1.0462
 5113SOL    HW226973   3.524   1.787  11.775  0.2395  0.1381 -1.6221
 5114SOL     OW26974   2.821   1.677   8.293 -0.2817  0.1382  0.1025
 5114SOL    HW126975   2.893   1.619   8.320  1.4901  1.7864 -1.0915
 5114SOL    HW226976   2.874   1.748   8.257  1.3747 -0.4673  1.3039
 5115SOL     OW26977   4.625   0.137   4.438  0.7090 -0.0518 -0.0557
 5115SOL    HW126978   4.664   0.107   4.355 -1.6816 -0.9239 -0.8546
 5115SOL    HW226979   4.626   0.230   4.414 -3.1213  0.1899  0.8497
 5116SOL     OW26980   0.379   2.463   5.771 -0.6168  0.0155  0.2921
 5116SOL    HW126981   0.408   2.461   5.862 -0.5209 -0.0030  0.2609
 5116SOL    HW226982   0.382   2.369   5.750  1.4509  0.4412 -1.2831
 5117SOL     OW26983   4.712   3.477   9.774  0.3490  0.3879  0.3369
 5117SOL    HW126984   4.627   3.447   9.740  0.7460 -0.3557  0.0157
 5117SOL    HW226985   4.714   3.567   9.740  0.5856 -0.0466 -0.8033
 5118SOL     OW26986   3.832   1.370   3.413  0.1571  0.2733 -0.6371
 5118SOL    HW126987   3.909   1.342   3.463 -1.8456 -0.8814  1.7828
 5118SOL    HW226988   3.878   1.384   3.331  2.3589  0.7722  0.6872
 5119SOL     OW26989   1.565   2.239   1.305  0.3737 -0.1059 -0.2525
 5119SOL    HW126990   1.516   2.277   1.233 -0.5799 -0.4308  0.2281
 5119SOL    HW226991   1.565   2.145   1.292  0.1845 -0.1896  0.3370
 5120SOL     OW26992   2.215   3.017   6.428  0.5699 -0.0341 -0.1891
 5120SOL    HW126993   2.301   3.038   6.391  2.1522 -3.1980  1.6913
 5120SOL    HW226994   2.238   3.019   6.521 -0.8317 -2.1772  0.2098
 5121SOL     OW26995   3.509   3.245   2.669  0.2090 -0.2205 -0.0676
 5121SOL    HW126996   3.476   3.200   2.591  0.2930 -2.2066  1.0333
 5121SOL    HW226997   3.421   3.241   2.705  0.5518  0.6848  0.8585
 5122SOL     OW26998   4.533   2.589   6.481 -0.3725  0.0705 -0.1408
 5122SOL    HW126999   4.550   2.539   6.560 -0.4278 -1.7207 -1.2446
 5122SOL    HW227000   4.621   2.609   6.449 -0.3829  0.6170  0.1716
 5123SOL     OW27001   2.553   4.223   3.712 -0.8839 -0.2604 -0.1007
 5123SOL    HW127002   2.535   4.278   3.788  1.0835  0.2044  0.0249
 5123SOL    HW227003   2.474   4.171   3.700 -1.8675  2.1781 -4.4599
 5124SOL     OW27004   3.501   1.617  12.009  0.1585 -0.1493 -0.5754
 5124SOL    HW127005   3.519   1.698  12.055  0.1743 -0.5046  0.0442
 5124SOL    HW227006   3.573   1.562  12.039  0.3279 -0.7196 -1.9938
 5125SOL     OW27007   3.130   0.331   9.879 -0.3987 -0.3708 -0.3249
 5125SOL    HW127008   3.187   0.406   9.900  0.7747 -0.6187 -2.7173
 5125SOL    HW227009   3.122   0.286   9.963  0.3635  1.6280  0.8336
 5126SOL     OW27010   1.761   3.083  12.326 -0.2447 -0.2283 -0.2898
 5126SOL    HW127011   1.750   3.165  12.373  0.2825 -0.5945  0.4915
 5126SOL    HW227012   1.738   3.026  12.400  1.5713 -1.5320 -0.7273
 5127SOL     OW27013   4.560   3.604   6.595  0.1586 -0.4110  0.1417
 5127SOL    HW127014   4.611   3.652   6.660 -0.9242  0.0717  0.6232
 5127SOL    HW227015   4.479   3.654   6.602 -0.7874 -1.7212 -1.3811
 5128SOL     OW27016   2.867   2.735   7.742  0.2393  0.8449  0.2942
 5128SOL    HW127017   2.790   2.744   7.798  0.4099 -0.7327  0.7886
 5128SOL    HW227018   2.860   2.640   7.731  0.6621  0.9344 -0.6750
 5129SOL     OW27019   1.105   3.923   7.356 -0.0911  0.5622 -0.2425
 5129SOL    HW127020   1.089   3.901   7.264  0.1886 -0.4570 -0.0494
 5129SOL    HW227021   1.133   4.014   7.356 -0.0016  0.5332  1.2017
 5130SOL     OW27022   4.375   2.029  13.479 -0.3030  0.5464 -0.2997
 5130SOL    HW127023   4.349   1.979  13.556  0.2691 -0.8481 -1.0154
 5130SOL    HW227024   4.323   2.108  13.495 -0.3280  0.3052  0.7891
 5131SOL     OW27025   2.633   4.307   2.455  0.1542 -0.1035 -0.2471
 5131SOL    HW127026   2.632   4.311   2.359 -2.9276  1.1711 -0.1379
 5131SOL    HW227027   2.627   4.212   2.460 -0.6495 -0.0426 -0.0314
 5132SOL     OW27028   4.409   1.149   8.073  0.2994  0.0825 -0.5747
 5132SOL    HW127029   4.363   1.201   8.138  1.0965 -0.7941  0.6773
 5132SOL    HW227030   4.372   1.062   8.090  2.7769 -1.5005 -3.1493
 5133SOL     OW27031   4.478   4.126   3.528 -0.6572 -0.6188 -0.3184
 5133SOL    HW127032   4.547   4.119   3.594 -0.2135 -0.9877 -0.8203
 5133SOL    HW227033   4.403   4.167   3.570  0.6216  0.4517  0.8853
 5134SOL     OW27034   3.941   1.792   2.173  0.1333 -0.4579  0.7105
 5134SOL    HW127035   3.975   1.869   2.218 -1.2936  1.4768 -1.5095
 5134SOL    HW227036   3.974   1.718   2.224 -0.4005 -1.2693 -0.1044
 5135SOL     OW27037   1.554   4.702   8.142  0.2528 -0.0851  0.0537
 5135SOL    HW127038   1.487   4.651   8.187 -0.0736  2.1675  2.1385
 5135SOL    HW227039   1.521   0.048   8.139 -0.3721 -0.2799  0.9850
 5136SOL     OW27040   4.026   3.761   2.508  0.3631  0.7300 -0.2114
 5136SOL    HW127041   4.087   3.692   2.535 -0.2809  1.5231  3.2522
 5136SOL    HW227042   4.018   3.736   2.416 -0.0275  0.2287 -0.0389
 5137SOL     OW27043   2.181   1.470   3.608 -0.5670 -0.1506 -0.4639
 5137SOL    HW127044   2.185   1.382   3.570  0.6062  0.5724 -1.9829
 5137SOL    HW227045   2.216   1.465   3.697  1.5710  0.0186 -1.3187
 5138SOL     OW27046   4.100   4.128  13.508  0.5543 -0.2248 -0.7750
 5138SOL    HW127047   4.086   4.034  13.501 -0.8377 -0.2121  1.7613
 5138SOL    HW227048   4.121   4.140  13.601 -0.7825  1.8255 -0.7248
 5139SOL     OW27049   2.030   0.368   4.768 -0.0097  0.3264  0.2569
 5139SOL    HW127050   2.003   0.451   4.726  1.8491  0.8418  0.0726
 5139SOL    HW227051   2.102   0.341   4.710 -2.2610  0.2014 -2.4703
 5140SOL     OW27052   3.980   3.311   7.274 -0.1345  0.3827 -0.4227
 5140SOL    HW127053   3.911   3.310   7.340 -1.7377  2.1012 -2.0830
 5140SOL    HW227054   4.045   3.364   7.322 -1.5041  0.0192  1.8553
 5141SOL     OW27055   0.196   3.205   6.123  0.2035  0.3718 -0.0130
 5141SOL    HW127056   0.131   3.135   6.115  1.3432 -0.8530  1.4929
 5141SOL    HW227057   0.205   3.233   6.214  1.0841 -0.4879  0.1604
 5142SOL     OW27058   0.493   4.113  17.584 -0.2777 -0.3852 -0.1589
 5142SOL    HW127059   0.406   4.080  17.605  0.2233 -1.4074  0.2939
 5142SOL    HW227060   0.548   4.035  17.595 -0.2017  0.0252  2.3227
 5143SOL     OW27061   3.945   2.306   7.670  0.3133  0.0520  0.4437
 5143SOL    HW127062   3.886   2.358   7.724 -0.0153  1.6903 -1.5065
 5143SOL    HW227063   3.947   2.227   7.725  3.0170 -1.4659 -1.8266
 5144SOL     OW27064   0.666   0.819  14.143 -0.2982 -0.2785 -0.2011
 5144SOL    HW127065   0.671   0.727  14.167 -0.3085  0.6671  3.4280
 5144SOL    HW227066   0.730   0.823  14.072 -0.9643 -1.6862 -0.8890
 5145SOL     OW27067   1.154   3.606   0.431  0.6614  0.0744  0.2725
 5145SOL    HW127068   1.166   3.701   0.438  1.0358  0.0157  0.4278
 5145SOL    HW227069   1.099   3.598   0.353 -0.4128 -0.4498  1.0825
 5146SOL     OW27070   0.458   0.661  11.257  0.4320  0.5134 -0.1988
 5146SOL    HW127071   0.520   0.684  11.188  0.4135 -0.7761 -0.6415
 5146SOL    HW227072   0.417   0.746  11.274 -1.4742 -0.4929  0.3001
 5147SOL     OW27073   0.379   1.784   3.540  0.4729  0.3186  0.2359
 5147SOL    HW127074   0.345   1.825   3.460  1.5678  1.1352  0.1818
 5147SOL    HW227075   0.395   1.694   3.512  1.0344  0.7484 -0.8511
 5148SOL     OW27076   0.670   0.695  17.141  0.2963  0.4247 -0.8108
 5148SOL    HW127077   0.696   0.771  17.194 -0.0523  0.1178 -0.2114
 5148SOL    HW227078   0.750   0.644  17.155  1.1948  1.9619 -0.3356
 5149SOL     OW27079   4.113   3.476   5.196 -0.1825 -0.0072  0.3484
 5149SOL    HW127080   4.096   3.556   5.147  0.0867 -0.1779 -0.0221
 5149SOL    HW227081   4.127   3.409   5.129 -0.6667 -0.6019  0.8444
 5150SOL     OW27082   2.569   0.610   3.784 -0.2586  0.6662 -0.4550
 5150SOL    HW127083   2.528   0.525   3.768 -1.1050  1.2550 -1.4629
 5150SOL    HW227084   2.495   0.656   3.824  0.6098  0.0390  1.8733
 5151SOL     OW27085   4.503   4.196   2.241  0.1461 -0.4048  0.0328
 5151SOL    HW127086   4.517   4.253   2.165  1.7363  3.1572  2.9611
 5151SOL    HW227087   4.459   4.258   2.299  3.0472  1.3116  0.4188
 5152SOL     OW27088   4.493   3.565  16.292  0.4046 -0.2073 -0.2064
 5152SOL    HW127089   4.400   3.572  16.276  0.3754 -0.0644  0.0175
 5152SOL    HW227090   4.525   3.537  16.207  0.8919 -0.5247  0.0782
 5153SOL     OW27091   2.347   4.622   8.013  0.0025 -0.1332 -0.1947
 5153SOL    HW127092   2.339   4.642   8.107  1.9070  1.4104 -0.3740
 5153SOL    HW227093   2.266   4.574   7.994 -0.1522  1.0107 -2.3850
 5154SOL     OW27094   4.294   2.029   4.520  0.3955 -0.1598 -1.2177
 5154SOL    HW127095   4.363   1.990   4.574 -0.2732 -1.2290 -1.1563
 5154SOL    HW227096   4.309   2.123   4.531 -0.6641 -0.1126 -0.1256
 5155SOL     OW27097   3.025   1.638   7.921  0.4379  0.7183 -0.0954
 5155SOL    HW127098   2.958   1.613   7.857 -0.4616  2.4728  0.1756
 5155SOL    HW227099   3.101   1.596   7.881 -0.2679  1.6733 -2.4583
 5156SOL     OW27100   1.879   4.367   5.831  0.1179 -0.3118 -0.1954
 5156SOL    HW127101   1.878   4.311   5.909  0.6893  0.8730  0.6590
 5156SOL    HW227102   1.935   4.314   5.774 -0.3655 -1.6488  0.5847
 5157SOL     OW27103   3.007   3.035   6.963  0.1022  0.2380  0.2673
 5157SOL    HW127104   2.978   3.099   6.898  1.8868 -1.7203 -2.4523
 5157SOL    HW227105   2.935   2.972   6.964 -1.4239  1.9757  0.0293
 5158SOL     OW27106   2.318   0.251   5.306  0.5862  0.2973  0.3029
 5158SOL    HW127107   2.251   0.188   5.333  2.0164 -2.1516 -1.8692
 5158SOL    HW227108   2.262   0.323   5.274 -0.6936  0.0326  1.9850
 5159SOL     OW27109   0.187   0.261   1.069  0.4042  0.0088 -0.1806
 5159SOL    HW127110   0.145   0.324   1.128  0.0825  0.1886 -0.6063
 5159SOL    HW227111   0.150   0.286   0.985 -1.2374 -0.1284  0.5013
 5160SOL     OW27112   3.073   2.674   7.488 -0.1033 -0.1491  0.3427
 5160SOL    HW127113   3.080   2.719   7.573  1.1953 -2.9276  1.7026
 5160SOL    HW227114   2.997   2.620   7.507  1.0276 -1.9420 -0.2841
 5161SOL     OW27115   2.329   2.633   9.624  0.6488 -0.0892  0.2596
 5161SOL    HW127116   2.293   2.716   9.653  0.9807  1.0878 -2.6517
 5161SOL    HW227117   2.424   2.639   9.630  0.4887  2.2726  0.0816
 5162SOL     OW27118   0.363   0.127  10.041  0.3246 -0.4276 -0.3008
 5162SOL    HW127119   0.454   0.145  10.018  0.4090 -0.7423 -0.2150
 5162SOL    HW227120   0.379   0.095  10.130  1.5282  1.0963  0.0291
 5163SOL     OW27121   1.290   0.580   7.129 -0.4079  0.2316  0.0100
 5163SOL    HW127122   1.301   0.608   7.219 -1.5270 -1.0922  0.5679
 5163SOL    HW227123   1.369   0.526   7.127 -0.2653  0.4620 -0.6464
 5164SOL     OW27124   1.241   1.189   7.559  0.1835 -0.4478 -0.0019
 5164SOL    HW127125   1.242   1.170   7.465 -0.6371  2.0933 -0.5377
 5164SOL    HW227126   1.196   1.274   7.557  1.0530  0.0137 -0.2005
 5165SOL     OW27127   2.396   4.347   1.459 -0.2912 -0.1556  0.4162
 5165SOL    HW127128   2.301   4.339   1.450 -0.1581 -1.1501 -0.0236
 5165SOL    HW227129   2.403   4.319   1.550  4.4902 -1.2208 -0.2737
 5166SOL     OW27130   3.070   4.456  12.096 -0.6405 -0.3467 -0.0883
 5166SOL    HW127131   3.039   4.543  12.121 -0.4396 -0.4020  0.3509
 5166SOL    HW227132   3.061   4.461  12.000  2.9130 -1.4566 -0.4895
 5167SOL     OW27133   0.564   1.881  12.556 -0.4343 -0.0582 -0.1749
 5167SOL    HW127134   0.510   1.937  12.501  0.1697  0.6921 -0.0020
 5167SOL    HW227135   0.648   1.874  12.510  0.4657 -0.0613  1.4495
 5168SOL     OW27136   0.130   1.714   7.122  0.2263  0.6285 -0.0276
 5168SOL    HW127137   0.113   1.764   7.042  2.3163 -0.5500 -1.2235
 5168SOL    HW227138   0.208   1.667   7.091 -1.3497  0.3135 -3.6096
 5169SOL     OW27139   3.759   1.721   6.456 -0.6149  0.4590  0.4642
 5169SOL    HW127140   3.737   1.693   6.545  1.4310 -1.8555  0.2090
 5169SOL    HW227141   3.744   1.644   6.402  1.2741 -0.2596  0.9566
 5170SOL     OW27142   2.540   1.002   5.697 -0.2745 -0.2998 -0.0911
 5170SOL    HW127143   2.514   0.971   5.784 -0.8929  0.0192 -0.1660
 5170SOL    HW227144   2.475   1.071   5.685 -0.8928 -0.9342 -0.3768
 5171SOL     OW27145   0.844   0.214   0.853 -0.1630 -0.2760  0.1919
 5171SOL    HW127146   0.812   0.262   0.777 -0.9028 -0.8432  0.1460
 5171SOL    HW227147   0.896   0.146   0.809  0.2007 -0.5446  1.0492
 5172SOL     OW27148   2.025   1.976   8.450 -0.4833  0.3578  0.1740
 5172SOL    HW127149   2.121   1.981   8.452 -0.5212  0.3354  2.2358
 5172SOL    HW227150   2.013   1.881   8.449  1.2275  0.1294  1.7814
 5173SOL     OW27151   2.222   1.715   0.075 -0.1025 -0.4177  0.4392
 5173SOL    HW127152   2.290   1.773   0.110 -0.6584  1.6114 -1.8750
 5173SOL    HW227153   2.253   1.704  17.757 -2.3078 -0.3751 -0.3230
 5174SOL     OW27154   4.020   0.787   6.765 -0.0527 -0.9610 -0.3903
 5174SOL    HW127155   4.011   0.694   6.743  1.7297 -1.4696  1.0039
 5174SOL    HW227156   4.010   0.786   6.861  0.8901 -1.2709 -0.2967
 5175SOL     OW27157   2.177   0.603   9.024 -0.4333 -0.2403  0.3114
 5175SOL    HW127158   2.157   0.600   9.117  1.1568  2.6672  0.7399
 5175SOL    HW227159   2.177   0.511   8.997  1.0423  0.0189 -0.5994
 5176SOL     OW27160   1.829   3.032  15.837  0.4994  0.1812 -0.1639
 5176SOL    HW127161   1.749   3.017  15.787  0.7863  0.5171 -0.7304
 5176SOL    HW227162   1.870   2.946  15.828 -0.8073 -0.5232  0.6162
 5177SOL     OW27163   1.744   2.196   9.990 -0.3004 -0.4029 -0.0844
 5177SOL    HW127164   1.696   2.115   9.976 -0.2566 -0.7575  1.7861
 5177SOL    HW227165   1.677   2.264   9.995 -0.5630 -0.6850  0.2879
 5178SOL     OW27166   4.573   3.397   4.297  0.2228 -0.5737 -0.2058
 5178SOL    HW127167   4.582   3.365   4.208  0.3015  0.0714 -0.4331
 5178SOL    HW227168   4.628   3.475   4.284  0.0650 -0.7542 -1.8482
 5179SOL     OW27169   0.126   1.292  16.425  0.3852 -0.2431  0.2020
 5179SOL    HW127170   0.198   1.238  16.394  1.2474  0.5172  0.8947
 5179SOL    HW227171   0.078   1.315  16.345  1.4766 -0.6009 -0.5592
 5180SOL     OW27172   3.211   2.330   4.017 -0.2343 -0.1019 -0.2779
 5180SOL    HW127173   3.241   2.420   4.028 -3.4477  0.9108  0.1076
 5180SOL    HW227174   3.182   2.299   4.102  1.1175  2.7547  1.2129
 5181SOL     OW27175   4.438   3.738   8.769  0.1301  0.2449  0.0478
 5181SOL    HW127176   4.437   3.732   8.674 -0.1809 -1.6552  0.1720
 5181SOL    HW227177   4.483   3.822   8.780  3.2286 -1.8227  2.9043
 5182SOL     OW27178   1.838   3.116  10.412  0.2150  0.5908  0.0332
 5182SOL    HW127179   1.777   3.131  10.484 -0.6385 -1.7845 -0.1784
 5182SOL    HW227180   1.922   3.109  10.457 -0.6176 -1.2125  1.3266
 5183SOL     OW27181   1.065   2.608   3.979 -0.4002 -0.2967  0.6911
 5183SOL    HW127182   1.032   2.651   3.899 -0.7777 -0.7095  0.6245
 5183SOL    HW227183   1.044   2.515   3.972  2.0670 -0.6653 -1.8195
 5184SOL     OW27184   4.549   3.087   8.276  0.1324  0.1888  0.3115
 5184SOL    HW127185   4.627   3.032   8.273 -0.3339 -0.4107 -0.9559
 5184SOL    HW227186   4.584   3.170   8.242  0.8746 -0.0122  0.5865
 5185SOL     OW27187   1.644   2.840   5.889  0.1191 -0.0751  0.0831
 5185SOL    HW127188   1.572   2.852   5.827 -0.4912 -1.4955  0.5234
 5185SOL    HW227189   1.686   2.760   5.857  0.0795 -0.3856  0.7905
 5186SOL     OW27190   1.456   4.372   6.458  0.3886 -0.1392 -0.3930
 5186SOL    HW127191   1.474   4.279   6.443 -0.6884 -0.2476 -1.0557
 5186SOL    HW227192   1.368   4.378   6.495  1.4043  0.0576  2.0003
 5187SOL     OW27193   1.920   1.449   4.121 -0.2670 -0.1878  0.3339
 5187SOL    HW127194   1.912   1.537   4.158 -0.4605  0.5307 -1.4498
 5187SOL    HW227195   1.847   1.408   4.168  0.6672 -1.6287  0.5072
 5188SOL     OW27196   2.471   1.283   5.165 -0.5154 -0.0802  0.5482
 5188SOL    HW127197   2.478   1.197   5.207 -0.3152  0.4422  1.5957
 5188SOL    HW227198   2.471   1.338   5.244  0.5707  1.8602 -0.7763
 5189SOL     OW27199   0.787   0.544   8.562 -0.0495 -0.0538 -0.3748
 5189SOL    HW127200   0.760   0.588   8.643  0.7760 -0.9402  0.3743
 5189SOL    HW227201   0.703   0.544   8.516  1.9871 -2.1097 -4.0423
 5190SOL     OW27202   0.940   2.146   5.256 -0.1573  0.0556  0.2359
 5190SOL    HW127203   0.949   2.199   5.336  0.7230 -0.0417  0.1970
 5190SOL    HW227204   0.857   2.104   5.280  0.1916 -0.5029  0.4540
 5191SOL     OW27205   1.437   1.766  16.628 -0.3670  0.0743  0.2013
 5191SOL    HW127206   1.526   1.744  16.656 -0.7354 -0.1275  1.2033
 5191SOL    HW227207   1.457   1.833  16.562 -1.1626 -1.8938 -2.0626
 5192SOL     OW27208   4.005   0.060   0.255 -0.8054  0.7331 -0.0750
 5192SOL    HW127209   4.076   0.120   0.279  0.2856  0.0035 -1.5103
 5192SOL    HW227210   3.973   0.077   0.167  0.7314 -2.0292 -1.1426
 5193SOL     OW27211   2.855   1.317   4.906  0.3732 -0.5321  0.3975
 5193SOL    HW127212   2.814   1.259   4.842  0.9760  1.0137 -1.4175
 5193SOL    HW227213   2.778   1.373   4.918  1.4104  0.8487  0.6565
 5194SOL     OW27214   4.199   4.712   5.333 -0.0469  0.8439 -0.2377
 5194SOL    HW127215   4.202   4.692   5.240 -3.7239 -0.7108  0.0027
 5194SOL    HW227216   4.264   4.652   5.370 -1.7448 -0.0515  1.2967
 5195SOL     OW27217   0.808   2.471   3.247  0.0937 -0.3838  0.1266
 5195SOL    HW127218   0.733   2.445   3.299 -0.6291 -0.2433 -0.8464
 5195SOL    HW227219   0.816   2.396   3.188 -3.1071  0.2235 -1.0476
 5196SOL     OW27220   0.623   2.830  13.314 -0.1779  0.0876 -0.2991
 5196SOL    HW127221   0.679   2.827  13.392 -1.6340  3.8219  0.8941
 5196SOL    HW227222   0.647   2.750  13.267  1.9544  1.3441 -1.3343
 5197SOL     OW27223   3.661   0.658  11.586  0.0706 -0.5294 -0.6853
 5197SOL    HW127224   3.732   0.612  11.542  1.6014  1.0115  0.2110
 5197SOL    HW227225   3.635   0.722  11.519  0.2996  0.2483 -0.0250
 5198SOL     OW27226   3.157   1.125   2.249 -0.0454  0.2158 -0.5560
 5198SOL    HW127227   3.248   1.138   2.221  0.2008 -1.6896 -0.6310
 5198SOL    HW227228   3.162   1.054   2.313  0.4827  0.8271  0.0907
 5199SOL     OW27229   0.317   1.877   6.006  0.0942  0.1720  0.1224
 5199SOL    HW127230   0.318   1.967   5.974  2.2901  0.4365  0.8731
 5199SOL    HW227231   0.293   1.827   5.928  1.9331  1.2972 -1.1683
 5200SOL     OW27232   1.092   3.596   1.454 -0.0153  0.4633  0.2728
 5200SOL    HW127233   1.076   3.660   1.524  1.4590  0.6640  0.4179
 5200SOL    HW227234   1.006   3.589   1.412 -1.3788  1.3544  2.8928
 5201SOL     OW27235   3.670   0.280   3.031  0.0028 -0.2464 -0.2575
 5201SOL    HW127236   3.611   0.319   3.095 -0.0206 -0.8217  0.0700
 5201SOL    HW227237   3.752   0.329   3.041 -1.6616  2.5021 -0.3157
 5202SOL     OW27238   0.760   3.077   9.083  0.2452 -0.0251 -0.2678
 5202SOL    HW127239   0.762   3.168   9.053 -1.1980  0.2424  0.4436
 5202SOL    HW227240   0.679   3.051   9.038  0.3655  0.6487 -0.8868
 5203SOL     OW27241   4.094   0.527  17.183  0.8058 -0.4618  0.4003
 5203SOL    HW127242   4.150   0.604  17.190  1.2231 -0.7538  0.2829
 5203SOL    HW227243   4.035   0.541  17.257  1.5001 -1.2453  1.0922
 5204SOL     OW27244   3.679   0.538   4.469  0.0952 -0.2935 -0.5938
 5204SOL    HW127245   3.692   0.632   4.468 -1.7186 -0.0419  0.1074
 5204SOL    HW227246   3.698   0.516   4.378 -1.2067 -1.4309 -0.5993
 5205SOL     OW27247   1.435   1.020   4.801 -0.2289  0.1517  0.0547
 5205SOL    HW127248   1.518   0.999   4.758 -0.8888 -1.5199 -0.3776
 5205SOL    HW227249   1.381   1.027   4.722  1.3071  2.1255 -0.8137
 5206SOL     OW27250   1.830   1.964  16.309 -0.7529 -0.9068 -0.5313
 5206SOL    HW127251   1.868   2.044  16.272  0.4856 -1.3953 -0.3242
 5206SOL    HW227252   1.753   1.951  16.253 -0.9988 -1.0682 -0.1516
 5207SOL     OW27253   0.600   3.848   3.761  0.5023  0.3971  0.8099
 5207SOL    HW127254   0.661   3.873   3.830  2.2481  1.4922 -1.1266
 5207SOL    HW227255   0.611   3.922   3.701  1.4404  0.0936  0.6019
 5208SOL     OW27256   3.029   1.122   2.555  0.3107 -0.4119 -0.4106
 5208SOL    HW127257   2.987   1.146   2.638 -0.0684  0.1272 -0.7669
 5208SOL    HW227258   2.974   1.164   2.490  1.3123  0.8359 -0.4398
 5209SOL     OW27259   0.770   4.610  12.288 -0.1236  0.3536  0.4263
 5209SOL    HW127260   0.797   4.574  12.372  0.0153 -0.0860  0.1960
 5209SOL    HW227261   0.839   4.675  12.273  0.3804  0.1189  1.7350
 5210SOL     OW27262   0.490   1.009   0.810  0.0957  0.2681 -0.2237
 5210SOL    HW127263   0.566   1.059   0.841  0.3890 -1.1079  1.2864
 5210SOL    HW227264   0.539   0.957   0.747 -2.1000 -0.0257 -1.6646
 5211SOL     OW27265   0.548   3.078   0.961  0.0135  0.4593 -0.4589
 5211SOL    HW127266   0.574   2.988   0.978  1.4239  1.0983  0.7042
 5211SOL    HW227267   0.459   3.056   0.934 -0.2850  1.7145 -0.4976
 5212SOL     OW27268   0.924   4.535   7.869  0.1507  0.3889 -0.4756
 5212SOL    HW127269   0.989   4.465   7.866  1.1389  1.2696  0.5387
 5212SOL    HW227270   0.978   4.590   7.925  0.1072 -1.8265  1.7654
 5213SOL     OW27271   2.020   3.711   5.835  0.6874  0.9854  0.9618
 5213SOL    HW127272   2.071   3.790   5.814 -1.6976  2.7677  1.7818
 5213SOL    HW227273   1.931   3.747   5.836  1.0929  2.1732 -2.1134
 5214SOL     OW27274   2.408   4.387   5.255 -0.1549  0.1949  0.2563
 5214SOL    HW127275   2.437   4.346   5.174 -1.0688  1.2694 -0.6225
 5214SOL    HW227276   2.325   4.340   5.267 -0.7304  0.5853 -2.3037
 5215SOL     OW27277   1.054   2.309  12.627  0.2597 -0.2265  0.2979
 5215SOL    HW127278   0.996   2.233  12.634 -0.6065  0.5119  1.1005
 5215SOL    HW227279   1.067   2.308  12.532 -2.0484  0.9866 -0.0239
 5216SOL     OW27280   0.965   3.590   7.948  0.5446  0.0706  0.1172
 5216SOL    HW127281   1.004   3.544   7.874  1.4305 -1.8033  1.7662
 5216SOL    HW227282   1.040   3.631   7.992 -0.1317  2.6253 -1.1140
 5217SOL     OW27283   1.013   2.757   5.566 -0.0549  0.3418 -0.4866
 5217SOL    HW127284   0.989   2.666   5.586  1.1192  0.2591  0.5281
 5217SOL    HW227285   0.938   2.790   5.517  0.8404  0.8676 -1.4998
 5218SOL     OW27286   1.638   0.494  17.551 -0.0716 -0.2175  0.3344
 5218SOL    HW127287   1.667   0.446  17.629  1.1207  3.0185  1.9037
 5218SOL    HW227288   1.687   0.575  17.567 -2.4442  1.2326  0.2475
 5219SOL     OW27289   2.535   0.340   7.545 -0.3527 -0.2458  0.4788
 5219SOL    HW127290   2.499   0.316   7.630  0.1302  0.4490  0.8760
 5219SOL    HW227291   2.464   0.396   7.513 -0.2680 -0.3614  0.0781
 5220SOL     OW27292   3.066   2.446  11.268  0.7909 -0.3371  0.2855
 5220SOL    HW127293   2.984   2.461  11.315 -1.2545 -3.4076 -2.2824
 5220SOL    HW227294   3.046   2.489  11.185 -0.7088  0.9613  1.3044
 5221SOL     OW27295   3.191   3.870   8.745 -0.7302  0.2994  0.0205
 5221SOL    HW127296   3.286   3.875   8.731 -0.4728 -0.6551  1.4338
 5221SOL    HW227297   3.163   3.801   8.685 -0.8595  0.2199  0.1712
 5222SOL     OW27298   1.956   4.690  11.709  0.1197  0.8214  0.1693
 5222SOL    HW127299   2.039   4.691  11.756  0.3628  3.5936 -0.3014
 5222SOL    HW227300   1.898   4.660  11.779 -2.1132  0.4393 -1.8300
 5223SOL     OW27301   2.268   4.739   6.303  0.5184  0.1020 -0.2661
 5223SOL    HW127302   2.330   0.056   6.345  0.1693 -0.6141  1.2664
 5223SOL    HW227303   2.302   0.003   6.214 -6.0434 -0.5364 -2.8145
 5224SOL     OW27304   4.698   2.658   2.212 -0.2690  0.2430 -0.6472
 5224SOL    HW127305   4.651   2.614   2.142  1.1516  0.2801 -1.6236
 5224SOL    HW227306   0.042   2.633   2.182  0.1824  1.4021 -0.3189
 5225SOL     OW27307   4.169   3.766  10.408  0.2656  0.0183 -0.4770
 5225SOL    HW127308   4.109   3.704  10.449  2.2665 -0.9657  0.9633
 5225SOL    HW227309   4.169   3.836  10.473  1.1101 -2.3506  2.0685
 5226SOL     OW27310   3.036   1.766   6.542  0.4470  0.1570 -0.3784
 5226SOL    HW127311   3.067   1.734   6.626  1.6415 -1.1936 -1.3401
 5226SOL    HW227312   2.962   1.819   6.573 -0.3994 -1.0243 -0.4093
 5227SOL     OW27313   1.350   3.285   1.640 -0.4807  0.0492  0.3012
 5227SOL    HW127314   1.271   3.283   1.586 -0.8806 -0.0719  0.8901
 5227SOL    HW227315   1.320   3.254   1.725  0.0176 -0.8905  0.1317
 5228SOL     OW27316   2.414   3.367   4.183  0.1018  0.2710  0.2467
 5228SOL    HW127317   2.484   3.432   4.183 -0.7985  1.2498  0.3085
 5228SOL    HW227318   2.445   3.322   4.261  0.4851  2.5714  1.4353
 5229SOL     OW27319   2.364   1.439  10.720  0.2804  0.3649  0.3761
 5229SOL    HW127320   2.449   1.412  10.684  0.2977  0.5937  0.2455
 5229SOL    HW227321   2.388   1.463  10.809 -2.2472 -0.5329  1.2897
 5230SOL     OW27322   1.426   4.026   3.806  0.2443  0.8455  0.5033
 5230SOL    HW127323   1.463   4.001   3.891  2.0483  0.4948 -0.3987
 5230SOL    HW227324   1.375   4.104   3.830  0.4138  0.8828  0.7417
 5231SOL     OW27325   3.693   4.151  15.615 -0.4293  0.5230  0.2146
 5231SOL    HW127326   3.695   4.140  15.710 -1.9013  4.4925  0.7024
 5231SOL    HW227327   3.747   4.227  15.594 -0.2013  0.9340  2.2280
 5232SOL     OW27328   1.004   1.068   4.546 -0.4178 -0.0816 -0.2294
 5232SOL    HW127329   0.965   1.080   4.633  1.6990  0.8430  0.5887
 5232SOL    HW227330   0.971   0.978   4.541 -1.0157  0.2540 -2.3821
 5233SOL     OW27331   0.061   4.466   2.729  0.8230  0.3744 -0.2466
 5233SOL    HW127332   4.717   4.494   2.705 -0.3970 -1.8114  1.7376
 5233SOL    HW227333   0.055   4.465   2.824  0.1474  0.9501 -0.2830
 5234SOL     OW27334   0.587   0.543   2.925  0.3170  0.3157  0.0443
 5234SOL    HW127335   0.650   0.560   2.855  0.0257 -0.8453 -0.5109
 5234SOL    HW227336   0.503   0.570   2.888 -0.6504 -1.8454  0.6335
 5235SOL     OW27337   4.069   3.574   3.328  0.1629 -0.0270 -0.4829
 5235SOL    HW127338   4.020   3.610   3.254  0.3712 -0.3360 -0.7687
 5235SOL    HW227339   4.097   3.495   3.283  3.4300  0.2166  1.0827
 5236SOL     OW27340   3.036   1.650   6.036 -0.1076 -0.2370  0.1823
 5236SOL    HW127341   3.126   1.630   6.058 -0.1312  0.6427  1.0623
 5236SOL    HW227342   2.977   1.576   6.025 -1.4893  0.8226  0.4004
 5237SOL     OW27343   0.719   4.060   7.373 -0.2205  0.4389 -0.3599
 5237SOL    HW127344   0.739   4.069   7.280 -2.6485  0.2373 -0.9035
 5237SOL    HW227345   0.772   3.987   7.406 -0.4284  1.2724  1.8210
 5238SOL     OW27346   1.651   0.736   7.403 -0.3102 -0.1010  0.5027
 5238SOL    HW127347   1.581   0.800   7.419 -0.9517 -0.3727 -1.1805
 5238SOL    HW227348   1.621   0.687   7.326  1.1958 -0.7323  0.3275
 5239SOL     OW27349   3.315   3.931  17.704 -0.4457 -0.4439 -0.1026
 5239SOL    HW127350   3.333   3.943  17.611 -0.1480  1.5642  0.2022
 5239SOL    HW227351   3.344   3.842  17.722 -0.2054 -0.1749  0.8442
 5240SOL     OW27352   2.174   2.137   7.754 -0.6630 -0.3858  0.0319
 5240SOL    HW127353   2.170   2.229   7.727 -1.8255  0.0697  1.7985
 5240SOL    HW227354   2.084   2.103   7.755 -1.0586  0.7031  1.5277
 5241SOL     OW27355   2.958   1.474  13.581  0.7758 -0.4577  0.4179
 5241SOL    HW127356   2.876   1.510  13.614  0.7032 -0.0890 -0.1530
 5241SOL    HW227357   2.935   1.382  13.567 -3.5235  0.3880  1.7306
 5242SOL     OW27358   0.947   4.613   2.566  0.0197  0.0227 -0.1933
 5242SOL    HW127359   0.891   4.581   2.495 -1.0403  1.0109  0.2181
 5242SOL    HW227360   1.000   4.534   2.582 -2.8422 -1.3744  2.3463
 5243SOL     OW27361   0.715   4.539   8.540  0.2052  0.3367  0.4663
 5243SOL    HW127362   0.728   4.634   8.545 -0.0892  0.3246  1.4059
 5243SOL    HW227363   0.731   4.512   8.630 -1.3206 -1.3600  0.2257
 5244SOL     OW27364   1.878   4.471   1.988 -0.2585 -0.5634 -0.4955
 5244SOL    HW127365   1.907   4.480   2.078 -0.1046 -2.1183 -0.3801
 5244SOL    HW227366   1.793   4.514   1.989  0.8941  1.7041 -0.4964
 5245SOL     OW27367   1.707   1.816  16.954  0.3970 -0.1598 -0.0181
 5245SOL    HW127368   1.689   1.726  16.981  0.2656  0.4381  1.8651
 5245SOL    HW227369   1.700   1.818  16.859 -1.7809 -1.0565  0.1337
 5246SOL     OW27370   2.160   2.383   7.256  0.0307  0.2923 -0.6496
 5246SOL    HW127371   2.149   2.431   7.338  1.8823  0.4166 -0.4672
 5246SOL    HW227372   2.151   2.454   7.192 -4.0674 -0.1768 -0.5935
 5247SOL     OW27373   0.641   2.576   1.597  0.5500 -0.1053 -0.0736
 5247SOL    HW127374   0.582   2.577   1.522 -1.5118  1.0164  1.5739
 5247SOL    HW227375   0.634   2.662   1.639  2.6282  2.1261 -4.2303
 5248SOL     OW27376   3.007   3.684   3.936  0.0664  0.2582  0.2523
 5248SOL    HW127377   2.923   3.639   3.922 -0.9426  1.4173  2.4854
 5248SOL    HW227378   3.064   3.610   3.958 -1.1016 -0.7292 -0.0302
 5249SOL     OW27379   0.387   0.665   1.464 -0.2026  0.2605  0.0859
 5249SOL    HW127380   0.461   0.725   1.468  2.2469 -2.7649  0.5271
 5249SOL    HW227381   0.420   0.602   1.399  0.6310  1.0879 -0.2969
 5250SOL     OW27382   3.885   4.554   4.977  0.4791  0.0778  0.0014
 5250SOL    HW127383   3.913   4.516   5.061  1.9468 -1.9185 -1.3950
 5250SOL    HW227384   3.866   4.646   4.996 -1.2677 -0.5080  1.1248
 5251SOL     OW27385   2.972   1.109  11.715 -0.7913  0.0953 -0.0182
 5251SOL    HW127386   2.897   1.064  11.755 -1.8162 -2.4641 -4.8074
 5251SOL    HW227387   3.011   1.163  11.784 -0.4254 -1.2850  0.8485
 5252SOL     OW27388   3.686   1.848   3.884 -0.1979 -0.1008  0.4804
 5252SOL    HW127389   3.638   1.817   3.960  0.4064 -1.2495  0.3971
 5252SOL    HW227390   3.759   1.893   3.927  0.0281 -1.4780  1.5376
 5253SOL     OW27391   0.140   4.044   8.491  0.5182 -0.6671 -0.5326
 5253SOL    HW127392   0.076   4.114   8.478  1.9788  1.0939  1.7804
 5253SOL    HW227393   0.220   4.091   8.469  0.2121 -0.6157 -1.5099
 5254SOL     OW27394   4.296   3.849   4.978  0.8020  0.4988  0.4565
 5254SOL    HW127395   4.268   3.815   5.063 -0.0785  0.3902  0.1197
 5254SOL    HW227396   4.248   3.787   4.924  2.8697  0.7196 -1.6479
 5255SOL     OW27397   1.681   0.250  10.715 -0.0589  0.5014 -0.4575
 5255SOL    HW127398   1.760   0.203  10.740 -0.3934 -0.7002 -1.6446
 5255SOL    HW227399   1.637   0.273  10.797  0.2456  1.1588 -0.4786
 5256SOL     OW27400   1.123   2.649   4.833  0.4348  0.3140 -0.0208
 5256SOL    HW127401   1.190   2.583   4.849  0.9520 -0.1304 -3.8575
 5256SOL    HW227402   1.047   2.593   4.816 -1.5704  3.1750 -0.5374
 5257SOL     OW27403   3.621   0.118   0.270 -0.0047 -0.0582  0.4802
 5257SOL    HW127404   3.590   0.110   0.179  1.3646  0.7178 -0.0618
 5257SOL    HW227405   3.547   0.164   0.309 -2.0055 -3.0973  0.3168
 5258SOL     OW27406   3.220   2.392  10.958  0.2510 -0.1755  0.1849
 5258SOL    HW127407   3.314   2.375  10.955  0.9153  3.1850  1.0317
 5258SOL    HW227408   3.221   2.480  10.920  1.6848 -1.1643 -2.0679
 5259SOL     OW27409   3.700   1.790   3.201 -0.2046  0.5078 -0.0363
 5259SOL    HW127410   3.643   1.778   3.277  1.1498 -3.6332  0.3148
 5259SOL    HW227411   3.776   1.745   3.237  0.3405 -0.5838 -2.5494
 5260SOL     OW27412   2.085   3.918   9.873  0.1667 -0.0162 -0.3933
 5260SOL    HW127413   2.181   3.915   9.878  0.0720  0.2622  1.5609
 5260SOL    HW227414   2.067   3.824   9.874 -0.4526  0.1035 -0.1250
 5261SOL     OW27415   1.166   4.715  15.581 -0.2589  0.2984 -0.0636
 5261SOL    HW127416   1.195   4.668  15.503 -0.1472 -1.0036  0.7453
 5261SOL    HW227417   1.235   4.695  15.645  1.9797  2.7108 -1.7210
 5262SOL     OW27418   4.555   3.075   5.815  0.7676 -0.3672 -0.0782
 5262SOL    HW127419   4.644   3.040   5.811  1.0094  0.3072 -0.5855
 5262SOL    HW227420   4.516   2.990   5.796  0.0100 -0.2024  0.7274
 5263SOL     OW27421   2.468   2.324   5.538 -0.2983  0.0127 -0.3265
 5263SOL    HW127422   2.544   2.351   5.589  1.2911  0.3829 -2.8839
 5263SOL    HW227423   2.464   2.231   5.560 -0.2973  0.1009  0.0446
 5264SOL     OW27424   1.127   4.024   8.415 -0.2288  0.6710  0.0379
 5264SOL    HW127425   1.094   4.113   8.405 -0.4290  0.4463 -1.2754
 5264SOL    HW227426   1.149   4.027   8.508 -0.4793 -2.3742  0.2089
 5265SOL     OW27427   0.134   1.193   6.966 -0.6566  0.0086 -0.2132
 5265SOL    HW127428   0.199   1.147   7.019  0.2486  1.2914 -0.2186
 5265SOL    HW227429   0.058   1.135   6.963  0.7176 -1.9010  1.9623
 5266SOL     OW27430   2.090   0.705   1.777 -0.6277  0.7336 -0.6673
 5266SOL    HW127431   2.159   0.740   1.834 -1.6134  1.0572  0.3170
 5266SOL    HW227432   2.139   0.656   1.711 -1.5311 -0.6385 -0.3144
 5267SOL     OW27433   0.777   2.074   7.589 -0.0746 -0.6150  0.4384
 5267SOL    HW127434   0.751   2.078   7.681 -3.3349  0.0518 -0.5191
 5267SOL    HW227435   0.728   2.141   7.541  3.0936  1.0907 -0.4245
 5268SOL     OW27436   2.544   3.046  17.041  0.1528  0.0612 -0.5852
 5268SOL    HW127437   2.503   3.006  16.964  0.7170  2.6348 -2.2038
 5268SOL    HW227438   2.504   3.001  17.115  1.4279  1.0143  0.6890
 5269SOL     OW27439   1.264   0.233  10.871 -0.4974  0.2982 -0.2479
 5269SOL    HW127440   1.318   0.163  10.835  0.4189  1.8779 -1.9585
 5269SOL    HW227441   1.219   0.276  10.798 -0.0788  0.7062 -0.2648
 5270SOL     OW27442   3.087   0.379  14.923  0.2290  0.6103 -0.0808
 5270SOL    HW127443   3.043   0.436  14.860  0.5562 -0.0069 -0.8671
 5270SOL    HW227444   3.022   0.313  14.948  1.8229 -1.3160 -1.0056
 5271SOL     OW27445   2.012   1.543   5.816  0.3513 -0.0354 -0.3244
 5271SOL    HW127446   1.953   1.595   5.762  0.9893  1.2430  0.2084
 5271SOL    HW227447   2.077   1.612   5.829  1.5233 -0.6983 -2.7095
 5272SOL     OW27448   3.206   4.538   5.770 -0.9004  0.4705  0.6427
 5272SOL    HW127449   3.160   4.458   5.747  0.0330  0.0072  0.3887
 5272SOL    HW227450   3.297   4.515   5.751 -0.7481  0.7656  1.0103
 5273SOL     OW27451   2.230   1.373   2.061 -0.7369  0.3255  0.5608
 5273SOL    HW127452   2.220   1.281   2.039 -3.6989  1.2562 -2.0836
 5273SOL    HW227453   2.210   1.373   2.154  0.8742  0.3734  0.9116
 5274SOL     OW27454   4.460   3.089   5.479 -0.5340  0.4158  0.0848
 5274SOL    HW127455   4.370   3.105   5.449 -1.0870 -0.8633  1.0382
 5274SOL    HW227456   4.437   3.007   5.524 -1.3159  0.8721  0.5106
 5275SOL     OW27457   1.049   2.597   1.834  0.1378  0.0100  0.1627
 5275SOL    HW127458   1.068   2.685   1.802 -1.8857  0.4664  0.1743
 5275SOL    HW227459   1.053   2.598   1.930  1.2255 -1.1501  0.1274
 5276SOL     OW27460   0.073   1.777  14.616 -0.0228 -0.0204 -0.0820
 5276SOL    HW127461   4.740   1.765  14.561 -0.5303 -1.6479  0.9594
 5276SOL    HW227462   0.133   1.737  14.553  0.8284  2.2848 -0.7243
 5277SOL     OW27463   0.554   2.123   2.800  0.1715 -0.7302  1.1471
 5277SOL    HW127464   0.630   2.165   2.839  2.1971 -2.9171 -0.5207
 5277SOL    HW227465   0.510   2.201   2.766 -1.1474 -1.7409  0.5261
 5278SOL     OW27466   4.718   3.118   7.189 -0.1255  0.3173 -0.2797
 5278SOL    HW127467   4.738   3.182   7.258 -0.2569  0.9309 -0.8168
 5278SOL    HW227468   4.682   3.167   7.116  2.9173  0.4793 -1.6783
 5279SOL     OW27469   3.436   1.456   4.659 -0.2203  0.2471 -0.4943
 5279SOL    HW127470   3.463   1.387   4.599 -1.3911  0.6949 -1.5197
 5279SOL    HW227471   3.346   1.437   4.683 -0.2081  0.2255 -0.4654
 5280SOL     OW27472   1.096   2.342   6.194  0.1019 -0.3108  0.1704
 5280SOL    HW127473   1.159   2.413   6.180  2.1749 -2.0860  0.5495
 5280SOL    HW227474   1.126   2.274   6.134  1.6295  0.4936  0.0085
 5281SOL     OW27475   4.105   0.412   2.077 -0.3703  0.2630  0.3802
 5281SOL    HW127476   4.051   0.334   2.062  0.0547  0.0027  0.2022
 5281SOL    HW227477   4.186   0.362   2.090  0.1729  0.4504 -2.4181
 5282SOL     OW27478   2.770   4.084   4.404  0.1195 -0.2014 -0.1855
 5282SOL    HW127479   2.863   4.076   4.425 -0.2102  0.2320  1.4907
 5282SOL    HW227480   2.764   4.032   4.324 -0.0185 -2.2966  1.1980
 5283SOL     OW27481   2.961   3.041  16.899 -0.1235 -0.1169  0.2348
 5283SOL    HW127482   2.929   3.009  16.815  1.2548  2.1031 -1.1217
 5283SOL    HW227483   3.015   2.970  16.934  0.0435 -0.2176 -0.2224
 5284SOL     OW27484   3.601   1.814   7.914 -0.3753  0.2112 -0.1289
 5284SOL    HW127485   3.514   1.798   7.878 -0.8347  1.2925  0.5056
 5284SOL    HW227486   3.584   1.803   8.008  1.2690  1.0339  0.2590
 5285SOL     OW27487   4.340   1.447   2.711 -0.2146  0.3147 -0.2996
 5285SOL    HW127488   4.270   1.508   2.734 -0.5420 -0.3495  0.4323
 5285SOL    HW227489   4.313   1.404   2.629  1.1150 -1.6889  0.3138
 5286SOL     OW27490   1.801   3.294   8.427  0.1064 -0.2117  0.0769
 5286SOL    HW127491   1.873   3.318   8.486  0.3502  0.1632 -0.3692
 5286SOL    HW227492   1.747   3.241   8.486 -0.7906  2.7484  1.8978
 5287SOL     OW27493   0.985   2.330   6.925  0.4129 -0.2489  0.3527
 5287SOL    HW127494   0.904   2.290   6.893  0.0852  0.2188  0.5996
 5287SOL    HW227495   1.012   2.270   6.994  0.2124 -1.2241 -0.4075
 5288SOL     OW27496   2.023   1.771   1.385 -0.3145 -0.3115 -0.6028
 5288SOL    HW127497   2.055   1.772   1.476  0.3187  3.4170 -0.8603
 5288SOL    HW227498   2.100   1.732   1.344 -0.1895  1.6725 -2.2246
 5289SOL     OW27499   1.821   1.250   5.022 -0.0035  0.0465 -0.3280
 5289SOL    HW127500   1.842   1.163   5.055 -1.3844 -0.0148  0.4142
 5289SOL    HW227501   1.749   1.244   4.959  0.1407  0.0216 -0.4880
 5290SOL     OW27502   3.173   4.061   3.258  0.2605  1.1335  0.0074
 5290SOL    HW127503   3.198   4.152   3.248  0.7636  0.7796 -1.9584
 5290SOL    HW227504   3.080   4.067   3.236  0.5900 -1.9178 -2.2552
 5291SOL     OW27505   4.204   2.516   4.683  0.0253  0.1023  1.0229
 5291SOL    HW127506   4.119   2.560   4.689  0.6955  1.2697  1.7507
 5291SOL    HW227507   4.266   2.578   4.722 -1.4220  1.5861  0.9534
 5292SOL     OW27508   4.336   3.554   0.478  0.6069  0.4789  0.3051
 5292SOL    HW127509   4.399   3.592   0.540  1.8527 -1.2071  0.0788
 5292SOL    HW227510   4.342   3.461   0.501 -0.8224 -0.5296 -3.3354
 5293SOL     OW27511   1.165   1.008   8.207 -0.0914  0.0857 -0.3716
 5293SOL    HW127512   1.187   1.011   8.114  1.0371  0.3771 -0.1003
 5293SOL    HW227513   1.209   1.090   8.231 -1.2468  0.7809 -0.6235
 5294SOL     OW27514   2.895   2.142   7.987  0.3609 -0.3137 -0.0863
 5294SOL    HW127515   2.833   2.082   8.030  0.6078 -0.9219 -0.5713
 5294SOL    HW227516   2.869   2.224   8.027  0.9479  0.0793 -0.5147
 5295SOL     OW27517   3.832   2.454   9.399 -0.0486  0.1093 -0.1644
 5295SOL    HW127518   3.901   2.438   9.335  0.4582  1.6162  0.0082
 5295SOL    HW227519   3.871   2.521   9.455  1.6396 -1.1636  0.1985
 5296SOL     OW27520   3.595   1.450   1.382  0.8328 -0.1672  0.1506
 5296SOL    HW127521   3.687   1.454   1.409  0.3167  1.1329  1.6564
 5296SOL    HW227522   3.575   1.356   1.376  2.6457 -0.5962  0.9703
 5297SOL     OW27523   3.985   2.644   2.488 -0.6808  0.1678  0.2140
 5297SOL    HW127524   4.022   2.558   2.503  2.5783  1.3357 -1.0526
 5297SOL    HW227525   3.948   2.637   2.400  0.8803  1.6129 -0.5713
 5298SOL     OW27526   3.739   2.180   1.304 -0.5834 -0.1470  0.3488
 5298SOL    HW127527   3.796   2.105   1.321 -1.0802 -0.1134  2.2265
 5298SOL    HW227528   3.664   2.129   1.275 -1.7763  0.0103  3.0979
 5299SOL     OW27529   3.128   3.224  10.166 -0.0108 -0.0160 -0.1823
 5299SOL    HW127530   3.076   3.144  10.167  1.8248 -1.2191 -1.1716
 5299SOL    HW227531   3.191   3.214  10.238  0.4805 -2.0354 -0.8858
 5300SOL     OW27532   2.646   3.799  14.880 -0.5746 -0.0342 -0.6325
 5300SOL    HW127533   2.607   3.883  14.856 -1.9639 -1.1096 -2.1891
 5300SOL    HW227534   2.645   3.750  14.798 -0.0309 -0.3557 -0.4426
 5301SOL     OW27535   3.617   4.658   1.075  0.0408 -0.2218  0.3050
 5301SOL    HW127536   3.575   4.603   1.142 -2.4590  0.9962 -0.2596
 5301SOL    HW227537   3.542   4.710   1.043 -0.9616 -2.1597 -0.4917
 5302SOL     OW27538   3.360   4.099  12.861  0.4342 -0.0483 -0.6061
 5302SOL    HW127539   3.296   4.115  12.792  0.6656 -1.7251 -1.2093
 5302SOL    HW227540   3.324   4.135  12.942 -1.3649  1.4350 -2.0845
 5303SOL     OW27541   1.960   4.520   2.239  0.0397 -0.0258 -0.1404
 5303SOL    HW127542   1.881   4.570   2.262  0.0081 -0.3614  0.4841
 5303SOL    HW227543   2.025   4.579   2.277 -0.3928  1.3496 -1.5081
 5304SOL     OW27544   4.494   3.268  17.144  0.7410  0.2630 -0.1799
 5304SOL    HW127545   4.571   3.313  17.179  0.5091  0.3726  0.1938
 5304SOL    HW227546   4.519   3.274  17.052  0.7985  1.0473 -0.1154
 5305SOL     OW27547   0.930   0.224   0.468  0.0815 -0.4777 -0.2412
 5305SOL    HW127548   1.023   0.247   0.477 -0.7453  2.2463  1.0377
 5305SOL    HW227549   0.929   0.145   0.522  0.8844  0.6843  1.4653
 5306SOL     OW27550   4.134   2.472  12.823  0.3657  0.3011 -0.5323
 5306SOL    HW127551   4.151   2.378  12.810 -0.0358  0.1933 -0.2780
 5306SOL    HW227552   4.055   2.458  12.876  1.0745  0.0698  0.4844
 5307SOL     OW27553   0.821   0.041   3.218 -0.4424  0.1542  0.0221
 5307SOL    HW127554   0.788   4.744   3.137 -2.0035  0.8396  0.3039
 5307SOL    HW227555   0.742   0.028   3.270 -1.2322  1.4502 -0.8571
 5308SOL     OW27556   1.312   1.093  11.108  0.0762  0.0849 -0.5604
 5308SOL    HW127557   1.290   1.002  11.089  0.2761  0.2358 -1.5548
 5308SOL    HW227558   1.375   1.083  11.179 -0.7426  0.7152  0.2518
 5309SOL     OW27559   2.520   4.399  16.901 -0.2953  0.1381 -0.4467
 5309SOL    HW127560   2.595   4.340  16.911  1.6183  2.6182 -0.2492
 5309SOL    HW227561   2.505   4.385  16.807  0.0356  0.2361 -0.5136
 5310SOL     OW27562   1.205   0.853  10.754 -0.2205 -0.0053  0.7858
 5310SOL    HW127563   1.193   0.862  10.848 -1.5323  2.7546  0.3487
 5310SOL    HW227564   1.162   0.770  10.732  1.0755 -1.0673  2.2986
 5311SOL     OW27565   4.481   3.479   6.929 -0.0894  0.5500  0.0166
 5311SOL    HW127566   4.528   3.553   6.967 -0.0465 -0.1628  1.3378
 5311SOL    HW227567   4.393   3.517   6.929 -0.7545 -0.9856 -1.6663
 5312SOL     OW27568   4.291   2.184   4.123 -0.3532 -0.1266 -0.1897
 5312SOL    HW127569   4.204   2.215   4.150 -0.3327 -1.1650  1.0407
 5312SOL    HW227570   4.302   2.232   4.041 -0.2851  1.6980  0.8929
 5313SOL     OW27571   4.514   0.855   0.445 -0.3100 -0.2086 -0.4956
 5313SOL    HW127572   4.506   0.893   0.533 -2.3141 -0.2633 -0.6535
 5313SOL    HW227573   4.455   0.911   0.395 -0.3777  1.7592  1.7752
 5314SOL     OW27574   3.931   2.841  13.850 -0.3432  0.0685 -0.4849
 5314SOL    HW127575   3.920   2.886  13.766 -0.4016  0.6381 -0.1734
 5314SOL    HW227576   4.019   2.804  13.842 -0.6107 -0.5657 -0.4534
 5315SOL     OW27577   3.947   1.132  13.529  0.1877 -0.2915 -0.4749
 5315SOL    HW127578   3.959   1.218  13.490 -2.5638  1.4246  2.4890
 5315SOL    HW227579   3.969   1.145  13.622 -2.4654  3.4502 -0.4076
 5316SOL     OW27580   4.662   0.436   8.096  0.2575 -0.4717 -0.1145
 5316SOL    HW127581   4.646   0.362   8.036 -2.2107  0.5875 -0.7755
 5316SOL    HW227582   4.570   0.460   8.111 -0.7312 -2.1163 -3.3702
 5317SOL     OW27583   0.199   0.621   4.342  0.4898  0.4949  0.1532
 5317SOL    HW127584   0.119   0.630   4.395  0.7094 -1.0772  0.7407
 5317SOL    HW227585   0.246   0.698   4.375  0.5608  1.0761 -1.2822
 5318SOL     OW27586   2.424   0.632   6.855 -0.1089 -0.5900  0.1672
 5318SOL    HW127587   2.417   0.666   6.944  2.7937  0.9171 -0.1578
 5318SOL    HW227588   2.440   0.538   6.862 -2.1297 -0.9726 -0.4368
 5319SOL     OW27589   1.948   1.280   7.668  0.2257 -0.4269  0.7820
 5319SOL    HW127590   1.905   1.204   7.708 -0.7373  0.1952  0.9564
 5319SOL    HW227591   1.875   1.342   7.655  0.9117  0.0759 -0.6809
 5320SOL     OW27592   2.718   0.611   6.846  0.4781 -0.1945  1.0812
 5320SOL    HW127593   2.732   0.536   6.787 -1.3979 -0.0116  0.4196
 5320SOL    HW227594   2.627   0.600   6.872  0.5758 -1.0912  1.0458
 5321SOL     OW27595   0.807   0.815   1.237  0.8230  0.2013 -0.0833
 5321SOL    HW127596   0.827   0.755   1.309  2.7912  0.7231 -0.1853
 5321SOL    HW227597   0.898   0.830   1.208  1.1214 -0.6150  0.4349
 5322SOL     OW27598   3.920   0.081   3.084 -0.0307 -0.1023 -0.1942
 5322SOL    HW127599   3.891   0.061   2.996  1.0286  1.9289 -1.0036
 5322SOL    HW227600   3.853   0.037   3.137  1.0391  0.2548  1.4788
 5323SOL     OW27601   2.693   4.550  12.022  0.2059  0.1452  0.4338
 5323SOL    HW127602   2.754   4.582  12.089  0.4634 -0.7432  0.6191
 5323SOL    HW227603   2.732   4.587  11.943 -0.2020 -2.2284 -0.8759
 5324SOL     OW27604   0.874   1.010   2.657 -0.8945  0.1617  0.1823
 5324SOL    HW127605   0.888   1.056   2.574 -0.2411  1.9783  1.2989
 5324SOL    HW227606   0.816   1.077   2.693 -1.3773 -0.0818 -0.1412
 5325SOL     OW27607   1.085   2.097  17.652  0.6301  0.3239 -0.0701
 5325SOL    HW127608   1.009   2.115  17.596  0.8353  2.0410  0.1881
 5325SOL    HW227609   1.151   2.072  17.587  1.2186  4.1590 -0.9344
 5326SOL     OW27610   1.165   2.061   2.003  0.0858  0.0593 -0.7309
 5326SOL    HW127611   1.124   2.120   2.065  1.1458 -1.7707  1.6899
 5326SOL    HW227612   1.132   2.084   1.916  1.0597 -0.6041 -1.2763
 5327SOL     OW27613   4.190   4.411  14.554 -0.1970  0.0584 -0.8704
 5327SOL    HW127614   4.240   4.381  14.630  0.2618 -1.1430 -1.6628
 5327SOL    HW227615   4.176   4.331  14.504 -1.5462 -0.7743  0.8578
 5328SOL     OW27616   1.978   2.902   3.212 -0.1317  0.1284 -0.6140
 5328SOL    HW127617   2.070   2.922   3.194  0.0775  0.3599  0.7240
 5328SOL    HW227618   1.954   2.898   3.119 -1.6859 -1.5138 -0.1401
 5329SOL     OW27619   1.618   0.256   7.439 -0.1188  0.2757 -0.1070
 5329SOL    HW127620   1.655   0.232   7.354  0.7340  2.0371 -0.2504
 5329SOL    HW227621   1.535   0.298   7.417  0.1495  0.1767 -1.3265
 5330SOL     OW27622   1.301   4.576   2.248 -0.0697 -0.2333  0.7365
 5330SOL    HW127623   1.306   4.655   2.302  1.4747  0.2764 -0.1615
 5330SOL    HW227624   1.289   4.613   2.161  1.6804  0.5074  0.8061
 5331SOL     OW27625   1.693   4.338   2.555  0.3984  0.0987 -0.0532
 5331SOL    HW127626   1.605   4.373   2.573  0.4265  0.3862 -0.4855
 5331SOL    HW227627   1.720   4.395   2.484  0.6607  1.6073  1.2648
 5332SOL     OW27628   0.802   0.193  14.508  0.0763 -0.0847 -0.7433
 5332SOL    HW127629   0.865   0.248  14.462 -1.1745  1.0067 -1.1619
 5332SOL    HW227630   0.806   0.108  14.464 -0.0126 -1.3293  1.6636
 5333SOL     OW27631   4.086   4.089  14.625 -0.0581  0.4258  0.0524
 5333SOL    HW127632   4.011   4.145  14.646  0.1663  1.4834 -1.8869
 5333SOL    HW227633   4.140   4.136  14.689 -3.8550 -0.3171  3.7903
 5334SOL     OW27634   3.943   3.507   0.600  0.2277  0.4294  0.2037
 5334SOL    HW127635   3.883   3.575   0.569 -0.2068 -0.3011 -0.5907
 5334SOL    HW227636   3.975   3.466   0.519  1.3719  0.4874  0.6286
 5335SOL     OW27637   1.786   3.604  17.235 -0.1523  0.4237 -0.0287
 5335SOL    HW127638   1.779   3.554  17.316  2.6555  0.6679  0.3608
 5335SOL    HW227639   1.700   3.646  17.241 -0.4044  0.2077 -2.2599
 5336SOL     OW27640   2.913   2.802   1.767 -0.0594 -0.0536 -0.4489
 5336SOL    HW127641   2.939   2.894   1.770  0.1560 -0.1334  0.0439
 5336SOL    HW227642   2.972   2.761   1.830  1.3337 -1.3881 -2.5983
 5337SOL     OW27643   3.910   3.318  13.322 -0.0662 -0.4357  0.2511
 5337SOL    HW127644   3.863   3.402  13.325 -2.1569 -1.6109  0.1289
 5337SOL    HW227645   3.888   3.301  13.230 -0.8956  0.3035  0.3057
 5338SOL     OW27646   1.646   3.091   8.554 -0.0765  0.8317 -0.0493
 5338SOL    HW127647   1.683   3.016   8.600 -2.0318  0.1665  0.4623
 5338SOL    HW227648   1.622   3.047   8.472 -0.5538  0.9184  0.0415
 5339SOL     OW27649   0.606   1.157   6.013  0.4338 -0.2873 -0.1873
 5339SOL    HW127650   0.607   1.144   6.107  0.0445 -1.1924 -0.3179
 5339SOL    HW227651   0.588   1.251   6.009 -0.7797 -0.5660 -1.2284
 5340SOL     OW27652   0.564   0.868   2.288 -0.1669 -0.0774  0.0849
 5340SOL    HW127653   0.513   0.881   2.368  2.5416  1.0731  1.6544
 5340SOL    HW227654   0.589   0.958   2.266  2.7191  0.0137  3.7125
 5341SOL     OW27655   2.472   0.681   2.238 -0.1251 -0.2499 -0.2988
 5341SOL    HW127656   2.562   0.713   2.237  0.5184 -1.9916  1.7428
 5341SOL    HW227657   2.457   0.642   2.324 -0.1371  0.7584  0.1557
 5342SOL     OW27658   2.113   2.424  13.533  0.2822 -1.0559 -0.0726
 5342SOL    HW127659   2.040   2.449  13.476  1.3926  0.5006 -0.8104
 5342SOL    HW227660   2.155   2.506  13.559  0.8833 -1.5813  0.6218
 5343SOL     OW27661   2.299   4.516  17.065 -0.8001  0.1701 -0.9857
 5343SOL    HW127662   2.227   4.542  17.008 -0.6719  1.2426 -0.6609
 5343SOL    HW227663   2.363   4.509  16.994 -0.0384 -1.2634 -0.1639
 5344SOL     OW27664   4.157   1.491   0.410  0.0305  0.4088 -0.0199
 5344SOL    HW127665   4.205   1.512   0.329  0.3541 -1.2658 -0.2675
 5344SOL    HW227666   4.114   1.412   0.379 -0.2887  0.2893  0.7199
 5345SOL     OW27667   2.719   0.145  15.384 -0.4031 -0.4484  0.0172
 5345SOL    HW127668   2.733   0.168  15.292 -0.2483 -0.7306 -0.0306
 5345SOL    HW227669   2.652   0.079  15.371 -0.6187 -0.6126  1.9203
 5346SOL     OW27670   0.510   4.739   7.270  0.7501  0.0828  0.7120
 5346SOL    HW127671   0.416   0.012   7.256  0.6114 -1.9881 -0.8554
 5346SOL    HW227672   0.536   0.078   7.310  1.6112  1.4489 -2.6497
 5347SOL     OW27673   2.713   0.828   0.329 -0.6129  0.5113  0.7435
 5347SOL    HW127674   2.650   0.775   0.377 -1.2332  0.1562 -0.4614
 5347SOL    HW227675   2.725   0.771   0.253  0.5506 -1.7747  2.6416
 5348SOL     OW27676   0.470   3.325   3.928  0.2760 -0.0462 -0.3092
 5348SOL    HW127677   0.544   3.337   3.987  0.9386  1.0980 -1.3688
 5348SOL    HW227678   0.422   3.405   3.949 -0.1334 -0.3692 -0.0140
 5349SOL     OW27679   2.967   0.274  11.969  0.2642 -0.4006 -0.1767
 5349SOL    HW127680   3.019   0.265  11.889  1.2101 -2.3356  0.6462
 5349SOL    HW227681   3.013   0.331  12.031  0.7175  1.0654 -1.8630
 5350SOL     OW27682   4.085   0.747  10.932  0.0108  0.2189 -0.8086
 5350SOL    HW127683   4.049   0.663  10.960 -1.9854  1.7513  1.1521
 5350SOL    HW227684   4.179   0.728  10.932  0.1553  0.9724  0.0744
 5351SOL     OW27685   0.882   4.000   3.742  0.0800 -0.3517 -0.1843
 5351SOL    HW127686   0.904   3.910   3.719 -0.0193 -0.0035 -1.6516
 5351SOL    HW227687   0.911   3.994   3.833  3.0891 -1.3710 -1.1925
 5352SOL     OW27688   1.518   1.130   9.542  0.4845 -1.0407  0.0302
 5352SOL    HW127689   1.517   1.205   9.482  2.7829 -0.7355  0.3808
 5352SOL    HW227690   1.437   1.087   9.514 -1.2517  0.7686  2.2919
 5353SOL     OW27691   2.635   1.255   2.678 -0.4082  0.6181 -0.4508
 5353SOL    HW127692   2.640   1.278   2.771  0.0873 -1.2437 -0.0249
 5353SOL    HW227693   2.705   1.307   2.639 -0.7637  3.2305  2.3097
 5354SOL     OW27694   4.425   0.454   2.687 -0.3204  0.2452 -0.3214
 5354SOL    HW127695   4.510   0.430   2.649 -0.2692  0.5955 -0.4232
 5354SOL    HW227696   4.411   0.538   2.643  0.1685 -0.1446 -1.2326
 5355SOL     OW27697   2.373   2.240   5.152 -0.3704 -0.0111 -0.2385
 5355SOL    HW127698   2.316   2.214   5.224  2.4896 -2.0350  1.2934
 5355SOL    HW227699   2.439   2.293   5.196 -1.1941  0.0761  0.8973
 5356SOL     OW27700   0.695   4.701   2.966 -0.4106  0.0214 -0.0529
 5356SOL    HW127701   0.705   4.728   2.874  1.2552  1.0930  0.4219
 5356SOL    HW227702   0.607   4.664   2.964 -0.3713  0.0674 -2.3894
 5357SOL     OW27703   0.331   4.521   5.913  0.2923 -0.1275 -0.1674
 5357SOL    HW127704   0.370   4.456   5.971  0.7134  0.6036  0.3598
 5357SOL    HW227705   0.241   4.505   5.942 -0.0674  1.5274 -0.3747
 5358SOL     OW27706   0.826   2.935   6.435  0.1938 -0.1485  0.0521
 5358SOL    HW127707   0.777   3.013   6.462  2.0174  0.4835  1.5210
 5358SOL    HW227708   0.911   2.957   6.473 -0.9260  2.2092  1.1335
 5359SOL     OW27709   2.385   2.148  14.539  0.1176  0.2884 -0.5364
 5359SOL    HW127710   2.381   2.200  14.458 -3.0429  1.5270  0.3915
 5359SOL    HW227711   2.328   2.079  14.504  1.0699 -0.6419 -0.2171
 5360SOL     OW27712   0.180   2.875   5.638  0.4080 -0.0223  0.0692
 5360SOL    HW127713   0.237   2.815   5.684 -1.3729 -0.6424  1.4856
 5360SOL    HW227714   0.162   2.929   5.715  0.7926 -0.5846  0.5481
 5361SOL     OW27715   3.876   4.671   3.342 -0.4272 -0.3487  0.3564
 5361SOL    HW127716   3.952   4.613   3.348  1.0387  1.4216 -1.1615
 5361SOL    HW227717   3.804   4.610   3.324 -1.3108  0.3494  1.5015
 5362SOL     OW27718   2.610   0.494  10.852 -0.2719 -0.0431  0.6945
 5362SOL    HW127719   2.672   0.554  10.810 -2.4346  2.0759  0.5997
 5362SOL    HW227720   2.639   0.417  10.803 -1.4236  0.6574 -1.0905
 5363SOL     OW27721   4.035   0.456   6.063  0.4750  0.1662  0.0140
 5363SOL    HW127722   4.041   0.548   6.089 -0.3022  0.2839 -0.2134
 5363SOL    HW227723   4.108   0.453   6.003 -1.2227  0.1008 -2.0451
 5364SOL     OW27724   4.084   4.154   8.851  0.3196 -0.0295 -0.0652
 5364SOL    HW127725   4.102   4.139   8.944 -0.5884 -0.2879  0.0767
 5364SOL    HW227726   3.991   4.130   8.846 -0.1584  1.7955 -0.0705
 5365SOL     OW27727   4.692   3.286  16.158 -0.7452  0.1301 -0.1254
 5365SOL    HW127728   4.641   3.356  16.117  2.2262  3.2536  1.5422
 5365SOL    HW227729   4.717   3.315  16.245  1.8790  2.1553 -1.5544
 5366SOL     OW27730   3.417   2.320   3.185 -0.3409 -0.2046 -0.1121
 5366SOL    HW127731   3.420   2.377   3.261  0.5778 -0.9698  0.4147
 5366SOL    HW227732   3.457   2.241   3.222  1.2330  0.0372 -1.3051
 5367SOL     OW27733   1.445   4.270   9.583  0.1475  0.0374  0.1796
 5367SOL    HW127734   1.383   4.231   9.522  3.6261 -2.3882 -1.8176
 5367SOL    HW227735   1.492   4.327   9.522  1.4114 -1.5215 -0.2789
 5368SOL     OW27736   0.951   2.577   7.044 -0.3056 -0.1077 -0.3225
 5368SOL    HW127737   0.962   2.510   6.977 -2.1509 -2.8238  2.1304
 5368SOL    HW227738   1.009   2.548   7.114  1.3098  2.2365 -0.6734
 5369SOL     OW27739   4.539   0.975   5.865  0.0927 -0.0671  0.1572
 5369SOL    HW127740   4.507   0.936   5.783  0.3775 -1.2379  0.6114
 5369SOL    HW227741   4.512   1.066   5.854  0.2072 -0.1119 -0.5086
 5370SOL     OW27742   1.151   1.086   9.240  0.5212  0.1688 -0.3989
 5370SOL    HW127743   1.056   1.092   9.234  0.4510  1.3096  2.0998
 5370SOL    HW227744   1.171   1.072   9.147  1.0738  2.2055 -0.5879
 5371SOL     OW27745   1.190   0.785  12.394 -0.7851 -0.9943 -0.1705
 5371SOL    HW127746   1.208   0.860  12.338 -1.1754  0.1134  1.1842
 5371SOL    HW227747   1.282   0.768  12.415 -0.6464 -0.7078 -0.5569
 5372SOL     OW27748   0.006   0.054   8.995 -0.5598 -0.2277 -0.0276
 5372SOL    HW127749   4.667   0.067   9.040 -0.3005 -1.3167  0.7444
 5372SOL    HW227750   0.005   0.123   8.927  1.8841 -1.0976 -0.9441
 5373SOL     OW27751   4.069   1.287   5.742  0.6086 -0.2629 -0.5382
 5373SOL    HW127752   4.082   1.309   5.835  0.5417 -0.3978 -0.4970
 5373SOL    HW227753   3.979   1.320   5.734 -0.2331 -1.9722  1.6460
 5374SOL     OW27754   0.045   4.705  12.606 -0.2748  0.0947 -0.5209
 5374SOL    HW127755   0.030   4.637  12.672  0.1869  0.4343 -0.0672
 5374SOL    HW227756   0.120   0.010  12.638 -0.5319 -0.3418  0.7258
 5375SOL     OW27757   0.881   4.452   1.198  0.8217  0.0885 -0.9253
 5375SOL    HW127758   0.933   4.395   1.141  2.3009  2.0014 -1.4902
 5375SOL    HW227759   0.839   4.513   1.137 -1.7215  0.5874  1.3448
 5376SOL     OW27760   2.274   2.346   9.805  0.1798  0.1665 -0.0867
 5376SOL    HW127761   2.352   2.401   9.797  0.6172 -0.4242  0.1703
 5376SOL    HW227762   2.306   2.261   9.835  0.1526  0.2682  0.2215
 5377SOL     OW27763   1.564   4.102   6.518  0.3805  0.0969 -0.1358
 5377SOL    HW127764   1.525   4.025   6.559 -0.6972  0.0156 -1.3038
 5377SOL    HW227765   1.600   4.057   6.442 -0.6184 -1.4376  0.3078
 5378SOL     OW27766   3.194   1.267   5.890 -0.4665  0.1731 -0.7020
 5378SOL    HW127767   3.178   1.192   5.833  3.1177  0.0689 -1.5765
 5378SOL    HW227768   3.235   1.236   5.971 -0.5084 -1.5692 -1.3406
 5379SOL     OW27769   2.349   2.443   7.623  0.2347  0.2315 -0.2435
 5379SOL    HW127770   2.400   2.513   7.662  0.2269 -0.8956  1.8099
 5379SOL    HW227771   2.405   2.375   7.660 -1.4816  0.2079  2.3184
 5380SOL     OW27772   0.455   0.658   5.878  0.1559 -0.3419  0.1870
 5380SOL    HW127773   0.435   0.659   5.784 -1.5571 -0.9954  0.5352
 5380SOL    HW227774   0.368   0.689   5.904 -0.5664  0.0049 -2.6197
 5381SOL     OW27775   3.345   3.571   8.324  0.4679  0.0566  0.7306
 5381SOL    HW127776   3.269   3.585   8.381 -0.5065  0.7662 -0.7517
 5381SOL    HW227777   3.413   3.533   8.379 -0.7180 -2.1307  0.6707
 5382SOL     OW27778   0.926   4.155   0.599 -0.4912  0.1284  0.9517
 5382SOL    HW127779   1.003   4.188   0.646 -0.0211  0.0867  0.2250
 5382SOL    HW227780   0.863   4.169   0.669 -0.6089 -1.6632  1.2107
 5383SOL     OW27781   4.528   4.294   7.511  0.1289  0.3997 -0.0097
 5383SOL    HW127782   4.537   4.389   7.521 -0.5499  0.3864  0.8118
 5383SOL    HW227783   4.484   4.259   7.589 -0.0478 -0.3528 -0.4456
 5384SOL     OW27784   1.375   1.052   8.497  0.0048  0.2765 -0.5664
 5384SOL    HW127785   1.373   0.957   8.486 -0.2759  0.0225  1.7575
 5384SOL    HW227786   1.448   1.048   8.560 -0.0939  1.0401 -0.3988
 5385SOL     OW27787   4.267   3.915   9.471  0.2873 -0.1832  0.7336
 5385SOL    HW127788   4.274   4.007   9.499 -0.5896  1.1789 -3.4312
 5385SOL    HW227789   4.220   3.872   9.542 -1.1322  0.8427  0.4349
 5386SOL     OW27790   0.139   1.960   4.001  0.1192  0.1536 -0.5544
 5386SOL    HW127791   0.133   1.929   3.911 -2.1107 -0.6185 -0.1335
 5386SOL    HW227792   0.234   1.963   4.016 -0.3294  1.4111  2.0302
 5387SOL     OW27793   3.059   0.442   5.261  0.7221  0.3816 -0.3850
 5387SOL    HW127794   2.996   0.441   5.188 -0.2371  1.9982  0.4211
 5387SOL    HW227795   3.133   0.393   5.225 -0.1625 -1.8388  0.8513
 5388SOL     OW27796   0.355   4.409  11.673 -0.2110 -0.3397 -0.3659
 5388SOL    HW127797   0.376   4.472  11.742  0.1406 -2.1221  1.1611
 5388SOL    HW227798   0.437   4.422  11.625  0.5107  1.7390  1.3958
 5389SOL     OW27799   2.504   1.896   6.600 -0.1646 -0.0220  0.2822
 5389SOL    HW127800   2.428   1.901   6.542 -2.1475 -1.1580  2.7982
 5389SOL    HW227801   2.530   1.988   6.602 -0.3891  0.0511 -0.1209
 5390SOL     OW27802   4.288   2.448   1.444 -0.3148 -0.4627  0.2678
 5390SOL    HW127803   4.212   2.431   1.389 -0.2927 -1.3390  0.5174
 5390SOL    HW227804   4.278   2.543   1.452 -1.9858 -0.4666 -1.7298
 5391SOL     OW27805   2.147   3.044   5.753  0.4460 -0.2447 -0.0488
 5391SOL    HW127806   2.122   2.964   5.707 -0.0593  0.2418 -0.6221
 5391SOL    HW227807   2.203   3.093   5.692  1.5090  0.2925  1.3497
 5392SOL     OW27808   2.323   4.209  10.959 -0.0927 -0.0340 -0.3121
 5392SOL    HW127809   2.381   4.226  10.885 -1.1999 -0.9477 -1.3863
 5392SOL    HW227810   2.354   4.262  11.032  0.4300 -1.9131  0.8244
 5393SOL     OW27811   3.210   3.478   1.748 -0.0558 -0.0659 -0.3732
 5393SOL    HW127812   3.238   3.522   1.668  2.8198 -1.0445  0.0821
 5393SOL    HW227813   3.150   3.416   1.707 -1.4048 -0.6519  2.4842
 5394SOL     OW27814   4.141   2.517  11.053 -0.4105  0.4025 -0.0076
 5394SOL    HW127815   4.119   2.467  11.132  1.2294  4.3052  2.8935
 5394SOL    HW227816   4.198   2.579  11.098 -0.2793  0.4214 -0.1956
 5395SOL     OW27817   1.470   1.812   8.015  0.6519  0.3467 -0.5770
 5395SOL    HW127818   1.407   1.879   7.989  0.6915  1.1926  1.5122
 5395SOL    HW227819   1.545   1.871   8.021 -0.1700  1.2208  0.9640
 5396SOL     OW27820   2.476   1.709  17.713 -0.3156  0.4806 -0.1422
 5396SOL    HW127821   2.518   1.665   0.016  1.2655  2.0502 -0.1010
 5396SOL    HW227822   2.548   1.713  17.651  0.7953 -2.2863  0.9833
 5397SOL     OW27823   1.081   3.672   5.050 -0.2215 -0.3672 -0.2703
 5397SOL    HW127824   1.157   3.663   5.108 -1.6531  0.9294  1.7953
 5397SOL    HW227825   1.100   3.758   5.014 -2.8044  0.3813  0.1763
 5398SOL     OW27826   1.197   1.127   1.837  0.2850  0.7431  0.0721
 5398SOL    HW127827   1.159   1.145   1.923 -1.4693  0.6799 -0.6927
 5398SOL    HW227828   1.289   1.148   1.852  0.4056  0.9907 -1.0137
 5399SOL     OW27829   1.093   0.088   3.012  0.4783 -0.3989 -0.2819
 5399SOL    HW127830   1.025   0.063   3.074  0.1439  1.9560  0.3240
 5399SOL    HW227831   1.150   0.145   3.064  1.4105 -0.1126 -1.5943
 5400SOL     OW27832   3.090   3.648   6.838 -0.2821 -0.1877  0.3301
 5400SOL    HW127833   3.152   3.718   6.823 -0.2781 -0.5322 -1.1893
 5400SOL    HW227834   3.138   3.580   6.886  0.7675  0.0703 -0.3859
 5401SOL     OW27835   0.396   1.048  15.920  0.0829  0.0051  0.8093
 5401SOL    HW127836   0.368   0.991  15.849 -0.4725  0.0889  0.9596
 5401SOL    HW227837   0.383   1.135  15.882  0.8885  0.9305  2.6446
 5402SOL     OW27838   1.506   1.511   8.730  0.2599  0.3034 -0.0917
 5402SOL    HW127839   1.469   1.525   8.643 -1.3384  0.2324  0.5820
 5402SOL    HW227840   1.596   1.545   8.728  0.1100  0.5873 -1.9118
 5403SOL     OW27841   1.650   4.124   5.727  0.1181 -0.0153  0.2053
 5403SOL    HW127842   1.588   4.053   5.708  1.2520 -0.7030 -0.9442
 5403SOL    HW227843   1.719   4.104   5.664  0.4539 -0.5709  0.7498
 5404SOL     OW27844   3.805   1.048   3.772  0.4370 -0.1138 -0.2355
 5404SOL    HW127845   3.775   1.059   3.682 -0.0829 -3.0689 -0.4175
 5404SOL    HW227846   3.757   0.967   3.786  1.9965 -0.8670  0.7977
 5405SOL     OW27847   2.400   4.026   2.645  0.4298  0.2297 -0.2983
 5405SOL    HW127848   2.493   4.014   2.628  0.4721 -0.5326  0.4823
 5405SOL    HW227849   2.361   3.961   2.588  0.0707 -0.3909  0.6540
 5406SOL     OW27850   1.726   2.288   4.451  0.4326  0.1184  0.5296
 5406SOL    HW127851   1.691   2.261   4.366  1.0798 -1.3704  0.7371
 5406SOL    HW227852   1.674   2.225   4.502  1.3618  0.0891  1.4170
 5407SOL     OW27853   4.547   2.549   9.122  0.3891 -0.1910  0.6869
 5407SOL    HW127854   4.529   2.552   9.028  1.6750  1.1488  0.4857
 5407SOL    HW227855   4.634   2.587   9.115  0.5730 -0.6604  0.4319
 5408SOL     OW27856   3.857   1.425   0.446  0.4342  0.0570  0.4452
 5408SOL    HW127857   3.761   1.425   0.439  0.6305  0.9230 -2.3883
 5408SOL    HW227858   3.884   1.334   0.438 -1.2258 -0.4288  0.2431
 5409SOL     OW27859   2.152   1.697  16.570  0.0660  0.6810  0.1728
 5409SOL    HW127860   2.192   1.747  16.641  0.1853 -0.0283  0.6049
 5409SOL    HW227861   2.073   1.750  16.560  0.2308  0.7955 -0.5447
 5410SOL     OW27862   2.157   0.553  11.040  0.6763  0.1810  0.0620
 5410SOL    HW127863   2.131   0.462  11.022  0.9344  0.4358 -1.6456
 5410SOL    HW227864   2.248   0.544  11.067  0.4678  0.6774  0.9237
 5411SOL     OW27865   0.108   3.474   3.267 -0.2377  0.1872  0.1872
 5411SOL    HW127866   0.134   3.565   3.252 -0.3188  0.3899  1.2947
 5411SOL    HW227867   0.156   3.432   3.195 -1.1129  0.7581 -0.7344
 5412SOL     OW27868   3.840   1.877   9.191 -0.0824  0.1923 -0.3763
 5412SOL    HW127869   3.793   1.891   9.273 -2.2846  0.7629 -1.7508
 5412SOL    HW227870   3.931   1.869   9.220 -0.1567  2.2061  0.3897
 5413SOL     OW27871   2.224   2.560   5.667  0.0633  0.1207 -0.0831
 5413SOL    HW127872   2.237   2.536   5.576  1.7775  1.5338 -0.2074
 5413SOL    HW227873   2.302   2.530   5.714  1.2364  0.2929 -1.9328
 5414SOL     OW27874   3.735   0.121   9.525 -0.4056 -0.7802  0.3723
 5414SOL    HW127875   3.745   0.163   9.610 -1.0302 -1.9335  1.0061
 5414SOL    HW227876   3.665   0.170   9.482 -1.0462 -1.1100  1.0479
 5415SOL     OW27877   4.432   4.696   3.983 -0.2773 -0.2643 -0.3728
 5415SOL    HW127878   4.445   4.678   4.076 -3.6571 -1.4099 -0.1131
 5415SOL    HW227879   4.499   4.647   3.936  1.4542 -0.9761  2.8729
 5416SOL     OW27880   3.332   1.685   4.348  0.5668  0.2675 -0.6525
 5416SOL    HW127881   3.362   1.745   4.416  1.1156 -2.2632  1.3316
 5416SOL    HW227882   3.325   1.756   4.285 -1.3484 -0.4083 -1.2078
 5417SOL     OW27883   0.904   0.786   9.079 -0.2997  0.4111  0.3221
 5417SOL    HW127884   0.985   0.756   9.036 -2.3333 -0.9816 -2.5410
 5417SOL    HW227885   0.911   0.881   9.072 -0.7372  0.4002 -0.2148
 5418SOL     OW27886   2.151   3.285  16.017  0.1049  0.4715  0.8986
 5418SOL    HW127887   2.245   3.288  16.035 -0.4510  1.3474  3.6200
 5418SOL    HW227888   2.114   3.299  16.105 -1.5421 -0.4017  0.3576
 5419SOL     OW27889   3.062   0.581   2.590  0.2054  0.4623  0.0854
 5419SOL    HW127890   3.102   0.525   2.656 -0.7757 -0.9713 -0.5449
 5419SOL    HW227891   3.106   0.546   2.513 -2.3793 -2.1009 -0.2202
 5420SOL     OW27892   1.726   1.534   3.358 -0.3039  0.3092  0.0115
 5420SOL    HW127893   1.765   1.452   3.330 -1.7666 -1.3943  2.9602
 5420SOL    HW227894   1.768   1.549   3.443  1.4330  1.0713 -0.9587
 5421SOL     OW27895   1.181   2.511   5.226  0.4685  0.1696  0.3581
 5421SOL    HW127896   1.089   2.537   5.222  0.0870 -0.9146  1.9957
 5421SOL    HW227897   1.228   2.574   5.171 -2.3200  2.7826  1.0008
 5422SOL     OW27898   4.095   3.768   7.434  0.0166 -0.1669 -0.0164
 5422SOL    HW127899   4.183   3.805   7.443  0.3934 -1.2197  0.5437
 5422SOL    HW227900   4.066   3.794   7.521 -1.6610  1.7954 -1.1548
 5423SOL     OW27901   3.281   4.201   8.606  0.3119  0.2449 -0.3055
 5423SOL    HW127902   3.214   4.135   8.587  2.3708 -1.5468 -1.3809
 5423SOL    HW227903   3.354   4.142   8.588  0.6537  1.3752 -2.6118
 5424SOL     OW27904   4.514   0.864   2.295  0.1949 -0.0933 -0.2636
 5424SOL    HW127905   4.572   0.834   2.224 -0.9475  0.0235 -1.2520
 5424SOL    HW227906   4.442   0.903   2.245  1.7417  0.8587 -1.7427
 5425SOL     OW27907   0.554   1.422   4.168  0.3472  0.0546 -0.5339
 5425SOL    HW127908   0.614   1.349   4.158  0.3107 -0.1768  0.8362
 5425SOL    HW227909   0.614   1.489   4.200 -1.9301  2.4094 -1.1243
 5426SOL     OW27910   1.091   2.122  14.218  0.2083  0.0277 -1.1000
 5426SOL    HW127911   1.069   2.193  14.158 -0.3300  1.0637  0.3010
 5426SOL    HW227912   1.184   2.141  14.234  0.1294 -0.3207 -0.1897
 5427SOL     OW27913   4.071   3.342  15.630 -0.3241 -0.1666  0.5360
 5427SOL    HW127914   3.981   3.347  15.662 -0.1097  0.4084  1.0322
 5427SOL    HW227915   4.111   3.404  15.691 -1.6976  0.3276  0.9288
 5428SOL     OW27916   3.129   1.408   2.407  0.4769 -0.0617  0.1973
 5428SOL    HW127917   3.173   1.456   2.337 -2.6547  1.5835 -0.6626
 5428SOL    HW227918   3.126   1.319   2.372 -1.4718  0.5694 -1.2929
 5429SOL     OW27919   0.600   4.122   4.693  0.1447 -0.3693 -0.3049
 5429SOL    HW127920   0.659   4.182   4.738  1.9749 -3.3035  1.2030
 5429SOL    HW227921   0.525   4.106   4.750 -0.0627  1.5796 -0.0392
 5430SOL     OW27922   1.344   2.551  11.693  0.2614 -0.6535 -0.5015
 5430SOL    HW127923   1.319   2.639  11.721  1.6408 -0.0774 -1.0993
 5430SOL    HW227924   1.411   2.536  11.760 -0.8671 -2.0940  0.3069
 5431SOL     OW27925   1.986   4.291  13.051  0.0453  0.0797 -0.4719
 5431SOL    HW127926   1.976   4.227  13.122  1.3411 -0.9274 -1.2135
 5431SOL    HW227927   2.026   4.232  12.988  0.3553  1.2697 -1.3792
 5432SOL     OW27928   0.726   1.557  11.217  0.3661 -0.2806  0.7780
 5432SOL    HW127929   0.764   1.501  11.149 -3.3762 -2.7508  0.7744
 5432SOL    HW227930   0.750   1.642  11.179 -1.5661 -0.0122  0.1975
 5433SOL     OW27931   4.383   2.340   7.193 -0.2094  0.6681  0.5756
 5433SOL    HW127932   4.404   2.349   7.100 -3.4343 -2.6748 -0.5082
 5433SOL    HW227933   4.385   2.244   7.198 -2.2981  0.4217 -3.2566
 5434SOL     OW27934   1.641   3.312   4.883 -0.4861  0.3102 -0.2239
 5434SOL    HW127935   1.631   3.279   4.972  2.3387  0.9925  0.3413
 5434SOL    HW227936   1.604   3.401   4.880 -0.8579  0.1444 -0.5929
 5435SOL     OW27937   0.219   3.217   3.511 -0.1974  0.0327  0.4330
 5435SOL    HW127938   0.293   3.277   3.517 -0.4520  0.0718  3.1011
 5435SOL    HW227939   0.251   3.147   3.454  0.4316  0.5738  0.1279
 5436SOL     OW27940   4.371   4.205   2.617 -0.0738 -0.6108  0.7448
 5436SOL    HW127941   4.374   4.134   2.553  0.5216  0.8216 -0.8408
 5436SOL    HW227942   4.281   4.235   2.612  0.7336  1.7658  0.3849
 5437SOL     OW27943   0.582   1.154   4.738 -0.3170  0.4838 -0.0600
 5437SOL    HW127944   0.614   1.218   4.675  1.3719 -2.0109 -1.7151
 5437SOL    HW227945   0.571   1.210   4.815 -0.8285  0.4937 -0.1396
 5438SOL     OW27946   3.100   2.742   6.777  0.3149 -0.4288 -0.2764
 5438SOL    HW127947   3.162   2.743   6.850  1.8167  2.9168 -1.6398
 5438SOL    HW227948   3.137   2.822   6.739 -2.5318  0.1271 -1.8209
 5439SOL     OW27949   1.452   4.524   8.839  0.0984  0.2172 -0.1106
 5439SOL    HW127950   1.444   4.590   8.909  0.8120 -1.1939  1.2867
 5439SOL    HW227951   1.374   4.550   8.790 -0.4080  1.3560  1.2862
 5440SOL     OW27952   2.193   1.177   1.650 -0.3945  0.7856  0.6424
 5440SOL    HW127953   2.261   1.216   1.706  0.2870 -0.4808  0.7123
 5440SOL    HW227954   2.124   1.164   1.715 -0.7247  1.9587  0.5276
 5441SOL     OW27955   2.849   1.806   4.143 -0.3390  0.1300  0.0353
 5441SOL    HW127956   2.826   1.832   4.054 -1.5027  3.0749  1.2110
 5441SOL    HW227957   2.776   1.845   4.190  2.3085  3.7878  1.0745
 5442SOL     OW27958   2.426   0.412  10.037  0.3476  0.1668 -0.4005
 5442SOL    HW127959   2.400   0.493  10.081 -0.0340 -1.1822  1.8708
 5442SOL    HW227960   2.476   0.376  10.110  0.0849  0.2254 -0.1929
 5443SOL     OW27961   2.234   3.837   5.679 -0.1787  0.0057  0.2208
 5443SOL    HW127962   2.303   3.841   5.745 -0.3778 -2.0832  0.5798
 5443SOL    HW227963   2.256   3.915   5.628 -1.6012 -1.3355 -2.4550
 5444SOL     OW27964   2.740   2.356   5.983  0.2393  0.6199 -0.4360
 5444SOL    HW127965   2.784   2.274   5.963  1.0677  1.1574 -0.8061
 5444SOL    HW227966   2.727   2.337   6.076 -1.7117  0.8763 -0.6447
 5445SOL     OW27967   0.054   0.736  15.759 -0.1024 -0.5058  0.1009
 5445SOL    HW127968   0.038   0.642  15.754  0.4037 -0.4922 -1.8508
 5445SOL    HW227969   0.053   0.751  15.854  2.2329 -1.4254  0.2776
 5446SOL     OW27970   3.304   4.085   4.363  0.6716  0.0855 -0.4809
 5446SOL    HW127971   3.276   4.172   4.335  1.1078  0.5793  0.5971
 5446SOL    HW227972   3.387   4.078   4.316  0.9681  0.8536 -0.0748
 5447SOL     OW27973   3.477   1.098   3.231  0.3800 -0.3162 -0.1351
 5447SOL    HW127974   3.514   1.072   3.146  1.0439 -1.0739  0.3926
 5447SOL    HW227975   3.530   1.049   3.293  1.2740  1.7802  0.7265
 5448SOL     OW27976   2.938   3.336   1.834  0.2763  0.7408 -0.2947
 5448SOL    HW127977   2.855   3.290   1.821 -0.3373  1.9644 -0.7290
 5448SOL    HW227978   2.912   3.428   1.835 -0.8361  0.3883  1.7613
 5449SOL     OW27979   2.958   1.017   4.451  0.1053 -1.1726  0.7064
 5449SOL    HW127980   2.902   1.064   4.388  1.0561 -2.2094 -0.9167
 5449SOL    HW227981   3.035   1.060   4.412  0.0604  2.3584  4.5089
 5450SOL     OW27982   3.465   1.893  17.084  0.0732 -0.5547  0.6273
 5450SOL    HW127983   3.444   1.929  16.998 -1.2213 -1.1497  0.7076
 5450SOL    HW227984   3.403   1.822  17.098  0.0723 -0.1393  2.7366
 5451SOL     OW27985   2.268   4.362   6.650 -0.3009  0.6821  0.1263
 5451SOL    HW127986   2.281   4.352   6.744 -2.9872  1.5741  0.6174
 5451SOL    HW227987   2.331   4.433   6.633  1.3162 -1.1670 -1.5150
 5452SOL     OW27988   2.037   3.696   4.417  0.3711 -0.0802 -0.1073
 5452SOL    HW127989   2.094   3.669   4.346 -0.1930 -1.4658 -0.0361
 5452SOL    HW227990   1.966   3.631   4.412  0.9428 -0.6217 -1.1246
 5453SOL     OW27991   2.746   2.726   2.012  0.3021  0.0771 -0.6944
 5453SOL    HW127992   2.685   2.717   1.939  0.1182  2.9351 -0.9099
 5453SOL    HW227993   2.794   2.808   2.001  3.2669 -1.5858 -0.2793
 5454SOL     OW27994   4.492   0.082   8.581 -0.2854  0.2704 -0.0765
 5454SOL    HW127995   4.437   0.081   8.659  1.1750  1.8884  0.9528
 5454SOL    HW227996   4.523   4.735   8.588  0.4034  0.3140 -2.4324
 5455SOL     OW27997   2.705   0.329  16.775  0.4432  0.0694  0.0627
 5455SOL    HW127998   2.756   0.268  16.828 -0.5860 -0.5408  0.3528
 5455SOL    HW227999   2.723   0.308  16.684  2.9228  1.5716  0.2156
 5456SOL     OW28000   4.339   0.823   4.556 -0.1007  0.3587 -0.3731
 5456SOL    HW128001   4.268   0.758   4.554 -0.9700  1.4300 -3.4065
 5456SOL    HW228002   4.330   0.856   4.467 -2.9454 -0.1035 -0.2634
 5457SOL     OW28003   1.043   4.629   6.389 -0.9744 -0.6128  0.3625
 5457SOL    HW128004   1.135   4.656   6.392 -0.5054 -2.0916 -1.0287
 5457SOL    HW228005   1.001   4.713   6.367 -1.4918 -0.9995 -0.1160
 5458SOL     OW28006   1.228   3.446   2.760 -0.0898  0.0449  0.2078
 5458SOL    HW128007   1.157   3.496   2.800 -2.3993 -2.8946 -0.1465
 5458SOL    HW228008   1.237   3.490   2.675 -1.2222  0.0639  0.0981
 5459SOL     OW28009   2.385   4.718   4.638  0.1944 -0.2302 -0.4548
 5459SOL    HW128010   2.384   4.657   4.564  2.4856  2.0522 -2.3127
 5459SOL    HW228011   2.318   4.681   4.696 -1.6041 -0.3685 -2.6150
 5460SOL     OW28012   3.114   2.260  16.728  0.1393 -0.4021 -0.1116
 5460SOL    HW128013   3.055   2.208  16.782 -1.9201  1.3120 -0.7314
 5460SOL    HW228014   3.166   2.188  16.691 -1.6923 -1.3161 -0.9072
 5461SOL     OW28015   3.234   3.028   9.400  0.1878 -0.0389 -0.1462
 5461SOL    HW128016   3.149   3.000   9.366  1.6498 -0.7432 -3.2816
 5461SOL    HW228017   3.270   3.052   9.314  3.4612  0.2222  1.3019
 5462SOL     OW28018   3.079   3.960   4.952 -0.6432  0.0197  0.6120
 5462SOL    HW128019   3.063   3.974   5.045 -0.2584 -3.0023  1.1088
 5462SOL    HW228020   3.015   3.895   4.924  1.0275 -0.3823 -2.2320
 5463SOL     OW28021   4.630   1.966  11.287 -0.0688 -0.9207 -0.1693
 5463SOL    HW128022   4.723   1.976  11.308 -0.4696  1.2871  0.5314
 5463SOL    HW228023   4.592   1.948  11.373  0.0992 -0.5291 -0.0105
 5464SOL     OW28024   1.482   0.835   2.838  0.0798 -0.0672 -0.1310
 5464SOL    HW128025   1.566   0.849   2.794  0.2273 -0.7434 -0.0657
 5464SOL    HW228026   1.450   0.925   2.843 -3.1430 -1.1113 -1.5783
 5465SOL     OW28027   0.293   3.002   4.706 -0.2794  0.5783  0.5916
 5465SOL    HW128028   0.387   3.021   4.708  0.0931 -1.4173  1.7352
 5465SOL    HW228029   0.250   3.079   4.745  0.8078  0.1220  2.7153
 5466SOL     OW28030   0.058   4.605   3.524 -0.4622 -0.1872 -0.4779
 5466SOL    HW128031   0.117   4.593   3.598 -1.5797  3.4462  0.9981
 5466SOL    HW228032   4.717   4.608   3.568  0.5451 -1.2369  1.4958
 5467SOL     OW28033   0.952   2.422  10.611 -0.5553 -0.2714  0.3662
 5467SOL    HW128034   0.891   2.481  10.656  0.6238 -0.9415  2.8341
 5467SOL    HW228035   0.933   2.443  10.520 -1.0036  1.7740  0.9244
 5468SOL     OW28036   4.449   2.769   7.079  0.4555 -0.0442 -0.0297
 5468SOL    HW128037   4.390   2.837   7.112 -1.8544 -1.1098 -1.8792
 5468SOL    HW228038   4.491   2.732   7.156  0.4006  1.4802  0.7250
 5469SOL     OW28039   3.136   2.785  13.730 -0.4689  0.7797  0.0200
 5469SOL    HW128040   3.169   2.875  13.729  0.5022  0.4253 -0.2238
 5469SOL    HW228041   3.102   2.784  13.820 -0.1037  2.1605  0.1756
 5470SOL     OW28042   2.277   0.824   6.575  0.0480  0.1110  0.6902
 5470SOL    HW128043   2.361   0.850   6.612 -0.1540  1.1471  0.4124
 5470SOL    HW228044   2.316   0.783   6.498  1.2864  1.6580  0.4941
 5471SOL     OW28045   2.359   3.853   4.592  0.1942 -0.3023 -0.0660
 5471SOL    HW128046   2.424   3.802   4.640 -0.1832 -0.8291 -0.1059
 5471SOL    HW228047   2.386   3.846   4.500  1.5960  1.0776  0.2402
 5472SOL     OW28048   1.249   3.736   2.151  0.7681 -0.5127  0.2863
 5472SOL    HW128049   1.167   3.694   2.179 -0.7251  0.3905 -2.7255
 5472SOL    HW228050   1.237   3.741   2.056 -1.3257 -1.3658  0.5097
 5473SOL     OW28051   3.951   1.318   5.025  0.9372  0.4050  0.1517
 5473SOL    HW128052   3.932   1.398   4.976  1.3707  0.3274 -0.1511
 5473SOL    HW228053   3.861   1.295   5.047  0.8686  1.0375  0.5246
 5474SOL     OW28054   1.009   1.153   3.548  0.6518 -0.2934 -0.2046
 5474SOL    HW128055   1.077   1.105   3.596  0.6034 -1.0360 -0.8948
 5474SOL    HW228056   1.045   1.130   3.462  0.6220 -2.7170  0.4340
 5475SOL     OW28057   2.507   3.205   3.250  0.2418  0.0470 -0.2456
 5475SOL    HW128058   2.483   3.149   3.176  0.3883  0.1886 -0.4003
 5475SOL    HW228059   2.446   3.275   3.229 -0.1156 -0.0073  0.6620
 5476SOL     OW28060   3.303   0.269  13.048 -0.2745  0.9398 -0.5700
 5476SOL    HW128061   3.346   0.267  12.963  2.9911  1.8211  1.0663
 5476SOL    HW228062   3.217   0.299  13.019 -0.4804  0.6978 -0.2217
 5477SOL     OW28063   3.440   4.274  15.518 -0.5370  0.5056  0.0872
 5477SOL    HW128064   3.485   4.338  15.463  0.4599 -1.5571 -1.4736
 5477SOL    HW228065   3.509   4.213  15.545  1.3896  2.8010  0.4022
 5478SOL     OW28066   0.632   4.486   2.148  0.5232 -0.3170  0.2569
 5478SOL    HW128067   0.640   4.531   2.064 -2.5950 -2.7145 -1.3398
 5478SOL    HW228068   0.608   4.396   2.125  1.6595 -0.0797 -1.7962
 5479SOL     OW28069   3.197   1.394  14.966  0.1649 -0.0093 -0.0133
 5479SOL    HW128070   3.174   1.453  14.894 -1.2970  0.3359  0.7481
 5479SOL    HW228071   3.271   1.449  14.993  0.5855 -0.7651  0.3583
 5480SOL     OW28072   2.162   0.864   3.040 -0.1091 -0.4671  0.2442
 5480SOL    HW128073   2.070   0.839   3.052 -0.5935  0.4978 -1.4434
 5480SOL    HW228074   2.165   0.932   2.972  3.5320 -1.3714 -0.4810
 5481SOL     OW28075   3.071   1.451   6.877  0.1825  0.4660 -0.4533
 5481SOL    HW128076   3.020   1.392   6.822  2.4403 -1.6511 -0.2663
 5481SOL    HW228077   3.143   1.398   6.910 -0.8972  0.9923  2.7936
 5482SOL     OW28078   1.330   3.175   8.104  0.3983  0.1411 -0.1999
 5482SOL    HW128079   1.392   3.126   8.050 -1.2947  0.9254 -2.8772
 5482SOL    HW228080   1.345   3.265   8.074 -1.5907  0.6786  0.4427
 5483SOL     OW28081   1.632   2.990   2.442  0.4005  0.0517  0.0561
 5483SOL    HW128082   1.580   3.064   2.412  0.6720 -0.5288 -1.8299
 5483SOL    HW228083   1.717   3.032   2.425  1.5325 -1.5254  1.7225
 5484SOL     OW28084   1.446   0.836   9.949 -0.4486 -0.0706  0.0931
 5484SOL    HW128085   1.406   0.812   9.865 -0.7818 -0.5163  0.3729
 5484SOL    HW228086   1.366   0.835  10.002 -0.9128  0.0660 -0.5962
 5485SOL     OW28087   4.414   3.141   3.375 -0.1207  0.2811 -0.7527
 5485SOL    HW128088   4.466   3.069   3.411 -0.3705 -0.3518 -1.6572
 5485SOL    HW228089   4.437   3.131   3.282  4.2178 -0.0053  0.3322
 5486SOL     OW28090   2.712   4.055   7.773 -0.5034  0.1522  0.3079
 5486SOL    HW128091   2.726   4.092   7.860 -2.6667  3.9105 -0.9458
 5486SOL    HW228092   2.634   4.108   7.755  0.8614  2.1207  0.1908
 5487SOL     OW28093   3.827   1.184   8.036  0.2116 -0.8420  0.1263
 5487SOL    HW128094   3.764   1.211   8.103  0.1191 -2.8094  0.8511
 5487SOL    HW228095   3.886   1.147   8.102  1.2099  1.4017  0.5014
 5488SOL     OW28096   4.715   1.052   3.925  0.3836  0.3734  0.0516
 5488SOL    HW128097   4.684   1.124   3.980  0.6971  1.5307 -1.2622
 5488SOL    HW228098   4.720   0.979   3.986  1.2632  0.8498  0.5449
 5489SOL     OW28099   2.794   1.067   6.945 -0.6548 -0.1563  0.2025
 5489SOL    HW128100   2.759   1.015   7.018 -0.4187  0.6784  0.9136
 5489SOL    HW228101   2.889   1.057   6.948 -0.8079 -1.6889 -0.4246
 5490SOL     OW28102   4.200   2.975   2.968  0.0386  0.2885  0.4822
 5490SOL    HW128103   4.180   2.882   2.956  3.2036 -0.2475 -0.7210
 5490SOL    HW228104   4.129   3.016   2.919 -0.9634 -3.8620 -1.5716
 5491SOL     OW28105   1.765   3.886   5.996  0.2344  0.4584 -0.1200
 5491SOL    HW128106   1.700   3.828   5.956 -0.5344 -0.4905  2.4727
 5491SOL    HW228107   1.723   3.972   5.992  0.3616  0.5855  1.1174
 5492SOL     OW28108   0.469   0.466  16.871 -0.2807  0.2915 -0.0969
 5492SOL    HW128109   0.560   0.440  16.858 -0.5767 -1.4122  1.2544
 5492SOL    HW228110   0.445   0.517  16.794 -1.7412  0.6462  0.5992
 5493SOL     OW28111   2.825   1.640   3.246 -0.1041  0.0003  0.5291
 5493SOL    HW128112   2.905   1.691   3.253  0.3830 -0.4449 -1.9061
 5493SOL    HW228113   2.848   1.563   3.299 -2.0192  0.2226  1.7178
 5494SOL     OW28114   3.510   4.693   8.864 -0.4804 -0.2695 -0.0216
 5494SOL    HW128115   3.594   4.736   8.848  0.4050 -1.9108  0.2329
 5494SOL    HW228116   3.458   4.721   8.789  1.2795  0.7172 -0.8885
 5495SOL     OW28117   1.378   2.995   9.361  0.3875 -0.1762  0.4857
 5495SOL    HW128118   1.389   3.030   9.449  0.8518  0.2161  0.2702
 5495SOL    HW228119   1.321   2.923   9.388  0.1886  0.3299  1.4122
 5496SOL     OW28120   0.239   3.732  12.887  0.2620 -0.2040 -0.4048
 5496SOL    HW128121   0.150   3.711  12.861 -0.0674 -1.8808  2.1149
 5496SOL    HW228122   0.280   3.653  12.851  0.6119 -0.8812  1.4809
 5497SOL     OW28123   4.607   1.360   0.035 -0.2890  0.1846  0.7980
 5497SOL    HW128124   4.684   1.394  17.761  0.8911 -1.2489  1.7062
 5497SOL    HW228125   4.649   1.340   0.119  1.9902  0.7272 -0.1933
 5498SOL     OW28126   3.468   1.176  14.305  0.1881 -0.0931 -0.2852
 5498SOL    HW128127   3.527   1.103  14.284  0.5954  0.4349 -0.9663
 5498SOL    HW228128   3.391   1.129  14.338  1.3917 -1.0946  1.1143
 5499SOL     OW28129   2.684   4.020   1.551 -0.0729 -0.2639  0.0186
 5499SOL    HW128130   2.592   4.015   1.576 -0.2796  1.8326 -0.3208
 5499SOL    HW228131   2.713   3.932   1.573  0.3540 -0.2397 -0.4569
 5500SOL     OW28132   1.211   0.341   6.472 -0.2161 -0.2638  0.2800
 5500SOL    HW128133   1.208   0.361   6.379  1.7302 -0.4114  0.1823
 5500SOL    HW228134   1.205   0.424   6.519 -0.5219  1.4797 -2.8855
 5501SOL     OW28135   0.816   1.653   5.602  0.4246  0.2443  0.2267
 5501SOL    HW128136   0.885   1.588   5.611  0.2693  0.0341 -0.1044
 5501SOL    HW228137   0.811   1.688   5.691 -1.6284  1.2342 -0.2646
 5502SOL     OW28138   0.485   1.954  13.328 -0.1092  0.2377 -0.4949
 5502SOL    HW128139   0.557   1.999  13.283  2.2311 -1.3574  1.6126
 5502SOL    HW228140   0.472   2.008  13.406  0.8406 -1.3143  0.7374
 5503SOL     OW28141   1.456   3.077   2.900  0.0309 -0.0863  0.7671
 5503SOL    HW128142   1.411   3.061   2.983  1.1361 -3.7750  0.6640
 5503SOL    HW228143   1.543   3.039   2.914  1.0546  1.0786 -2.3424
 5504SOL     OW28144   2.288   4.333   5.682 -0.5820  0.0482 -0.7828
 5504SOL    HW128145   2.360   4.392   5.660 -0.0769  0.3430  1.6229
 5504SOL    HW228146   2.212   4.380   5.647 -2.4097 -1.7244  0.8106
 5505SOL     OW28147   3.179   4.600   3.682  0.0408 -0.1831  0.5415
 5505SOL    HW128148   3.180   4.599   3.778 -2.4760 -1.6303  0.5641
 5505SOL    HW228149   3.248   4.536   3.665 -0.4572 -0.8022  0.8187
 5506SOL     OW28150   1.765   3.428   6.073  0.9629 -0.0444  0.4493
 5506SOL    HW128151   1.822   3.453   5.999  0.1611 -0.8624 -0.4281
 5506SOL    HW228152   1.754   3.515   6.112 -4.8438 -0.5001 -0.2488
 5507SOL     OW28153   0.621   0.566  12.786 -0.0044 -0.1327  0.6548
 5507SOL    HW128154   0.684   0.496  12.802  1.6764  1.1851 -0.2061
 5507SOL    HW228155   0.658   0.607  12.708  1.1903  0.5923  1.6044
 5508SOL     OW28156   0.987   1.308   4.027 -0.2612  0.7311 -0.2135
 5508SOL    HW128157   1.051   1.271   3.967  0.7148  0.1903  1.1567
 5508SOL    HW228158   1.040   1.310   4.107  1.5291  0.7094 -1.3851
 5509SOL     OW28159   0.660   2.022   6.862 -0.1358 -0.1561  0.1960
 5509SOL    HW128160   0.649   2.114   6.885 -0.2310 -0.7573  2.6275
 5509SOL    HW228161   0.676   1.986   6.949 -0.3480  0.6299  0.5626
 5510SOL     OW28162   2.291   2.090   0.041  0.6947  0.4741  0.4619
 5510SOL    HW128163   2.261   2.171  17.772  0.5941  0.0001 -0.3917
 5510SOL    HW228164   2.201   2.070   0.070 -0.1922  0.7821 -2.0972
 5511SOL     OW28165   2.354   3.608  10.326  0.0938  0.2202  0.8406
 5511SOL    HW128166   2.410   3.654  10.263 -0.9784 -1.1017 -1.0685
 5511SOL    HW228167   2.405   3.527  10.317 -0.0507  0.2459 -0.2038
 5512SOL     OW28168   1.116   2.799   4.610  0.0202 -0.1421 -0.3663
 5512SOL    HW128169   1.151   2.885   4.633  1.4153 -0.4555 -1.2951
 5512SOL    HW228170   1.119   2.761   4.698 -2.6616  1.1155  0.2613
 5513SOL     OW28171   2.784   0.730   0.092 -0.3328 -0.1851  0.1669
 5513SOL    HW128172   2.759   0.680   0.015 -0.5103  1.0839 -0.6128
 5513SOL    HW228173   2.812   0.813   0.053  3.0016 -0.0990  2.7509
 5514SOL     OW28174   3.272   0.411   0.768  0.5543 -0.2547 -0.5425
 5514SOL    HW128175   3.292   0.446   0.681 -1.3483 -1.3908 -1.4360
 5514SOL    HW228176   3.297   0.319   0.766 -2.3884 -1.1108  0.9319
 5515SOL     OW28177   1.395   3.523  12.038  0.1564  0.6853 -0.3376
 5515SOL    HW128178   1.342   3.447  12.063 -1.7280  1.5792 -1.6242
 5515SOL    HW228179   1.336   3.587  11.997  0.7473  0.6393 -1.2471
 5516SOL     OW28180   3.958   3.872   5.204  0.6125 -0.8969 -0.1524
 5516SOL    HW128181   3.919   3.882   5.291 -1.8419  1.0301 -1.4891
 5516SOL    HW228182   4.033   3.930   5.211  1.0030 -1.4673  0.3643
 5517SOL     OW28183   0.147   3.663   9.573  0.2690  0.6542  0.4499
 5517SOL    HW128184   0.099   3.731   9.527 -0.0334  0.2637  0.1877
 5517SOL    HW228185   0.237   3.694   9.559  1.5176 -3.2588 -0.3582
 5518SOL     OW28186   0.193   3.072   1.830  0.0571  0.1968  0.0957
 5518SOL    HW128187   0.101   3.099   1.823 -0.2795 -1.0910 -0.3880
 5518SOL    HW228188   0.230   3.159   1.846 -0.6204  0.0352  2.4766
 5519SOL     OW28189   2.968   0.430   0.128  0.4511  0.1139  0.2228
 5519SOL    HW128190   2.907   0.369   0.086 -0.2526  0.2993  0.9734
 5519SOL    HW228191   2.902   0.480   0.176 -0.3142 -0.4543 -0.2372
 5520SOL     OW28192   4.208   2.555   7.201 -0.1124  0.0102  0.0186
 5520SOL    HW128193   4.236   2.585   7.114 -1.5875  0.1058 -0.4248
 5520SOL    HW228194   4.265   2.479   7.206 -1.6069 -1.2718 -2.7797
 5521SOL     OW28195   0.490   4.231   2.106  0.1305  0.8081  0.3448
 5521SOL    HW128196   0.415   4.240   2.048  0.9584  1.4060 -0.6297
 5521SOL    HW228197   0.491   4.136   2.115  1.1097  0.6005 -1.8841
 5522SOL     OW28198   3.992   4.700   3.996 -0.7324 -0.2675 -0.6309
 5522SOL    HW128199   4.024   4.702   3.906  0.0648 -1.5941 -0.3774
 5522SOL    HW228200   3.985   4.604   3.997  3.3204 -0.5555  0.0545
 5523SOL     OW28201   4.048   0.721   6.091 -0.2028 -0.5003  0.2132
 5523SOL    HW128202   4.019   0.758   6.007  1.0888 -1.8784 -0.8408
 5523SOL    HW228203   4.113   0.785   6.121  1.3686 -1.8854 -0.2254
 5524SOL     OW28204   1.315   0.937   1.335 -0.1571 -0.3489 -0.1972
 5524SOL    HW128205   1.387   0.877   1.318 -0.0499 -0.1786 -0.3460
 5524SOL    HW228206   1.354   1.023   1.318 -1.2376  0.1250 -0.2753
 5525SOL     OW28207   0.480   2.248   9.629  0.1896  0.2922 -0.0317
 5525SOL    HW128208   0.460   2.242   9.722 -1.0143  0.6912 -0.2655
 5525SOL    HW228209   0.530   2.329   9.640  1.1341 -0.5594  1.8591
 5526SOL     OW28210   4.476   1.764   5.368 -0.1446 -0.6753 -0.4270
 5526SOL    HW128211   4.532   1.721   5.432 -1.3670  1.1386  1.8505
 5526SOL    HW228212   4.445   1.683   5.327  1.3174 -0.0600 -2.7644
 5527SOL     OW28213   0.261   2.718  16.277 -0.5275  0.5793 -0.2366
 5527SOL    HW128214   0.202   2.692  16.347  2.4326 -0.4861  1.8845
 5527SOL    HW228215   0.238   2.811  16.282  1.4069  0.8252  4.2779
 5528SOL     OW28216   0.615   0.475   7.146  0.3726 -0.1170 -0.1763
 5528SOL    HW128217   0.700   0.432   7.155 -0.0654 -0.4715  2.2164
 5528SOL    HW228218   0.602   0.481   7.051  1.2435  1.3554 -0.1978
 5529SOL     OW28219   4.386   0.460   9.279 -0.9113  0.4399  0.3936
 5529SOL    HW128220   4.404   0.488   9.369 -2.7663  1.5960  0.4149
 5529SOL    HW228221   4.389   0.545   9.235 -2.3547 -0.3123 -1.1247
 5530SOL     OW28222   3.274   4.151   5.669  0.0456  0.8659  0.6730
 5530SOL    HW128223   3.192   4.160   5.717 -0.7018 -0.0951 -0.4571
 5530SOL    HW228224   3.335   4.118   5.734  1.6159  1.2865 -0.5810
 5531SOL     OW28225   2.813   1.322   4.443 -0.0312 -0.1674  0.1288
 5531SOL    HW128226   2.813   1.281   4.356  0.3635 -0.6722  0.3654
 5531SOL    HW228227   2.907   1.328   4.457 -0.0941  0.1270  0.4043
 5532SOL     OW28228   1.131   4.483  10.363 -0.2119  0.0639 -0.4341
 5532SOL    HW128229   1.121   4.448  10.452  0.0845 -1.3196 -0.9523
 5532SOL    HW228230   1.068   4.555  10.359 -0.6940 -0.1164  3.7398
 5533SOL     OW28231   3.800   4.161   3.423  0.0711  0.7095 -0.3373
 5533SOL    HW128232   3.749   4.098   3.374 -0.7222  1.2789 -0.2517
 5533SOL    HW228233   3.888   4.130   3.404  0.2095 -0.0236  1.4407
 5534SOL     OW28234   0.782   3.888   7.736 -0.0867 -0.1889 -0.0495
 5534SOL    HW128235   0.866   3.919   7.769 -0.3105 -0.9830  1.2708
 5534SOL    HW228236   0.792   3.890   7.641  0.3665 -0.5176 -0.0106
 5535SOL     OW28237   0.283   0.382   7.523  0.8403  0.2043  0.1101
 5535SOL    HW128238   0.330   0.414   7.446 -0.6302 -0.1655 -0.9550
 5535SOL    HW228239   0.219   0.452   7.540 -0.4334 -0.8412 -0.3587
 5536SOL     OW28240   0.601   2.505   8.621  0.0346 -0.0746 -0.0047
 5536SOL    HW128241   0.533   2.512   8.554 -0.4929  0.7647  0.6212
 5536SOL    HW228242   0.680   2.488   8.569 -0.8535  1.9762 -2.0377
 5537SOL     OW28243   2.340   1.191  16.795  0.1785  0.5793  0.6268
 5537SOL    HW128244   2.268   1.128  16.793 -0.3926  1.2418  0.2641
 5537SOL    HW228245   2.296   1.261  16.844  0.5262  0.8233  0.5922
 5538SOL     OW28246   4.215   3.069   5.699 -0.2711  0.0499  0.0159
 5538SOL    HW128247   4.177   3.100   5.617 -1.1627  2.3716  1.2765
 5538SOL    HW228248   4.174   2.984   5.710  0.5278 -0.2963  0.3146
 5539SOL     OW28249   1.133   1.434   3.484  0.2386 -0.0482 -0.4698
 5539SOL    HW128250   1.139   1.410   3.392  0.1365  1.6869 -0.9223
 5539SOL    HW228251   1.079   1.511   3.471 -1.7069 -1.5906 -1.5716
 5540SOL     OW28252   2.926   1.420   5.958 -0.3526  0.1619  0.7760
 5540SOL    HW128253   3.000   1.367   5.926 -0.5537 -0.1022  0.7502
 5540SOL    HW228254   2.856   1.355   5.962 -0.0735 -0.2165 -0.4272
 5541SOL     OW28255   0.727   1.483   0.333  0.2406  0.3843 -0.4960
 5541SOL    HW128256   0.808   1.455   0.377  0.4638  1.6333 -0.1107
 5541SOL    HW228257   0.658   1.421   0.356  0.0214  1.2137  1.1246
 5542SOL     OW28258   2.769   1.698   8.554  0.2023 -0.0988 -0.0199
 5542SOL    HW128259   2.762   1.658   8.467  0.7295  1.7651 -0.9408
 5542SOL    HW228260   2.841   1.759   8.537  0.8265 -1.3864 -2.0859
 5543SOL     OW28261   0.574   1.325  17.215  0.2420 -0.3600  0.4430
 5543SOL    HW128262   0.486   1.342  17.180  1.2862  1.0716 -1.4666
 5543SOL    HW228263   0.617   1.410  17.223 -1.6282  0.5257  1.1989
 5544SOL     OW28264   1.998   2.811   7.586  0.1560 -0.2590  0.4361
 5544SOL    HW128265   2.043   2.755   7.523 -0.5001  0.6428 -0.8294
 5544SOL    HW228266   2.057   2.886   7.578  0.8908 -0.6080  2.4128
 5545SOL     OW28267   0.268   4.033   5.201 -0.2938  0.0618  0.0264
 5545SOL    HW128268   0.294   4.076   5.283  1.5170  1.4853 -1.2894
 5545SOL    HW228269   0.186   4.074   5.175  0.1209  0.3176 -0.8770
 5546SOL     OW28270   2.280   0.288  14.967  0.7857  0.2314 -0.0884
 5546SOL    HW128271   2.317   0.216  14.916 -3.6439 -1.9286 -0.2449
 5546SOL    HW228272   2.261   0.351  14.897  0.1880  0.1695  0.0195
 5547SOL     OW28273   3.804   1.347   7.811  0.1334 -0.8782 -0.8070
 5547SOL    HW128274   3.810   1.299   7.893 -0.0844 -0.5247 -0.5836
 5547SOL    HW228275   3.806   1.435   7.847  0.6272 -1.0002 -0.5381
 5548SOL     OW28276   2.218   3.705   3.240  0.0544 -0.3507 -0.0953
 5548SOL    HW128277   2.309   3.724   3.215  0.2336 -0.9431  0.1026
 5548SOL    HW228278   2.236   3.665   3.325 -0.5698  2.1266  1.1820
 5549SOL     OW28279   0.633   4.479   8.843 -0.1077 -0.9638 -0.5046
 5549SOL    HW128280   0.673   4.436   8.918 -1.0901 -1.3834 -0.2214
 5549SOL    HW228281   0.630   4.571   8.871 -2.3534 -0.7923 -1.3112
 5550SOL     OW28282   2.962   3.283   6.848  0.6146 -0.3686 -0.2905
 5550SOL    HW128283   3.018   3.323   6.781  1.3593  0.6813  0.9715
 5550SOL    HW228284   2.948   3.371   6.884  0.0404 -1.3061  1.7552
 5551SOL     OW28285   1.876   3.415   8.767 -0.7371 -0.1062 -0.2094
 5551SOL    HW128286   1.780   3.407   8.771 -0.5074 -1.1766  2.6810
 5551SOL    HW228287   1.892   3.440   8.858 -1.5793  3.0504 -0.9267
 5552SOL     OW28288   0.909   2.198  12.015  0.3954  0.1552  0.1847
 5552SOL    HW128289   0.819   2.230  12.025  0.8328  1.3159  0.5126
 5552SOL    HW228290   0.903   2.106  12.039  1.6817  0.7999  2.9642
 5553SOL     OW28291   3.914   2.111   8.601  0.1137 -0.4796 -0.2389
 5553SOL    HW128292   3.819   2.117   8.590  0.0924  2.1769  1.3371
 5553SOL    HW228293   3.924   2.202   8.629  0.3593 -0.4361 -0.4692
 5554SOL     OW28294   1.727   1.094   5.746  0.5419 -0.6370  0.2858
 5554SOL    HW128295   1.778   1.018   5.775  0.5386 -0.4407  0.7993
 5554SOL    HW228296   1.801   1.147   5.715  3.0838 -2.6743  2.7626
 5555SOL     OW28297   2.118   4.059  11.669 -0.1429  0.2035  0.2762
 5555SOL    HW128298   2.173   4.085  11.595 -1.4555  0.8096 -0.4774
 5555SOL    HW228299   2.117   3.965  11.656 -0.7605  0.2236  0.1899
 5556SOL     OW28300   1.462   2.149   5.218  0.0031 -0.0706  0.5134
 5556SOL    HW128301   1.369   2.169   5.229  0.0345 -0.7661  2.0709
 5556SOL    HW228302   1.473   2.064   5.177  1.4539  0.4695 -0.2186
 5557SOL     OW28303   1.046   1.358  17.234 -0.2192 -0.6086  0.0323
 5557SOL    HW128304   1.094   1.403  17.165 -2.6772  1.1352 -0.5604
 5557SOL    HW228305   1.108   1.296  17.273  0.9140  1.1993  1.0490
 5558SOL     OW28306   4.507   4.457   2.767 -0.1008 -0.3649 -0.6200
 5558SOL    HW128307   4.450   4.397   2.718  0.3032  0.0929 -1.6411
 5558SOL    HW228308   4.439   4.523   2.780 -1.4974 -1.4897 -2.1353
 5559SOL     OW28309   1.742   3.927   8.317 -0.5035  0.0859 -0.3727
 5559SOL    HW128310   1.795   3.847   8.307 -1.0713 -0.1699 -1.3730
 5559SOL    HW228311   1.774   3.973   8.240 -3.3395 -0.1070 -1.6670
 5560SOL     OW28312   4.207   0.328  11.466 -0.3048  0.0408 -0.0925
 5560SOL    HW128313   4.118   0.340  11.432 -0.8537  0.6897  1.5622
 5560SOL    HW228314   4.217   0.415  11.505 -0.1299  0.3498 -0.8316
 5561SOL     OW28315   4.523   2.354   4.437  0.8745  0.4360  0.0027
 5561SOL    HW128316   4.531   2.322   4.347 -0.0838  0.3071 -0.0368
 5561SOL    HW228317   4.557   2.443   4.447  0.8500  0.6602 -1.9824
 5562SOL     OW28318   4.132   0.518   6.689 -0.0163  0.3124 -0.2700
 5562SOL    HW128319   4.206   0.472   6.728 -1.0177 -0.5780  0.5778
 5562SOL    HW228320   4.143   0.499   6.596  0.6764  3.1588 -0.7729
 5563SOL     OW28321   3.835   4.291  15.111 -0.4234 -0.3445 -0.0919
 5563SOL    HW128322   3.815   4.375  15.071  2.0422  1.4031  2.3222
 5563SOL    HW228323   3.809   4.231  15.041 -1.7234 -0.2999  0.3463
 5564SOL     OW28324   0.320   3.495   9.183  1.0732 -0.0389 -0.0213
 5564SOL    HW128325   0.275   3.465   9.104 -0.4665  0.8193  0.5271
 5564SOL    HW228326   0.269   3.573   9.206  1.7001  0.8968 -1.7949
 5565SOL     OW28327   1.212   1.538   1.926  0.0561 -0.2750  0.0853
 5565SOL    HW128328   1.162   1.464   1.961  0.4856 -1.0363 -0.9417
 5565SOL    HW228329   1.252   1.566   2.009  0.7382 -0.3620 -0.2150
 5566SOL     OW28330   0.506   1.586   3.874 -0.0592 -0.3810  1.2835
 5566SOL    HW128331   0.504   1.569   3.968 -0.0411 -2.2644  0.9494
 5566SOL    HW228332   0.522   1.504   3.827  0.4964  0.4126  0.0826
 5567SOL     OW28333   1.782   3.891   4.085  0.1396  0.5969 -0.7014
 5567SOL    HW128334   1.788   3.798   4.067 -3.0499  0.7670 -2.7647
 5567SOL    HW228335   1.805   3.933   4.002  1.7579 -3.0686 -2.0860
 5568SOL     OW28336   2.441   1.217   3.004 -0.1837  0.2045  0.3195
 5568SOL    HW128337   2.354   1.254   3.020  0.4755  1.9144  0.0017
 5568SOL    HW228338   2.486   1.302   2.999 -2.0172  1.1689  0.2021
 5569SOL     OW28339   3.397   4.093   7.168  0.2121 -0.0901  0.2571
 5569SOL    HW128340   3.317   4.097   7.116  0.3929 -0.1982 -0.0347
 5569SOL    HW228341   3.392   4.006   7.207 -2.1363  0.6133  1.4437
 5570SOL     OW28342   1.154   3.279   6.389  0.9721 -0.0703 -0.6209
 5570SOL    HW128343   1.188   3.229   6.315  0.1734 -0.4365 -0.7470
 5570SOL    HW228344   1.225   3.297   6.450  0.8666  0.5264 -0.6759
 5571SOL     OW28345   4.666   0.387   4.320  0.4526  0.0380  0.0429
 5571SOL    HW128346   4.631   0.476   4.325 -2.1452 -1.1281  2.7067
 5571SOL    HW228347   4.712   0.379   4.236 -0.0740 -2.4310 -0.0214
 5572SOL     OW28348   0.826   4.193   7.885  0.3905  0.1520  0.0578
 5572SOL    HW128349   0.771   4.193   7.806  0.7529 -0.4944 -0.1933
 5572SOL    HW228350   0.823   4.098   7.893  0.9845  0.2363  1.2568
 5573SOL     OW28351   0.057   0.157  12.427  0.5469 -0.4000  0.1304
 5573SOL    HW128352   0.130   0.112  12.384  0.1593 -1.9811  1.1264
 5573SOL    HW228353   0.032   0.080  12.477  0.1358 -0.7465 -0.6146
 5574SOL     OW28354   0.348   4.515   6.263 -0.7365  0.2702 -0.1584
 5574SOL    HW128355   0.366   4.443   6.202  1.5454  0.6556  0.0565
 5574SOL    HW228356   0.253   4.505   6.273 -0.9602  1.8957 -0.6012
 5575SOL     OW28357   2.074   4.358   8.486  0.3149  0.0336  0.3582
 5575SOL    HW128358   2.034   4.316   8.562 -3.5399 -0.1519 -1.7593
 5575SOL    HW228359   2.037   4.309   8.413 -3.8295  2.3422  0.9105
 5576SOL     OW28360   1.209   1.898   5.551  0.4577  0.1123  0.0140
 5576SOL    HW128361   1.251   1.826   5.598 -1.8941 -0.0022  1.9611
 5576SOL    HW228362   1.239   1.879   5.463 -0.9794  0.2151 -0.4995
 5577SOL     OW28363   0.428   1.034   3.183  0.0604  0.8963 -0.3658
 5577SOL    HW128364   0.379   1.104   3.140 -1.7597 -0.1807 -0.0278
 5577SOL    HW228365   0.367   0.978   3.230  2.0857 -0.6040  0.4699
 5578SOL     OW28366   2.808   0.873  15.132 -0.2873 -0.4149 -0.2889
 5578SOL    HW128367   2.888   0.884  15.081 -0.0491 -1.0400 -0.0496
 5578SOL    HW228368   2.742   0.851  15.066 -0.6652 -0.8310  0.2210
 5579SOL     OW28369   1.564   3.505   7.904  0.0518  0.0498  0.0766
 5579SOL    HW128370   1.505   3.491   7.979 -1.0363 -0.4441 -0.8583
 5579SOL    HW228371   1.537   3.429   7.852  2.4931 -0.5440 -0.3241
 5580SOL     OW28372   4.384   0.695  16.411  0.3485 -0.3304 -0.0759
 5580SOL    HW128373   4.451   0.746  16.367  1.4448 -0.4262  1.4862
 5580SOL    HW228374   4.413   0.703  16.501 -1.2939 -2.3178  0.6405
 5581SOL     OW28375   1.450   0.608   5.742 -0.2167 -0.1513 -0.3394
 5581SOL    HW128376   1.545   0.612   5.738 -0.1892 -1.7443 -1.4537
 5581SOL    HW228377   1.436   0.697   5.711 -1.7192  0.4135  2.0500
 5582SOL     OW28378   2.685   3.077  17.331 -0.2109  0.1058 -0.2222
 5582SOL    HW128379   2.756   3.015  17.337  0.0097  0.1455 -2.1970
 5582SOL    HW228380   2.689   3.107  17.240  0.8700  1.9243  0.4352
 5583SOL     OW28381   4.510   0.018   2.834 -0.2479 -0.1455  0.4339
 5583SOL    HW128382   4.535   4.719   2.752  0.6085 -1.0883  1.1807
 5583SOL    HW228383   4.417   0.034   2.819 -0.5213  0.4737  2.8410
 5584SOL     OW28384   2.985   0.229   4.652  0.2022 -0.0683 -0.1736
 5584SOL    HW128385   2.995   0.309   4.601  1.2848  0.5761  1.0541
 5584SOL    HW228386   2.981   0.266   4.740 -0.5176  1.8753 -0.9968
 5585SOL     OW28387   4.236   0.275  14.511 -0.2900 -0.1318 -0.7530
 5585SOL    HW128388   4.219   0.362  14.546 -0.6499 -0.1546 -0.8644
 5585SOL    HW228389   4.146   0.242  14.502 -0.1707 -0.9876  1.2173
 5586SOL     OW28390   0.536   4.656   5.817 -0.6265 -0.3468  0.5169
 5586SOL    HW128391   0.568   4.590   5.756  0.0762 -1.0234  1.6505
 5586SOL    HW228392   0.483   4.608   5.880 -0.0704 -0.3500  0.9796
 5587SOL     OW28393   0.246   1.116   9.110 -0.1171  0.1197  0.0083
 5587SOL    HW128394   0.191   1.105   9.032 -0.6357  0.6099  0.3099
 5587SOL    HW228395   0.253   1.211   9.118  0.7686 -0.1324  2.0003
 5588SOL     OW28396   0.305   2.125   1.701 -0.1080  0.2945  0.0105
 5588SOL    HW128397   0.210   2.115   1.693  0.1243  0.0924 -2.2975
 5588SOL    HW228398   0.325   2.065   1.773 -1.3903  0.7869  0.7888
 5589SOL     OW28399   3.122   0.137   8.942  0.1142 -0.4816  0.0909
 5589SOL    HW128400   3.137   0.085   9.021 -1.2343 -2.8782 -1.2470
 5589SOL    HW228401   3.126   0.074   8.871 -0.4204 -0.0314 -0.3373
 5590SOL     OW28402   0.640   2.736   3.561  0.8211  0.6700 -0.1121
 5590SOL    HW128403   0.567   2.772   3.510 -0.2055 -2.0602 -0.5670
 5590SOL    HW228404   0.614   2.750   3.652 -0.8640  1.5835 -0.7251
 5591SOL     OW28405   1.899   2.035   7.793 -0.5429  0.1444 -0.4119
 5591SOL    HW128406   1.812   2.021   7.829  0.0198 -0.8030  0.6002
 5591SOL    HW228407   1.948   2.022   7.875 -1.4222 -1.3513 -0.1238
 5592SOL     OW28408   2.629   1.158   2.342 -0.3120  0.0121 -0.3623
 5592SOL    HW128409   2.584   1.144   2.259 -2.5592  1.6441  0.5643
 5592SOL    HW228410   2.588   1.240   2.371  0.4797  0.4103 -0.3587
 5593SOL     OW28411   4.077   1.394   0.920 -0.4129  0.1825  0.6870
 5593SOL    HW128412   4.016   1.330   0.882 -0.3577  1.7347 -2.0339
 5593SOL    HW228413   4.099   1.449   0.844  1.4413 -0.4468  0.7695
 5594SOL     OW28414   3.249   4.405   5.090 -0.0110 -0.5145  0.2198
 5594SOL    HW128415   3.217   4.495   5.079  1.5383 -0.0293 -0.3543
 5594SOL    HW228416   3.193   4.361   5.027 -0.1019 -2.3084  1.5606
 5595SOL     OW28417   1.468   3.396   6.243 -0.3005  0.3295  0.1443
 5595SOL    HW128418   1.516   3.323   6.281 -0.8194  1.0031  2.0907
 5595SOL    HW228419   1.428   3.363   6.162 -2.4551 -0.1601  1.4009
 5596SOL     OW28420   1.283   0.400   7.993 -0.1748  0.4583  0.5326
 5596SOL    HW128421   1.357   0.382   7.936 -1.0939  0.1942 -0.5911
 5596SOL    HW228422   1.312   0.351   8.070  3.5632  1.3855 -0.3245
 5597SOL     OW28423   0.896   1.778   5.375 -0.4880  0.4441 -0.6313
 5597SOL    HW128424   0.958   1.724   5.327 -0.0371  1.7781 -1.5337
 5597SOL    HW228425   0.858   1.720   5.442 -0.8128 -0.6556 -1.7652
 5598SOL     OW28426   3.095   0.086   2.391 -0.6030 -0.4793 -0.2231
 5598SOL    HW128427   3.057   0.161   2.345  0.9796  0.4162 -0.0520
 5598SOL    HW228428   3.075   0.087   2.484  1.9104  1.1147  0.2842
 5599SOL     OW28429   1.136   3.325   9.360 -0.0729  0.5048  0.4821
 5599SOL    HW128430   1.087   3.314   9.441  0.4709  1.5533  0.9458
 5599SOL    HW228431   1.176   3.240   9.346  0.1659  0.8664 -1.1341
 5600SOL     OW28432   1.852   1.158  10.639  0.1261 -0.0916  0.2363
 5600SOL    HW128433   1.791   1.119  10.576 -0.1814 -0.2648  0.6416
 5600SOL    HW228434   1.894   1.076  10.667  0.1253 -0.1919 -0.0536
 5601SOL     OW28435   4.531   0.579   1.945  0.3310 -0.2817  0.7374
 5601SOL    HW128436   4.466   0.609   2.009 -1.3284  0.6496 -1.3736
 5601SOL    HW228437   4.493   0.608   1.862  2.7060 -2.9845 -1.3016
 5602SOL     OW28438   3.697   3.068  10.272  0.0675  0.0946 -0.1027
 5602SOL    HW128439   3.749   3.000  10.230 -0.6254 -0.0824 -0.6643
 5602SOL    HW228440   3.625   3.018  10.311  0.3863  1.8229  2.7694
 5603SOL     OW28441   0.613   3.728   5.117 -0.4759  0.0282  0.3841
 5603SOL    HW128442   0.546   3.675   5.076  1.7821 -1.3406 -1.5049
 5603SOL    HW228443   0.602   3.813   5.074 -0.7366 -0.6102 -0.7950
 5604SOL     OW28444   3.695   0.829  10.781  0.2178 -0.0092  0.0414
 5604SOL    HW128445   3.628   0.839  10.848 -0.4445 -0.0466 -0.6067
 5604SOL    HW228446   3.769   0.878  10.818 -0.0213  1.2100 -1.1006
 5605SOL     OW28447   2.063   2.829   5.079 -0.0925 -0.2923  1.0158
 5605SOL    HW128448   2.091   2.741   5.104  0.3891 -0.1814  0.8655
 5605SOL    HW228449   2.145   2.864   5.044 -1.1661  0.2042 -0.9862
 5606SOL     OW28450   1.766   4.003  15.644  0.1175 -0.7299  0.1987
 5606SOL    HW128451   1.816   4.084  15.634  0.8774 -1.0441  1.3833
 5606SOL    HW228452   1.822   3.962  15.711  2.2503 -0.1125 -1.2308
 5607SOL     OW28453   2.357   4.489  11.697  0.1215  0.0079  0.3603
 5607SOL    HW128454   2.335   4.533  11.779 -3.1234  0.3195 -0.7098
 5607SOL    HW228455   2.453   4.494  11.697  0.0222  1.8471 -0.7142
 5608SOL     OW28456   1.303   1.890   8.432  0.2752 -0.1932  0.2941
 5608SOL    HW128457   1.236   1.860   8.495  0.9526 -0.2138  1.0064
 5608SOL    HW228458   1.252   1.902   8.352  1.6697  1.9479 -0.2719
 5609SOL     OW28459   0.496   1.488   4.628 -0.4054  0.1138  0.4962
 5609SOL    HW128460   0.540   1.442   4.700 -0.0671 -1.9706 -1.0542
 5609SOL    HW228461   0.468   1.412   4.578  1.5518 -1.0516  1.1622
 5610SOL     OW28462   0.419   3.305   2.847 -0.0202  0.7049 -0.0577
 5610SOL    HW128463   0.512   3.282   2.851  0.3514  2.5124  1.5493
 5610SOL    HW228464   0.405   3.292   2.754  0.9996 -0.8389 -0.0032
 5611SOL     OW28465   0.351   2.093   2.511 -0.2298  0.3594  0.1594
 5611SOL    HW128466   0.315   2.022   2.459 -2.0159 -0.2738  2.2542
 5611SOL    HW228467   0.280   2.098   2.575 -0.8156  2.8733 -0.7165
 5612SOL     OW28468   2.744   4.556   1.800 -0.3570 -0.0392  0.5631
 5612SOL    HW128469   2.814   4.614   1.830 -0.6026  1.0819 -1.0288
 5612SOL    HW228470   2.798   4.482   1.773  0.0800  0.0797  1.0986
 5613SOL     OW28471   1.643   3.650  17.598 -0.1372  0.2399 -0.6274
 5613SOL    HW128472   1.733   3.675  17.580 -0.2734  0.7953 -0.5562
 5613SOL    HW228473   1.636   3.702  17.678  1.2505 -1.8793  0.8785
 5614SOL     OW28474   4.522   0.103   2.399 -0.0391  0.4455  0.6452
 5614SOL    HW128475   4.462   0.171   2.368  0.2482  0.8010  0.8608
 5614SOL    HW228476   4.477   0.021   2.383  2.8325 -1.0486  0.1804
 5615SOL     OW28477   0.145   2.332  10.432 -0.5104 -0.0105  0.3280
 5615SOL    HW128478   0.129   2.401  10.367 -0.2609 -0.0519  0.2223
 5615SOL    HW228479   0.086   2.355  10.504 -0.9300  1.1699 -0.3832
 5616SOL     OW28480   3.644   0.014   9.132  0.9447 -0.1221  0.1496
 5616SOL    HW128481   3.581   0.077   9.096  1.8507 -0.4402 -1.9541
 5616SOL    HW228482   3.590   4.683   9.158 -0.2345  0.8153  0.4010
 5617SOL     OW28483   0.038   0.949   0.221 -0.0715 -0.1459  0.2155
 5617SOL    HW128484   4.687   0.943   0.235  0.1733  0.5659  2.1503
 5617SOL    HW228485   0.079   0.885   0.279 -0.6502  1.7990  2.7383
 5618SOL     OW28486   0.028   0.015   3.838 -0.1734  0.0912  0.0040
 5618SOL    HW128487   0.037   0.110   3.832 -2.6555  0.4605  2.1556
 5618SOL    HW228488   0.108   4.728   3.796 -1.3277 -3.1507  0.1054
 5619SOL     OW28489   4.603   3.718   6.338 -0.2220  0.7721 -0.4110
 5619SOL    HW128490   4.565   3.645   6.385  1.5279  0.2455  0.1698
 5619SOL    HW228491   4.667   3.749   6.403 -1.2626 -0.3076  1.1059
 5620SOL     OW28492   3.169   0.582   5.029 -0.5314  0.6253  0.4561
 5620SOL    HW128493   3.222   0.551   5.102  2.2270  1.0628 -1.3443
 5620SOL    HW228494   3.107   0.636   5.078 -2.3352 -2.8215  1.9138
 5621SOL     OW28495   4.723   2.780   5.141 -1.1226 -0.2023 -0.2204
 5621SOL    HW128496   0.035   2.843   5.185 -2.3526  1.3128 -0.8493
 5621SOL    HW228497   4.733   2.808   5.050  0.9783  1.8902  0.6904
 5622SOL     OW28498   4.549   2.879   9.820  0.7271 -0.0948 -0.0690
 5622SOL    HW128499   4.527   2.971   9.838 -1.0846 -0.8274  1.4424
 5622SOL    HW228500   4.560   2.890   9.725  1.7686  2.0548  0.2869
 5623SOL     OW28501   0.667   1.868   8.433 -0.0623 -0.1150 -0.1265
 5623SOL    HW128502   0.631   1.810   8.366  2.3343 -0.0691 -1.4401
 5623SOL    HW228503   0.594   1.927   8.452 -1.3586 -1.9765  0.6624
 5624SOL     OW28504   3.885   1.957   4.113 -0.0677 -0.0345 -0.1576
 5624SOL    HW128505   3.910   1.865   4.120  0.3168  0.2513  2.4346
 5624SOL    HW228506   3.916   1.984   4.200 -0.3467  0.7390 -0.2921
 5625SOL     OW28507   0.269   1.675  16.713 -0.4026  0.0670 -0.2552
 5625SOL    HW128508   0.192   1.688  16.657 -0.6515 -1.0115 -0.1555
 5625SOL    HW228509   0.286   1.760  16.754 -0.2410 -0.4955  0.8428
 5626SOL     OW28510   3.248   2.865   2.298  0.6205 -0.3183  0.7713
 5626SOL    HW128511   3.216   2.776   2.312  1.4840 -0.3935  2.2668
 5626SOL    HW228512   3.334   2.854   2.339  0.6698  3.9670  1.8957
 5627SOL     OW28513   0.898   4.101  12.513 -0.2506 -0.2746  0.0314
 5627SOL    HW128514   0.924   4.144  12.594 -0.8899 -0.1342  0.1625
 5627SOL    HW228515   0.902   4.168  12.445 -0.9845 -0.1252  0.1383
 5628SOL     OW28516   1.552   1.852   2.443 -0.1342 -0.2205 -0.4361
 5628SOL    HW128517   1.523   1.918   2.507  0.5186 -2.0252  1.7491
 5628SOL    HW228518   1.503   1.775   2.473  0.9693 -1.2734 -1.3142
 5629SOL     OW28519   3.382   4.351   3.586 -0.0339 -0.5429  0.0679
 5629SOL    HW128520   3.298   4.312   3.609 -0.6225  0.8137  0.2049
 5629SOL    HW228521   3.444   4.310   3.646  0.7653  1.5466  0.6719
 5630SOL     OW28522   4.565   1.309   1.878  0.6105  0.2039  0.2368
 5630SOL    HW128523   4.557   1.389   1.826 -1.9303  0.7744  1.4740
 5630SOL    HW228524   4.480   1.270   1.858  0.3116  1.1175 -0.2595
 5631SOL     OW28525   0.052   1.124  17.713  0.3730  0.2420  0.1156
 5631SOL    HW128526   0.047   1.030  17.698 -1.0968  0.1283  1.4464
 5631SOL    HW228527   4.730   1.133   0.010 -1.0201 -0.8879 -1.0664
 5632SOL     OW28528   1.040   3.811   8.291  0.6159  0.1529 -0.2250
 5632SOL    HW128529   1.080   3.891   8.326  1.0886 -0.0484 -0.3130
 5632SOL    HW228530   1.055   3.747   8.360  0.0461  0.8209  0.5216
 5633SOL     OW28531   2.971   2.042   0.436  0.5412 -0.4648 -0.6097
 5633SOL    HW128532   2.932   1.964   0.476  0.5059 -0.2814 -0.2887
 5633SOL    HW228533   2.956   2.010   0.347 -1.0774  3.8977 -1.9008
 5634SOL     OW28534   0.323   3.873  11.596 -0.1367 -0.5989 -0.8304
 5634SOL    HW128535   0.334   3.885  11.502 -1.6383 -0.6775 -1.0129
 5634SOL    HW228536   0.343   3.962  11.625 -0.6155 -0.4245 -1.0508
 5635SOL     OW28537   1.797   0.404  10.524  0.0590 -0.0129  0.0547
 5635SOL    HW128538   1.703   0.416  10.512 -0.0231  2.2174  2.8443
 5635SOL    HW228539   1.793   0.325  10.577  0.7151 -0.2919 -0.3164
 5636SOL     OW28540   2.859   1.766   1.969  0.3991 -0.0690  0.0356
 5636SOL    HW128541   2.788   1.727   2.020  0.2532  0.9217  0.6099
 5636SOL    HW228542   2.912   1.803   2.040  0.9424 -1.3098  0.2609
 5637SOL     OW28543   0.522   4.152   8.622  0.2721  0.0679  0.3870
 5637SOL    HW128544   0.608   4.131   8.659 -0.2676 -0.2104  1.4666
 5637SOL    HW228545   0.509   4.077   8.564 -1.1700  1.3763 -0.9798
 5638SOL     OW28546   0.978   0.807   2.376 -0.2100 -0.1671 -0.3368
 5638SOL    HW128547   0.930   0.890   2.375 -2.0881 -1.2324  0.1668
 5638SOL    HW228548   1.067   0.824   2.406  0.4543 -1.7040 -1.4131
 5639SOL     OW28549   3.669   4.199   7.060 -0.3984 -0.0234 -0.1311
 5639SOL    HW128550   3.582   4.217   7.098 -0.0579 -0.4804  0.8685
 5639SOL    HW228551   3.681   4.106   7.081 -0.1236  0.4242  1.7077
 5640SOL     OW28552   2.759   0.972   9.571  0.3440  0.4162 -0.0570
 5640SOL    HW128553   2.700   0.990   9.499  0.8758  0.7879 -0.3976
 5640SOL    HW228554   2.701   0.913   9.620 -0.8533  1.2175 -0.5315
 5641SOL     OW28555   3.619   4.429   8.366 -0.0224  0.4895 -0.1660
 5641SOL    HW128556   3.555   4.379   8.416  0.3888  0.5998  0.4728
 5641SOL    HW228557   3.677   4.354   8.351 -0.3713 -0.1226  1.5897
 5642SOL     OW28558   0.705   1.202   2.755 -0.1645 -0.5370 -0.3385
 5642SOL    HW128559   0.714   1.281   2.809  1.4790 -1.1770  0.3395
 5642SOL    HW228560   0.611   1.187   2.759 -0.2258 -0.2806 -0.7811
 5643SOL     OW28561   3.180   2.623   4.801  0.3195  0.0912  0.0923
 5643SOL    HW128562   3.092   2.610   4.768 -0.6578  2.0399  1.9759
 5643SOL    HW228563   3.198   2.542   4.850  1.3955 -0.7041 -1.6213
 5644SOL     OW28564   2.497   1.492   0.097 -0.7301  0.0577  0.0603
 5644SOL    HW128565   2.419   1.484   0.042 -1.8150  0.8645  1.4832
 5644SOL    HW228566   2.486   1.441   0.177  0.0584  0.4736  0.4405
 5645SOL     OW28567   0.126   2.271  10.755 -0.6720 -0.6050  0.0990
 5645SOL    HW128568   0.043   2.274  10.707 -0.3547 -0.9950 -0.4704
 5645SOL    HW228569   0.165   2.349  10.718 -2.7568  0.2573 -0.2748
 5646SOL     OW28570   1.176   0.830   9.749  0.5616 -0.0566 -0.1790
 5646SOL    HW128571   1.122   0.855   9.674  0.2584  3.8417  1.3762
 5646SOL    HW228572   1.255   0.797   9.707  0.4205  0.0230 -0.5003
 5647SOL     OW28573   3.627   0.415   6.487  0.2192 -0.3138 -0.0429
 5647SOL    HW128574   3.565   0.417   6.415 -1.1899 -1.5144  1.1597
 5647SOL    HW228575   3.707   0.408   6.435 -0.0973 -0.5536 -0.4910
 5648SOL     OW28576   1.460   4.528  10.123 -1.0427 -0.6547 -0.2328
 5648SOL    HW128577   1.462   4.499  10.215  1.5316 -0.9205 -0.3564
 5648SOL    HW228578   1.548   4.502  10.095 -0.5336  1.8395 -0.9543
 5649SOL     OW28579   1.575   0.844   6.074  0.1016 -0.5454 -0.1322
 5649SOL    HW128580   1.517   0.906   6.118 -0.0371  0.0995 -1.2277
 5649SOL    HW228581   1.577   0.765   6.127 -1.1872 -0.4006  0.1231
 5650SOL     OW28582   2.423   0.513  11.056 -0.0384  0.5172  0.0899
 5650SOL    HW128583   2.477   0.461  11.116  2.0096  0.1511 -2.0575
 5650SOL    HW228584   2.480   0.498  10.980  0.8399  0.7874  0.6924
 5651SOL     OW28585   0.136   3.117   3.762  0.4393 -0.0409 -0.1057
 5651SOL    HW128586   0.110   3.199   3.805 -1.2714  0.3348 -1.8735
 5651SOL    HW228587   0.144   3.148   3.671  0.0789  2.6866  0.7806
 5652SOL     OW28588   2.721   2.785  10.541  0.2312 -0.2777  0.1849
 5652SOL    HW128589   2.672   2.793  10.459 -0.7698  2.8142  1.0640
 5652SOL    HW228590   2.662   2.815  10.610  0.1408 -0.1759  0.0655
 5653SOL     OW28591   3.135   3.854   7.887  0.0539 -0.0896  0.1864
 5653SOL    HW128592   3.156   3.940   7.924  1.1820 -0.2571 -0.0735
 5653SOL    HW228593   3.043   3.842   7.909  0.4894 -0.4343  1.8234
 5654SOL     OW28594   2.928   2.052   0.768  0.0065 -0.3739 -0.4459
 5654SOL    HW128595   2.945   2.042   0.674  0.3745  0.7439 -0.4895
 5654SOL    HW228596   2.833   2.048   0.782  0.0232  1.1478  0.0218
 5655SOL     OW28597   1.074   3.166   8.935  0.0184 -0.0626 -0.1910
 5655SOL    HW128598   1.060   3.179   8.841 -0.7154 -0.9909 -0.2110
 5655SOL    HW228599   1.036   3.251   8.956  0.9729  0.9113 -2.3222
 5656SOL     OW28600   0.261   0.114  15.199 -0.5128  0.1890 -0.8044
 5656SOL    HW128601   0.327   0.180  15.220 -0.3951 -0.2639  0.2560
 5656SOL    HW228602   0.177   0.157  15.189 -0.0833  1.3433  0.5478
 5657SOL     OW28603   2.795   1.535   6.954  0.0115 -0.4370 -0.0948
 5657SOL    HW128604   2.747   1.511   6.875  1.5449  1.5668 -1.6524
 5657SOL    HW228605   2.886   1.522   6.925 -0.2491  0.8137 -1.4744
 5658SOL     OW28606   1.493   4.140  13.569 -0.2927 -0.3337  0.2394
 5658SOL    HW128607   1.436   4.072  13.532  2.5061 -1.5433 -1.8468
 5658SOL    HW228608   1.438   4.163  13.644 -3.0283 -1.7894 -1.3132
 5659SOL     OW28609   4.249   3.389   9.553 -0.3295  0.5869  0.3083
 5659SOL    HW128610   4.246   3.293   9.544  0.4127  0.5698  0.2704
 5659SOL    HW228611   4.157   3.406   9.572 -0.2732  0.2685  0.8710
 5660SOL     OW28612   1.035   0.042   7.153 -0.1746  0.1977  0.0129
 5660SOL    HW128613   1.021   4.698   7.189  1.6806 -0.8962 -1.9600
 5660SOL    HW228614   1.044   0.025   7.060  1.2690  0.4806  0.1033
 5661SOL     OW28615   1.329   3.047   9.620  0.3507 -0.2390  0.2559
 5661SOL    HW128616   1.243   3.055   9.660  0.5031 -1.7888  0.8953
 5661SOL    HW228617   1.379   3.095   9.686 -1.0421  0.8332  0.5300
 5662SOL     OW28618   3.429   1.183   0.696  0.0872 -0.1301 -0.0409
 5662SOL    HW128619   3.382   1.161   0.776 -2.4749 -0.2036 -1.5822
 5662SOL    HW228620   3.462   1.096   0.673  0.3887 -0.2054  0.6551
 5663SOL     OW28621   3.939   1.552   6.278 -0.5242  0.1286 -0.0328
 5663SOL    HW128622   3.880   1.482   6.249  0.0420  0.5172 -2.1192
 5663SOL    HW228623   3.995   1.509   6.343  2.4210  1.0053 -2.0025
 5664SOL     OW28624   4.246   1.385   3.456  0.0888 -0.5143  0.0251
 5664SOL    HW128625   4.190   1.419   3.386 -0.8812  0.2256  1.1436
 5664SOL    HW228626   4.257   1.294   3.430  1.4322 -0.8333  1.7516
 5665SOL     OW28627   1.963   4.009   5.576 -0.1116 -0.4992  0.1668
 5665SOL    HW128628   1.992   4.064   5.649 -1.4618 -1.7898  1.6878
 5665SOL    HW228629   2.038   4.021   5.519 -0.2279 -0.3551  0.0416
 5666SOL     OW28630   0.440   4.071  14.090  0.3492 -0.0450  0.0526
 5666SOL    HW128631   0.533   4.051  14.096 -0.1194 -2.0184  0.8639
 5666SOL    HW228632   0.403   3.989  14.057  2.5058 -0.7216 -0.6471
 5667SOL     OW28633   1.315   0.889   7.632  0.0810 -0.5252  0.0569
 5667SOL    HW128634   1.380   0.866   7.699  0.8442  0.5005 -0.3426
 5667SOL    HW228635   1.318   0.982   7.613  2.4733 -0.8144 -0.9332
 5668SOL     OW28636   1.009   4.601  13.263 -0.2142  0.2524  0.2766
 5668SOL    HW128637   0.970   4.584  13.349 -1.3036 -0.6175 -0.3822
 5668SOL    HW228638   0.951   4.541  13.216  0.8208 -0.3462 -0.2306
 5669SOL     OW28639   2.264   3.359   2.436  0.8037 -0.7803  0.0670
 5669SOL    HW128640   2.213   3.289   2.395 -1.1501  0.6298  0.0542
 5669SOL    HW228641   2.236   3.437   2.387 -0.6535 -1.9236 -0.9013
 5670SOL     OW28642   4.739   0.575  13.382 -0.3778 -0.1135 -0.3181
 5670SOL    HW128643   4.740   0.599  13.474  0.9863 -0.9830 -0.1089
 5670SOL    HW228644   0.041   0.645  13.336 -1.1665  0.9083  0.4532
 5671SOL     OW28645   1.482   2.009   9.219 -0.2227  0.4469 -0.3299
 5671SOL    HW128646   1.518   2.087   9.176 -2.3841 -0.2339 -3.3509
 5671SOL    HW228647   1.398   2.031   9.258 -0.3738  0.1487 -0.4935
 5672SOL     OW28648   0.511   1.681   8.237  0.4108 -0.2698  0.1867
 5672SOL    HW128649   0.469   1.595   8.246 -0.7440  0.2516 -0.1530
 5672SOL    HW228650   0.524   1.692   8.143 -0.4471  1.5076  0.2628
 5673SOL     OW28651   2.539   1.157   8.798 -0.1112  0.9923  0.3724
 5673SOL    HW128652   2.606   1.222   8.778  3.6746 -2.9081  0.3759
 5673SOL    HW228653   2.518   1.182   8.888  0.7497  0.4945  0.7047
 5674SOL     OW28654   3.032   0.383   3.086  0.2411 -0.0843  0.7055
 5674SOL    HW128655   2.939   0.409   3.088  0.2533  0.0909 -1.1917
 5674SOL    HW228656   3.053   0.435   3.164  0.2537  1.9574 -0.6668
 5675SOL     OW28657   2.960   1.883   5.405  0.4966 -0.4006  0.8277
 5675SOL    HW128658   3.043   1.835   5.399  0.0071 -0.8788 -2.3591
 5675SOL    HW228659   2.990   1.974   5.411  0.5105 -0.4175  0.9992
 5676SOL     OW28660   0.551   4.733   3.358 -0.1491 -0.2872  0.2939
 5676SOL    HW128661   0.511   0.055   3.301 -0.2665  0.4195  1.2072
 5676SOL    HW228662   0.492   4.658   3.349  0.9326 -1.4967  3.3108
 5677SOL     OW28663   0.040   0.757   9.096 -0.3317 -0.6509  0.0106
 5677SOL    HW128664   0.057   0.765   9.190 -0.9591  1.3599 -0.0538
 5677SOL    HW228665   0.036   0.663   9.079 -1.1228 -0.4810 -0.7700
 5678SOL     OW28666   4.706   0.447  11.125  0.2101 -0.1881  0.3546
 5678SOL    HW128667   4.695   0.432  11.219  0.4834 -3.4446 -0.1259
 5678SOL    HW228668   4.647   0.379  11.092 -0.3824 -0.3871  1.8438
 5679SOL     OW28669   1.875   2.761  14.598  0.2999  0.0764 -0.0242
 5679SOL    HW128670   1.851   2.798  14.683 -0.6939 -1.5492  0.4036
 5679SOL    HW228671   1.939   2.825  14.566  1.5270 -0.5775  1.1340
 5680SOL     OW28672   1.297   3.826   6.424  0.0636  0.3448 -0.1052
 5680SOL    HW128673   1.221   3.769   6.418 -0.0614  0.7530 -2.1687
 5680SOL    HW228674   1.322   3.834   6.332  2.7182 -0.0572  0.5870
 5681SOL     OW28675   2.636   2.605  12.905  0.1597 -0.2576  0.0881
 5681SOL    HW128676   2.627   2.556  12.987  4.1155  1.5070  1.5968
 5681SOL    HW228677   2.712   2.563  12.865  0.7862  2.8366 -2.0024
 5682SOL     OW28678   0.965   3.531  15.891 -0.0007 -0.5041  0.0739
 5682SOL    HW128679   1.008   3.485  15.963  0.5042 -0.8526 -0.4505
 5682SOL    HW228680   0.991   3.474  15.819 -2.5370 -0.5730 -0.8124
 5683SOL     OW28681   0.551   2.305   4.456 -0.5103 -0.1921 -0.0207
 5683SOL    HW128682   0.507   2.337   4.377 -2.3525  0.7853  1.4173
 5683SOL    HW228683   0.477   2.257   4.492  0.3989 -0.9097  0.8784
 5684SOL     OW28684   2.445   3.769   3.122  0.8861  0.7809  0.7988
 5684SOL    HW128685   2.434   3.853   3.077 -1.1958 -0.5768 -1.1879
 5684SOL    HW228686   2.503   3.729   3.057 -0.5735 -2.6279  1.6097
 5685SOL     OW28687   3.221   0.015   9.156  0.0920 -0.3070  0.5641
 5685SOL    HW128688   3.250   0.041   9.243  1.2444 -2.2767  0.7769
 5685SOL    HW228689   3.268   4.676   9.146 -3.4072 -2.0665 -1.3725
 5686SOL     OW28690   0.413   4.495   0.043  0.5615  0.0533 -0.3473
 5686SOL    HW128691   0.389   4.543   0.122  1.0218 -1.2523  0.5965
 5686SOL    HW228692   0.494   4.542   0.022  0.6182  1.2511  2.5968
 5687SOL     OW28693   2.919   1.838  15.162 -0.2846 -0.0179  0.4835
 5687SOL    HW128694   2.919   1.788  15.244 -1.7384  0.5806  0.8593
 5687SOL    HW228695   2.860   1.787  15.106  0.4329  0.1309 -0.4029
 5688SOL     OW28696   1.686   1.627   6.529 -0.5109 -0.3095 -0.1754
 5688SOL    HW128697   1.682   1.550   6.585  0.3302 -0.6310 -0.5654
 5688SOL    HW228698   1.712   1.690   6.597  1.7863  0.8011 -2.0560
 5689SOL     OW28699   3.962   1.271   2.510  0.1089 -0.5178 -0.0513
 5689SOL    HW128700   3.882   1.290   2.559  1.2234  0.4170  1.4230
 5689SOL    HW228701   3.963   1.175   2.509 -1.0914 -0.5564  1.8696
 5690SOL     OW28702   0.509   4.413  12.057 -0.0351 -0.0432  0.1368
 5690SOL    HW128703   0.482   4.483  11.998  0.9249 -1.1766 -1.6628
 5690SOL    HW228704   0.464   4.337  12.019  1.2049 -1.1831  0.9373
 5691SOL     OW28705   0.030   2.220  17.401 -0.3918  0.0958 -0.1211
 5691SOL    HW128706   0.112   2.172  17.389 -0.3647 -0.1384  0.9569
 5691SOL    HW228707   4.716   2.144  17.414  0.8206 -1.0736 -1.6148
 5692SOL     OW28708   0.266   0.331   3.011 -0.0684  0.5211 -0.4609
 5692SOL    HW128709   0.343   0.329   2.955  3.6449  1.9277  4.5858
 5692SOL    HW228710   0.208   0.382   2.955  0.4468 -0.2273 -1.6784
 5693SOL     OW28711   2.261   2.379  10.489  0.0291  0.0062 -0.4292
 5693SOL    HW128712   2.251   2.352  10.580  0.4937  2.2226  0.2676
 5693SOL    HW228713   2.303   2.300  10.455  1.9177  0.3133  1.1837
 5694SOL     OW28714   2.522   1.952   2.090 -0.2030 -0.5863  0.1708
 5694SOL    HW128715   2.584   2.008   2.137  0.8840 -2.0600  0.4783
 5694SOL    HW228716   2.567   1.868   2.084 -0.2989 -0.4691 -2.1225
 5695SOL     OW28717   0.376   1.899  11.845 -1.0028 -0.4041  0.3221
 5695SOL    HW128718   0.283   1.908  11.825 -0.8139  2.3516  0.7209
 5695SOL    HW228719   0.369   1.819  11.897 -1.7587 -0.9256 -0.5781
 5696SOL     OW28720   2.812   3.475  14.230  0.0100  0.0593 -0.1871
 5696SOL    HW128721   2.752   3.416  14.185 -1.1605  1.2705 -0.2287
 5696SOL    HW228722   2.761   3.515  14.301  0.4928  0.8990 -0.3109
 5697SOL     OW28723   3.456   0.389   9.787 -0.3970  0.1021  0.3639
 5697SOL    HW128724   3.540   0.422   9.756 -1.7079  1.4119 -1.8157
 5697SOL    HW228725   3.401   0.460   9.754  1.2010  1.5178  0.7652
 5698SOL     OW28726   0.185   0.987   0.518 -0.0092 -0.4626  0.3717
 5698SOL    HW128727   0.117   1.000   0.585 -0.1283 -0.5708  0.2713
 5698SOL    HW228728   0.243   1.060   0.541  0.4643 -1.5150  2.5490
 5699SOL     OW28729   4.511   2.170  12.218 -0.2965  0.0190  0.5724
 5699SOL    HW128730   4.552   2.251  12.249  3.6923 -2.2500  1.1944
 5699SOL    HW228731   4.416   2.187  12.216 -0.1944  0.3751 -0.8340
 5700SOL     OW28732   2.616   2.687  15.918 -0.5242  0.2307 -0.0222
 5700SOL    HW128733   2.577   2.631  15.852  0.5516 -0.6167  0.0559
 5700SOL    HW228734   2.673   2.740  15.862 -2.5531 -0.1582 -2.4463
 5701SOL     OW28735   4.609   2.226   6.302  0.0615 -0.2208 -0.4094
 5701SOL    HW128736   4.629   2.152   6.359 -1.2458 -0.2041  0.0635
 5701SOL    HW228737   4.528   2.250   6.346  1.6858  0.8316  2.0386
 5702SOL     OW28738   3.708   2.526  13.685  0.1742  0.1660  0.2708
 5702SOL    HW128739   3.650   2.486  13.621  1.2729  2.0456 -1.9161
 5702SOL    HW228740   3.672   2.614  13.693  0.4660  0.3503 -0.4087
 5703SOL     OW28741   4.167   4.552   2.173  0.1346 -0.1807  0.2903
 5703SOL    HW128742   4.078   4.561   2.208  1.4103  2.4652  2.9216
 5703SOL    HW228743   4.178   4.459   2.153  1.2547  0.2331 -0.9833
 5704SOL     OW28744   2.026   2.437  10.878  0.2658  0.1157 -0.1229
 5704SOL    HW128745   2.048   2.443  10.971  0.2678  1.7081 -0.2369
 5704SOL    HW228746   1.991   2.525  10.867  2.2809  0.5328 -3.0509
 5705SOL     OW28747   4.672   2.397   8.152 -0.0691 -0.4331  0.1321
 5705SOL    HW128748   4.651   2.480   8.109 -2.7068 -1.4232 -0.4999
 5705SOL    HW228749   4.613   2.331   8.116  1.2553 -1.9733  0.7325
 5706SOL     OW28750   4.227   2.115  16.816  0.4550 -0.1622 -0.4329
 5706SOL    HW128751   4.237   2.114  16.911 -2.7979  1.4189 -0.0859
 5706SOL    HW228752   4.237   2.206  16.787 -0.8126 -0.4084 -1.6238
 5707SOL     OW28753   0.467   0.166  10.304 -0.0039 -0.4240  0.1324
 5707SOL    HW128754   0.536   0.224  10.272 -0.9129  0.8097  0.4182
 5707SOL    HW228755   0.473   0.184  10.398 -0.4320  0.0487  0.0692
 5708SOL     OW28756   0.217   3.601   5.393  0.4692  0.0190  0.6202
 5708SOL    HW128757   0.160   3.537   5.350  1.5473 -1.3680  1.2494
 5708SOL    HW228758   0.214   3.671   5.329 -0.8549 -0.7574 -0.1538
 5709SOL     OW28759   4.685   3.910   7.860 -0.6177 -0.1315 -0.0289
 5709SOL    HW128760   4.700   3.837   7.919  0.8792  0.0331 -0.2061
 5709SOL    HW228761   4.666   3.856   7.783 -1.4231  0.1512 -0.0307
 5710SOL     OW28762   0.234   1.511   5.494  0.4211 -0.7810  0.2107
 5710SOL    HW128763   0.298   1.580   5.472  0.0733 -0.6382 -0.3575
 5710SOL    HW228764   0.263   1.496   5.584  0.6315 -0.7337  0.1507
 5711SOL     OW28765   1.875   4.719   5.055 -0.4962  0.4967 -0.5439
 5711SOL    HW128766   1.925   0.057   5.059 -0.1753  0.2815 -0.1153
 5711SOL    HW228767   1.842   4.720   5.145  1.2806 -0.8892  0.1156
 5712SOL     OW28768   3.031   4.358   6.662  0.3181 -0.1051  0.3141
 5712SOL    HW128769   3.089   4.432   6.645 -0.7762  1.1989  2.3213
 5712SOL    HW228770   3.012   4.370   6.755  1.2910  3.2953  0.0411
 5713SOL     OW28771   3.270   1.869   2.145  0.3562  0.1663  0.1283
 5713SOL    HW128772   3.351   1.849   2.098  0.4933  1.8799 -0.3709
 5713SOL    HW228773   3.212   1.884   2.070  0.1336 -1.4878 -0.0350
 5714SOL     OW28774   3.253   3.470   3.950  0.1776  0.0567 -0.2953
 5714SOL    HW128775   3.272   3.392   3.897  1.3841 -0.4144  0.8318
 5714SOL    HW228776   3.345   3.486   3.968  0.7016 -2.0180 -1.0596
 5715SOL     OW28777   1.723   4.663  11.581  0.1805 -0.7466 -0.0913
 5715SOL    HW128778   1.803   4.668  11.633 -0.5064 -2.0487  1.0781
 5715SOL    HW228779   1.681   4.736  11.625  1.9728  0.4753 -0.3847
 5716SOL     OW28780   2.306   2.951   6.684 -0.1755 -0.4177  0.6066
 5716SOL    HW128781   2.378   2.889   6.698  0.8603  0.4204 -1.0047
 5716SOL    HW228782   2.240   2.912   6.741  0.5740 -5.0106 -1.6585
 5717SOL     OW28783   4.494   3.898  16.006 -1.1330 -0.5091  0.5002
 5717SOL    HW128784   4.545   3.866  16.080  0.1060 -3.1605 -1.5007
 5717SOL    HW228785   4.564   3.914  15.943 -2.1338 -0.6851 -0.6750
 5718SOL     OW28786   4.647   0.063   4.747 -0.4348  0.1114 -0.2471
 5718SOL    HW128787   4.627   0.085   4.838  0.5918  0.8211 -0.1892
 5718SOL    HW228788   4.716   4.741   4.757  1.6730  1.8181 -3.3294
 5719SOL     OW28789   3.228   4.350   4.251 -0.3838  0.9346 -0.4249
 5719SOL    HW128790   3.240   4.428   4.305  2.0951  1.2444 -1.4405
 5719SOL    HW228791   3.259   4.385   4.167  0.6724  3.5273  1.0375
 5720SOL     OW28792   1.834   4.292  13.411 -0.1564 -0.9057  0.4975
 5720SOL    HW128793   1.873   4.214  13.372  0.7887 -0.4680  0.5501
 5720SOL    HW228794   1.900   4.295  13.480 -0.2132  4.7210  0.3266
 5721SOL     OW28795   0.403   4.212  13.147  0.2264  0.1579 -0.4465
 5721SOL    HW128796   0.378   4.245  13.233 -0.2266 -1.1404 -0.0863
 5721SOL    HW228797   0.427   4.294  13.104 -1.8938  1.0950  0.1908
 5722SOL     OW28798   2.599   0.345   0.475  0.5333 -0.6602  0.2084
 5722SOL    HW128799   2.530   0.385   0.422 -1.3268  0.2451  3.2765
 5722SOL    HW228800   2.660   0.369   0.406 -0.7266 -1.2656 -1.1019
 5723SOL     OW28801   4.082   4.479  13.732 -0.2502 -0.0471 -0.1147
 5723SOL    HW128802   4.108   4.400  13.780  1.3023  1.6271  1.8133
 5723SOL    HW228803   4.154   4.494  13.671  1.0738  0.1470  1.4674
 5724SOL     OW28804   1.132   2.516   7.270 -0.2593  0.0102 -0.1319
 5724SOL    HW128805   1.083   2.454   7.324  1.8027 -1.5060 -0.0184
 5724SOL    HW228806   1.184   2.553   7.342 -0.2232  1.8226 -1.0804
 5725SOL     OW28807   3.591   4.425   8.835  0.2263 -0.5565 -0.0557
 5725SOL    HW128808   3.555   4.506   8.872 -0.1095 -0.1646 -1.2521
 5725SOL    HW228809   3.568   4.364   8.906 -0.3723  0.4838  0.6506
 5726SOL     OW28810   4.510   1.891   0.037 -0.2519  0.2903  0.4906
 5726SOL    HW128811   4.489   1.798   0.032  0.4848  0.0414  1.9683
 5726SOL    HW228812   4.604   1.881   0.051  0.0454 -0.9897 -2.5542
 5727SOL     OW28813   3.286   0.113   4.730  0.1705  0.2373 -0.3165
 5727SOL    HW128814   3.224   0.076   4.667 -0.5847  1.3000 -0.1988
 5727SOL    HW228815   3.314   0.193   4.685 -0.0050 -1.0148 -2.6785
 5728SOL     OW28816   4.342   2.664   1.852 -0.3074 -0.1236  0.0413
 5728SOL    HW128817   4.337   2.725   1.926  1.1761  0.5159 -0.3798
 5728SOL    HW228818   4.253   2.628   1.848  0.6599 -2.6199  1.1901
 5729SOL     OW28819   3.955   1.752  13.055 -0.5089  0.3032 -0.7101
 5729SOL    HW128820   3.919   1.794  12.977 -0.2485  2.3691  0.2805
 5729SOL    HW228821   3.907   1.794  13.126 -1.0155 -2.0242  0.3362
 5730SOL     OW28822   1.928   4.737   6.816 -0.2293 -0.0593  0.3492
 5730SOL    HW128823   1.935   4.641   6.811  2.1318  0.2175 -1.5467
 5730SOL    HW228824   1.845   0.003   6.864 -0.7304  1.0975 -0.7643
 5731SOL     OW28825   1.713   2.887  12.849 -0.3263  0.2857 -0.6380
 5731SOL    HW128826   1.697   2.829  12.775 -0.1338 -1.9640  1.0719
 5731SOL    HW228827   1.629   2.901  12.893 -0.6774  3.1102 -2.2249
 5732SOL     OW28828   2.953   2.227   1.906  0.5803  0.2315 -0.0484
 5732SOL    HW128829   2.991   2.191   1.986  0.4651  0.6073  0.1772
 5732SOL    HW228830   2.878   2.277   1.939 -0.5664 -0.9039 -0.9306
 5733SOL     OW28831   0.766   1.734   4.693 -0.1382 -0.3891  0.0796
 5733SOL    HW128832   0.791   1.685   4.772  0.3094 -0.1233  0.0999
 5733SOL    HW228833   0.712   1.799   4.739  0.2901 -0.0340  0.0826
 5734SOL     OW28834   4.051   3.304   4.481 -0.1351  0.4515 -1.0124
 5734SOL    HW128835   4.142   3.311   4.510  0.2621 -3.3175 -1.3503
 5734SOL    HW228836   4.026   3.396   4.469  0.1963  0.7975  1.0287
 5735SOL     OW28837   0.238   4.173  10.855 -0.3058  0.4147 -0.3230
 5735SOL    HW128838   0.283   4.213  10.781  2.0007 -0.5108  0.5930
 5735SOL    HW228839   0.167   4.122  10.815  0.4356 -2.1983  1.7123
 5736SOL     OW28840   0.263   2.148   6.002 -0.1570 -0.6995 -0.3811
 5736SOL    HW128841   0.273   2.187   5.915  0.9243 -0.6711 -0.2494
 5736SOL    HW228842   0.184   2.190   6.036 -0.1402  0.1550 -1.3811
 5737SOL     OW28843   1.492   1.426  12.017 -0.4277 -0.1807 -0.0209
 5737SOL    HW128844   1.557   1.434  12.087 -0.1928  1.9904 -0.5047
 5737SOL    HW228845   1.549   1.461  11.949 -1.4941  2.6113  0.5450
 5738SOL     OW28846   0.227   4.694   8.099 -0.2517 -0.1116  0.0268
 5738SOL    HW128847   0.297   4.637   8.130  0.9889  0.2045 -2.1703
 5738SOL    HW228848   0.172   4.621   8.069  0.3669 -0.2115 -0.8545
 5739SOL     OW28849   1.169   2.607   6.162  0.3065 -0.2586 -0.4219
 5739SOL    HW128850   1.106   2.650   6.105 -1.0477 -1.1836  0.3602
 5739SOL    HW228851   1.157   2.664   6.238 -2.0529  0.8735 -1.6687
 5740SOL     OW28852   2.129   2.535   3.955 -0.2357  0.1391 -0.3308
 5740SOL    HW128853   2.220   2.555   3.934 -0.5802  3.6548  1.5479
 5740SOL    HW228854   2.121   2.452   3.908 -0.7880  0.2192 -0.3807
 5741SOL     OW28855   3.200   0.975  11.042  0.6340  0.2358 -0.1239
 5741SOL    HW128856   3.134   1.006  10.980 -0.6568 -0.0033  1.1276
 5741SOL    HW228857   3.186   1.036  11.115  1.3263  0.7926 -0.4529
 5742SOL     OW28858   3.488   4.539  15.421  0.0662  0.9062 -0.1612
 5742SOL    HW128859   3.431   4.614  15.439 -0.1722  1.6943 -4.2146
 5742SOL    HW228860   3.446   4.506  15.341  2.2023 -0.4679 -0.7056
 5743SOL     OW28861   2.319   0.805   1.898  0.1521  0.6423  0.0995
 5743SOL    HW128862   2.408   0.818   1.930 -0.1605  2.2932  0.2754
 5743SOL    HW228863   2.271   0.818   1.980 -0.2207  1.7948 -0.2962
 5744SOL     OW28864   0.683   2.528   4.994 -0.2550  0.3635  0.2448
 5744SOL    HW128865   0.611   2.547   5.055 -1.1803 -2.3591 -0.0027
 5744SOL    HW228866   0.686   2.432   4.991  1.1573  0.3355  2.6056
 5745SOL     OW28867   1.159   3.644   4.763  0.2908  0.0575  0.6365
 5745SOL    HW128868   1.127   3.595   4.839  0.5354  0.5917  1.0851
 5745SOL    HW228869   1.089   3.628   4.700 -1.1522  2.2934  1.6680
 5746SOL     OW28870   3.375   3.929  13.233 -0.4972 -0.0102 -0.3759
 5746SOL    HW128871   3.342   4.019  13.236  1.0495  0.5306  0.4189
 5746SOL    HW228872   3.379   3.903  13.325  0.8880 -0.6370 -0.6197
 5747SOL     OW28873   3.527   4.025   6.112  0.1690 -0.0606 -0.2388
 5747SOL    HW128874   3.462   3.956   6.123  1.8614 -1.9972 -2.4330
 5747SOL    HW228875   3.485   4.092   6.166 -0.7153  0.6344 -1.7873
 5748SOL     OW28876   0.854   3.773   3.312 -0.2497  0.1768  0.2949
 5748SOL    HW128877   0.816   3.722   3.241  1.9853 -1.6278  0.3859
 5748SOL    HW228878   0.783   3.827   3.346 -1.3981 -2.1911  1.6248
 5749SOL     OW28879   0.611   2.950  12.168 -0.6582 -0.0361 -0.2763
 5749SOL    HW128880   0.534   3.002  12.193 -1.0107 -1.3108  1.2283
 5749SOL    HW228881   0.664   3.011  12.116 -0.9441 -0.5696 -1.1942
 5750SOL     OW28882   2.974   0.805  12.520 -0.0628 -0.6238 -0.1883
 5750SOL    HW128883   2.942   0.885  12.477  0.9764 -0.7546 -1.2122
 5750SOL    HW228884   2.961   0.750  12.443  0.0747 -0.7728 -0.1039
 5751SOL     OW28885   2.111   3.361   3.571 -0.1923 -0.1617 -0.0380
 5751SOL    HW128886   2.105   3.330   3.481 -1.3042  2.6826 -0.9201
 5751SOL    HW228887   2.166   3.292   3.609 -0.9879 -1.5464 -1.3994
 5752SOL     OW28888   1.176   3.259  16.686 -0.0499 -0.2728 -0.1186
 5752SOL    HW128889   1.153   3.341  16.729  1.0642 -0.5158  0.9147
 5752SOL    HW228890   1.092   3.235  16.647  1.5919 -1.9057 -2.6187
 5753SOL     OW28891   3.670   1.214   6.775  0.3982  0.3911 -0.2250
 5753SOL    HW128892   3.699   1.281   6.836  1.9547  0.6048 -1.1902
 5753SOL    HW228893   3.576   1.234   6.772  0.0338 -1.0610  1.4870
 5754SOL     OW28894   0.756   2.967  12.770  0.5139  0.1785 -0.3205
 5754SOL    HW128895   0.731   3.016  12.848  2.5664  1.2552 -0.3357
 5754SOL    HW228896   0.753   2.875  12.797  1.3110  0.0790 -0.5548
 5755SOL     OW28897   1.238   1.743   1.487 -0.2513  0.4503 -0.3757
 5755SOL    HW128898   1.306   1.757   1.554 -0.9542  0.5833  0.3163
 5755SOL    HW228899   1.212   1.655   1.513  0.4946  0.9990  2.2153
 5756SOL     OW28900   0.618   2.404   3.872  0.5385 -0.2415 -0.2052
 5756SOL    HW128901   0.534   2.414   3.918  1.3886  1.5641  0.9742
 5756SOL    HW228902   0.621   2.311   3.853 -0.5973 -0.2803 -0.2446
 5757SOL     OW28903   4.063   2.396   6.463  0.4924  0.1489  0.6552
 5757SOL    HW128904   3.975   2.433   6.457 -0.1008 -1.4295 -0.2497
 5757SOL    HW228905   4.113   2.477   6.455  2.0833 -0.8886  0.1271
 5758SOL     OW28906   3.402   2.731   6.478 -0.1203  0.1229 -0.5725
 5758SOL    HW128907   3.406   2.827   6.483 -0.7385  0.1929 -1.3872
 5758SOL    HW228908   3.426   2.710   6.568 -1.1126 -1.4904 -0.6914
 5759SOL     OW28909   4.609   2.725   7.283 -0.4045 -0.8995  0.7287
 5759SOL    HW128910   4.614   2.810   7.325  0.7006 -1.0929  1.0024
 5759SOL    HW228911   4.691   2.686   7.314  0.9561  2.8716  1.8578
 5760SOL     OW28912   2.426   2.592   4.684  0.2396 -0.4146  0.0352
 5760SOL    HW128913   2.332   2.589   4.700  0.1721  2.7107  0.1796
 5760SOL    HW228914   2.432   2.651   4.609  0.4421  0.0685  0.4313
 5761SOL     OW28915   3.862   0.826   4.202  0.8800  0.2936  0.0510
 5761SOL    HW128916   3.817   0.804   4.283 -0.4099 -0.5862 -0.8953
 5761SOL    HW228917   3.856   0.921   4.204  1.3948  0.3582 -1.4476
 5762SOL     OW28918   3.557   2.328  13.555  0.1459 -0.1192 -0.0775
 5762SOL    HW128919   3.501   2.329  13.478 -0.6526  1.2710  0.5205
 5762SOL    HW228920   3.592   2.239  13.562  0.1591 -0.0121  1.3116
 5763SOL     OW28921   0.201   3.613   2.213  0.4109 -0.4430 -0.7635
 5763SOL    HW128922   0.238   3.553   2.278 -0.0923  2.5677  2.3135
 5763SOL    HW228923   0.231   3.696   2.250  0.9172 -2.1082  2.5968
 5764SOL     OW28924   3.628   1.327   9.056 -0.3114 -0.3596 -0.3790
 5764SOL    HW128925   3.714   1.356   9.025 -0.4291 -0.0872 -0.4530
 5764SOL    HW228926   3.622   1.238   9.024  0.2754 -1.2604  1.9844
 5765SOL     OW28927   2.128   3.201   2.240 -0.2614  0.3864 -0.8444
 5765SOL    HW128928   2.216   3.233   2.219  0.2323  0.5640  1.4848
 5765SOL    HW228929   2.061   3.238   2.182 -0.4360 -0.1714 -0.9917
 5766SOL     OW28930   3.062   3.588   5.898  0.0845 -0.4040 -0.2667
 5766SOL    HW128931   3.096   3.565   5.812 -0.1579  0.6581 -0.6357
 5766SOL    HW228932   3.100   3.676   5.903 -0.7215 -0.1478  1.5468
 5767SOL     OW28933   2.395   2.502   6.891 -0.2049  0.0973 -0.4848
 5767SOL    HW128934   2.354   2.580   6.926  2.3005  0.6317  1.2524
 5767SOL    HW228935   2.435   2.532   6.809  0.5604 -1.9795 -0.8819
 5768SOL     OW28936   4.581   4.596   5.288 -0.5898  0.0502  0.5507
 5768SOL    HW128937   4.630   4.637   5.359  2.6469 -0.0681 -1.5990
 5768SOL    HW228938   4.493   4.593   5.325 -1.6675 -0.2752 -2.0377
 5769SOL     OW28939   2.611   2.890   7.310  0.2095  0.5405 -0.6674
 5769SOL    HW128940   2.697   2.865   7.276 -0.1404 -1.7726  0.1862
 5769SOL    HW228941   2.640   2.968   7.357  0.0377 -0.2240  0.6985
 5770SOL     OW28942   3.398   1.366  16.241 -0.9095 -0.1525  0.3498
 5770SOL    HW128943   3.440   1.452  16.246 -0.5486 -0.2506 -1.0835
 5770SOL    HW228944   3.396   1.357  16.146  1.5344  1.4361  0.1468
 5771SOL     OW28945   3.261   1.316  11.112 -0.5607 -0.1152  0.0562
 5771SOL    HW128946   3.174   1.303  11.151 -0.4144  2.1355  1.1150
 5771SOL    HW228947   3.311   1.265  11.176  3.8601  1.4928 -2.1818
 5772SOL     OW28948   2.429   1.092   0.738  0.1714 -0.3265  0.3035
 5772SOL    HW128949   2.475   1.038   0.803  0.5256  0.7062  0.9149
 5772SOL    HW228950   2.470   1.178   0.749 -0.1147 -0.5086  2.8519
 5773SOL     OW28951   3.891   0.824   9.365  0.9049 -0.4040 -0.4198
 5773SOL    HW128952   3.882   0.751   9.303 -1.9324 -0.6600  0.2928
 5773SOL    HW228953   3.831   0.803   9.437 -0.3485  0.6061 -1.1722
 5774SOL     OW28954   3.143   0.666   8.738 -0.0902  0.7439 -1.5821
 5774SOL    HW128955   3.097   0.694   8.817  0.2259 -2.8982 -0.0997
 5774SOL    HW228956   3.158   0.576   8.767  2.8630  2.0716  1.0151
 5775SOL     OW28957   0.196   0.543   6.541 -0.1250  0.2883  0.1665
 5775SOL    HW128958   0.277   0.592   6.525 -0.6361  0.9794 -0.3068
 5775SOL    HW228959   0.234   0.459   6.567  0.7712  0.1550 -1.5795
 5776SOL     OW28960   0.635   1.488   9.174  0.1960  0.4160  0.1431
 5776SOL    HW128961   0.572   1.422   9.145  1.7043 -1.3478  0.8997
 5776SOL    HW228962   0.574   1.552   9.211  0.1457 -0.5660  1.7298
 5777SOL     OW28963   2.368   0.695  12.519  0.3645  0.1001 -0.0818
 5777SOL    HW128964   2.345   0.703  12.612  1.6192  4.4107 -0.1351
 5777SOL    HW228965   2.308   0.621  12.508  1.3457 -0.8659  1.0998
 5778SOL     OW28966   3.942   3.139   7.079 -0.0676  0.1492 -0.3171
 5778SOL    HW128967   3.964   3.193   7.154 -1.4514  1.8079 -1.1099
 5778SOL    HW228968   3.849   3.129   7.098  0.1858 -1.9023 -0.0867
 5779SOL     OW28969   1.090   0.420   1.155  0.5332 -0.6772 -0.1728
 5779SOL    HW128970   1.088   0.445   1.247 -0.7541 -0.5830 -0.2197
 5779SOL    HW228971   1.185   0.426   1.145  0.6253 -1.8797  0.0103
 5780SOL     OW28972   0.851   3.234  12.987 -0.1213 -0.4085  0.9189
 5780SOL    HW128973   0.824   3.314  12.941  4.0722  0.6489  0.3252
 5780SOL    HW228974   0.775   3.177  12.978 -1.0176  1.0657 -0.8995
 5781SOL     OW28975   1.517   2.647   6.098  0.0352  0.0570 -0.4902
 5781SOL    HW128976   1.586   2.594   6.057  1.2917 -1.8089  3.9498
 5781SOL    HW228977   1.486   2.580   6.159  1.0831  1.1689  1.2589
 5782SOL     OW28978   0.423   2.395   6.045  0.2119  0.5579 -0.2976
 5782SOL    HW128979   0.365   2.320   6.057 -0.6704  1.1175 -1.1116
 5782SOL    HW228980   0.507   2.357   6.071 -0.0640  1.4651  1.9150
 5783SOL     OW28981   3.666   3.941  17.414  0.6512  0.7323  0.0274
 5783SOL    HW128982   3.678   3.884  17.338  0.9223  0.1421  0.5117
 5783SOL    HW228983   3.591   3.993  17.387 -0.1829 -0.7803 -0.5740
 5784SOL     OW28984   1.063   0.062   4.384 -0.0495  0.1783  0.4722
 5784SOL    HW128985   1.076   0.149   4.420 -0.3352  1.7098 -3.1777
 5784SOL    HW228986   0.983   0.030   4.425 -1.0514  1.5904 -0.3826
 5785SOL     OW28987   0.253   3.458  16.358  0.2022  0.7644  0.9285
 5785SOL    HW128988   0.229   3.386  16.299 -1.0539  0.4954  1.7825
 5785SOL    HW228989   0.327   3.424  16.408  1.6830  0.5082 -1.4187
 5786SOL     OW28990   1.511   1.528   7.926  0.5551  0.2583 -0.1094
 5786SOL    HW128991   1.419   1.509   7.943  0.5256  0.4215 -0.0794
 5786SOL    HW228992   1.507   1.620   7.954 -0.9392  0.1765 -0.0675
 5787SOL     OW28993   3.162   4.662   7.340 -0.0311  0.1331  0.1463
 5787SOL    HW128994   3.206   0.002   7.355 -1.2607  0.4134  2.2762
 5787SOL    HW228995   3.070   4.684   7.324 -0.3212 -1.4392 -0.3271
 5788SOL     OW28996   1.915   4.089  10.003 -0.5201  0.2101  0.0801
 5788SOL    HW128997   1.863   4.026  10.053  0.0355  0.2059  0.6515
 5788SOL    HW228998   1.964   4.024   9.954 -1.4862  0.5678 -1.3734
 5789SOL     OW28999   1.998   2.611   5.298 -0.9312 -0.0224 -0.1839
 5789SOL    HW129000   1.933   2.664   5.344 -2.8457 -1.1196 -1.6153
 5789SOL    HW229001   1.944   2.601   5.219 -0.2501  0.9151 -0.7618
 5790SOL     OW29002   4.177   4.709   6.880  0.3474  0.6182  0.2176
 5790SOL    HW129003   4.133   4.698   6.964  0.2543 -1.1249 -0.0596
 5790SOL    HW229004   4.098   4.688   6.829  1.2834 -2.6976  0.1357
 5791SOL     OW29005   0.768   1.472   7.526 -0.3549  0.1371  0.6070
 5791SOL    HW129006   0.766   1.535   7.597 -0.6545  0.4041  0.3610
 5791SOL    HW229007   0.675   1.453   7.513  0.2814 -1.8652 -1.1884
 5792SOL     OW29008   2.297   3.645   7.622 -0.1156 -0.0547  0.2932
 5792SOL    HW129009   2.213   3.629   7.580  0.1870 -2.0286  0.4607
 5792SOL    HW229010   2.302   3.570   7.681  0.4895  0.4061  0.8281
 5793SOL     OW29011   2.587   2.306  17.273  0.4059 -0.4148  0.3125
 5793SOL    HW129012   2.573   2.213  17.293  1.4467 -0.1197  2.4583
 5793SOL    HW229013   2.664   2.308  17.216 -0.8337 -0.4943 -1.3501
 5794SOL     OW29014   3.304   3.233   3.795 -0.1511  0.4744  0.5771
 5794SOL    HW129015   3.371   3.293   3.762 -0.5480 -0.8349 -2.5637
 5794SOL    HW229016   3.298   3.178   3.717  3.4550  1.2704 -0.2453
 5795SOL     OW29017   4.403   1.260   7.328  0.0150 -0.9491  0.1711
 5795SOL    HW129018   4.345   1.235   7.257 -1.1198  1.2496  0.3171
 5795SOL    HW229019   4.468   1.311   7.280  1.5815 -2.7388  0.4055
 5796SOL     OW29020   1.666   3.518  11.107 -0.0620 -0.3073  0.2675
 5796SOL    HW129021   1.609   3.588  11.140 -2.2201 -1.9982  0.0545
 5796SOL    HW229022   1.606   3.452  11.073 -0.2192 -0.3480  0.6216
 5797SOL     OW29023   4.063   3.892   4.639 -0.5929 -0.3833 -0.1123
 5797SOL    HW129024   4.048   3.832   4.713 -0.9671 -1.8651 -1.3759
 5797SOL    HW229025   3.982   3.880   4.590 -1.4648 -0.0424  1.2368
 5798SOL     OW29026   3.864   3.343   1.984  0.7379 -0.3262  0.1030
 5798SOL    HW129027   3.858   3.409   1.914  2.0751  0.2274  0.5171
 5798SOL    HW229028   3.774   3.345   2.017  2.0074  0.5257  3.5159
 5799SOL     OW29029   2.938   2.577   7.996 -0.0729 -0.1909 -0.6428
 5799SOL    HW129030   2.947   2.519   8.071  0.6758  1.2262  0.3542
 5799SOL    HW229031   2.990   2.654   8.018  0.8350 -0.8847 -0.3637
 5800SOL     OW29032   2.382   1.263   8.458  0.1559  0.0633 -0.2183
 5800SOL    HW129033   2.438   1.340   8.469  0.5125 -0.3170  0.6653
 5800SOL    HW229034   2.378   1.256   8.363 -1.4362  0.5377 -0.1784
 5801SOL     OW29035   0.464   2.569   5.128  0.2936  0.0359  0.0804
 5801SOL    HW129036   0.415   2.604   5.202  1.1696  0.6967  0.3485
 5801SOL    HW229037   0.446   2.476   5.135  1.1511 -0.3000 -1.9932
 5802SOL     OW29038   2.417   2.555   3.898 -0.2428 -0.0107  0.3473
 5802SOL    HW129039   2.425   2.463   3.921 -0.0820 -0.2620 -0.7331
 5802SOL    HW229040   2.487   2.571   3.835  1.2510  0.1412  2.0447
 5803SOL     OW29041   2.380   2.604  12.016 -0.3958 -0.3471  0.1315
 5803SOL    HW129042   2.426   2.625  11.935  1.2351 -1.1375  0.8531
 5803SOL    HW229043   2.302   2.565  11.976 -0.9999  1.0194 -0.0432
 5804SOL     OW29044   4.562   0.821   9.522 -0.0538 -0.1099  0.1739
 5804SOL    HW129045   4.533   0.876   9.450 -0.4799 -2.9003 -1.7989
 5804SOL    HW229046   4.483   0.767   9.522 -0.2428  0.1747  0.5103
 5805SOL     OW29047   3.464   1.553   7.866  0.1330  0.1803 -0.4789
 5805SOL    HW129048   3.368   1.548   7.862  0.0469 -0.7669  2.8966
 5805SOL    HW229049   3.478   1.475   7.813  0.2980 -1.1742  1.5633
 5806SOL     OW29050   0.016   2.129   9.224 -0.4712 -0.5175 -0.6362
 5806SOL    HW129051   0.091   2.076   9.248  0.2470 -0.0044 -1.7618
 5806SOL    HW229052   0.053   2.216   9.238  0.3170 -1.0312  0.4540
 5807SOL     OW29053   1.506   3.763   1.490  0.2106  0.0665 -0.4679
 5807SOL    HW129054   1.502   3.720   1.404 -0.4783  1.2764 -1.0468
 5807SOL    HW229055   1.591   3.807   1.488  1.0535 -1.4806  1.9628
 5808SOL     OW29056   1.505   2.809   8.062  0.1689  0.2131 -0.9767
 5808SOL    HW129057   1.569   2.822   7.992  2.2816 -0.1203  0.9151
 5808SOL    HW229058   1.508   2.715   8.077 -1.7224  0.3429  0.2081
 5809SOL     OW29059   0.162   1.449   2.933  0.1318 -0.3444 -0.0153
 5809SOL    HW129060   0.171   1.356   2.954  0.3905 -0.0349  1.2552
 5809SOL    HW229061   0.224   1.456   2.860  1.8725 -1.6362  1.3440
 5810SOL     OW29062   4.578   3.575   7.523 -0.0878  0.0122  0.4922
 5810SOL    HW129063   4.597   3.665   7.550  1.4187 -0.2784  0.3634
 5810SOL    HW229064   4.546   3.540   7.606 -1.9777  1.0095  0.1970
 5811SOL     OW29065   4.653   1.813   6.670  0.2199 -0.1035 -1.2107
 5811SOL    HW129066   4.618   1.724   6.682 -0.3921  0.2311 -0.5034
 5811SOL    HW229067   4.738   1.788   6.633  1.3328 -0.0924  1.3771
 5812SOL     OW29068   3.873   3.812   3.679 -0.2110 -0.4195  0.3729
 5812SOL    HW129069   3.951   3.861   3.653 -1.2280  0.9031 -0.2206
 5812SOL    HW229070   3.845   3.780   3.593  0.2575 -0.7122  0.3331
 5813SOL     OW29071   0.941   0.511   4.328 -0.1324 -0.1462  0.1550
 5813SOL    HW129072   1.020   0.460   4.344  0.5876 -0.3649 -4.1419
 5813SOL    HW229073   0.878   0.443   4.304 -1.0747  0.5117  0.7797
 5814SOL     OW29074   1.747   0.736  10.856 -0.0431  0.2387 -0.2463
 5814SOL    HW129075   1.709   0.816  10.891  1.5358  0.8087  0.1743
 5814SOL    HW229076   1.837   0.768  10.863  0.6262 -1.7275  0.1997
 5815SOL     OW29077   1.133   0.913   6.934 -0.3548 -0.3119  0.4636
 5815SOL    HW129078   1.148   0.821   6.914 -0.1183 -0.0127 -0.7404
 5815SOL    HW229079   1.207   0.959   6.895 -1.3475 -0.2076 -1.3172
 5816SOL     OW29080   3.047   3.946   5.214  0.2853  0.0892  0.1442
 5816SOL    HW129081   3.120   3.987   5.261  0.5174 -1.6636  1.3031
 5816SOL    HW229082   2.971   3.975   5.265 -0.6502 -0.7150 -0.8049
 5817SOL     OW29083   2.740   4.546   5.985  0.3330  0.2965  0.5252
 5817SOL    HW129084   2.793   4.605   5.932 -0.7208  1.6827  1.0475
 5817SOL    HW229085   2.672   4.518   5.924 -0.8425  0.3248  1.8318
 5818SOL     OW29086   1.209   1.664   2.349  0.3404  0.0273 -0.7769
 5818SOL    HW129087   1.175   1.753   2.360 -1.1908 -0.2312 -3.3172
 5818SOL    HW229088   1.185   1.639   2.438 -1.8631  2.3116 -0.7265
 5819SOL     OW29089   2.471   3.902   8.034 -0.0840 -0.1304 -0.7551
 5819SOL    HW129090   2.530   3.836   7.999 -0.4428  0.1866 -1.9338
 5819SOL    HW229091   2.391   3.851   8.045 -1.0763  1.4073 -0.8274
 5820SOL     OW29092   0.339   4.707   5.399  0.2412  0.1302 -0.2318
 5820SOL    HW129093   0.291   4.724   5.318  0.3099 -1.0347 -0.5193
 5820SOL    HW229094   0.351   0.055   5.421 -0.8648  0.2888 -0.2592
 5821SOL     OW29095   3.484   2.056  16.681  0.2369  0.5365 -0.8325
 5821SOL    HW129096   3.429   2.112  16.626  0.6497  0.7577 -1.0167
 5821SOL    HW229097   3.445   2.050  16.768 -0.1011  1.2229 -0.9399
 5822SOL     OW29098   3.792   0.844  13.782  1.0073  0.7058  0.1093
 5822SOL    HW129099   3.703   0.878  13.776  0.2917 -1.3787 -1.1830
 5822SOL    HW229100   3.846   0.913  13.743  1.8385 -0.2589 -0.4477
 5823SOL     OW29101   3.411   0.750   5.670  0.7044  0.3124  0.2009
 5823SOL    HW129102   3.335   0.702   5.703  0.3565 -0.8614 -2.3268
 5823SOL    HW229103   3.432   0.805   5.746  0.0049  0.1672  0.4999
 5824SOL     OW29104   1.012   4.383   6.844  0.4896  0.1049 -0.1250
 5824SOL    HW129105   1.028   4.321   6.773  0.0936  0.4208 -0.4917
 5824SOL    HW229106   0.980   4.318   6.905 -2.1841  1.8091  0.2985
 5825SOL     OW29107   3.460   3.086   5.518  0.8273 -0.2762 -0.0792
 5825SOL    HW129108   3.527   3.091   5.450 -0.6777 -1.3596 -1.6604
 5825SOL    HW229109   3.507   3.038   5.586 -0.4885 -0.8389  0.4393
 5826SOL     OW29110   2.351   1.012   4.353  0.1085  0.2498  0.2408
 5826SOL    HW129111   2.404   0.992   4.431 -0.3525 -1.2522  0.1697
 5826SOL    HW229112   2.262   1.004   4.390 -0.7368 -0.1953 -1.8813
 5827SOL     OW29113   3.880   3.369  15.837 -0.5949  0.1979 -0.0674
 5827SOL    HW129114   3.884   3.413  15.922 -2.2905  4.0282 -1.9749
 5827SOL    HW229115   3.872   3.285  15.881  1.1633 -0.0092 -0.1463
 5828SOL     OW29116   3.532   4.189   4.249 -0.0776  0.5947  0.5628
 5828SOL    HW129117   3.589   4.187   4.326  1.6952 -0.6600 -0.7995
 5828SOL    HW229118   3.525   4.284   4.236  0.4459  0.4926 -0.4474
 5829SOL     OW29119   0.389   3.745   2.834 -0.2266  0.9808 -0.1880
 5829SOL    HW129120   0.465   3.686   2.837 -2.4327 -1.8942 -0.0400
 5829SOL    HW229121   0.324   3.685   2.870 -1.6792  2.2398 -0.7491
 5830SOL     OW29122   3.264   1.856   3.651 -0.2046  0.2918  0.1794
 5830SOL    HW129123   3.319   1.784   3.683 -2.3883 -1.7033 -0.5679
 5830SOL    HW229124   3.275   1.910   3.729 -0.9467 -1.0954  1.2368
 5831SOL     OW29125   1.852   3.241   7.667 -0.8875  0.9063  0.3784
 5831SOL    HW129126   1.860   3.308   7.735 -0.3828  1.1550  0.0763
 5831SOL    HW229127   1.789   3.273   7.602  0.8156 -0.8151 -2.1423
 5832SOL     OW29128   0.316   3.312   2.300 -0.6831 -0.5613 -0.2111
 5832SOL    HW129129   0.261   3.306   2.222 -2.4310  0.4001  0.9623
 5832SOL    HW229130   0.403   3.302   2.261 -0.5815 -0.5590  0.0166
 5833SOL     OW29131   2.164   4.035  11.390 -0.6746  0.0222  0.1106
 5833SOL    HW129132   2.252   3.997  11.399  0.4965  2.6677 -0.1929
 5833SOL    HW229133   2.184   4.126  11.368 -1.0372  0.4090  1.4207
 5834SOL     OW29134   1.054   2.641  14.548 -0.3741 -0.2650 -0.4224
 5834SOL    HW129135   1.000   2.692  14.487  0.5900  2.4744  1.0194
 5834SOL    HW229136   1.057   2.691  14.629  3.3727 -2.2346  0.6359
 5835SOL     OW29137   4.284   2.581   5.464  0.4418 -0.6197 -0.0347
 5835SOL    HW129138   4.222   2.515   5.434  0.7890 -0.8172 -0.3151
 5835SOL    HW229139   4.365   2.534   5.480  1.6031  1.4657  0.1964
 5836SOL     OW29140   3.212   0.233  13.299  0.1407  0.3628 -0.4640
 5836SOL    HW129141   3.234   0.229  13.206 -0.3714  0.1632 -0.5799
 5836SOL    HW229142   3.280   0.293  13.330 -0.7187  0.5707  1.0041
 5837SOL     OW29143   2.627   0.945  14.199  0.6784 -0.2764  0.1271
 5837SOL    HW129144   2.623   1.017  14.137  0.8379  1.4283  2.1041
 5837SOL    HW229145   2.547   0.956  14.250  0.4064  0.4034 -0.4430
 5838SOL     OW29146   4.054   2.045  15.268  0.5856  0.4791 -0.3274
 5838SOL    HW129147   4.083   2.044  15.359 -1.3179 -0.4778  0.2832
 5838SOL    HW229148   3.958   2.048  15.273  0.6463 -1.7343  2.1807
 5839SOL     OW29149   2.238   3.251  13.897 -0.1674  0.1874  0.4799
 5839SOL    HW129150   2.206   3.339  13.920  0.8061  0.1616  1.9299
 5839SOL    HW229151   2.166   3.207  13.942 -1.1848  1.1179 -0.2430
 5840SOL     OW29152   4.152   3.216   9.911 -0.1405  0.0424 -0.0383
 5840SOL    HW129153   4.095   3.286   9.878 -0.5625 -0.1596  0.2628
 5840SOL    HW229154   4.202   3.249   9.986 -3.0375 -0.3621  2.0836
 5841SOL     OW29155   2.179   1.570  10.442 -0.3986  1.0523  0.2095
 5841SOL    HW129156   2.119   1.496  10.435  1.9091 -0.9614  1.6588
 5841SOL    HW229157   2.123   1.630  10.491 -0.1567  0.1774  1.5392
 5842SOL     OW29158   2.412   4.290   6.278 -0.8393 -0.3317  0.4826
 5842SOL    HW129159   2.472   4.364   6.278  0.3262 -1.2872  2.7279
 5842SOL    HW229160   2.327   4.331   6.263 -1.1043 -1.3008 -0.7208
 5843SOL     OW29161   3.839   4.430   7.078 -0.0205 -0.2255  0.6853
 5843SOL    HW129162   3.757   4.382   7.082 -0.7217  1.0196  1.1659
 5843SOL    HW229163   3.814   4.500   7.018 -2.5260 -0.6921  1.1935
 5844SOL     OW29164   0.236   0.510   4.076  0.3345 -0.9176 -0.5302
 5844SOL    HW129165   0.207   0.567   4.147  1.2453  0.2037 -1.0452
 5844SOL    HW229166   0.201   0.555   4.000  1.4599  1.7130  0.4961
 5845SOL     OW29167   0.533   0.205   6.768 -0.2467 -0.3177 -0.1312
 5845SOL    HW129168   0.594   0.262   6.722  2.4837 -0.8990  2.6866
 5845SOL    HW229169   0.568   0.121   6.738 -0.7097 -1.0676  1.4191
 5846SOL     OW29170   1.190   3.166   7.303 -0.1092  0.4691 -0.3552
 5846SOL    HW129171   1.170   3.123   7.220  0.1333 -0.7369  0.1979
 5846SOL    HW229172   1.197   3.084   7.353  0.5183 -0.0216 -1.2383
 5847SOL     OW29173   2.043   3.067   8.415 -0.1496 -1.0654 -0.3066
 5847SOL    HW129174   2.060   3.121   8.338  0.5384 -0.2934  0.3844
 5847SOL    HW229175   1.948   3.076   8.416  0.0516  1.0153 -0.4829
 5848SOL     OW29176   1.459   3.580   6.626 -0.2135  0.1804 -0.0697
 5848SOL    HW129177   1.525   3.513   6.605 -2.5411 -1.5641 -1.8606
 5848SOL    HW229178   1.378   3.539   6.595 -1.0077  0.8634  1.1073
 5849SOL     OW29179   0.923   0.175  17.405 -0.4108 -0.7231  0.2887
 5849SOL    HW129180   0.922   0.116  17.330 -0.9693  0.4876 -0.6498
 5849SOL    HW229181   0.921   0.261  17.363 -0.4113 -0.2625  1.2307
 5850SOL     OW29182   2.206   1.566   6.101 -0.1098 -0.0801  0.8824
 5850SOL    HW129183   2.150   1.642   6.086 -0.8217 -0.7945 -0.0726
 5850SOL    HW229184   2.149   1.492   6.081 -1.2320  0.7024  1.2289
 5851SOL     OW29185   0.509   2.698  14.994  0.5227  0.0895  0.2213
 5851SOL    HW129186   0.577   2.728  15.053  0.1707 -0.1654  0.7637
 5851SOL    HW229187   0.549   2.614  14.972  0.4161  0.1497 -0.2147
 5852SOL     OW29188   2.195   1.295   0.747  0.2709 -0.1423 -0.2772
 5852SOL    HW129189   2.214   1.272   0.838 -1.3580  2.3492  0.6855
 5852SOL    HW229190   2.286   1.300   0.717  0.1659  1.3285 -0.3273
 5853SOL     OW29191   3.059   3.970   3.923  0.1581  0.1455  0.1338
 5853SOL    HW129192   3.013   3.887   3.933  1.3421 -0.5977 -0.5257
 5853SOL    HW229193   3.146   3.950   3.959 -0.6230  1.0703  2.5474
 5854SOL     OW29194   1.656   3.417  12.328 -0.0998 -0.1971  0.9533
 5854SOL    HW129195   1.587   3.362  12.363 -1.6126  1.1446  0.0696
 5854SOL    HW229196   1.650   3.408  12.233  1.0797 -0.7760  0.9326
 5855SOL     OW29197   4.136   3.520   6.959  0.1442 -0.0610 -0.2417
 5855SOL    HW129198   4.047   3.533   6.991  0.6997  2.1782  0.3625
 5855SOL    HW229199   4.130   3.562   6.873  0.8058 -0.4827 -0.4964
 5856SOL     OW29200   2.185   0.639  15.958  0.6092  0.1612 -0.1023
 5856SOL    HW129201   2.225   0.640  16.046 -1.3058  3.7667  0.7389
 5856SOL    HW229202   2.122   0.711  15.970  0.7654  0.1747  0.6585
 5857SOL     OW29203   3.242   0.458   1.883 -0.1266 -0.2052 -0.1423
 5857SOL    HW129204   3.278   0.372   1.863 -0.0061  0.0439 -1.0020
 5857SOL    HW229205   3.150   0.445   1.904 -0.3065  0.4033 -0.5561
 5858SOL     OW29206   1.440   3.376   4.473  0.2904  0.3749 -0.4627
 5858SOL    HW129207   1.381   3.307   4.504  1.7871 -0.5782  0.2599
 5858SOL    HW229208   1.515   3.320   4.456  0.4751  0.0685  1.2851
 5859SOL     OW29209   1.224   4.249   1.826  0.4391  0.3971  0.6216
 5859SOL    HW129210   1.266   4.324   1.785  1.3532 -1.0196 -1.0341
 5859SOL    HW229211   1.215   4.198   1.745  0.3168  0.1256  0.8053
 5860SOL     OW29212   3.697   3.585   4.619 -0.3510  1.0966  0.4617
 5860SOL    HW129213   3.617   3.628   4.588 -0.5843  1.1853  1.1777
 5860SOL    HW229214   3.712   3.520   4.551 -0.0444  0.1480  1.4279
 5861SOL     OW29215   1.340   2.707   2.042 -0.0617  0.1817 -0.5836
 5861SOL    HW129216   1.394   2.638   2.003 -1.1667 -1.0048  0.0048
 5861SOL    HW229217   1.260   2.655   2.039  0.9403 -1.4166  0.4400
 5862SOL     OW29218   2.566   2.152   2.491 -0.1287 -0.0338 -0.0296
 5862SOL    HW129219   2.504   2.079   2.482  0.3821 -0.4790  0.0724
 5862SOL    HW229220   2.556   2.153   2.586 -0.5875  0.8221 -0.0840
 5863SOL     OW29221   0.264   0.268   1.422 -0.1419 -0.1026 -0.0982
 5863SOL    HW129222   0.214   0.349   1.425 -1.2386 -0.6801 -2.4033
 5863SOL    HW229223   0.197   0.215   1.466 -0.7653  0.9256  0.1963
 5864SOL     OW29224   3.161   0.772  14.613  0.3891 -0.2595 -0.1528
 5864SOL    HW129225   3.201   0.821  14.685  0.0090  0.8462 -0.7017
 5864SOL    HW229226   3.201   0.685  14.622  2.5253  0.8343  0.8763
 5865SOL     OW29227   4.609   4.655   9.291  0.4265  0.1629 -0.3865
 5865SOL    HW129228   4.615   4.604   9.210 -1.4022  1.7759 -1.5387
 5865SOL    HW229229   4.558   4.599   9.350 -0.9743  0.0586 -1.7049
 5866SOL     OW29230   3.679   3.082   7.074 -0.1063 -0.5010 -0.0751
 5866SOL    HW129231   3.663   3.059   6.983 -0.6042  2.9091 -0.8475
 5866SOL    HW229232   3.657   2.996   7.108 -2.1815  0.0466 -0.0719
 5867SOL     OW29233   3.080   2.340   7.748  0.0738 -0.4085  0.1255
 5867SOL    HW129234   3.123   2.283   7.811  0.4869 -0.0499  0.1703
 5867SOL    HW229235   3.133   2.419   7.756  0.6687 -1.0137  2.1615
 5868SOL     OW29236   4.629   2.885   2.981  0.2622  0.0129 -0.0348
 5868SOL    HW129237   4.710   2.918   3.019 -0.3422  1.2870  0.1420
 5868SOL    HW229238   4.559   2.919   3.036  0.5365  1.1327 -0.3800
 5869SOL     OW29239   2.157   1.712   8.133 -0.4926  0.3464  0.4105
 5869SOL    HW129240   2.076   1.668   8.109 -0.9136  0.9531  0.7085
 5869SOL    HW229241   2.221   1.683   8.068 -0.0807  3.3717 -0.5254
 5870SOL     OW29242   2.316   0.018   6.000  0.2422  0.2949  0.0970
 5870SOL    HW129243   2.326   4.730   5.910  0.2547  1.5244 -0.3385
 5870SOL    HW229244   2.336   0.111   5.991 -0.3184  0.4850  0.7818
 5871SOL     OW29245   2.798   0.334   3.915 -0.0367  0.0664 -0.1885
 5871SOL    HW129246   2.718   0.282   3.913 -0.7699  1.2461 -1.1991
 5871SOL    HW229247   2.772   0.414   3.960 -0.5027 -1.1364  1.6737
 5872SOL     OW29248   1.035   0.598   8.818  0.3734  0.0237  0.2130
 5872SOL    HW129249   1.083   0.535   8.873  1.3287 -0.1271 -0.7949
 5872SOL    HW229250   1.023   0.553   8.734  1.4856 -0.2044  0.1654
 5873SOL     OW29251   1.614   0.199   3.778  0.0656  0.0720  0.1406
 5873SOL    HW129252   1.584   0.142   3.849 -0.8401 -1.0297 -1.1394
 5873SOL    HW229253   1.532   0.208   3.731  1.1297  0.2243 -1.6995
 5874SOL     OW29254   2.465   0.921   5.983  0.5407 -0.1186  0.5365
 5874SOL    HW129255   2.371   0.925   6.003  0.5248  0.0920  0.4174
 5874SOL    HW229256   2.505   0.850   6.034 -0.6147 -1.3242 -0.2478
 5875SOL     OW29257   1.437   0.066   5.779  0.4419 -0.3409 -0.1383
 5875SOL    HW129258   1.477   0.040   5.863  2.6483 -1.5964 -1.5859
 5875SOL    HW229259   1.398   0.151   5.797 -1.7294 -0.7586 -2.8737
 5876SOL     OW29260   4.501   3.839   2.221 -0.3908 -0.4770  0.1471
 5876SOL    HW129261   4.553   3.917   2.236  0.0511 -0.8555  0.5822
 5876SOL    HW229262   4.564   3.779   2.181  0.6680  1.1283 -0.5730
 5877SOL     OW29263   4.409   2.150   6.647  0.4910 -0.1186  0.1443
 5877SOL    HW129264   4.378   2.146   6.556  0.3418  2.3514  0.0767
 5877SOL    HW229265   4.388   2.059   6.669 -0.2322  0.0384  0.1091
 5878SOL     OW29266   2.520   4.696  15.006  0.3163  0.4179 -0.5848
 5878SOL    HW129267   2.445   4.727  14.956 -0.5273  0.5729  0.7864
 5878SOL    HW229268   2.501   4.728  15.094  4.3215  0.1282  0.3698
 5879SOL     OW29269   4.505   0.759   9.179  0.6962  0.2850 -0.3322
 5879SOL    HW129270   4.501   0.846   9.219  2.0909  1.3283 -2.4233
 5879SOL    HW229271   4.594   0.736   9.207  0.1673 -1.3738 -0.0503
 5880SOL     OW29272   1.128   1.777   6.595 -0.3173  0.3528  0.3582
 5880SOL    HW129273   1.194   1.835   6.635 -0.6674 -1.0531  2.9472
 5880SOL    HW229274   1.189   1.718   6.551 -0.8001  0.6400 -0.7009
 5881SOL     OW29275   0.968   1.101   7.391  0.3396  0.2613  0.0439
 5881SOL    HW129276   0.949   1.045   7.466  1.3843 -2.3173 -1.6081
 5881SOL    HW229277   1.023   1.039   7.342  1.6879 -0.9042  3.0533
 5882SOL     OW29278   1.635   2.409  15.508  0.6332  0.1446  0.2978
 5882SOL    HW129279   1.718   2.375  15.541  0.8893 -1.0051 -1.5519
 5882SOL    HW229280   1.577   2.351  15.556 -1.2094  1.0848 -0.7950
 5883SOL     OW29281   0.296   1.240  13.533  0.3695 -0.0230 -0.0404
 5883SOL    HW129282   0.261   1.307  13.476  1.7519  0.2216 -0.6138
 5883SOL    HW229283   0.384   1.274  13.551  1.7508 -3.3892 -0.2399
 5884SOL     OW29284   1.930   2.446   8.407 -0.1218  0.3630 -0.0717
 5884SOL    HW129285   1.920   2.351   8.409  0.9564  0.2182 -1.2654
 5884SOL    HW229286   1.978   2.453   8.489  0.5298  0.0087 -0.4242
 5885SOL     OW29287   3.510   1.905   8.554 -0.3775  0.8093 -0.2854
 5885SOL    HW129288   3.574   1.887   8.622 -1.3591 -2.5587 -0.2758
 5885SOL    HW229289   3.555   1.871   8.477 -0.0058  0.0412  0.2826
 5886SOL     OW29290   3.519   0.900   4.501 -0.1122  0.1384 -0.0376
 5886SOL    HW129291   3.452   0.881   4.566  1.5253  1.4509  2.0533
 5886SOL    HW229292   3.500   0.847   4.424  1.1704  1.3398 -1.1738
 5887SOL     OW29293   3.177   1.673   5.382 -0.3297  0.2599  0.3021
 5887SOL    HW129294   3.169   1.705   5.293 -2.1255 -0.1693  0.3079
 5887SOL    HW229295   3.268   1.646   5.395  0.2742  1.4317 -1.4388
 5888SOL     OW29296   1.295   1.946   3.054  0.6651 -0.0987  0.0620
 5888SOL    HW129297   1.298   1.863   3.103 -2.8554  0.2126  0.8505
 5888SOL    HW229298   1.265   1.921   2.967  1.1095 -1.2571  0.2346
 5889SOL     OW29299   4.414   0.224   4.212  0.4480 -0.3695 -0.9185
 5889SOL    HW129300   4.436   0.289   4.145  1.6543 -1.3901 -1.5386
 5889SOL    HW229301   4.493   0.172   4.192  1.1931 -0.1362  1.4462
 5890SOL     OW29302   0.799   2.613   5.793 -0.7624 -0.0542 -0.2941
 5890SOL    HW129303   0.846   2.683   5.838 -3.0308 -0.8175  3.2487
 5890SOL    HW229304   0.733   2.591   5.859  1.6338 -1.9174  1.4686
 5891SOL     OW29305   2.408   2.167   4.192  0.5601 -0.1825 -0.1038
 5891SOL    HW129306   2.471   2.204   4.254  1.9293 -0.1616 -1.5007
 5891SOL    HW229307   2.349   2.242   4.186  0.0343 -0.3219  3.4159
 5892SOL     OW29308   1.132   0.231   8.319  0.0703 -0.0726  0.8187
 5892SOL    HW129309   1.049   0.183   8.309  0.4381 -0.1979 -1.7124
 5892SOL    HW229310   1.101   0.301   8.376  0.3856  2.1198 -1.7501
 5893SOL     OW29311   1.602   1.712   5.284 -0.3955 -0.0328  0.6893
 5893SOL    HW129312   1.658   1.726   5.360  1.3679  0.5021 -0.7067
 5893SOL    HW229313   1.592   1.618   5.299  0.9698  0.1997  3.0579
 5894SOL     OW29314   3.463   2.394   5.523  0.7194 -0.8534 -0.1486
 5894SOL    HW129315   3.372   2.420   5.507  0.8832 -0.0891  0.1426
 5894SOL    HW229316   3.504   2.477   5.548 -0.8231 -0.5310  1.3361
 5895SOL     OW29317   4.113   0.204   3.646 -0.3136  0.0193  0.0067
 5895SOL    HW129318   4.036   0.202   3.589  0.3979  0.4973 -0.9845
 5895SOL    HW229319   4.063   0.201   3.727  3.3281  0.8819  2.2974
 5896SOL     OW29320   1.566   0.602   9.403  0.0446  0.1124 -0.3735
 5896SOL    HW129321   1.495   0.657   9.437  1.4787  0.0052  2.8128
 5896SOL    HW229322   1.547   0.522   9.453  1.0411 -1.4357 -2.4930
 5897SOL     OW29323   3.483   2.669   5.088 -0.5927 -0.7133  0.0867
 5897SOL    HW129324   3.518   2.584   5.061  0.4592 -0.2292 -0.0555
 5897SOL    HW229325   3.392   2.644   5.106 -0.3222 -1.3307  0.6125
 5898SOL     OW29326   4.501   4.618   8.306  0.2991 -0.2008  0.6904
 5898SOL    HW129327   4.549   4.582   8.380  0.3214  1.7754  1.6529
 5898SOL    HW229328   4.528   4.710   8.303 -0.7697  0.0941  0.1192
 5899SOL     OW29329   3.032   4.303   5.744 -0.2089  0.1747  0.0935
 5899SOL    HW129330   2.951   4.296   5.795 -0.2172 -0.9194 -0.0753
 5899SOL    HW229331   3.013   4.290   5.651  1.5583  0.9611 -0.3670
 5900SOL     OW29332   2.719   2.244   4.908  0.4478 -0.4772 -0.0833
 5900SOL    HW129333   2.718   2.153   4.940 -2.0637 -0.0271  1.1244
 5900SOL    HW229334   2.708   2.226   4.815  0.2275  1.8098 -0.4900
 5901SOL     OW29335   1.625   2.012   9.777  0.6521 -0.0559 -0.1621
 5901SOL    HW129336   1.530   2.009   9.781  0.6645  1.4855  1.2807
 5901SOL    HW229337   1.635   1.990   9.685 -1.7028  0.1609 -0.4457
 5902SOL     OW29338   1.300   2.557   8.145  0.1496 -0.0695 -0.2058
 5902SOL    HW129339   1.297   2.489   8.212 -0.1894  0.6869  0.5428
 5902SOL    HW229340   1.208   2.569   8.119 -1.3758  1.0923  5.8062
 5903SOL     OW29341   1.283   2.852  10.434  0.5370 -0.0711 -0.3480
 5903SOL    HW129342   1.238   2.934  10.411  1.2331  0.4330  0.1043
 5903SOL    HW229343   1.371   2.876  10.406 -0.1900  2.3505 -0.5780
 5904SOL     OW29344   3.442   4.510  10.953  0.0583 -0.5450 -0.6481
 5904SOL    HW129345   3.525   4.557  10.950  0.4641 -1.1111  1.3222
 5904SOL    HW229346   3.444   4.456  11.032 -2.6151  0.4908  0.1192
 5905SOL     OW29347   3.845   4.593   5.418 -0.6173  0.1878 -0.5195
 5905SOL    HW129348   3.794   4.513   5.422  0.3421 -0.0981  5.3192
 5905SOL    HW229349   3.885   4.596   5.504  1.1628  0.8612 -1.3663
 5906SOL     OW29350   1.870   0.859   4.121 -0.4321  0.1569 -0.3618
 5906SOL    HW129351   1.946   0.824   4.076  0.7818 -1.3126  2.8193
 5906SOL    HW229352   1.807   0.786   4.117  1.0454 -1.1969  0.7529
 5907SOL     OW29353   2.798   3.713   3.397  0.4084  0.2458  0.1104
 5907SOL    HW129354   2.863   3.649   3.425  1.1420  0.8591 -0.1726
 5907SOL    HW229355   2.712   3.672   3.401  1.1456 -1.0086  2.8243
 5908SOL     OW29356   2.268   4.597   1.057  0.6970  0.3019  0.0477
 5908SOL    HW129357   2.363   4.592   1.060  0.6380 -0.7300  0.2400
 5908SOL    HW229358   2.246   4.518   1.107  2.1381 -0.3248 -0.3274
 5909SOL     OW29359   2.580   1.716   3.297  0.3489 -0.4339 -0.1897
 5909SOL    HW129360   2.676   1.713   3.304  0.3758 -1.0711 -0.8516
 5909SOL    HW229361   2.573   1.746   3.207 -0.6001  0.8632  0.3354
 5910SOL     OW29362   1.025   0.923   6.242 -0.2778  0.9590 -0.2304
 5910SOL    HW129363   0.964   0.864   6.197  1.4128 -1.1886  0.2752
 5910SOL    HW229364   1.077   0.850   6.276 -1.0241  0.9559  0.8964
 5911SOL     OW29365   2.034   0.542  10.484  0.1938  0.1161  0.1695
 5911SOL    HW129366   1.950   0.504  10.508  0.8437 -1.9005 -0.7118
 5911SOL    HW229367   2.003   0.620  10.438 -1.8495  0.3850  2.0228
 5912SOL     OW29368   1.697   4.033  12.738 -0.6846 -0.1508 -0.0034
 5912SOL    HW129369   1.705   4.021  12.644 -1.7543  1.0952 -0.2604
 5912SOL    HW229370   1.686   4.128  12.742  0.6722 -0.0951  2.7736
 5913SOL     OW29371   4.442   0.288   8.412  0.2812 -0.4325 -0.6358
 5913SOL    HW129372   4.463   0.215   8.471 -0.6523 -0.8287 -0.7903
 5913SOL    HW229373   4.348   0.275   8.403  0.0733 -0.8910  2.2139
 5914SOL     OW29374   3.894   3.404  16.173  0.0500 -0.9326 -0.1878
 5914SOL    HW129375   3.826   3.412  16.240 -0.5057 -0.2308 -0.8377
 5914SOL    HW229376   3.962   3.455  16.219 -0.0435 -0.3778 -0.6658
 5915SOL     OW29377   2.441   2.708   3.083  0.5073 -0.6135 -0.7081
 5915SOL    HW129378   2.369   2.676   3.137  2.3623 -1.5162  1.2350
 5915SOL    HW229379   2.519   2.695   3.137 -0.5269 -0.4195  0.8238
 5916SOL     OW29380   1.836   2.256   3.020 -0.3095  0.0791  0.4798
 5916SOL    HW129381   1.874   2.335   3.058  0.6204 -0.5288  0.8412
 5916SOL    HW229382   1.758   2.242   3.073 -1.2641  1.2118 -0.6217
 5917SOL     OW29383   3.145   1.695   6.791  0.1329 -0.2098  0.1825
 5917SOL    HW129384   3.120   1.605   6.812 -1.3239  0.6150  2.0570
 5917SOL    HW229385   3.168   1.730   6.877 -1.6653 -0.3236  0.7017
 5918SOL     OW29386   3.132   0.019  10.688 -0.1218  0.1205 -0.0165
 5918SOL    HW129387   3.170   0.023  10.776  1.1723 -0.6197 -0.5610
 5918SOL    HW229388   3.214   0.004  10.642  0.1553  1.3261  0.0635
 5919SOL     OW29389   2.117   2.520   2.880  0.0833 -0.4183  0.1778
 5919SOL    HW129390   2.109   2.498   2.973  1.3904 -2.3355 -0.1679
 5919SOL    HW229391   2.116   2.616   2.888  1.3188 -0.5171  1.3941
 5920SOL     OW29392   0.224   2.987   5.019 -0.5105 -0.0731  0.4638
 5920SOL    HW129393   0.280   2.914   5.045 -0.1352  0.1481  0.2946
 5920SOL    HW229394   0.292   3.054   5.011 -0.2047 -0.6455 -1.7602
 5921SOL     OW29395   0.346   3.627   5.821  0.2551 -0.2811 -0.7586
 5921SOL    HW129396   0.365   3.590   5.735 -1.5182 -0.6267 -0.9925
 5921SOL    HW229397   0.431   3.607   5.862 -1.4365 -0.4154  2.6991
 5922SOL     OW29398   3.903   0.478  16.367  0.6316 -0.1006 -0.2921
 5922SOL    HW129399   3.955   0.554  16.338 -1.5243  0.6368 -2.1891
 5922SOL    HW229400   3.954   0.467  16.448  0.5841 -0.3481 -0.2954
 5923SOL     OW29401   1.930   0.699   5.889 -0.0430 -0.3461  0.1294
 5923SOL    HW129402   1.887   0.762   5.831  0.8894 -0.1872 -0.3747
 5923SOL    HW229403   1.907   0.727   5.978  1.3292  2.9693 -0.5712
 5924SOL     OW29404   3.696   3.993   5.129  0.7282 -0.6673  0.1054
 5924SOL    HW129405   3.771   4.049   5.152 -0.1218  0.8891 -0.9022
 5924SOL    HW229406   3.715   3.985   5.035  0.2008  0.4520 -0.0960
 5925SOL     OW29407   3.036   0.943   6.981 -0.0715 -0.3738 -0.3971
 5925SOL    HW129408   3.037   0.870   7.043  0.0238 -1.2133 -1.3991
 5925SOL    HW229409   3.062   0.898   6.901  0.1581 -1.4502  0.2830
 5926SOL     OW29410   2.720   0.441   5.432 -0.6374  0.1184 -0.0100
 5926SOL    HW129411   2.674   0.400   5.359  1.3914 -1.4918 -0.3880
 5926SOL    HW229412   2.757   0.513   5.380 -0.5664  0.5045  0.5747
 5927SOL     OW29413   0.680   2.354  13.054  0.1144 -0.6307  0.3817
 5927SOL    HW129414   0.587   2.332  13.063  0.4784 -0.6432  4.1507
 5927SOL    HW229415   0.722   2.311  13.128  1.0761 -1.0563 -0.4164
 5928SOL     OW29416   1.528   2.962   0.652 -0.4890 -0.3746  0.5193
 5928SOL    HW129417   1.442   2.920   0.648 -0.1900 -0.7320 -2.3296
 5928SOL    HW229418   1.517   3.031   0.587  0.9898  1.8104  2.5979
 5929SOL     OW29419   3.440   3.105   8.772  0.0705  0.5151  0.2916
 5929SOL    HW129420   3.485   3.023   8.755  0.9851  1.1172 -0.2207
 5929SOL    HW229421   3.373   3.106   8.705 -1.4355 -0.4837  1.7888
 5930SOL     OW29422   4.430   4.283   4.605  0.2512 -0.5428 -0.0263
 5930SOL    HW129423   4.446   4.369   4.645 -1.5028 -0.9332  1.4888
 5930SOL    HW229424   4.443   4.221   4.676 -2.7704 -0.3418  0.7212
 5931SOL     OW29425   2.350   0.243   8.763 -0.5982 -0.0276  0.8856
 5931SOL    HW129426   2.308   0.220   8.681 -3.2124  2.3906  1.5468
 5931SOL    HW229427   2.417   0.175   8.769  0.2686  0.6067 -1.8751
 5932SOL     OW29428   1.964   0.242  14.937 -0.3724 -0.2911  0.1763
 5932SOL    HW129429   2.058   0.247  14.949 -0.6341  1.0914  1.6264
 5932SOL    HW229430   1.943   0.333  14.915 -0.0552  0.0750  1.3657
 5933SOL     OW29431   2.501   2.363  12.080  0.2880 -0.5322  0.1988
 5933SOL    HW129432   2.479   2.456  12.077  1.7933 -0.0898  2.6963
 5933SOL    HW229433   2.536   2.344  11.993  0.7113  0.8309  0.0564
 5934SOL     OW29434   1.378   0.609   2.440  0.3164 -0.1371 -0.5729
 5934SOL    HW129435   1.401   0.596   2.532 -0.4007 -0.4425 -0.4373
 5934SOL    HW229436   1.301   0.552   2.437 -0.8286  1.3182  1.3665
 5935SOL     OW29437   2.123   1.210   1.323  0.1291 -0.5005 -0.7796
 5935SOL    HW129438   2.173   1.290   1.303 -1.0750  0.7868  1.3328
 5935SOL    HW229439   2.157   1.182   1.408  0.0889 -0.0780 -0.6262
 5936SOL     OW29440   1.180   1.898   4.139 -0.2934 -0.2175 -0.2106
 5936SOL    HW129441   1.236   1.847   4.081  0.1620  1.5104 -1.2785
 5936SOL    HW229442   1.147   1.971   4.086  3.1575  1.2293 -0.3263
 5937SOL     OW29443   0.346   3.921  10.526  0.0967 -0.3550  0.5716
 5937SOL    HW129444   0.398   3.841  10.518  1.5232  0.6919 -0.5062
 5937SOL    HW229445   0.264   3.892  10.486 -1.3556  2.2284  1.6874
 5938SOL     OW29446   1.378   1.352   4.353  0.2190  0.4616  0.0221
 5938SOL    HW129447   1.417   1.437   4.376  2.5179 -1.3256  2.7140
 5938SOL    HW229448   1.394   1.306   4.435 -1.4204  1.1333  0.7178
 5939SOL     OW29449   4.172   0.423  11.904 -0.2983 -0.0490 -0.0565
 5939SOL    HW129450   4.171   0.437  11.810  0.6589 -2.0719 -0.3711
 5939SOL    HW229451   4.119   0.344  11.918  1.6649 -1.1893  0.9633
 5940SOL     OW29452   1.039   1.279   2.023  0.1801 -1.0000  0.3247
 5940SOL    HW129453   1.083   1.276   2.108  0.1832 -0.7104  0.3337
 5940SOL    HW229454   0.988   1.199   2.036 -1.9059  0.3231  0.2402
 5941SOL     OW29455   1.196   4.472   3.257 -0.2750  0.2825 -0.1992
 5941SOL    HW129456   1.197   4.448   3.164  0.8344  0.0492 -0.1265
 5941SOL    HW229457   1.208   4.565   3.243  1.6489  0.2918  1.5829
 5942SOL     OW29458   2.701   4.302   9.792  0.4236  0.7123 -0.6023
 5942SOL    HW129459   2.668   4.295   9.881 -0.8114 -1.2766 -1.2133
 5942SOL    HW229460   2.795   4.283   9.798 -0.1163 -1.8330 -0.1497
 5943SOL     OW29461   2.868   4.090  14.533  0.2459  0.1116  0.1431
 5943SOL    HW129462   2.850   4.169  14.585  0.1037 -2.2306  3.7006
 5943SOL    HW229463   2.785   4.076  14.489  0.6574  2.3701 -1.3713
 5944SOL     OW29464   4.740   0.209   6.959 -0.6715 -0.2471  0.2721
 5944SOL    HW129465   0.077   0.163   6.984 -0.1603  1.2318  1.3333
 5944SOL    HW229466   4.672   0.153   6.994 -1.1828 -0.3497 -0.8903
 5945SOL     OW29467   0.099   1.494   8.450  0.3032  0.2245  0.1620
 5945SOL    HW129468   0.158   1.429   8.412 -3.9644 -2.7706 -1.3766
 5945SOL    HW229469   0.033   1.502   8.380  2.4258  1.2819 -1.7440
 5946SOL     OW29470   3.544   1.217  16.646  0.3839  0.9156  0.5119
 5946SOL    HW129471   3.494   1.152  16.597  2.8300  1.0896 -2.2639
 5946SOL    HW229472   3.531   1.297  16.594  0.7744 -0.5044 -1.7994
 5947SOL     OW29473   2.491   4.232   8.693 -0.1476 -0.4664  0.8426
 5947SOL    HW129474   2.429   4.160   8.703 -0.2972 -0.5610 -0.8034
 5947SOL    HW229475   2.448   4.282   8.624  0.7714 -1.8249 -0.7295
 5948SOL     OW29476   0.578   2.206   3.555  0.2059 -0.3720  0.2090
 5948SOL    HW129477   0.590   2.150   3.631 -1.4713  0.9670  1.4520
 5948SOL    HW229478   0.551   2.141   3.490 -0.5585 -0.8247  0.9903
 5949SOL     OW29479   1.415   1.755   1.715 -0.3343 -0.0660 -0.0832
 5949SOL    HW129480   1.371   1.760   1.800 -0.0562 -1.6381  0.1585
 5949SOL    HW229481   1.420   1.847   1.691 -0.7801 -0.2358 -0.8236
 5950SOL     OW29482   0.888   3.273   4.910  0.1825 -0.3357 -0.7207
 5950SOL    HW129483   0.843   3.189   4.923  0.5472 -0.2860  0.8653
 5950SOL    HW229484   0.844   3.316   4.837  0.5235  0.1377 -0.6429
 5951SOL     OW29485   3.025   2.616   6.522 -0.2219  0.0730 -0.0211
 5951SOL    HW129486   3.043   2.661   6.604  1.8174 -0.7544 -0.0262
 5951SOL    HW229487   3.110   2.597   6.483 -0.5939  1.4784 -1.5488
 5952SOL     OW29488   4.215   2.975   1.243  0.9927 -0.1036 -0.4872
 5952SOL    HW129489   4.299   2.931   1.246  0.3413 -1.3151 -0.0345
 5952SOL    HW229490   4.150   2.918   1.201 -0.1429  0.3816  0.5845
 5953SOL     OW29491   1.364   4.354   1.153  0.1653 -0.1508 -0.0327
 5953SOL    HW129492   1.331   4.401   1.076  0.7303 -1.1912 -0.9108
 5953SOL    HW229493   1.348   4.264   1.125 -0.8328  0.1882 -0.5644
 5954SOL     OW29494   2.558   2.054   3.728  0.0092  0.7498  0.2508
 5954SOL    HW129495   2.561   1.964   3.696 -1.0343 -0.2188  2.9214
 5954SOL    HW229496   2.647   2.072   3.759  0.9868 -0.1057 -2.0797
 5955SOL     OW29497   2.462   2.305   3.510 -0.0482 -0.3175  0.8092
 5955SOL    HW129498   2.542   2.294   3.561  1.0244  1.7472 -0.4331
 5955SOL    HW229499   2.397   2.278   3.575 -1.2165  1.1000  0.2424
 5956SOL     OW29500   3.533   2.560   6.266 -0.1646 -0.7090  0.2470
 5956SOL    HW129501   3.530   2.642   6.317 -0.4425  0.4220 -1.6092
 5956SOL    HW229502   3.562   2.592   6.181 -1.7148  1.3342  0.4868
 5957SOL     OW29503   4.574   3.475   3.069  0.3979  0.1615  0.0261
 5957SOL    HW129504   4.608   3.396   3.028  0.9504  0.9173 -0.9802
 5957SOL    HW229505   4.583   3.473   3.165 -2.1367  1.4068  0.2967
 5958SOL     OW29506   2.872   2.954   4.921  0.4739 -0.2731  0.3579
 5958SOL    HW129507   2.823   2.886   4.968  2.4768 -1.3964  0.8415
 5958SOL    HW229508   2.961   2.924   4.937  0.9282  1.1292  0.4767
 5959SOL     OW29509   2.173   1.733   0.661  0.4508  0.5158  0.0825
 5959SOL    HW129510   2.178   1.796   0.589  1.3625  0.9765  0.5448
 5959SOL    HW229511   2.159   1.806   0.723  2.1160  2.0774 -1.3952
 5960SOL     OW29512   4.416   3.713   1.598 -0.0220 -0.2999  0.0265
 5960SOL    HW129513   4.489   3.656   1.622 -0.6419 -1.7381 -1.4435
 5960SOL    HW229514   4.452   3.781   1.540 -1.7191  0.4157 -0.1880
 5961SOL     OW29515   4.583   2.613   7.865 -0.3124  0.1346  0.4845
 5961SOL    HW129516   4.588   2.643   7.774 -1.8664 -1.5050 -0.1454
 5961SOL    HW229517   4.492   2.585   7.863 -0.5630  1.0337 -0.5571
 5962SOL     OW29518   3.388   4.399  10.721 -0.2834  0.5600 -0.2270
 5962SOL    HW129519   3.388   4.493  10.704 -2.1804  0.1673 -2.3080
 5962SOL    HW229520   3.373   4.396  10.816 -0.5865 -0.0580 -0.2947
 5963SOL     OW29521   3.412   1.179   4.906  0.1733 -0.2054 -0.5477
 5963SOL    HW129522   3.350   1.233   4.858  0.1514  1.9657  1.9354
 5963SOL    HW229523   3.437   1.133   4.826 -1.6778 -1.1493 -0.6019
 5964SOL     OW29524   3.876   3.269   3.619 -0.2251  0.7461  0.1241
 5964SOL    HW129525   3.877   3.173   3.615  0.0087  0.7463  0.1446
 5964SOL    HW229526   3.952   3.296   3.671  0.6380 -1.7198  0.1778
 5965SOL     OW29527   4.181   3.398   6.611 -0.0593 -0.2228  0.1005
 5965SOL    HW129528   4.187   3.492   6.631  1.5053 -0.1187 -0.8600
 5965SOL    HW229529   4.088   3.390   6.593 -0.3171  1.3974  0.7284
 5966SOL     OW29530   2.008   0.859   9.152  0.3267  0.0427 -0.3241
 5966SOL    HW129531   2.042   0.925   9.213 -0.3751  0.0641  0.0344
 5966SOL    HW229532   2.067   0.879   9.079 -0.4152  1.2416 -0.5809
 5967SOL     OW29533   2.409   2.756  15.339 -0.6074 -0.6014  0.0860
 5967SOL    HW129534   2.361   2.810  15.276 -0.7679  0.9616  1.5356
 5967SOL    HW229535   2.397   2.667  15.307  0.1030  0.4400 -3.0502
 5968SOL     OW29536   4.697   1.921   9.049 -0.4924 -0.1939  0.0239
 5968SOL    HW129537   0.025   1.941   8.989  0.2497 -0.7402  0.7210
 5968SOL    HW229538   4.706   1.989   9.115 -2.8195 -0.2431  0.3765
 5969SOL     OW29539   3.424   3.454   7.412  0.6933  0.3362 -0.0878
 5969SOL    HW129540   3.393   3.375   7.455  3.0258 -0.8289 -0.6134
 5969SOL    HW229541   3.446   3.512   7.485 -0.5432  2.0356 -1.0398
 5970SOL     OW29542   1.902   0.880   7.758 -0.6249  0.8608  0.3408
 5970SOL    HW129543   1.996   0.882   7.742 -0.9206  0.4679 -1.4258
 5970SOL    HW229544   1.870   0.957   7.711 -1.3592  0.1007 -0.3942
 5971SOL     OW29545   3.364   3.687   7.882  0.5239  0.0110 -0.1513
 5971SOL    HW129546   3.292   3.738   7.919  1.5014  0.2780  1.3718
 5971SOL    HW229547   3.377   3.613   7.941 -0.5749 -1.1084 -1.3325
 5972SOL     OW29548   1.004   2.802   4.141 -0.1034  0.0075 -0.2953
 5972SOL    HW129549   1.090   2.827   4.175 -1.2881  2.4080  0.9976
 5972SOL    HW229550   1.031   2.726   4.090 -0.4355 -0.0054 -0.4530
 5973SOL     OW29551   4.422   0.695   3.532  0.2161  0.3454  0.1190
 5973SOL    HW129552   4.459   0.664   3.450  0.1469  1.4413 -0.3264
 5973SOL    HW229553   4.338   0.724   3.496  0.5687  0.9981 -0.1682
 5974SOL     OW29554   1.980   2.293   6.874  0.6353  0.4804  0.3306
 5974SOL    HW129555   1.934   2.244   6.806 -0.5813  0.5781  1.0862
 5974SOL    HW229556   1.903   2.343   6.900  0.4605  0.8243 -0.8220
 5975SOL     OW29557   3.241   4.321   2.656  0.3193 -0.4366  0.0376
 5975SOL    HW129558   3.159   4.289   2.619 -0.2167 -0.1098  0.9530
 5975SOL    HW229559   3.225   4.415   2.658 -1.6621 -0.7964  0.8082
 5976SOL     OW29560   0.052   2.946   8.253 -0.3883  0.0433 -0.3492
 5976SOL    HW129561   0.125   2.956   8.192  1.3455  0.2582  1.7220
 5976SOL    HW229562   0.087   2.869   8.299  1.9358  2.1505  1.4431
 5977SOL     OW29563   0.671   2.934  10.478  0.5493 -0.3548 -0.0609
 5977SOL    HW129564   0.737   3.000  10.457  0.4730 -0.1858  0.2360
 5977SOL    HW229565   0.708   2.860  10.429  0.9478 -0.3949  0.2972
 5978SOL     OW29566   0.742   1.277   6.765  0.1436 -0.1283  0.7334
 5978SOL    HW129567   0.683   1.233   6.827  0.7598  0.5566  1.8007
 5978SOL    HW229568   0.744   1.368   6.796  0.5256  0.1133  0.0034
 5979SOL     OW29569   3.303   1.526   1.394  0.5165  0.3975  0.3215
 5979SOL    HW129570   3.326   1.616   1.418 -1.0340  1.4864 -2.3220
 5979SOL    HW229571   3.389   1.489   1.372  0.0155 -1.6376  1.7923
 5980SOL     OW29572   0.908   2.537   5.211 -0.0128  0.3119  0.1246
 5980SOL    HW129573   0.866   2.607   5.161 -1.5790 -1.0483 -0.4545
 5980SOL    HW229574   0.852   2.469   5.172 -0.1042 -0.9288  2.4138
 5981SOL     OW29575   1.691   4.598   7.912  0.3891  0.1368 -0.0876
 5981SOL    HW129576   1.688   4.508   7.944  1.5189  0.0562 -0.2158
 5981SOL    HW229577   1.646   4.640   7.985  0.4253 -0.1242  0.0834
 5982SOL     OW29578   2.601   0.544  15.582 -0.3671  0.0360  0.0444
 5982SOL    HW129579   2.603   0.465  15.528 -3.4676 -0.5376  0.7698
 5982SOL    HW229580   2.543   0.505  15.647 -0.8448 -1.2146 -1.1393
 5983SOL     OW29581   3.338   2.416   7.129  0.5791 -0.4270 -0.4150
 5983SOL    HW129582   3.329   2.508   7.153 -1.2748 -0.6264 -0.3149
 5983SOL    HW229583   3.421   2.385   7.166  2.2935  1.9586 -2.2835
 5984SOL     OW29584   4.421   3.181   9.860 -0.4462 -0.3495 -0.4320
 5984SOL    HW129585   4.452   3.233   9.786  0.4721  0.0813  0.2657
 5984SOL    HW229586   4.328   3.166   9.843 -0.9250  1.4310  0.6797
 5985SOL     OW29587   4.535   4.572   7.597 -0.6785 -0.4982  0.3358
 5985SOL    HW129588   4.459   4.630   7.592 -0.2638 -0.1329 -1.6234
 5985SOL    HW229589   4.589   4.613   7.530  0.1617  1.6469  2.3247
 5986SOL     OW29590   3.301   1.014   8.317  0.0385  0.2307 -0.1257
 5986SOL    HW129591   3.373   0.950   8.317  0.2078  0.4337  2.1186
 5986SOL    HW229592   3.222   0.960   8.325  1.6693 -2.1310  0.1802
 5987SOL     OW29593   2.607   1.079   1.583  0.4465 -0.0879  0.6462
 5987SOL    HW129594   2.632   1.098   1.673  1.8130 -0.1901  0.2828
 5987SOL    HW229595   2.546   1.149   1.557  0.0887 -1.1031 -1.2747
 5988SOL     OW29596   2.046   3.277  15.512  0.5095 -0.0785  0.0883
 5988SOL    HW129597   2.002   3.329  15.580 -1.7326 -2.4996  0.4935
 5988SOL    HW229598   2.134   3.267  15.549  1.6584  0.5177 -2.4685
 5989SOL     OW29599   3.436   1.410   3.883  0.3554 -0.1279 -0.3067
 5989SOL    HW129600   3.517   1.415   3.935 -0.8317 -0.8102  1.5915
 5989SOL    HW229601   3.459   1.333   3.830  1.3992 -0.5189  0.6819
 5990SOL     OW29602   3.567   0.623  14.338  0.5595  0.3346 -1.0033
 5990SOL    HW129603   3.523   0.572  14.270  1.5415  0.8423 -2.0397
 5990SOL    HW229604   3.648   0.583  14.368 -0.2875  0.2757  1.1637
 5991SOL     OW29605   2.019   0.319   4.176 -0.1452  0.4561  0.5371
 5991SOL    HW129606   1.926   0.340   4.168 -0.5340 -0.7097  1.9135
 5991SOL    HW229607   2.013   0.237   4.127  0.4237  1.4054 -1.1381
 5992SOL     OW29608   1.042   4.165  11.077  0.1680 -0.1937  0.2488
 5992SOL    HW129609   0.996   4.208  11.149  4.1938  0.3883  2.5143
 5992SOL    HW229610   1.036   4.079  11.119 -1.0171  0.5795  1.6645
 5993SOL     OW29611   2.285   3.425  16.241 -0.0112 -0.2231 -0.5695
 5993SOL    HW129612   2.340   3.469  16.177  2.1007  1.5917  2.4997
 5993SOL    HW229613   2.310   3.458  16.328  0.6548 -1.4429 -0.3046
 5994SOL     OW29614   0.254   2.029   4.894  0.0918  0.6170  0.5634
 5994SOL    HW129615   0.267   2.053   4.986  1.8986  0.2980  0.3955
 5994SOL    HW229616   0.341   1.994   4.873 -0.5956 -1.2381  0.7524
 5995SOL     OW29617   4.445   3.365   1.545  0.3417 -0.5425 -0.2610
 5995SOL    HW129618   4.445   3.269   1.545 -0.0974 -0.5373  1.4828
 5995SOL    HW229619   4.352   3.385   1.536  0.3528 -1.6800 -3.0938
 5996SOL     OW29620   0.738   4.512   1.531 -0.0508  0.1930 -0.8862
 5996SOL    HW129621   0.819   4.501   1.482  0.6560 -0.3983  0.4107
 5996SOL    HW229622   0.759   4.587   1.587 -1.6916 -1.3795  1.8465
 5997SOL     OW29623   0.862   1.046   2.027  0.3423  0.4990  0.0693
 5997SOL    HW129624   0.806   1.043   2.105 -1.9561 -1.4334 -1.6674
 5997SOL    HW229625   0.902   0.961   2.043  0.9022  0.6191 -0.6916
 5998SOL     OW29626   1.728   3.784   3.408 -0.0100  0.1636 -0.6372
 5998SOL    HW129627   1.703   3.816   3.494 -0.6104  0.7589 -1.0277
 5998SOL    HW229628   1.646   3.741   3.383  2.7129 -3.5409 -3.2721
 5999SOL     OW29629   3.700   0.309  11.829  0.1490 -0.5359 -0.2766
 5999SOL    HW129630   3.718   0.387  11.881 -0.4886  0.5422 -1.6595
 5999SOL    HW229631   3.778   0.259  11.854  1.3127  1.9945  1.1122
 6000SOL     OW29632   3.270   2.472  16.485  0.2517  0.0125  0.0607
 6000SOL    HW129633   3.224   2.538  16.433 -0.9904  0.4107  1.6530
 6000SOL    HW229634   3.317   2.525  16.549  2.4378  0.7078 -2.0988
 6001SOL     OW29635   2.397   1.202   6.131 -0.4160  0.2032 -0.5815
 6001SOL    HW129636   2.434   1.217   6.218  0.8766  3.4785 -1.6795
 6001SOL    HW229637   2.343   1.124   6.143  0.9385 -1.0676 -2.7054
 6002SOL     OW29638   2.514   4.168   6.581 -0.2343  0.1679  0.3952
 6002SOL    HW129639   2.540   4.133   6.496  0.5958 -0.6226  0.9712
 6002SOL    HW229640   2.473   4.250   6.554 -2.8274 -0.7759  1.4721
 6003SOL     OW29641   1.238   3.403   5.065  0.7666  0.1073  0.4079
 6003SOL    HW129642   1.185   3.328   5.092  0.5293 -0.3353 -1.2748
 6003SOL    HW229643   1.252   3.389   4.971 -1.1628 -0.2906  0.1815
 6004SOL     OW29644   3.478   1.660   7.254 -0.4828 -0.0494 -0.2707
 6004SOL    HW129645   3.421   1.676   7.329 -1.2062  3.1835 -1.5245
 6004SOL    HW229646   3.565   1.657   7.294 -0.5039 -3.4669 -0.4394
 6005SOL     OW29647   3.035   1.502  10.510 -0.3163 -1.1180 -0.4871
 6005SOL    HW129648   3.035   1.408  10.528 -1.0126 -0.8781  0.7645
 6005SOL    HW229649   2.940   1.515  10.503 -0.2942 -0.0196  1.3674
 6006SOL     OW29650   4.361   0.240  16.031  0.1903 -0.6674 -0.3838
 6006SOL    HW129651   4.306   0.210  15.959 -0.0945  0.1055 -0.4887
 6006SOL    HW229652   4.379   0.159  16.079 -0.0868 -0.5985 -0.1647
 6007SOL     OW29653   0.436   3.864   4.046  0.1559  0.0971  0.0438
 6007SOL    HW129654   0.523   3.850   4.009  0.1739  2.7839 -0.9205
 6007SOL    HW229655   0.447   3.949   4.089  1.1997 -0.4390  0.8494
 6008SOL     OW29656   0.872   0.241  13.080 -0.2243  0.3556 -0.0185
 6008SOL    HW129657   0.871   0.147  13.066 -0.9765  0.1264  1.5566
 6008SOL    HW229658   0.867   0.238  13.176  1.9208 -1.0893  0.0585
 6009SOL     OW29659   4.194   1.518   9.278  0.1026  0.0216 -0.1370
 6009SOL    HW129660   4.157   1.519   9.189 -2.9464  1.2423  1.1417
 6009SOL    HW229661   4.138   1.451   9.317 -0.9818  0.3875 -1.0299
 6010SOL     OW29662   3.765   2.244   5.921  0.6280 -0.2654  0.0427
 6010SOL    HW129663   3.784   2.160   5.963 -0.4164  1.0113  3.0772
 6010SOL    HW229664   3.843   2.280   5.965  2.2384 -0.4045 -2.6869
 6011SOL     OW29665   3.019   1.924   6.040  0.2427  0.1314 -0.0088
 6011SOL    HW129666   3.035   1.830   6.035  1.3522  0.2764  0.5640
 6011SOL    HW229667   2.983   1.930   6.129  0.7035  0.5628  0.1535
 6012SOL     OW29668   2.975   4.293   8.787  0.6163  0.4549 -0.8550
 6012SOL    HW129669   3.041   4.234   8.750  0.6328 -0.4177  0.5644
 6012SOL    HW229670   2.899   4.241   8.761 -0.1096  0.1322  1.9584
 6013SOL     OW29671   3.365   4.339   3.285 -0.4905 -0.4155  0.2471
 6013SOL    HW129672   3.409   4.363   3.366  2.1283 -0.4262 -1.1522
 6013SOL    HW229673   3.428   4.279   3.244 -0.4413  0.5325 -1.0613
 6014SOL     OW29674   1.714   3.954   4.589  0.3237  0.1881 -0.2673
 6014SOL    HW129675   1.808   3.963   4.604  0.5784 -0.7959 -1.2622
 6014SOL    HW229676   1.696   4.037   4.545 -1.9333 -0.0220  0.2668
 6015SOL     OW29677   4.027   4.473   6.457 -0.0934  0.0077 -0.1292
 6015SOL    HW129678   4.114   4.491   6.492  0.1716 -1.0951 -0.2284
 6015SOL    HW229679   4.040   4.458   6.364  0.1916 -0.1331 -0.0683
 6016SOL     OW29680   1.826   4.026   4.308 -0.0560 -0.5448  0.0647
 6016SOL    HW129681   1.853   3.967   4.379  0.7551  0.3049  0.4780
 6016SOL    HW229682   1.830   3.967   4.233 -0.5396 -1.3212  0.6561
 6017SOL     OW29683   2.015   3.650  16.514  0.5709 -0.4935  0.3723
 6017SOL    HW129684   2.107   3.637  16.538  0.9084 -1.7622 -1.5913
 6017SOL    HW229685   2.008   3.732  16.562  0.5029 -0.1603 -0.2080
 6018SOL     OW29686   4.302   3.990   7.950  0.2788 -0.4079  0.3499
 6018SOL    HW129687   4.232   3.926   7.963 -2.7627  2.7370 -0.3574
 6018SOL    HW229688   4.283   4.047   8.025  1.3585  0.2466  0.1250
 6019SOL     OW29689   2.677   0.318  11.134 -0.5167  0.1205  0.2973
 6019SOL    HW129690   2.759   0.358  11.162 -0.3753  0.5537 -0.7274
 6019SOL    HW229691   2.697   0.260  11.060 -0.1592 -0.0177  0.4985
 6020SOL     OW29692   3.219   3.872   3.050 -0.1819 -0.9187  0.0849
 6020SOL    HW129693   3.218   3.920   3.133 -0.9199  1.0928 -1.1018
 6020SOL    HW229694   3.131   3.846   3.024 -0.3966  0.8790 -0.9302
 6021SOL     OW29695   2.551   2.532   6.129  0.5213 -0.4796 -0.2189
 6021SOL    HW129696   2.585   2.619   6.152 -0.8051  0.2005 -0.8592
 6021SOL    HW229697   2.621   2.505   6.068  0.2741  2.1176 -1.6388
 6022SOL     OW29698   2.554   4.405   8.013  0.2411 -0.0783 -0.0863
 6022SOL    HW129699   2.501   4.376   8.088 -1.4282 -0.0883 -1.2648
 6022SOL    HW229700   2.523   4.495   8.004  2.0696  0.2304 -3.1171
 6023SOL     OW29701   1.199   2.996   3.962  0.1911 -0.0262 -0.1169
 6023SOL    HW129702   1.241   3.066   4.012 -1.6857  1.3768 -0.5494
 6023SOL    HW229703   1.209   2.926   4.027 -1.4148 -1.0665 -0.9959
 6024SOL     OW29704   3.775   2.370   1.960  0.3251 -0.6687  0.3287
 6024SOL    HW129705   3.857   2.323   1.944  0.8581 -0.8135  3.3320
 6024SOL    HW229706   3.789   2.382   2.054  0.1124  0.6628  0.1946
 6025SOL     OW29707   0.445   0.060   3.643 -0.0600  0.1074 -0.5970
 6025SOL    HW129708   0.535   0.045   3.615 -0.1896 -0.7145 -0.5724
 6025SOL    HW229709   0.407   0.100   3.565  1.2814  2.1047 -0.2172
 6026SOL     OW29710   0.279   0.808   7.029  0.0011 -0.2469 -0.2735
 6026SOL    HW129711   0.300   0.896   7.061 -1.1865  0.2545 -0.8411
 6026SOL    HW229712   0.242   0.779   7.112  0.7814  0.5896  0.3661
 6027SOL     OW29713   2.735   0.370   6.354 -0.1626  0.2774 -0.5375
 6027SOL    HW129714   2.718   0.281   6.321 -2.1626  1.2216 -1.9991
 6027SOL    HW229715   2.661   0.423   6.325 -1.1535  0.9181  3.1265
 6028SOL     OW29716   1.691   2.259  17.378  0.1956  0.5568 -0.1186
 6028SOL    HW129717   1.709   2.347  17.345 -0.8713 -0.2369 -2.8508
 6028SOL    HW229718   1.603   2.257  17.339 -0.3074  1.5684  0.9569
 6029SOL     OW29719   0.957   4.557   2.055  0.1555  0.3836  0.3524
 6029SOL    HW129720   0.976   4.464   2.060  1.3152  0.4925 -1.6294
 6029SOL    HW229721   1.008   4.575   1.975  1.9412 -2.8432  0.7883
 6030SOL     OW29722   4.109   1.821   1.675 -0.4382 -0.0464 -0.7608
 6030SOL    HW129723   4.178   1.848   1.616 -0.4715  1.3147 -0.1709
 6030SOL    HW229724   4.127   1.892   1.737  0.2107  0.0332 -1.0482
 6031SOL     OW29725   1.550   4.580   6.604 -0.2703 -0.1028 -0.5050
 6031SOL    HW129726   1.561   4.515   6.534 -0.8808 -0.3326 -0.3919
 6031SOL    HW229727   1.514   4.525   6.673 -2.4946 -0.0174 -1.5837
 6032SOL     OW29728   1.516   2.696  10.730 -0.1941  0.3624  0.2674
 6032SOL    HW129729   1.430   2.654  10.733  0.5574 -1.0842  1.1099
 6032SOL    HW229730   1.565   2.622  10.694  0.0228  1.3662 -1.5528
 6033SOL     OW29731   3.758   3.673   3.919  0.6555 -0.2320  0.5454
 6033SOL    HW129732   3.800   3.720   3.847 -1.5074  0.4149 -0.2916
 6033SOL    HW229733   3.800   3.587   3.921  1.9197  0.4177  1.4788
 6034SOL     OW29734   2.836   3.914  12.116 -0.0410  0.4171 -0.4603
 6034SOL    HW129735   2.897   3.842  12.131 -1.4733 -0.6007  0.5593
 6034SOL    HW229736   2.757   3.871  12.084 -0.3058  0.9063 -0.4589
 6035SOL     OW29737   2.097   1.013   7.006 -0.1630 -0.2831  0.9954
 6035SOL    HW129738   2.040   0.966   6.945  0.8787  0.0491 -0.2323
 6035SOL    HW229739   2.175   1.006   6.952 -0.8908 -1.9912  0.1653
 6036SOL     OW29740   4.690   3.709   6.804  0.7246  0.0396  0.2792
 6036SOL    HW129741   0.037   3.683   6.788  0.1831 -1.3562 -0.5602
 6036SOL    HW229742   4.678   3.679   6.895 -1.8309 -0.0899 -0.1034
 6037SOL     OW29743   4.197   4.269   4.422 -0.3256 -0.0330  0.0563
 6037SOL    HW129744   4.126   4.223   4.378  0.4662  0.0043 -1.2565
 6037SOL    HW229745   4.222   4.208   4.492  0.1918  0.3046  0.1613
 6038SOL     OW29746   3.742   1.321   2.643  0.4460 -0.5147  0.1709
 6038SOL    HW129747   3.699   1.353   2.722  2.3691  1.1680  0.5332
 6038SOL    HW229748   3.690   1.358   2.572  0.9473  0.1425  0.1498
 6039SOL     OW29749   3.420   1.644   4.860  0.2942 -0.0404 -0.4016
 6039SOL    HW129750   3.407   1.564   4.809  0.7179  1.4065 -2.7517
 6039SOL    HW229751   3.491   1.603   4.910 -1.0867 -1.4038  0.4427
 6040SOL     OW29752   0.342   3.665   4.458  0.0908  0.1870 -0.1125
 6040SOL    HW129753   0.248   3.660   4.472 -0.0200 -1.6773 -1.4687
 6040SOL    HW229754   0.376   3.592   4.510 -0.0816 -0.1148 -0.4258
 6041SOL     OW29755   0.375   0.391   2.513  0.2956  0.3772 -0.1028
 6041SOL    HW129756   0.364   0.362   2.604  0.4628  0.4311 -0.0661
 6041SOL    HW229757   0.443   0.453   2.538  0.7765 -0.2165  0.0719
 6042SOL     OW29758   3.354   1.607   6.104 -0.3303 -0.5267 -0.0089
 6042SOL    HW129759   3.323   1.557   6.179  1.0362  1.0617  1.6278
 6042SOL    HW229760   3.348   1.545   6.031 -0.0029 -1.8876  1.1228
 6043SOL     OW29761   4.210   0.432  16.121  0.5290  0.6145  0.2970
 6043SOL    HW129762   4.283   0.495  16.126  0.2036  1.0111  0.0676
 6043SOL    HW229763   4.251   0.357  16.078 -0.5103  0.6857 -0.8168
 6044SOL     OW29764   2.920   1.992   6.844 -0.1506  0.1023  0.6939
 6044SOL    HW129765   2.855   1.995   6.774  0.6764 -2.2384 -0.1636
 6044SOL    HW229766   2.992   1.940   6.808  0.4682  1.7762 -0.4369
 6045SOL     OW29767   1.806   2.134  11.130 -0.0022  0.2519 -0.5470
 6045SOL    HW129768   1.846   2.117  11.215 -0.8055  0.6015 -0.1045
 6045SOL    HW229769   1.729   2.080  11.146  0.1048  0.2104 -0.1804
 6046SOL     OW29770   2.623   1.393   5.749 -0.4405 -0.3383  0.6400
 6046SOL    HW129771   2.547   1.341   5.721 -0.9683  0.9400 -0.2591
 6046SOL    HW229772   2.669   1.398   5.665 -2.4584  0.7456 -0.3951
 6047SOL     OW29773   0.716   3.265   2.526 -0.2057  0.1679 -0.3628
 6047SOL    HW129774   0.723   3.357   2.554  1.3415 -0.5492  1.5966
 6047SOL    HW229775   0.621   3.269   2.519 -0.2929  1.5580  1.4303
 6048SOL     OW29776   0.954   0.571  14.974 -0.6839 -0.4089  0.1833
 6048SOL    HW129777   0.970   0.600  14.884 -1.2043 -1.4354 -0.2434
 6048SOL    HW229778   0.866   0.607  14.984 -0.2741  1.1424 -1.8325
 6049SOL     OW29779   3.050   0.599   1.578  0.1593  0.3428 -0.0488
 6049SOL    HW129780   2.983   0.533   1.592 -0.9227  1.2337 -1.0485
 6049SOL    HW229781   3.121   0.548   1.538  2.0171  1.2839  2.0413
 6050SOL     OW29782   1.426   0.931   3.477 -0.0989 -0.3487 -0.2271
 6050SOL    HW129783   1.407   1.019   3.444  0.5466 -1.5639 -3.9086
 6050SOL    HW229784   1.446   0.888   3.394  1.0459 -0.5381  0.1478
 6051SOL     OW29785   3.559   2.383  17.371 -0.0689  0.4266  0.2103
 6051SOL    HW129786   3.512   2.452  17.323  0.6920  0.6563 -0.2106
 6051SOL    HW229787   3.486   2.363  17.430  1.2923 -2.2995  0.9631
 6052SOL     OW29788   3.908   0.640  17.424 -0.4405  0.7761  0.0822
 6052SOL    HW129789   3.906   0.554  17.467  0.6403  0.9954  0.5676
 6052SOL    HW229790   3.814   0.650  17.410 -0.5681  1.0533  1.0911
 6053SOL     OW29791   4.356   1.807   8.693  0.1062  0.6420 -0.1787
 6053SOL    HW129792   4.367   1.849   8.607  0.8375  2.0050  0.5877
 6053SOL    HW229793   4.446   1.792   8.720 -0.7795 -2.7598  0.9002
 6054SOL     OW29794   1.024   1.297   7.102 -0.2886 -0.2256  0.4904
 6054SOL    HW129795   0.981   1.343   7.031 -1.2227 -0.4099  0.9461
 6054SOL    HW229796   1.114   1.304   7.069 -0.6194 -1.4334 -0.7131
 6055SOL     OW29797   0.520   4.070  10.136 -0.3771  0.3351  0.4443
 6055SOL    HW129798   0.487   4.070  10.047  0.2259  1.7460  0.2140
 6055SOL    HW229799   0.606   4.108  10.116  0.3881 -2.2064 -1.1438
 6056SOL     OW29800   1.962   0.752   4.762  0.3805  0.2061 -0.1524
 6056SOL    HW129801   2.049   0.777   4.732 -0.0683  0.0524 -1.5768
 6056SOL    HW229802   1.982   0.727   4.852 -0.5306  0.3685  0.0972
 6057SOL     OW29803   3.459   2.372   3.487 -0.3572  0.1301 -0.9188
 6057SOL    HW129804   3.554   2.360   3.483 -0.0676  2.5884 -1.0779
 6057SOL    HW229805   3.437   2.317   3.562 -2.0088  1.5086 -0.4083
 6058SOL     OW29806   0.804   2.535   8.130  0.5871 -0.3113  0.3890
 6058SOL    HW129807   0.827   2.447   8.101 -1.8152 -0.6758 -0.4201
 6058SOL    HW229808   0.714   2.551   8.100  0.3427  0.1642  1.3777
 6059SOL     OW29809   3.427   4.242   4.685  0.2050 -0.3955 -0.5422
 6059SOL    HW129810   3.461   4.214   4.770 -2.8704 -0.6774  0.6123
 6059SOL    HW229811   3.427   4.161   4.635 -0.8295 -0.4953 -0.3886
 6060SOL     OW29812   1.705   3.792   3.081 -0.3655 -0.3129  0.1133
 6060SOL    HW129813   1.789   3.821   3.047 -0.2541  0.9721  1.4907
 6060SOL    HW229814   1.649   3.841   3.020  1.9505  0.7929 -1.0938
 6061SOL     OW29815   1.882   4.698  16.199 -0.0788  0.4931  0.3699
 6061SOL    HW129816   1.968   4.720  16.234  0.1979  2.5344 -1.6025
 6061SOL    HW229817   1.828   0.014  16.250 -1.4866  0.8011 -1.4775
 6062SOL     OW29818   1.404   3.328  16.965 -0.2153  0.2080 -0.3487
 6062SOL    HW129819   1.499   3.328  16.979 -0.5502  1.7870  1.9168
 6062SOL    HW229820   1.401   3.319  16.870 -3.2027 -0.3865 -0.1868
 6063SOL     OW29821   0.540   3.392   3.135 -0.0325 -0.1093  0.0781
 6063SOL    HW129822   0.588   3.466   3.174  2.7644 -2.1449  0.5122
 6063SOL    HW229823   0.535   3.406   3.040 -0.7395  1.4678  0.3557
 6064SOL     OW29824   2.549   2.492  15.747  0.4320 -0.3570  0.6375
 6064SOL    HW129825   2.501   2.410  15.756  0.0680 -0.3963 -1.6099
 6064SOL    HW229826   2.622   2.459  15.694 -2.0536 -2.4824 -1.4376
 6065SOL     OW29827   3.623   4.667   6.488  0.0451  0.2951 -0.1758
 6065SOL    HW129828   3.597   0.005   6.528  3.9445  0.0954  2.7314
 6065SOL    HW229829   3.700   4.649   6.543 -0.3128  1.9994  0.8492
 6066SOL     OW29830   0.743   0.355  10.125 -0.4598 -0.3138  0.6593
 6066SOL    HW129831   0.824   0.404  10.112  0.1053 -1.6716 -0.9131
 6066SOL    HW229832   0.684   0.430  10.135  1.2836  1.1283  0.1861
 6067SOL     OW29833   3.856   1.771   2.664 -0.0909 -0.1444 -0.1571
 6067SOL    HW129834   3.792   1.821   2.613 -0.1348 -1.1196 -1.0784
 6067SOL    HW229835   3.820   1.682   2.667  0.8635 -0.4734  1.4877
 6068SOL     OW29836   0.750   4.509   6.852  0.1812 -0.2866  0.2861
 6068SOL    HW129837   0.728   4.548   6.936 -0.4668 -1.1570  0.5187
 6068SOL    HW229838   0.845   4.497   6.853  0.0999 -1.2188 -3.2113
 6069SOL     OW29839   2.788   2.422   5.445  0.3652  0.1426  0.1952
 6069SOL    HW129840   2.772   2.417   5.540 -0.9804  1.4770  0.0432
 6069SOL    HW229841   2.817   2.513   5.445 -0.1940  0.3226 -0.6002
 6070SOL     OW29842   3.690   3.527   1.859  0.3343  0.0174  0.3904
 6070SOL    HW129843   3.680   3.603   1.917  2.4609  1.5131 -1.2056
 6070SOL    HW229844   3.605   3.483   1.866  1.1171 -1.4304  0.9203
 6071SOL     OW29845   0.595   1.878   6.637 -0.1304  0.4715 -0.3699
 6071SOL    HW129846   0.632   1.913   6.718 -0.3232 -2.2508  0.8841
 6071SOL    HW229847   0.560   1.952   6.588  0.8423  0.6148 -0.8609
 6072SOL     OW29848   3.350   1.158   6.499  0.3575 -0.2512  0.0195
 6072SOL    HW129849   3.255   1.157   6.496  0.3128  1.6445  0.7661
 6072SOL    HW229850   3.353   1.117   6.586  0.2153  3.2912  1.7010
 6073SOL     OW29851   1.060   3.661   3.435 -0.1428 -0.0910  0.7680
 6073SOL    HW129852   0.986   3.694   3.385  0.0006 -1.5985 -0.4577
 6073SOL    HW229853   1.090   3.745   3.470  0.7268 -1.0786  2.4294
 6074SOL     OW29854   1.569   4.113   3.212 -0.2975  0.2835  0.1847
 6074SOL    HW129855   1.553   4.059   3.135 -1.1492 -0.8695  1.1739
 6074SOL    HW229856   1.497   4.092   3.271 -1.1114 -1.8121 -1.5686
 6075SOL     OW29857   1.631   0.226  12.547 -0.1333 -0.7958 -0.0635
 6075SOL    HW129858   1.589   0.185  12.472  0.5407  1.3677 -1.6231
 6075SOL    HW229859   1.721   0.202  12.524  0.0764 -0.4236  0.3777
 6076SOL     OW29860   0.566   0.182   6.129 -0.1584 -0.1524  0.4596
 6076SOL    HW129861   0.473   0.170   6.144 -0.1950 -1.2532 -0.5903
 6076SOL    HW229862   0.567   0.226   6.043  2.9846 -0.5960  0.2575
 6077SOL     OW29863   4.360   0.110   8.825 -0.0130 -0.2474 -0.1596
 6077SOL    HW129864   4.296   0.039   8.819  0.4010 -0.7731  1.8424
 6077SOL    HW229865   4.367   0.108   8.920  3.2670 -3.1360 -0.4439
 6078SOL     OW29866   2.353   4.122   7.942  0.4871  0.0938  0.4367
 6078SOL    HW129867   2.370   4.036   7.979 -2.2584  0.5576  2.8086
 6078SOL    HW229868   2.306   4.159   8.016 -0.9533 -1.1267  0.1372
 6079SOL     OW29869   2.709   4.422  12.756 -0.0499 -0.0426 -0.3182
 6079SOL    HW129870   2.786   4.370  12.779  0.5242  0.1449 -1.8057
 6079SOL    HW229871   2.646   4.352  12.769 -0.1684  0.4427  1.6496
 6080SOL     OW29872   2.007   1.997   3.035  0.7770 -0.0456  0.4114
 6080SOL    HW129873   2.045   2.068   2.982 -1.1393  1.7121  1.4121
 6080SOL    HW229874   2.045   2.016   3.121 -1.7830  1.2117  1.2493
 6081SOL     OW29875   3.245   0.096  11.974 -0.0221 -0.9547  0.5482
 6081SOL    HW129876   3.201   0.158  11.915  0.9478 -2.5718 -1.8971
 6081SOL    HW229877   3.336   0.127  11.980 -0.7765  0.8958  2.2072
 6082SOL     OW29878   3.247   2.740   7.047 -0.3513 -0.2618 -0.0704
 6082SOL    HW129879   3.247   2.834   7.065 -0.5916 -0.0500 -1.1390
 6082SOL    HW229880   3.251   2.708   7.137  1.1882  0.6257  0.1815
 6083SOL     OW29881   2.722   3.898  11.096 -0.1482 -0.3793  0.2334
 6083SOL    HW129882   2.741   3.914  11.189  2.7115  3.1384 -0.9765
 6083SOL    HW229883   2.666   3.821  11.104  2.9035 -2.2973  3.2678
 6084SOL     OW29884   2.734   1.908   8.023 -0.3029 -0.8403 -0.6481
 6084SOL    HW129885   2.643   1.925   8.047 -0.0174 -2.1329  1.3329
 6084SOL    HW229886   2.718   1.912   7.929 -0.7625 -0.0075 -0.5336
 6085SOL     OW29887   2.915   3.665   2.072  0.0186 -0.4179  0.3820
 6085SOL    HW129888   2.889   3.744   2.025  0.0318  0.4424  1.8134
 6085SOL    HW229889   2.977   3.622   2.012 -0.9119 -0.3436 -0.6263
 6086SOL     OW29890   1.573   2.243   6.646  0.3497 -0.2626 -0.5303
 6086SOL    HW129891   1.655   2.260   6.692  0.7520  1.0889 -1.7329
 6086SOL    HW229892   1.605   2.230   6.556  0.1688  1.0507 -0.7812
 6087SOL     OW29893   0.485   2.949   3.936  0.2050  0.0184  0.2785
 6087SOL    HW129894   0.560   2.991   3.894  0.9552  0.7405  2.2989
 6087SOL    HW229895   0.477   2.861   3.901 -1.7647  0.0505  0.6822
 6088SOL     OW29896   3.875   0.595  10.439 -0.1663 -0.4211  0.1863
 6088SOL    HW129897   3.880   0.639  10.354  2.1339 -1.7149 -0.3454
 6088SOL    HW229898   3.789   0.560  10.418 -1.1592  0.7602  2.2518
 6089SOL     OW29899   3.227   3.495   6.106 -0.5992 -0.1212  0.4376
 6089SOL    HW129900   3.262   3.579   6.137 -0.9544 -0.3781  1.5426
 6089SOL    HW229901   3.153   3.529   6.054 -0.1342  0.1063 -0.0724
 6090SOL     OW29902   3.859   4.142  17.460 -0.2927  0.6394  0.7343
 6090SOL    HW129903   3.948   4.108  17.444 -1.2992 -1.8405  0.3935
 6090SOL    HW229904   3.803   4.074  17.423 -0.3955  0.9191  0.3680
 6091SOL     OW29905   4.516   1.466   3.773  0.8412  0.2200 -0.3753
 6091SOL    HW129906   4.588   1.449   3.833  0.7236 -2.2858 -0.9578
 6091SOL    HW229907   4.472   1.537   3.820  0.0692 -0.3968 -0.1902
 6092SOL     OW29908   1.322   0.328   2.157 -0.4574  0.0680 -0.3502
 6092SOL    HW129909   1.339   0.402   2.099  3.0217 -1.4666 -1.3374
 6092SOL    HW229910   1.404   0.278   2.151 -0.6403 -0.2258 -0.4223
 6093SOL     OW29911   4.097   3.712   6.025  0.1931  0.2164 -0.0887
 6093SOL    HW129912   4.128   3.634   6.072  3.7162 -0.1434 -3.0322
 6093SOL    HW229913   4.023   3.678   5.976  1.6315 -1.3068 -1.1807
 6094SOL     OW29914   0.110   3.699   8.910  0.0860  0.5186  0.2629
 6094SOL    HW129915   0.088   3.684   8.818 -0.7630  1.1674  0.3671
 6094SOL    HW229916   0.206   3.707   8.908  0.2771 -1.9542 -0.6663
 6095SOL     OW29917   2.153   2.009   5.883  0.0784  0.5607  0.0093
 6095SOL    HW129918   2.192   2.097   5.884 -0.0069  0.5973  0.3770
 6095SOL    HW229919   2.067   2.018   5.843 -0.2024 -1.0644  0.2684
 6096SOL     OW29920   3.592   4.375   9.581  0.8347 -0.2329  0.1631
 6096SOL    HW129921   3.629   4.456   9.545  0.1392  0.0729  0.1285
 6096SOL    HW229922   3.643   4.352   9.658  1.4947  0.1947 -0.1432
 6097SOL     OW29923   1.242   4.657   6.071  0.5129 -0.3276  0.3207
 6097SOL    HW129924   1.260   4.578   6.121 -3.3560 -2.3248 -1.3885
 6097SOL    HW229925   1.240   4.623   5.982 -0.7361 -0.1319  0.2673
 6098SOL     OW29926   3.500   3.751   2.485  0.1643  0.5201 -0.6496
 6098SOL    HW129927   3.445   3.734   2.562  0.2717 -1.1584 -0.9464
 6098SOL    HW229928   3.586   3.751   2.529  0.9206 -1.6768 -2.1239
 6099SOL     OW29929   3.673   4.063   4.038 -0.1235  0.3047  0.2891
 6099SOL    HW129930   3.700   4.147   4.000  1.6478  0.5105  2.0191
 6099SOL    HW229931   3.617   4.088   4.111 -1.1614 -1.2763  0.0457
 6100SOL     OW29932   1.538   0.691   4.297  0.3675 -0.1080  0.0411
 6100SOL    HW129933   1.576   0.739   4.371 -0.8411 -0.3583  0.8244
 6100SOL    HW229934   1.446   0.717   4.300 -0.0791 -1.5693 -1.1711
 6101SOL     OW29935   1.268   3.476  17.132  0.1758 -0.1021 -0.1622
 6101SOL    HW129936   1.334   3.538  17.164 -1.3043  1.9110 -0.9958
 6101SOL    HW229937   1.328   3.427  17.075 -0.0059  0.2655 -0.6743
 6102SOL     OW29938   2.397   4.561  13.334 -0.3443  0.1218  0.2950
 6102SOL    HW129939   2.309   4.526  13.321  0.4540 -1.0854 -1.9357
 6102SOL    HW229940   2.449   4.481  13.328 -1.2073 -0.3539 -0.9907
 6103SOL     OW29941   1.883   4.149  11.798 -0.1261  0.4243 -0.4464
 6103SOL    HW129942   1.808   4.110  11.754  1.1934 -2.6889  0.0557
 6103SOL    HW229943   1.960   4.118  11.750  1.1744  0.2797  1.7166
 6104SOL     OW29944   1.586   1.827   7.408  0.4860  0.1568  0.1133
 6104SOL    HW129945   1.593   1.841   7.503 -1.1701 -0.2968  0.2910
 6104SOL    HW229946   1.662   1.769   7.405  1.4700  1.3832  1.1633
 6105SOL     OW29947   3.808   3.453   5.091 -0.3443 -0.1852 -0.1305
 6105SOL    HW129948   3.823   3.429   4.999  0.4197 -1.1133  0.2353
 6105SOL    HW229949   3.899   3.461   5.116 -0.4392 -0.3547  0.2724
 6106SOL     OW29950   2.453   2.183  10.021 -0.7033 -0.6235 -0.0830
 6106SOL    HW129951   2.434   2.117  10.087  2.6875 -2.1795 -0.6608
 6106SOL    HW229952   2.525   2.140   9.976  0.7513  0.7794  0.9223
 6107SOL     OW29953   4.403   3.649   9.104 -0.0271  0.6963  0.7825
 6107SOL    HW129954   4.494   3.677   9.091  0.0917  0.3917  0.9506
 6107SOL    HW229955   4.415   3.599   9.185 -1.6998  0.0190  0.6037
 6108SOL     OW29956   4.034   3.297   2.196 -0.4376  0.4488  0.1417
 6108SOL    HW129957   4.086   3.378   2.201  0.0346  0.0295  2.0956
 6108SOL    HW229958   3.966   3.320   2.134 -1.0574  1.4934  1.1946
 6109SOL     OW29959   3.957   0.977   6.210 -0.1221  0.3648  0.3769
 6109SOL    HW129960   3.869   0.990   6.176  0.7744 -0.6449 -2.3006
 6109SOL    HW229961   3.943   0.900   6.266  0.3520  0.0940  0.1229
 6110SOL     OW29962   2.480   3.236   4.434 -0.0609 -0.2524 -0.4467
 6110SOL    HW129963   2.416   3.218   4.503 -0.7284  0.2257 -0.9435
 6110SOL    HW229964   2.555   3.255   4.490  0.5210 -1.5030 -0.7948
 6111SOL     OW29965   1.458   1.921   3.470 -0.0660 -0.7658 -0.4269
 6111SOL    HW129966   1.413   1.926   3.386 -0.6891 -0.1134 -0.0626
 6111SOL    HW229967   1.505   2.004   3.462 -2.1628  0.3225 -1.3801
 6112SOL     OW29968   3.915   1.208   0.809 -0.2204 -0.4714 -0.1041
 6112SOL    HW129969   3.861   1.135   0.840  1.2975 -1.5208  0.1177
 6112SOL    HW229970   3.855   1.255   0.751  0.7908  1.2090  0.2032
 6113SOL     OW29971   0.096   3.247   8.466  0.3275 -0.0468  0.3953
 6113SOL    HW129972   0.027   3.192   8.505  0.5960 -0.0965  0.8072
 6113SOL    HW229973   0.153   3.180   8.429  2.5495  2.6189 -0.9138
 6114SOL     OW29974   3.539   3.024  14.302 -0.1872 -0.2605  0.0104
 6114SOL    HW129975   3.456   3.070  14.313 -0.9004 -1.0477 -2.0877
 6114SOL    HW229976   3.603   3.088  14.336  2.0016 -1.2841 -2.1316
 6115SOL     OW29977   1.646   1.493   2.237  0.3263  0.0015  0.3211
 6115SOL    HW129978   1.678   1.507   2.147  0.4363  0.4242  0.4241
 6115SOL    HW229979   1.622   1.401   2.240  0.5968 -0.0676  0.3708
 6116SOL     OW29980   0.381   2.818   2.684 -0.2324 -0.3356  0.5113
 6116SOL    HW129981   0.309   2.776   2.637  0.0084  0.4306 -0.5714
 6116SOL    HW229982   0.343   2.902   2.708  0.0408 -0.0859  0.0898
 6117SOL     OW29983   0.851   3.433   8.324 -0.0429 -0.2548  0.1240
 6117SOL    HW129984   0.784   3.369   8.349  0.0121  0.1112  1.2306
 6117SOL    HW229985   0.859   3.487   8.403 -0.5135  0.7288 -0.5108
 6118SOL     OW29986   3.036   0.458   8.532  0.2266 -0.3476  0.3436
 6118SOL    HW129987   2.954   0.417   8.558  0.6691 -1.2917  0.2585
 6118SOL    HW229988   3.038   0.540   8.582 -2.2660  1.0263 -1.8057
 6119SOL     OW29989   3.206   1.621  15.525  0.0929  0.1319 -0.4831
 6119SOL    HW129990   3.195   1.576  15.441  2.6226  0.5718 -1.0355
 6119SOL    HW229991   3.116   1.635  15.554  0.3732 -1.8780  1.3902
 6120SOL     OW29992   4.462   3.039  17.323  0.3171  0.6820  0.0855
 6120SOL    HW129993   4.549   3.005  17.343 -0.0285 -0.0394  0.3509
 6120SOL    HW229994   4.483   3.099  17.252  2.1517 -1.4790 -1.2016
 6121SOL     OW29995   1.965   4.253   4.976 -0.0784  0.5893  0.1342
 6121SOL    HW129996   1.948   4.346   4.962  0.5226  0.6593 -0.1381
 6121SOL    HW229997   2.044   4.246   4.922  0.0698 -1.6483  0.6396
 6122SOL     OW29998   0.932   0.023   0.660 -0.1015  0.1700  0.1192
 6122SOL    HW129999   0.867   4.718   0.609  1.0394 -0.3136 -0.8512
 6122SOL    HW230000   0.999   4.702   0.681 -2.5301 -2.5784 -0.5707
 6123SOL     OW30001   1.074   1.042   2.865  0.5104  0.0020 -0.1383
 6123SOL    HW130002   1.054   0.948   2.864 -2.4780  0.6204  2.4669
 6123SOL    HW230003   1.019   1.066   2.790  2.8639 -0.0069 -1.8707
 6124SOL     OW30004   2.802   2.306   8.518  0.4518 -0.2122  0.0259
 6124SOL    HW130005   2.894   2.299   8.492  0.5049 -0.2555  0.2299
 6124SOL    HW230006   2.818   2.296   8.612  1.1504  0.0544 -0.0629
 6125SOL     OW30007   2.520   1.966   4.621  0.6374  0.1720  0.2153
 6125SOL    HW130008   2.581   1.965   4.548 -0.4842 -0.1067 -0.7296
 6125SOL    HW230009   2.457   2.036   4.606  1.4017  0.7321 -0.3479
 6126SOL     OW30010   4.105   3.168   5.453  0.3399  0.3442 -0.1149
 6126SOL    HW130011   4.081   3.255   5.485 -2.1875 -0.9140  1.4145
 6126SOL    HW230012   4.018   3.129   5.461 -0.0024  1.2418  0.5997
 6127SOL     OW30013   3.654   3.998   3.257  0.0176 -0.5679 -0.1099
 6127SOL    HW130014   3.648   3.933   3.188 -2.0974  1.1675 -1.5805
 6127SOL    HW230015   3.566   3.980   3.291  0.2109  0.2095  0.8198
 6128SOL     OW30016   0.269   2.846   8.403  0.3920  0.2604 -0.3310
 6128SOL    HW130017   0.357   2.851   8.367 -0.4235 -2.7034 -2.7900
 6128SOL    HW230018   0.246   2.939   8.409  1.5555  0.4089  1.8501
 6129SOL     OW30019   2.468   1.049   6.371  0.0952 -0.0386 -0.1920
 6129SOL    HW130020   2.482   1.086   6.458 -2.8295 -1.8248  1.0211
 6129SOL    HW230021   2.503   0.960   6.381  0.8192  0.5196  2.2034
 6130SOL     OW30022   3.846   3.885   7.862 -0.0777 -0.1737 -0.1073
 6130SOL    HW130023   3.883   3.824   7.925  1.7486 -0.5559 -1.5661
 6130SOL    HW230024   3.759   3.848   7.844  0.6671 -0.4194 -3.1935
 6131SOL     OW30025   0.979   4.233   2.321 -0.4784 -0.4753  0.4566
 6131SOL    HW130026   0.926   4.273   2.391 -2.7534  0.1394 -1.6247
 6131SOL    HW230027   1.003   4.309   2.268 -2.8970 -0.2029 -0.2719
 6132SOL     OW30028   2.432   3.393   6.124 -0.2081 -0.2581 -0.0232
 6132SOL    HW130029   2.509   3.420   6.174  1.1603 -2.8641 -0.6982
 6132SOL    HW230030   2.391   3.475   6.095 -0.8682 -0.8364 -0.7390
 6133SOL     OW30031   1.406   2.152   5.703 -0.1217  0.5171 -0.5312
 6133SOL    HW130032   1.339   2.148   5.771  0.0047 -0.8865 -0.4874
 6133SOL    HW230033   1.365   2.102   5.633  1.0048 -1.7541  0.4171
 6134SOL     OW30034   1.850   2.268   4.859  0.3786 -0.1357 -0.6733
 6134SOL    HW130035   1.930   2.222   4.835 -1.0966 -2.8860 -0.3247
 6134SOL    HW230036   1.784   2.201   4.842  1.2020 -1.2341  0.4658
 6135SOL     OW30037   4.448   3.541   3.919 -0.3113 -0.2990  0.2053
 6135SOL    HW130038   4.531   3.588   3.937 -0.7279  0.7351 -0.5774
 6135SOL    HW230039   4.476   3.453   3.945  2.2801  0.0073 -1.5169
 6136SOL     OW30040   1.303   2.989  10.010  0.5070  0.2435 -0.5048
 6136SOL    HW130041   1.273   3.048   9.941  1.2805  0.8306 -0.3471
 6136SOL    HW230042   1.374   3.033  10.059  1.4175 -1.2941 -0.4509
 6137SOL     OW30043   4.244   4.249  10.975  0.4113  0.4672  0.1625
 6137SOL    HW130044   4.232   4.238  11.069 -3.3260  2.4441 -0.0908
 6137SOL    HW230045   4.336   4.221  10.974  0.0984 -0.4773 -2.7196
 6138SOL     OW30046   3.344   0.877   6.380 -0.5980  0.8100  0.4706
 6138SOL    HW130047   3.418   0.817   6.385 -3.1199 -2.3685  0.1711
 6138SOL    HW230048   3.392   0.957   6.397  2.1158 -0.8228  0.4900
 6139SOL     OW30049   1.981   1.285   6.398  0.0665  0.5719 -0.4045
 6139SOL    HW130050   2.057   1.235   6.369 -0.9086 -1.6205  0.8563
 6139SOL    HW230051   1.961   1.267   6.490 -0.7983  0.4450 -0.6135
 6140SOL     OW30052   3.735   1.442   6.937 -0.1572  0.4587  0.1755
 6140SOL    HW130053   3.645   1.458   6.966 -0.1286  0.6809  0.1456
 6140SOL    HW230054   3.781   1.424   7.020  0.0198  1.6889  0.3504
 6141SOL     OW30055   4.012   2.770   6.246 -0.3647 -0.0494 -0.0552
 6141SOL    HW130056   4.075   2.826   6.201  0.5479 -0.4738  0.6960
 6141SOL    HW230057   3.931   2.814   6.222  0.0827  1.0816  0.5322
 6142SOL     OW30058   4.341   4.705   8.021 -0.1939  0.6846  0.1001
 6142SOL    HW130059   4.394   0.015   8.080 -0.3436 -0.6002  1.4087
 6142SOL    HW230060   4.318   4.639   8.087 -0.0003  0.2149 -0.2999
 6143SOL     OW30061   1.746   1.137   9.810 -0.8321  0.2972  0.0349
 6143SOL    HW130062   1.804   1.197   9.856  0.8350  0.5116 -2.3237
 6143SOL    HW230063   1.660   1.179   9.803 -0.4227  0.8495 -1.7134
 6144SOL     OW30064   0.750   0.825   5.919 -0.5005 -0.4304  0.1987
 6144SOL    HW130065   0.668   0.869   5.899 -0.8350 -0.5348  1.3681
 6144SOL    HW230066   0.734   0.769   5.995 -0.0480 -1.5033 -0.4888
 6145SOL     OW30067   4.742   0.684   9.383  0.1677 -0.0013 -0.1106
 6145SOL    HW130068   4.696   0.737   9.448  0.5325 -1.0226  0.9742
 6145SOL    HW230069   4.692   0.603   9.372  1.2706 -0.5969 -0.7375
 6146SOL     OW30070   2.038   4.504   6.027 -0.3185  0.2527  0.0044
 6146SOL    HW130071   1.950   4.529   6.057  0.1093  2.3204 -0.4651
 6146SOL    HW230072   2.008   4.447   5.957  0.7690 -0.4016  0.0809
 6147SOL     OW30073   4.677   2.049   2.141 -0.1322 -0.0468 -0.2147
 6147SOL    HW130074   4.651   1.968   2.097 -1.0200  0.5382 -0.7776
 6147SOL    HW230075   4.643   2.026   2.228  0.1712 -0.4031 -0.1934
 6148SOL     OW30076   0.826   0.011   1.647 -0.0350  0.6058 -0.2435
 6148SOL    HW130077   0.796   0.065   1.721 -0.1694  0.3520 -0.1126
 6148SOL    HW230078   0.791   0.073   1.582 -2.1342  0.1978  0.4911
 6149SOL     OW30079   1.586   3.407   1.593 -0.7610  0.0437  0.1378
 6149SOL    HW130080   1.598   3.444   1.680 -3.9467 -0.2086  0.7016
 6149SOL    HW230081   1.491   3.396   1.598 -0.7848 -0.0524 -0.5472
 6150SOL     OW30082   3.626   3.492  11.461  0.0940  0.2410 -0.1525
 6150SOL    HW130083   3.627   3.397  11.476  1.4000  0.3522  0.4195
 6150SOL    HW230084   3.630   3.498  11.365 -1.4185 -2.0008 -0.3573
 6151SOL     OW30085   2.720   0.085   6.248 -0.1428  0.5240  0.2299
 6151SOL    HW130086   2.804   0.061   6.210 -0.0144  2.0979 -0.4535
 6151SOL    HW230087   2.678   0.108   6.164  2.2794 -1.2392 -1.4614
 6152SOL     OW30088   3.243   2.545   6.335 -0.6036  0.3451 -0.6352
 6152SOL    HW130089   3.297   2.467   6.327  0.3270  1.1289 -2.0769
 6152SOL    HW230090   3.300   2.597   6.392 -0.7577  1.4079 -1.4277
 6153SOL     OW30091   0.183   4.283   2.586  0.4706  0.0132  0.6692
 6153SOL    HW130092   0.202   4.353   2.523  1.0595 -0.6898  0.0708
 6153SOL    HW230093   0.128   4.322   2.654 -0.3362 -1.4145  0.8446
 6154SOL     OW30094   1.127   4.464  10.659  0.2926 -0.1821 -0.1457
 6154SOL    HW130095   1.199   4.491  10.717  1.8894 -3.5769 -0.5697
 6154SOL    HW230096   1.045   4.510  10.679 -1.0187 -2.8785  0.6854
 6155SOL     OW30097   2.948   3.839  10.985  0.2285  0.0563  0.3046
 6155SOL    HW130098   3.018   3.862  11.047  0.7435  2.1211 -1.0434
 6155SOL    HW230099   2.866   3.874  11.018  0.9816  0.3385  1.8941
 6156SOL     OW30100   4.109   2.190   7.132 -0.4469  0.3210 -0.1354
 6156SOL    HW130101   4.161   2.166   7.056  1.2302 -0.8373  1.3750
 6156SOL    HW230102   4.024   2.171   7.093 -1.9367  4.7065  0.9947
 6157SOL     OW30103   3.421   3.074   4.732 -0.3760  0.9192  0.1653
 6157SOL    HW130104   3.435   3.007   4.798  0.1957  0.5151 -0.3732
 6157SOL    HW230105   3.328   3.056   4.723  0.3240 -1.6809 -1.8292
 6158SOL     OW30106   1.721   3.370  15.569 -0.5366 -0.4287  0.6849
 6158SOL    HW130107   1.770   3.348  15.648  0.9228  0.1462 -0.0588
 6158SOL    HW230108   1.711   3.464  15.582  0.5292  0.0698 -2.0914
 6159SOL     OW30109   0.237   0.311   8.697  0.3173  0.0407  0.1408
 6159SOL    HW130110   0.239   0.403   8.672 -1.4269 -0.2647 -1.1594
 6159SOL    HW230111   0.148   0.282   8.673 -0.1692  1.8140 -0.2056
 6160SOL     OW30112   2.850   3.216   4.859 -0.0465  0.3473  0.0402
 6160SOL    HW130113   2.757   3.203   4.846  0.0068  0.1904 -0.1707
 6160SOL    HW230114   2.874   3.139   4.911  1.6455  0.7474 -0.1514
 6161SOL     OW30115   0.683   0.564   0.923 -0.9162  0.6867  0.5968
 6161SOL    HW130116   0.745   0.539   0.991 -0.7683  0.6068  0.4327
 6161SOL    HW230117   0.702   0.658   0.925 -1.1263  0.7307  0.5912
 6162SOL     OW30118   4.492   2.173   6.053 -0.1933 -0.6349 -0.2795
 6162SOL    HW130119   4.535   2.202   6.133 -2.1155 -1.8069  1.1469
 6162SOL    HW230120   4.399   2.161   6.071 -0.0529 -0.2336  0.6822
 6163SOL     OW30121   4.490   3.408   3.352  0.2575 -0.2185 -0.1460
 6163SOL    HW130122   4.548   3.335   3.375  1.7141  1.1310  0.5044
 6163SOL    HW230123   4.409   3.361   3.371  0.5654 -0.4087  0.7227
 6164SOL     OW30124   3.130   3.940  16.761  0.1442 -0.7115 -0.3153
 6164SOL    HW130125   3.198   3.956  16.696  1.1028  2.5893  1.5002
 6164SOL    HW230126   3.071   3.891  16.704 -1.3602  1.9715 -1.0566
 6165SOL     OW30127   3.862   0.822   7.323 -0.1379  0.2837  0.6365
 6165SOL    HW130128   3.775   0.844   7.291 -0.1962 -0.6555  0.1584
 6165SOL    HW230129   3.850   0.730   7.346  0.2567  0.4302  1.4623
 6166SOL     OW30130   0.237   1.835   8.232 -0.0755 -0.2289 -0.2810
 6166SOL    HW130131   0.191   1.774   8.174 -3.2464  1.2941  0.6480
 6166SOL    HW230132   0.289   1.773   8.284 -2.3411 -1.2451  0.7552
 6167SOL     OW30133   0.721   3.427  17.387  0.1891 -0.0298  0.2808
 6167SOL    HW130134   0.708   3.514  17.424  1.9972 -0.2926  1.5005
 6167SOL    HW230135   0.670   3.437  17.306 -1.1463  0.2396  1.1608
 6168SOL     OW30136   0.918   0.188  15.534  0.0181 -0.0531  0.4185
 6168SOL    HW130137   0.870   0.198  15.452  2.7259 -0.6953 -1.2331
 6168SOL    HW230138   1.004   0.222  15.510  0.2787 -1.8729 -1.2296
 6169SOL     OW30139   3.608   2.962   0.222  0.2007 -0.2155 -0.1771
 6169SOL    HW130140   3.680   3.025   0.215  1.8494 -1.7248  2.9851
 6169SOL    HW230141   3.524   3.008   0.222 -0.9661 -2.3569  1.4180
 6170SOL     OW30142   0.678   3.159   2.847  0.5924  0.2739  0.1380
 6170SOL    HW130143   0.750   3.222   2.853  1.1449 -0.4894  1.6103
 6170SOL    HW230144   0.703   3.098   2.777  0.5464 -3.8476  3.6685
 6171SOL     OW30145   3.502   1.490  11.544 -0.2155 -0.2971 -0.5421
 6171SOL    HW130146   3.425   1.435  11.532 -0.1466 -0.2585 -1.1558
 6171SOL    HW230147   3.463   1.571  11.577 -1.6644 -0.4285 -1.9304
 6172SOL     OW30148   4.575   0.788   0.045 -0.3934  0.1751 -1.1111
 6172SOL    HW130149   4.660   0.794   0.002 -0.1585  1.0854 -0.5031
 6172SOL    HW230150   4.554   0.878   0.068  0.0063 -0.4545  1.7100
 6173SOL     OW30151   3.314   3.633   2.099 -0.3001  0.1014  0.6770
 6173SOL    HW130152   3.329   3.539   2.093 -1.6296 -0.0911  0.4281
 6173SOL    HW230153   3.279   3.648   2.187 -0.3152 -3.7553  1.3257
 6174SOL     OW30154   2.179   3.636   4.756 -0.4707 -0.5166 -0.6072
 6174SOL    HW130155   2.218   3.722   4.740  1.9058 -1.1390  1.7908
 6174SOL    HW230156   2.174   3.602   4.667  0.7539 -0.5268 -0.6644
 6175SOL     OW30157   4.699   0.403   6.161 -0.1426 -0.1442 -0.1096
 6175SOL    HW130158   0.043   0.396   6.123  0.8812 -1.1061  2.4651
 6175SOL    HW230159   4.683   0.321   6.207  0.0832  1.1945  2.3159
 6176SOL     OW30160   1.640   2.460   9.543 -0.3514 -0.0325  0.5025
 6176SOL    HW130161   1.573   2.411   9.590  1.7307 -2.7362  0.6755
 6176SOL    HW230162   1.690   2.390   9.500 -1.5944  0.0080 -1.0000
 6177SOL     OW30163   1.399   3.413  10.276 -0.5449 -0.7326  0.5898
 6177SOL    HW130164   1.348   3.484  10.315 -0.4142 -0.4350  0.2251
 6177SOL    HW230165   1.450   3.388  10.353  3.5369  0.7351 -1.6661
 6178SOL     OW30166   3.744   3.568  17.008 -0.0468  0.2739  0.4160
 6178SOL    HW130167   3.823   3.527  17.044 -0.2564  0.6866  1.3337
 6178SOL    HW230168   3.732   3.632  17.079  1.5903  2.3631 -1.1464
 6179SOL     OW30169   3.721   4.424   1.896 -0.1045  0.1741  0.0090
 6179SOL    HW130170   3.666   4.481   1.950  0.7529  1.0182 -0.0052
 6179SOL    HW230171   3.787   4.488   1.867 -1.8195  1.6957 -0.5748
 6180SOL     OW30172   4.241   4.320   9.767 -0.1681 -0.7481  0.5142
 6180SOL    HW130173   4.230   4.413   9.750  0.6806 -0.4306  1.7154
 6180SOL    HW230174   4.313   4.316   9.830 -1.4873  0.4589  2.0691
 6181SOL     OW30175   3.559   4.108   0.603 -0.2576  1.0855 -0.6603
 6181SOL    HW130176   3.480   4.061   0.578 -0.3636  0.8440  0.1339
 6181SOL    HW230177   3.571   4.078   0.693  1.0999  0.5806 -1.0003
 6182SOL     OW30178   3.383   1.884   6.714  0.1427 -0.1556 -0.3015
 6182SOL    HW130179   3.428   1.814   6.667 -0.1209 -1.4438  1.3724
 6182SOL    HW230180   3.304   1.842   6.747  1.1664 -1.8193  0.0320
 6183SOL     OW30181   1.140   0.703   2.655  0.4133  0.1325  0.0719
 6183SOL    HW130182   1.219   0.648   2.654 -0.4954 -1.1844  0.2994
 6183SOL    HW230183   1.167   0.756   2.580 -0.4459  2.7340  1.6164
 6184SOL     OW30184   3.176   1.980  15.770 -0.0197 -0.0665  0.4549
 6184SOL    HW130185   3.208   2.043  15.834 -0.1592  0.1141  0.3448
 6184SOL    HW230186   3.261   1.944  15.743 -0.3716 -0.1167 -0.5629
 6185SOL     OW30187   4.728   1.722   2.781 -0.6772  0.0930 -0.3757
 6185SOL    HW130188   4.655   1.778   2.807 -0.9986 -0.3185 -0.3969
 6185SOL    HW230189   4.681   1.660   2.725  1.8897 -1.1522 -1.1438
 6186SOL     OW30190   2.192   2.825  16.527 -0.4828  0.6287 -0.2787
 6186SOL    HW130191   2.171   2.896  16.588  2.4222  0.6327  0.7524
 6186SOL    HW230192   2.190   2.874  16.445  3.0069  0.7755 -0.3133
 6187SOL     OW30193   2.040   3.245  11.108  0.4128  0.5813 -0.8722
 6187SOL    HW130194   2.035   3.339  11.126 -2.6554  0.4391 -0.9642
 6187SOL    HW230195   2.098   3.214  11.178  0.1442  3.2414  0.5302
 6188SOL     OW30196   4.161   1.659   8.560 -0.2552 -0.6758  0.0693
 6188SOL    HW130197   4.086   1.706   8.597 -0.5725 -0.7259 -0.4953
 6188SOL    HW230198   4.235   1.707   8.596 -1.5271  1.5908 -0.3074
 6189SOL     OW30199   0.500   2.069  11.676  0.6337  0.0013 -0.1127
 6189SOL    HW130200   0.445   2.146  11.680 -0.6959 -1.0548  2.0372
 6189SOL    HW230201   0.458   2.003  11.731 -0.6528  0.3450 -0.6987
 6190SOL     OW30202   3.801   4.377   6.693  0.1493 -0.1874  0.3401
 6190SOL    HW130203   3.786   4.294   6.737  1.5593 -1.0888 -0.8863
 6190SOL    HW230204   3.871   4.411   6.749  1.0140 -0.9417 -0.2857
 6191SOL     OW30205   4.192   3.342   8.733 -0.2241  0.1521  0.5667
 6191SOL    HW130206   4.222   3.418   8.783 -1.4299  0.7080  0.4483
 6191SOL    HW230207   4.220   3.281   8.801 -0.6489  0.4479  1.0066
 6192SOL     OW30208   1.998   0.687   8.166  0.2158 -0.3499 -0.4747
 6192SOL    HW130209   1.979   0.778   8.192  1.0002 -0.2521 -0.2523
 6192SOL    HW230210   1.928   0.641   8.212  0.1960 -1.5039 -1.6631
 6193SOL     OW30211   1.193   4.402  15.678 -0.5525  0.1772  0.2111
 6193SOL    HW130212   1.226   4.321  15.717 -1.2765 -0.6970 -0.9975
 6193SOL    HW230213   1.218   4.382  15.587  0.5029  0.6901  0.3783
 6194SOL     OW30214   4.380   1.419  14.428  0.7773 -0.6252  0.3010
 6194SOL    HW130215   4.292   1.385  14.414 -0.4309  2.0506  1.2753
 6194SOL    HW230216   4.391   1.387  14.518 -0.2055 -0.4109  0.5031
 6195SOL     OW30217   2.236   0.447  14.697 -0.4358  0.3921 -0.1903
 6195SOL    HW130218   2.239   0.515  14.630 -1.7667 -1.0628 -1.7562
 6195SOL    HW230219   2.208   0.368  14.651 -1.2821  0.6703 -0.1621
 6196SOL     OW30220   2.119   3.533  10.206  0.1931 -0.1427  0.5058
 6196SOL    HW130221   2.158   3.447  10.191  1.9724  0.2662  2.6500
 6196SOL    HW230222   2.199   3.577  10.238  1.4425 -1.1794 -1.2074
 6197SOL     OW30223   2.957   1.941   2.184  0.1095 -0.4287  0.2567
 6197SOL    HW130224   3.005   2.023   2.175 -1.5599  0.4395 -0.5197
 6197SOL    HW230225   2.866   1.962   2.205 -0.3360 -1.2496 -0.8601
 6198SOL     OW30226   0.961   0.582   1.882  0.5882 -0.2499 -0.3049
 6198SOL    HW130227   0.954   0.621   1.969 -0.2914 -0.0944 -0.4503
 6198SOL    HW230228   0.876   0.600   1.842  0.5607 -1.1556 -0.6396
 6199SOL     OW30229   2.197   3.005   7.698  0.6055  0.1748 -0.0518
 6199SOL    HW130230   2.237   3.068   7.639  0.9800 -0.4041 -0.4205
 6199SOL    HW230231   2.278   2.953   7.699  0.8545  0.5501 -0.6643
 6200SOL     OW30232   1.248   1.180  14.694  0.2020  0.5597 -0.1441
 6200SOL    HW130233   1.173   1.186  14.754 -0.3693  2.8226 -1.0949
 6200SOL    HW230234   1.263   1.269  14.664  1.7850  0.8856  1.6581
 6201SOL     OW30235   3.043   0.461  12.397 -0.0316 -0.0189  0.6000
 6201SOL    HW130236   2.983   0.386  12.408  0.9728 -1.5530 -4.4568
 6201SOL    HW230237   2.977   0.530  12.387  1.3086  1.4121  1.6885
 6202SOL     OW30238   0.811   2.943   2.303  0.5604  0.0595  0.0181
 6202SOL    HW130239   0.902   2.920   2.320  0.0794 -0.1580  2.3244
 6202SOL    HW230240   0.774   2.968   2.388 -2.5902 -1.8580 -0.7754
 6203SOL     OW30241   1.872   1.315  12.532  0.4708 -0.4713  0.4577
 6203SOL    HW130242   1.938   1.322  12.602 -1.9666  3.1664  2.3767
 6203SOL    HW230243   1.795   1.358  12.567  2.1101  1.2567  1.9578
 6204SOL     OW30244   1.248   0.246   4.051 -0.1306  0.6822 -0.2321
 6204SOL    HW130245   1.200   0.267   4.131  1.4682 -0.4595  1.0180
 6204SOL    HW230246   1.246   0.151   4.040 -0.6533  0.7087 -0.3677
 6205SOL     OW30247   1.748   3.913  10.148 -0.2752  0.4018  0.5962
 6205SOL    HW130248   1.669   3.880  10.105  2.1686 -3.1023 -1.2270
 6205SOL    HW230249   1.770   3.840  10.206  1.0273  0.8343  0.6282
 6206SOL     OW30250   4.595   2.933   8.032 -0.5125 -0.5560  0.1610
 6206SOL    HW130251   4.572   3.009   8.086 -0.6819 -1.7541  1.7811
 6206SOL    HW230252   4.522   2.941   7.970 -0.0182  0.0722 -0.3472
 6207SOL     OW30253   0.834   3.811   4.325  0.1842  0.3344  0.0900
 6207SOL    HW130254   0.905   3.747   4.317 -1.2887 -1.4993  1.5716
 6207SOL    HW230255   0.831   3.807   4.420 -2.1970 -0.8424 -0.0309
 6208SOL     OW30256   0.296   0.130   6.227 -0.0577 -0.5393  0.1582
 6208SOL    HW130257   0.265   0.110   6.315 -1.0057 -0.1030 -0.0839
 6208SOL    HW230258   0.242   0.072   6.173  0.0215 -1.0899  0.6633
 6209SOL     OW30259   1.802   3.624   7.645 -0.1625  0.5495  0.0717
 6209SOL    HW130260   1.783   3.704   7.595 -1.0643  0.0435 -0.3914
 6209SOL    HW230261   1.745   3.560   7.601  0.4076  0.2142 -0.1792
 6210SOL     OW30262   2.421   0.891   9.114  0.1408 -0.4793 -0.3414
 6210SOL    HW130263   2.431   0.837   9.035  1.7511 -2.5742  1.3021
 6210SOL    HW230264   2.514   0.904   9.130 -0.1472 -1.9745  2.5903
 6211SOL     OW30265   1.955   1.695   4.585  0.1932  0.7023 -0.3617
 6211SOL    HW130266   1.898   1.697   4.662 -0.3718 -3.1407 -0.7002
 6211SOL    HW230267   1.885   1.706   4.521 -0.2435 -1.0592 -0.1759
 6212SOL     OW30268   2.539   2.523   2.596  0.3432  0.0647 -0.3095
 6212SOL    HW130269   2.515   2.464   2.668  1.4894 -0.9537 -0.7546
 6212SOL    HW230270   2.574   2.600   2.640  1.8622 -0.7275 -0.1239
 6213SOL     OW30271   3.192   1.018   6.710 -0.1078  0.3191 -0.4872
 6213SOL    HW130272   3.257   0.969   6.760 -1.2305  0.5644  1.2249
 6213SOL    HW230273   3.159   0.946   6.657 -0.6805 -0.3013  0.7332
 6214SOL     OW30274   2.358   0.054   2.726 -0.3079  0.1161 -0.3124
 6214SOL    HW130275   2.408   0.058   2.644 -2.0579 -1.4802 -1.4694
 6214SOL    HW230276   2.356   0.144   2.758 -1.2320 -0.0249  0.0026
 6215SOL     OW30277   1.246   4.325  16.454  0.3592 -0.3253 -0.2209
 6215SOL    HW130278   1.287   4.410  16.473  2.0835 -1.5058  1.2949
 6215SOL    HW230279   1.164   4.362  16.421 -0.3041 -0.5530  1.1933
 6216SOL     OW30280   4.300   1.795  14.547 -0.7007  0.2425  0.4789
 6216SOL    HW130281   4.287   1.874  14.495 -3.1163 -1.4024 -1.4099
 6216SOL    HW230282   4.305   1.823  14.639 -3.0847 -0.8659  0.9276
 6217SOL     OW30283   1.462   3.772  15.453  0.1454  0.1790 -0.1477
 6217SOL    HW130284   1.478   3.717  15.530  2.8650 -1.7294 -2.0439
 6217SOL    HW230285   1.413   3.712  15.397  0.5473 -0.2917  0.0016
 6218SOL     OW30286   0.282   3.083   5.474  0.1131 -0.4810  0.4178
 6218SOL    HW130287   0.236   3.018   5.526 -0.4798 -0.8488 -0.5711
 6218SOL    HW230288   0.226   3.100   5.398  0.4041 -0.9187  0.1019
 6219SOL     OW30289   4.168   1.235   0.261 -0.2632  0.1332  0.7270
 6219SOL    HW130290   4.159   1.225   0.166 -0.3182 -1.7863  0.9343
 6219SOL    HW230291   4.263   1.246   0.261 -0.1250 -1.1820 -2.3795
 6220SOL     OW30292   3.672   1.940   3.597 -0.1316  0.5397 -0.3012
 6220SOL    HW130293   3.745   1.993   3.627 -0.5714  0.6413  0.5926
 6220SOL    HW230294   3.638   1.919   3.684 -0.0963  0.2202 -0.3632
 6221SOL     OW30295   2.008   3.487   8.530 -0.4896  0.3454 -0.4451
 6221SOL    HW130296   1.964   3.508   8.612  0.9129 -2.8760  1.1319
 6221SOL    HW230297   2.100   3.483   8.555 -0.4856 -0.3128 -0.5600
 6222SOL     OW30298   0.908   0.883   0.570 -0.3580 -0.4166 -0.2177
 6222SOL    HW130299   0.984   0.906   0.516 -1.3083  0.1869 -1.2895
 6222SOL    HW230300   0.914   0.787   0.567  0.3955 -0.4190  1.1109
 6223SOL     OW30301   1.178   4.523   3.687 -0.2598 -0.2682 -0.4837
 6223SOL    HW130302   1.224   4.467   3.624 -1.1841  0.4769 -1.8199
 6223SOL    HW230303   1.137   4.464   3.750 -0.5431  1.6579  1.1150
 6224SOL     OW30304   1.257   4.514   0.954 -0.0894  0.3993 -0.5556
 6224SOL    HW130305   1.307   4.558   0.884  0.1657  0.3085 -0.4300
 6224SOL    HW230306   1.179   4.569   0.959 -0.7444 -0.4796 -1.1591
 6225SOL     OW30307   3.914   1.508   4.032  0.2658  0.4115  0.4014
 6225SOL    HW130308   3.965   1.508   4.113  0.8950  0.3192  0.0054
 6225SOL    HW230309   3.981   1.461   3.982  1.3884  1.7059  0.6818
 6226SOL     OW30310   1.834   1.336   1.708 -0.1280 -0.3351  0.4000
 6226SOL    HW130311   1.916   1.385   1.703 -1.4510  1.5723 -2.7459
 6226SOL    HW230312   1.814   1.349   1.616  1.4206  1.1441  0.2790
 6227SOL     OW30313   3.340   3.061   6.826 -0.3657  0.0622  0.1006
 6227SOL    HW130314   3.339   3.141   6.773  1.6111  0.0410  0.0108
 6227SOL    HW230315   3.283   3.003   6.777 -0.0345  1.4057 -1.8819
 6228SOL     OW30316   4.377   1.723   7.875  0.4846 -0.5203  0.7316
 6228SOL    HW130317   4.326   1.730   7.956 -2.7215 -1.6821 -1.2043
 6228SOL    HW230318   4.465   1.750   7.901  0.3223 -0.3741  1.1389
 6229SOL     OW30319   0.486   4.431   4.221 -0.0125  0.0520 -0.6557
 6229SOL    HW130320   0.511   4.522   4.237  2.1046 -0.9055  1.5264
 6229SOL    HW230321   0.567   4.400   4.181 -0.3250  1.0557 -2.0731
 6230SOL     OW30322   1.591   0.504  10.885 -0.3381 -0.2371 -0.7794
 6230SOL    HW130323   1.662   0.559  10.918 -0.1531 -0.0803 -1.4439
 6230SOL    HW230324   1.626   0.482  10.798 -0.3741 -0.6332 -0.6922
 6231SOL     OW30325   1.623   2.125   7.252 -0.3478 -0.0259  0.0522
 6231SOL    HW130326   1.564   2.050   7.254  0.6180 -0.8083 -1.1888
 6231SOL    HW230327   1.699   2.099   7.200 -1.7771 -0.1353 -1.9933
 6232SOL     OW30328   2.651   4.541  17.112  0.2304  0.2905 -1.0172
 6232SOL    HW130329   2.657   4.595  17.034  0.6227  1.2864 -0.3001
 6232SOL    HW230330   2.597   4.469  17.079  2.9334 -2.2302 -0.0271
 6233SOL     OW30331   0.994   3.793   6.885 -0.1761  0.3431 -0.0760
 6233SOL    HW130332   1.068   3.816   6.942 -2.0103  1.8445  1.7108
 6233SOL    HW230333   0.999   3.698   6.880 -2.9105  0.3042 -1.5628
 6234SOL     OW30334   2.283   1.948   8.107 -0.2705 -0.1286 -0.0485
 6234SOL    HW130335   2.208   2.000   8.081 -0.3836  0.2389  1.0079
 6234SOL    HW230336   2.246   1.860   8.098 -6.3115  2.3965  0.5793
 6235SOL     OW30337   0.660   4.394   1.772 -0.1233  0.3377  0.1431
 6235SOL    HW130338   0.681   4.414   1.681  5.4745  0.3815  1.4113
 6235SOL    HW230339   0.620   4.474   1.807  1.1999  2.0364 -2.2433
 6236SOL     OW30340   3.473   1.527   3.072 -0.5615  0.1188 -0.0955
 6236SOL    HW130341   3.419   1.578   3.132 -1.1365 -0.8568  0.2090
 6236SOL    HW230342   3.543   1.500   3.131  0.4671  0.6845 -1.0499
 6237SOL     OW30343   4.497   2.205   9.116 -0.4702  0.5965  0.5224
 6237SOL    HW130344   4.478   2.113   9.095 -1.5043  0.7381  0.8088
 6237SOL    HW230345   4.575   2.194   9.169 -0.1095 -2.4359 -0.6396
 6238SOL     OW30346   4.600   3.549  10.050 -0.4472 -0.0729 -0.0589
 6238SOL    HW130347   4.665   3.560   9.981 -0.2583  0.3665  0.1897
 6238SOL    HW230348   4.518   3.538  10.002  0.0901  1.5531 -1.3394
 6239SOL     OW30349   2.332   4.002   6.752 -0.3633 -0.0518  0.0594
 6239SOL    HW130350   2.277   3.976   6.678  0.4656 -2.3363  0.2606
 6239SOL    HW230351   2.369   4.082   6.716 -0.1075  0.4724  1.4782
 6240SOL     OW30352   0.407   1.170   2.717  0.0853 -0.2265 -1.1053
 6240SOL    HW130353   0.383   1.184   2.625  2.2720 -1.4719 -1.8564
 6240SOL    HW230354   0.339   1.222   2.759  3.2481  2.0630  1.1036
 6241SOL     OW30355   4.032   1.461  15.614 -0.1564 -0.0775  0.3094
 6241SOL    HW130356   4.119   1.479  15.648  0.8700 -2.2915 -1.1320
 6241SOL    HW230357   4.062   1.397  15.549 -4.3443  1.5601 -3.2147
 6242SOL     OW30358   2.965   1.884   8.518  0.7099  0.0180 -0.0170
 6242SOL    HW130359   2.998   1.963   8.560 -0.4553  0.0945  0.7761
 6242SOL    HW230360   2.997   1.899   8.429  1.8808 -0.2221  0.3744
 6243SOL     OW30361   2.485   3.878   6.924  0.1064  0.4295 -0.2268
 6243SOL    HW130362   2.562   3.842   6.880 -0.6436 -0.5967 -0.6919
 6243SOL    HW230363   2.436   3.911   6.848  1.9071  0.3813 -1.3935
 6244SOL     OW30364   1.939   2.510   1.624 -0.1630 -0.2548  0.6268
 6244SOL    HW130365   1.845   2.530   1.616  0.5915  2.1763 -2.1521
 6244SOL    HW230366   1.937   2.423   1.663  0.3888 -0.3917  0.3385
 6245SOL     OW30367   4.081   2.392   2.504 -0.1412 -0.1941  0.5040
 6245SOL    HW130368   4.066   2.302   2.534 -0.1774 -1.0510 -2.0551
 6245SOL    HW230369   4.176   2.397   2.518  0.0937  0.8927 -1.4109
 6246SOL     OW30370   3.006   3.249   8.346  0.3533 -0.5841 -0.2835
 6246SOL    HW130371   2.926   3.279   8.303 -0.8310 -1.1358  1.5645
 6246SOL    HW230372   3.065   3.287   8.281  0.0910 -0.6552 -0.5628
 6247SOL     OW30373   0.483   3.131   7.907 -0.1556  0.4400 -0.7466
 6247SOL    HW130374   0.459   3.217   7.873 -0.7948  0.5848  0.0756
 6247SOL    HW230375   0.482   3.085   7.823  0.0713 -2.1837  0.6899
 6248SOL     OW30376   1.759   2.246   3.835  0.2592 -0.4440 -0.4336
 6248SOL    HW130377   1.675   2.211   3.865  0.8929 -0.6447  1.0936
 6248SOL    HW230378   1.757   2.321   3.895  2.1359 -0.6690 -0.1035
 6249SOL     OW30379   3.723   4.379   3.563 -0.1952  0.9934 -0.3386
 6249SOL    HW130380   3.741   4.289   3.536  1.1570  2.0990 -3.1454
 6249SOL    HW230381   3.816   4.402   3.573  0.1484 -0.2674 -0.5742
 6250SOL     OW30382   3.669   0.836  11.219 -0.2518  0.1707 -0.0636
 6250SOL    HW130383   3.606   0.901  11.187  0.4387  0.4559 -0.8478
 6250SOL    HW230384   3.746   0.841  11.162  0.7405 -0.9932  1.1858
 6251SOL     OW30385   0.426   0.724   6.566 -0.5615 -0.2069  0.2153
 6251SOL    HW130386   0.403   0.813   6.538 -0.4389 -0.1476  0.3030
 6251SOL    HW230387   0.492   0.740   6.634  0.5233  0.9273 -1.1119
 6252SOL     OW30388   2.886   0.224   8.820 -0.4155 -0.0108  0.1056
 6252SOL    HW130389   2.952   0.221   8.889  1.0622 -0.4764 -1.3558
 6252SOL    HW230390   2.825   0.155   8.848  0.4055 -1.3977 -1.5471
 6253SOL     OW30391   4.582   2.708  14.505  0.4914 -0.3369  0.3392
 6253SOL    HW130392   4.583   2.618  14.473  0.3799 -0.1838 -0.0882
 6253SOL    HW230393   4.563   2.755  14.424  0.3941  1.4664  1.3809
 6254SOL     OW30394   1.771   0.329   7.062 -0.2109  0.2585 -0.3686
 6254SOL    HW130395   1.848   0.289   7.020  0.3976  1.0744 -0.0297
 6254SOL    HW230396   1.699   0.282   7.020  0.4789 -3.3628  2.4913
 6255SOL     OW30397   2.889   0.936  11.956  0.4146  0.0180  0.1486
 6255SOL    HW130398   2.834   0.971  11.885  1.5105  1.0632 -0.1965
 6255SOL    HW230399   2.817   0.896  12.004  0.8981 -2.0855 -0.8642
 6256SOL     OW30400   0.273   0.289   6.648 -0.3549 -0.7717  0.1088
 6256SOL    HW130401   0.356   0.257   6.685 -0.0981  0.1690  0.3432
 6256SOL    HW230402   0.230   0.322   6.727  3.0256  1.5354  0.9640
 6257SOL     OW30403   0.684   2.397  11.446 -0.1017 -0.0567 -0.2420
 6257SOL    HW130404   0.667   2.347  11.366 -0.5161  3.2260 -2.2129
 6257SOL    HW230405   0.640   2.340  11.509  0.6487 -2.1253 -1.6044
 6258SOL     OW30406   3.405   0.673  10.813  0.4000  0.5393  0.2804
 6258SOL    HW130407   3.424   0.724  10.892  3.4947 -0.3174  0.0929
 6258SOL    HW230408   3.417   0.582  10.843 -0.7089 -0.4961 -2.4063
 6259SOL     OW30409   2.818   0.035   8.181  0.4094 -0.3600  0.5086
 6259SOL    HW130410   2.760   0.024   8.256 -1.4950 -1.7581 -1.1573
 6259SOL    HW230411   2.884   4.719   8.216  0.9847  0.8978  1.5855
 6260SOL     OW30412   3.375   0.065   6.636  0.1073  0.1775 -0.2053
 6260SOL    HW130413   3.453   0.120   6.637 -0.0149  0.3516 -0.3797
 6260SOL    HW230414   3.393   4.739   6.699 -0.4957  0.5136  0.3304
 6261SOL     OW30415   2.310   1.105   5.433 -0.5756 -0.6254  0.4878
 6261SOL    HW130416   2.301   1.170   5.363 -0.8504 -1.9048 -0.6678
 6261SOL    HW230417   2.286   1.025   5.386  0.4603  0.5842 -2.1266
 6262SOL     OW30418   2.654   0.398   8.741 -0.4823 -0.3303  0.1181
 6262SOL    HW130419   2.720   0.344   8.785 -1.1195 -0.1029  1.3612
 6262SOL    HW230420   2.589   0.339   8.702 -1.4402  1.1897 -0.5931
 6263SOL     OW30421   4.360   3.338   8.524  0.1735 -0.3101 -0.0019
 6263SOL    HW130422   4.374   3.244   8.514 -0.8734 -0.5065  0.3473
 6263SOL    HW230423   4.304   3.332   8.602 -1.6154  2.5463 -1.0665
 6264SOL     OW30424   1.821   3.098   7.900 -0.2773 -0.1079 -0.0735
 6264SOL    HW130425   1.898   3.058   7.941  0.3745  1.9706  0.7790
 6264SOL    HW230426   1.859   3.115   7.814  3.4536  0.4494  1.6501
 6265SOL     OW30427   4.712   0.107  16.189 -0.6445  0.6201  0.0525
 6265SOL    HW130428   0.045   0.133  16.239  0.7148 -2.2095 -0.5298
 6265SOL    HW230429   4.674   0.040  16.246  1.5314  0.8883  1.8276
 6266SOL     OW30430   2.240   1.386   3.109 -0.3286  0.0693 -0.0280
 6266SOL    HW130431   2.185   1.342   3.173 -0.5410  0.6257  0.1743
 6266SOL    HW230432   2.180   1.396   3.035 -0.8145 -0.2561  0.3263
 6267SOL     OW30433   4.093   1.483  11.028 -0.4175 -0.2316  0.1350
 6267SOL    HW130434   4.160   1.419  11.055  0.8647  0.5710 -1.1401
 6267SOL    HW230435   4.027   1.431  10.982 -0.9702  1.2564 -0.7264
 6268SOL     OW30436   0.076   4.486   6.335 -0.5137 -0.0984 -0.1677
 6268SOL    HW130437   4.739   4.477   6.285  1.2555 -2.9770 -2.5337
 6268SOL    HW230438   0.101   4.396   6.356  0.7050  0.3216  0.2407
 6269SOL     OW30439   2.843   4.666  16.620 -0.1195  0.1851 -0.3583
 6269SOL    HW130440   2.911   4.602  16.641 -0.0610  0.1348 -0.7012
 6269SOL    HW230441   2.815   4.640  16.533  0.8075 -2.0139 -0.0064
 6270SOL     OW30442   1.990   2.645   9.415  0.4672  0.1681  0.0989
 6270SOL    HW130443   2.040   2.576   9.458 -0.9262 -0.1046  1.2863
 6270SOL    HW230444   1.932   2.587   9.365  0.0767  0.1908  0.5306
 6271SOL     OW30445   0.914   1.079  10.989 -0.2114 -0.4716 -0.2601
 6271SOL    HW130446   0.858   1.086  11.066  0.9634 -2.0600  0.7441
 6271SOL    HW230447   0.964   0.998  10.999  1.0579  0.5829  1.8565
 6272SOL     OW30448   3.199   0.177   6.224  0.1989  0.3077  0.5474
 6272SOL    HW130449   3.286   0.139   6.237  0.0726  0.7840  2.8037
 6272SOL    HW230450   3.202   0.238   6.151 -0.5586 -1.3142 -0.8395
 6273SOL     OW30451   3.134   4.078   2.793 -0.2700 -0.3698  0.0266
 6273SOL    HW130452   3.099   3.989   2.794  2.1690 -1.3220  0.8335
 6273SOL    HW230453   3.076   4.134   2.742  3.8496  3.8574 -0.0280
 6274SOL     OW30454   1.068   1.672   5.190 -1.2640 -0.2733  0.2150
 6274SOL    HW130455   1.043   1.722   5.111  1.4563 -1.3063 -1.2824
 6274SOL    HW230456   1.143   1.721   5.223 -0.7453 -1.3484  0.6019
 6275SOL     OW30457   1.566   2.725   9.344 -0.6428  0.1038  0.2679
 6275SOL    HW130458   1.661   2.740   9.348 -0.5922 -0.8647  2.7460
 6275SOL    HW230459   1.542   2.815   9.326  0.5628  0.2160 -0.7720
 6276SOL     OW30460   0.056   0.742   1.624 -0.7734  0.2447 -0.3698
 6276SOL    HW130461   0.065   0.813   1.687  0.8417 -0.5352  0.2770
 6276SOL    HW230462   4.739   0.789   1.567 -1.4909  0.3513  0.4851
 6277SOL     OW30463   0.677   0.385   3.151  0.3955  0.7154  0.6815
 6277SOL    HW130464   0.644   0.419   3.068 -0.3640 -0.2888  0.5748
 6277SOL    HW230465   0.609   0.412   3.214 -0.1843  1.0115 -0.0746
 6278SOL     OW30466   1.710   2.743   2.317 -0.2406  0.4092 -0.1132
 6278SOL    HW130467   1.709   2.681   2.390 -0.7296 -2.6939 -2.7564
 6278SOL    HW230468   1.653   2.815   2.343 -0.2071  0.4687 -0.2029
 6279SOL     OW30469   2.338   3.418   5.641  0.4389 -0.5237 -0.2450
 6279SOL    HW130470   2.257   3.470   5.640 -0.0702 -1.3136  0.6826
 6279SOL    HW230471   2.317   3.327   5.620  1.9312 -0.6014 -1.4164
 6280SOL     OW30472   3.710   2.891   2.019  0.6396 -0.7901 -0.0365
 6280SOL    HW130473   3.728   2.839   2.097  1.6004 -2.6735 -1.5087
 6280SOL    HW230474   3.645   2.950   2.057  1.5462 -1.2783  2.3018
 6281SOL     OW30475   3.985   1.967   2.815  0.6087  0.4092  0.1152
 6281SOL    HW130476   3.925   1.898   2.788  2.3990 -0.7270 -0.9963
 6281SOL    HW230477   3.929   2.043   2.801  0.1233 -0.0362 -0.3500
 6282SOL     OW30478   1.889   2.363  14.148  0.2867  0.4297 -0.6998
 6282SOL    HW130479   1.800   2.390  14.128 -0.2981 -0.5632  0.5345
 6282SOL    HW230480   1.923   2.337  14.062  2.0264 -0.1408  0.1490
 6283SOL     OW30481   4.240   3.478   2.213  0.2282 -0.2365  0.2571
 6283SOL    HW130482   4.285   3.521   2.139  0.1726 -0.8685 -0.1453
 6283SOL    HW230483   4.256   3.545   2.279 -1.8782  0.2700  0.2589
 6284SOL     OW30484   1.966   0.785   5.042 -0.6793  0.0688 -0.8982
 6284SOL    HW130485   1.932   0.867   5.077  0.1062 -1.3362  3.1858
 6284SOL    HW230486   1.900   0.718   5.060  2.2015 -2.8231 -0.9865
 6285SOL     OW30487   3.620   1.737  14.835 -0.4243 -0.0020  0.2732
 6285SOL    HW130488   3.673   1.659  14.819 -1.1032 -0.5793  0.8381
 6285SOL    HW230489   3.624   1.775  14.747  0.2617 -0.0267  0.2999
 6286SOL     OW30490   0.160   0.592   3.779  0.1286 -0.2322  0.2106
 6286SOL    HW130491   0.184   0.575   3.688 -0.8615  0.9841 -0.2743
 6286SOL    HW230492   0.157   0.687   3.771  0.5829 -0.4095 -2.3019
 6287SOL     OW30493   1.731   0.141  15.052 -0.0739  0.1144 -0.4372
 6287SOL    HW130494   1.817   0.184  15.048 -1.6288  3.0890 -1.0714
 6287SOL    HW230495   1.730   0.138  15.148  1.5901 -1.6341 -0.4646
 6288SOL     OW30496   4.548   3.481   2.252  0.0768  0.4711 -0.1570
 6288SOL    HW130497   4.481   3.526   2.303  0.8237  0.8698  0.4686
 6288SOL    HW230498   4.497   3.405   2.225  1.6454 -1.4415  2.3324
 6289SOL     OW30499   0.783   1.826   5.818  0.5324 -0.2634  0.6647
 6289SOL    HW130500   0.871   1.860   5.799  1.0126 -1.8668  0.0061
 6289SOL    HW230501   0.783   1.822   5.914 -0.0740  0.2915  0.6872
 6290SOL     OW30502   4.461   0.058   3.187 -0.1203 -0.0844 -0.2996
 6290SOL    HW130503   4.475   4.719   3.233 -1.3943 -0.4574 -0.5911
 6290SOL    HW230504   4.366   0.054   3.179 -0.2867  0.5020  1.2589
 6291SOL     OW30505   1.773   0.236   9.184  0.2076 -0.1713 -0.0993
 6291SOL    HW130506   1.869   0.240   9.181  0.2330  0.3632  1.4748
 6291SOL    HW230507   1.751   0.327   9.199 -3.2748 -0.6466 -2.1836
 6292SOL     OW30508   3.488   3.135   5.075  0.1597  0.0541  0.2498
 6292SOL    HW130509   3.478   3.066   5.009 -0.3664 -2.1187  2.6066
 6292SOL    HW230510   3.398   3.157   5.096  0.1317 -0.3330  0.5328
 6293SOL     OW30511   2.319   3.000   2.718  0.5970 -0.4650 -1.5248
 6293SOL    HW130512   2.389   2.955   2.765 -1.8962 -1.7618  0.9157
 6293SOL    HW230513   2.356   3.019   2.632  1.2865 -2.2298 -1.6244
 6294SOL     OW30514   0.279   4.654  13.439  0.5366  0.6276 -0.2874
 6294SOL    HW130515   0.248   4.740  13.409  1.2988  0.5476 -1.3127
 6294SOL    HW230516   0.265   4.653  13.534 -0.1515 -0.8736 -0.4021
 6295SOL     OW30517   1.576   0.447  15.201 -0.7908 -0.0763 -0.0262
 6295SOL    HW130518   1.627   0.453  15.281 -1.4085  1.7482  0.2289
 6295SOL    HW230519   1.500   0.505  15.209  0.5498  1.4300  1.7339
 6296SOL     OW30520   1.359   4.018   8.261  0.3831  0.0479 -0.5386
 6296SOL    HW130521   1.277   3.993   8.303 -0.1387  0.3075 -1.4209
 6296SOL    HW230522   1.380   4.108   8.288  1.6329 -0.2819 -0.3807
 6297SOL     OW30523   3.354   3.457   2.349 -0.4477  0.6218 -0.3271
 6297SOL    HW130524   3.315   3.461   2.436  0.8022 -0.7420  0.2765
 6297SOL    HW230525   3.445   3.479   2.368 -0.7888  2.8138 -1.1368
 6298SOL     OW30526   0.593   2.659   9.893  0.2947 -0.0949  0.8386
 6298SOL    HW130527   0.616   2.746   9.927  0.2265  0.9058 -1.6383
 6298SOL    HW230528   0.502   2.653   9.922 -0.8033 -0.7112 -2.7349
 6299SOL     OW30529   0.013   1.868   2.544 -0.4867  0.7614 -0.0823
 6299SOL    HW130530   0.068   1.930   2.592  1.4057 -0.2736 -0.9119
 6299SOL    HW230531   0.052   1.781   2.545 -0.6581  0.7080  1.0734
 6300SOL     OW30532   0.916   0.507   6.916 -0.1613 -0.1797 -0.5388
 6300SOL    HW130533   0.896   0.451   6.991  0.9939 -2.0458 -1.6336
 6300SOL    HW230534   0.845   0.488   6.855 -0.6358 -0.3682  0.0669
 6301SOL     OW30535   2.724   0.188   1.780 -0.5585  0.4821  0.6687
 6301SOL    HW130536   2.755   0.126   1.846  0.5463  1.9773  1.5524
 6301SOL    HW230537   2.638   0.218   1.808 -1.4215 -0.1123 -1.3472
 6302SOL     OW30538   1.186   3.816   1.292 -0.4356 -0.1363 -0.8327
 6302SOL    HW130539   1.172   3.738   1.346 -1.9417  0.6607 -0.0651
 6302SOL    HW230540   1.105   3.859   1.320 -0.9322 -1.5472 -0.0592
 6303SOL     OW30541   2.896   4.536   9.984  0.8783  0.2176  0.1591
 6303SOL    HW130542   2.922   4.453   9.946 -0.6703 -0.5996  0.8823
 6303SOL    HW230543   2.843   4.512  10.060  0.1422  0.6121 -0.2231
 6304SOL     OW30544   2.530   2.763   1.813  0.4460  0.5309 -0.2289
 6304SOL    HW130545   2.468   2.737   1.745  0.8094  1.4956 -0.9330
 6304SOL    HW230546   2.468   2.783   1.883 -1.4404 -3.1301 -0.8508
 6305SOL     OW30547   3.880   3.747  10.060 -0.2803  0.0475 -0.1460
 6305SOL    HW130548   3.856   3.701  10.140 -0.4308 -1.5181 -1.0894
 6305SOL    HW230549   3.826   3.825  10.074 -1.6157 -0.8706 -0.1562
 6306SOL     OW30550   2.678   0.858   7.129  0.4757 -0.0498  0.4395
 6306SOL    HW130551   2.651   0.770   7.101 -1.1065  1.0557 -1.5271
 6306SOL    HW230552   2.621   0.875   7.204 -1.2458 -3.5709 -0.0792
 6307SOL     OW30553   3.056   3.031   9.637  0.1490  0.6334  0.3188
 6307SOL    HW130554   3.115   3.098   9.600  0.0700  0.4085 -0.2233
 6307SOL    HW230555   3.102   2.953   9.605 -1.8153 -0.7939  0.9752
 6308SOL     OW30556   0.950   0.557   5.310 -0.0625  0.3448  0.7399
 6308SOL    HW130557   0.917   0.637   5.351 -0.7676 -0.2865  1.4257
 6308SOL    HW230558   0.993   0.593   5.233 -0.3376  0.7572  0.7801
 6309SOL     OW30559   2.976   1.601  14.990 -0.0631  0.1736  0.1467
 6309SOL    HW130560   2.963   1.507  14.978 -0.3523  0.3709 -1.1165
 6309SOL    HW230561   2.987   1.624  14.897 -2.6976 -0.8449 -0.4194
 6310SOL     OW30562   4.136   3.445   0.036  0.3024  0.1518  0.4409
 6310SOL    HW130563   4.080   3.467  17.733 -2.1872 -1.1258  1.9333
 6310SOL    HW230564   4.189   3.373   0.000 -0.0206 -0.5742  1.4135
 6311SOL     OW30565   2.637   1.370  10.637 -0.4144 -0.4502  0.0599
 6311SOL    HW130566   2.652   1.287  10.592  0.2324  0.4548 -1.3935
 6311SOL    HW230567   2.703   1.426  10.596 -0.1295 -0.3055  0.7210
 6312SOL     OW30568   2.433   2.193   7.761  0.2647  0.5770 -0.1345
 6312SOL    HW130569   2.337   2.188   7.767 -0.0870  2.5184 -4.0553
 6312SOL    HW230570   2.462   2.161   7.846  0.8979  0.0091 -0.5732
 6313SOL     OW30571   0.693   0.972  17.251 -0.4521  0.1032 -0.3343
 6313SOL    HW130572   0.668   1.042  17.311  0.5192 -0.4244  0.6911
 6313SOL    HW230573   0.775   1.012  17.220 -1.8568  1.1790 -2.6609
 6314SOL     OW30574   3.348   0.262  11.182  0.6476 -0.0779  0.1051
 6314SOL    HW130575   3.425   0.214  11.153 -0.0480  0.2683 -2.2698
 6314SOL    HW230576   3.285   0.201  11.221 -0.5650  1.0180 -0.1070
 6315SOL     OW30577   2.060   4.334  13.578  0.2629 -0.5376  0.3445
 6315SOL    HW130578   2.111   4.400  13.624  0.2053 -0.2589  0.0111
 6315SOL    HW230579   2.041   4.269  13.645  1.5516 -0.7481  0.4976
 6316SOL     OW30580   0.926   2.399   3.902 -0.7461  0.2702 -0.0434
 6316SOL    HW130581   0.842   2.362   3.928 -0.8424  0.6131  0.1224
 6316SOL    HW230582   0.892   2.418   3.814  0.7174  1.3017 -0.3780
 6317SOL     OW30583   0.512   1.186   1.643 -0.0553  0.2079 -0.7933
 6317SOL    HW130584   0.559   1.167   1.724 -0.9997  0.0345 -0.2933
 6317SOL    HW230585   0.425   1.221   1.662  0.2490  1.2828 -1.3719
 6318SOL     OW30586   0.696   3.230   7.655 -0.6512  0.3084  0.1342
 6318SOL    HW130587   0.751   3.184   7.593  0.1884 -1.3866  2.1303
 6318SOL    HW230588   0.626   3.253   7.594  0.7728  0.2800 -1.5096
 6319SOL     OW30589   3.151   0.101   3.910  0.1637  0.2109  0.7357
 6319SOL    HW130590   3.244   0.108   3.930 -0.6061  1.7336  3.8650
 6319SOL    HW230591   3.142   0.005   3.906 -1.7480  0.4372 -0.3417
 6320SOL     OW30592   1.369   0.783   8.466  0.7700 -0.8665  0.1678
 6320SOL    HW130593   1.348   0.759   8.556  0.4801 -0.2753  0.2553
 6320SOL    HW230594   1.315   0.720   8.418  1.6524 -1.5856  0.1136
 6321SOL     OW30595   0.012   1.416   5.818  0.2883  0.1998 -0.1439
 6321SOL    HW130596   0.057   1.497   5.795 -2.1494  0.9205 -2.3821
 6321SOL    HW230597   4.741   1.372   5.734  0.1594 -0.9446  0.4674
 6322SOL     OW30598   0.492   3.316   7.119 -0.0774  0.6708 -0.3583
 6322SOL    HW130599   0.446   3.279   7.044 -1.6674 -2.2139  2.0397
 6322SOL    HW230600   0.577   3.275   7.102 -0.8327 -1.0363 -0.0891
 6323SOL     OW30601   0.541   4.112   5.679 -0.5144  0.1575 -0.3503
 6323SOL    HW130602   0.626   4.143   5.710  0.0913 -0.2493 -1.5921
 6323SOL    HW230603   0.498   4.088   5.760  2.2571 -3.2969  0.1014
 6324SOL     OW30604   0.412   2.306  11.391 -0.0683  0.1774 -0.2533
 6324SOL    HW130605   0.348   2.238  11.411 -1.0902  1.2899  0.2204
 6324SOL    HW230606   0.389   2.379  11.448 -0.1431 -0.7617  0.9285
 6325SOL     OW30607   2.242   0.671  14.537  0.6964  0.0340  0.3071
 6325SOL    HW130608   2.290   0.644  14.459 -2.2222 -0.0101 -1.4598
 6325SOL    HW230609   2.158   0.698  14.499 -0.6425 -1.9444  1.8368
 6326SOL     OW30610   1.061   3.118   8.665 -0.3155 -0.2940  0.2109
 6326SOL    HW130611   1.113   3.081   8.594 -0.8703 -0.9612  0.1516
 6326SOL    HW230612   0.967   3.108   8.649 -1.0454  2.6865  2.4917
 6327SOL     OW30613   1.584   0.544   7.184 -0.1628 -0.3836 -0.5621
 6327SOL    HW130614   1.623   0.492   7.113 -0.3782  0.6070 -1.4168
 6327SOL    HW230615   1.542   0.485   7.245 -0.4994  2.3637  1.8808
 6328SOL     OW30616   3.617   3.038   6.814  1.0728 -0.3736  0.2359
 6328SOL    HW130617   3.597   3.084   6.732  1.1033 -2.3548 -0.8709
 6328SOL    HW230618   3.529   3.004   6.831  0.8191  0.2611  0.2246
 6329SOL     OW30619   2.082   3.915   6.615  0.3081 -0.0266  0.1412
 6329SOL    HW130620   1.987   3.907   6.622  0.3319 -1.0303 -0.7139
 6329SOL    HW230621   2.079   3.989   6.555 -2.3448 -2.6915 -3.0074
 6330SOL     OW30622   3.738   1.130   6.533 -0.1677 -0.2172  0.5035
 6330SOL    HW130623   3.713   1.176   6.614  0.7736 -0.1214  0.7373
 6330SOL    HW230624   3.761   1.049   6.579 -2.5791 -2.3094 -1.9744
 6331SOL     OW30625   3.362   1.686   3.247 -0.4308 -0.2077 -0.1010
 6331SOL    HW130626   3.362   1.781   3.261 -2.1085 -0.2658  0.3074
 6331SOL    HW230627   3.405   1.650   3.325 -1.4370  0.3106  0.6875
 6332SOL     OW30628   2.862   2.050  17.099  0.3684 -0.1939  0.2028
 6332SOL    HW130629   2.775   2.018  17.076  0.2151 -1.2049  2.1937
 6332SOL    HW230630   2.852   2.142  17.121  0.4040 -0.9577  3.4977
 6333SOL     OW30631   2.701   1.274   5.495  0.2182  0.0555 -0.2974
 6333SOL    HW130632   2.683   1.183   5.472  0.7013  0.7024 -3.2714
 6333SOL    HW230633   2.788   1.278   5.455  0.5706 -2.0462  0.2674
 6334SOL     OW30634   4.300   2.154  17.360 -0.4772  0.7236  0.1419
 6334SOL    HW130635   4.305   2.247  17.382  2.4399  0.5803  0.0966
 6334SOL    HW230636   4.279   2.121  17.447 -2.7148  0.8265 -0.3694
 6335SOL     OW30637   0.065   2.828   0.265 -0.1276  0.4320  0.0035
 6335SOL    HW130638   0.065   2.839   0.170  0.1842  0.4371  0.0037
 6335SOL    HW230639   0.137   2.765   0.268  0.7391  1.3218 -1.9766
 6336SOL     OW30640   2.545   2.818   6.119 -0.3697  0.1584 -0.6410
 6336SOL    HW130641   2.490   2.883   6.076 -2.4997 -0.7886  0.6185
 6336SOL    HW230642   2.491   2.783   6.190  0.2842  0.7084  0.1316
 6337SOL     OW30643   2.006   2.461  11.181 -0.7808 -0.3563 -0.5573
 6337SOL    HW130644   1.986   2.461  11.275 -0.0625  1.4774 -0.4021
 6337SOL    HW230645   2.093   2.422  11.181 -0.0809  1.1872 -0.4534
 6338SOL     OW30646   0.552   4.173  15.960 -0.9259  0.2409  0.4173
 6338SOL    HW130647   0.580   4.082  15.954 -2.2905 -0.1634  0.1788
 6338SOL    HW230648   0.578   4.191  16.051  0.8719  0.3140 -0.1007
 6339SOL     OW30649   1.847   2.160   1.351 -0.0275 -0.4282  0.0846
 6339SOL    HW130650   1.801   2.078   1.369  0.8428 -1.4165 -2.2730
 6339SOL    HW230651   1.774   2.220   1.334  1.0829  1.0049  0.4144
 6340SOL     OW30652   0.878   0.687   3.651  0.7020  0.3216 -0.1390
 6340SOL    HW130653   0.881   0.772   3.608 -1.1366  0.1209 -0.6867
 6340SOL    HW230654   0.852   0.639   3.572 -1.7551 -0.4159  1.1129
 6341SOL     OW30655   3.888   1.290   4.463 -0.3298 -0.5840 -0.1448
 6341SOL    HW130656   3.870   1.214   4.408 -2.5290 -0.6397  0.6314
 6341SOL    HW230657   3.864   1.272   4.554  0.6594  0.5901  0.3464
 6342SOL     OW30658   0.388   0.316   3.986 -0.1183  0.2859 -0.0188
 6342SOL    HW130659   0.335   0.391   4.015  0.0550  0.2655  0.3598
 6342SOL    HW230660   0.446   0.353   3.920  0.1288  2.1751  1.2377
 6343SOL     OW30661   3.348   2.424   0.729  0.4253  0.6462  0.1443
 6343SOL    HW130662   3.438   2.393   0.724  0.0534 -0.2954 -0.5499
 6343SOL    HW230663   3.344   2.467   0.815 -0.7354  1.4955 -0.3234
 6344SOL     OW30664   2.098   2.736  13.618  0.0508 -0.0165  0.4721
 6344SOL    HW130665   2.045   2.775  13.687  1.2962 -0.8242  1.8931
 6344SOL    HW230666   2.036   2.699  13.556  0.7119 -1.4579  0.6829
 6345SOL     OW30667   0.033   0.904  16.479  0.1512 -0.3533 -0.0033
 6345SOL    HW130668   0.128   0.906  16.487  0.0442 -3.8830  2.2335
 6345SOL    HW230669   0.002   0.991  16.503 -0.8327 -1.4646  2.7032
 6346SOL     OW30670   2.394   0.287   7.098  0.4950 -0.6050  0.0481
 6346SOL    HW130671   2.336   0.211   7.096  0.0951 -0.2636 -1.0550
 6346SOL    HW230672   2.453   0.255   7.167  2.7206  6.5587  1.5251
 6347SOL     OW30673   3.284   4.035   9.047  0.5385 -0.0102 -0.0964
 6347SOL    HW130674   3.247   4.085   9.119 -1.2064  0.5031 -1.3399
 6347SOL    HW230675   3.352   4.089   9.007  0.8465 -0.2181  0.1520
 6348SOL     OW30676   0.859   4.513   3.015  0.2777 -0.1144 -0.0115
 6348SOL    HW130677   0.806   4.590   2.997 -1.8834 -1.2561  1.4307
 6348SOL    HW230678   0.802   4.450   2.970  2.5128 -1.7498 -0.5921
 6349SOL     OW30679   2.836   0.419   3.589  0.1002 -0.2621  0.3114
 6349SOL    HW130680   2.886   0.347   3.628  1.7519  1.2031  0.8754
 6349SOL    HW230681   2.825   0.478   3.665  4.0164  2.0097 -0.9312
 6350SOL     OW30682   1.733   1.070   7.629 -0.5560 -0.3957  0.2832
 6350SOL    HW130683   1.690   1.027   7.556 -1.3541  1.6941 -0.4771
 6350SOL    HW230684   1.657   1.109   7.672 -0.4497 -0.9054  0.9411
 6351SOL     OW30685   4.406   1.052   8.535  0.3124  0.3632 -0.7599
 6351SOL    HW130686   4.394   1.040   8.629 -2.2460 -2.0435 -1.3842
 6351SOL    HW230687   4.480   0.992   8.521  0.9409  0.3068  2.8362
 6352SOL     OW30688   1.338   1.937   6.679 -0.1818  0.2174  0.4885
 6352SOL    HW130689   1.284   2.015   6.691 -0.0076  0.0141  2.7073
 6352SOL    HW230690   1.388   1.950   6.760  2.0486 -0.5204 -0.7669
 6353SOL     OW30691   3.639   4.241   6.502  0.1709 -0.4850 -0.1923
 6353SOL    HW130692   3.647   4.292   6.582  1.8359 -2.0163  0.6128
 6353SOL    HW230693   3.732   4.222   6.487  0.1292  0.9405 -2.2096
 6354SOL     OW30694   4.252   2.805   8.766  0.4681 -0.1259 -0.8963
 6354SOL    HW130695   4.277   2.765   8.849  3.2952 -1.1483 -2.2198
 6354SOL    HW230696   4.199   2.738   8.723 -0.3297 -0.3984  0.5247
 6355SOL     OW30697   3.770   1.374   5.907 -0.4855  0.3818  0.2700
 6355SOL    HW130698   3.722   1.401   5.985 -0.4804  0.4580  0.2463
 6355SOL    HW230699   3.852   1.350   5.949 -1.9881 -1.3405  2.1950
 6356SOL     OW30700   0.072   0.421   7.262  0.5732  0.2418 -0.4104
 6356SOL    HW130701   0.097   0.336   7.224 -1.3220 -1.0136  1.1959
 6356SOL    HW230702   0.160   0.458   7.272  0.4392  0.1239  1.1493
 6357SOL     OW30703   0.152   0.793   1.079  0.2451 -0.0653 -0.0196
 6357SOL    HW130704   0.182   0.824   0.994 -0.3042 -1.0665 -0.5702
 6357SOL    HW230705   0.231   0.745   1.106 -0.8689 -1.1855  1.2491
 6358SOL     OW30706   0.863   3.217  14.802  0.1320  0.2979  0.7346
 6358SOL    HW130707   0.815   3.220  14.884  1.1674 -0.4128  1.3704
 6358SOL    HW230708   0.880   3.123  14.796 -0.8688  0.2093 -0.6578
 6359SOL     OW30709   2.997   3.403   2.131  0.0379 -0.2845  0.3269
 6359SOL    HW130710   2.957   3.488   2.116 -0.4140 -0.3791  1.0015
 6359SOL    HW230711   2.925   3.344   2.109  1.3432 -0.7646 -2.6725
 6360SOL     OW30712   0.836   2.131   8.689  0.3786  0.4084 -0.4117
 6360SOL    HW130713   0.741   2.136   8.689  0.3804  0.4161  1.6523
 6360SOL    HW230714   0.846   2.061   8.753 -1.7464  2.3245  1.9985
 6361SOL     OW30715   2.607   2.724   5.646  0.5274  1.0087 -0.3015
 6361SOL    HW130716   2.568   2.713   5.733  0.1073  0.4306 -0.5684
 6361SOL    HW230717   2.578   2.813   5.626  0.5280  1.1180  0.1900
 6362SOL     OW30718   2.395   0.288   2.941 -0.1749 -0.1569 -0.0443
 6362SOL    HW130719   2.452   0.214   2.962  1.6340  0.7119 -1.8538
 6362SOL    HW230720   2.372   0.318   3.029 -0.7018 -1.0705  0.1333
 6363SOL     OW30721   1.217   2.894   2.796  0.2500  0.2905  0.5869
 6363SOL    HW130722   1.261   2.973   2.828  0.8821 -0.4492  1.5443
 6363SOL    HW230723   1.294   2.853   2.755  0.5920  0.5358  0.9811
 6364SOL     OW30724   0.915   0.963   7.622  0.3270 -0.1008  0.0013
 6364SOL    HW130725   0.852   0.899   7.654 -0.4443 -0.2439 -1.8161
 6364SOL    HW230726   0.984   0.897   7.628 -0.3539 -0.6734  1.4318
 6365SOL     OW30727   3.071   3.271   3.506 -0.0073 -0.6180 -0.0887
 6365SOL    HW130728   3.163   3.288   3.490 -0.5876  2.4169 -0.2500
 6365SOL    HW230729   3.076   3.214   3.583 -1.9325  1.1074  1.3256
 6366SOL     OW30730   0.349   4.101  11.386  0.2837 -0.5436 -0.0043
 6366SOL    HW130731   0.376   4.037  11.320 -1.0695 -0.0913 -1.0081
 6366SOL    HW230732   0.296   4.153  11.325 -1.5887 -4.1858 -1.4884
 6367SOL     OW30733   2.470   1.289  13.760  0.0787 -0.4648 -0.4733
 6367SOL    HW130734   2.401   1.224  13.748 -2.0995  1.5762  1.0518
 6367SOL    HW230735   2.426   1.367  13.795 -0.0267 -0.1464 -1.3309
 6368SOL     OW30736   0.601   3.576   1.567 -0.3380 -0.1606 -0.1881
 6368SOL    HW130737   0.637   3.492   1.539 -1.6744 -0.6222 -0.5298
 6368SOL    HW230738   0.534   3.557   1.632 -0.1094 -0.5613 -0.0695
 6369SOL     OW30739   3.630   3.525   6.259  0.2104  0.9744 -0.1333
 6369SOL    HW130740   3.657   3.606   6.302 -3.3244  1.7925  0.5878
 6369SOL    HW230741   3.703   3.464   6.270 -0.8652 -0.0762  1.2035
 6370SOL     OW30742   3.380   3.012  12.113 -0.4511 -0.2620 -0.1794
 6370SOL    HW130743   3.382   3.094  12.162  0.7888  0.4500 -1.4152
 6370SOL    HW230744   3.378   3.041  12.021  1.9096  1.9350  0.4536
 6371SOL     OW30745   3.351   3.264   7.987  0.0861 -0.2146 -0.5427
 6371SOL    HW130746   3.276   3.286   7.931 -0.0169 -0.5042 -0.5162
 6371SOL    HW230747   3.381   3.347   8.025  0.4053 -0.5844  0.0045
 6372SOL     OW30748   0.184   4.338   4.176 -0.0580 -0.1500 -0.1061
 6372SOL    HW130749   0.250   4.321   4.243  0.1971 -1.4788 -0.6890
 6372SOL    HW230750   0.123   4.394   4.223  1.6262  1.3150  0.3209
 6373SOL     OW30751   4.566   4.187   3.015  0.4445  0.2645  0.1967
 6373SOL    HW130752   4.555   4.096   3.043 -1.3884  0.8142  1.2338
 6373SOL    HW230753   4.563   4.166   2.921 -0.3971 -0.4464  0.3865
 6374SOL     OW30754   3.087   2.769  14.013  0.3575 -0.5880  0.0916
 6374SOL    HW130755   3.009   2.768  13.958 -0.1773 -2.7610  0.8966
 6374SOL    HW230756   3.040   2.761  14.096 -0.4897 -0.3653 -0.3629
 6375SOL     OW30757   4.090   0.525   6.987  0.0677  0.7402 -0.4415
 6375SOL    HW130758   4.068   0.433   6.971 -0.3823  1.2942 -3.0134
 6375SOL    HW230759   4.019   0.558   6.932  1.0921 -1.6090 -3.1219
 6376SOL     OW30760   2.681   3.384   4.561 -0.2693  0.3289 -0.8510
 6376SOL    HW130761   2.635   3.414   4.640  0.9778 -0.5301  0.2053
 6376SOL    HW230762   2.722   3.302   4.588 -1.5127 -0.4630 -1.3793
 6377SOL     OW30763   3.814   0.471   9.419 -0.4886  0.5117  0.0402
 6377SOL    HW130764   3.850   0.443   9.335 -1.8527 -0.1347 -0.3274
 6377SOL    HW230765   3.854   0.402   9.471  1.5790  0.3233 -1.8081
 6378SOL     OW30766   3.834   3.160   0.368 -0.4250  0.0978 -0.3117
 6378SOL    HW130767   3.819   3.070   0.399  0.5121 -0.4984 -1.6226
 6378SOL    HW230768   3.927   3.176   0.380 -0.4255 -0.6278  0.7202
 6379SOL     OW30769   3.355   2.959  12.973 -0.4862 -0.1760  0.0209
 6379SOL    HW130770   3.423   3.019  13.003 -0.1468 -0.7243  0.3405
 6379SOL    HW230771   3.399   2.881  12.940 -1.5812 -0.6673 -0.2799
 6380SOL     OW30772   3.411   3.848   7.468  0.0432 -0.3058  0.0643
 6380SOL    HW130773   3.328   3.845   7.514  1.9192 -0.2047  3.4492
 6380SOL    HW230774   3.395   3.800   7.387  1.4391  1.3869 -1.2338
 6381SOL     OW30775   4.619   2.131   5.684  0.1450 -0.6100  0.6437
 6381SOL    HW130776   4.596   2.052   5.734 -2.0296 -0.4549 -0.1063
 6381SOL    HW230777   4.687   2.091   5.630 -0.5049  0.7052 -1.1460
 6382SOL     OW30778   4.377   1.885   6.726 -0.4147 -0.3989 -0.7689
 6382SOL    HW130779   4.310   1.844   6.673 -0.2194  0.3403 -1.5840
 6382SOL    HW230780   4.463   1.862   6.691 -0.1793  0.5892 -0.8526
 6383SOL     OW30781   3.791   0.125   5.957 -0.1641 -0.2937 -0.2419
 6383SOL    HW130782   3.876   0.098   5.992 -0.3016 -0.2449  0.1297
 6383SOL    HW230783   3.776   0.208   6.002 -0.1714 -0.1845 -0.4493
 6384SOL     OW30784   3.556   4.362  14.966  0.6427 -0.6764 -0.2111
 6384SOL    HW130785   3.535   4.371  14.873  1.6899  0.0403 -0.3735
 6384SOL    HW230786   3.517   4.275  14.981 -0.4455 -0.2426 -0.5027
 6385SOL     OW30787   4.466   2.944  12.546  0.0465  0.2265 -0.1810
 6385SOL    HW130788   4.395   2.883  12.529 -0.0121  0.6389 -1.4206
 6385SOL    HW230789   4.523   2.922  12.472  0.2406  0.8808 -0.2251
 6386SOL     OW30790   1.133   1.557   4.566  0.3075  0.2550  0.4022
 6386SOL    HW130791   1.080   1.494   4.517  1.3287 -0.3425  0.0682
 6386SOL    HW230792   1.137   1.631   4.504  0.8087 -0.1350 -0.0372
 6387SOL     OW30793   2.364   2.655   0.293 -0.4588  0.0937 -0.1046
 6387SOL    HW130794   2.453   2.629   0.269 -0.4144 -1.4514  1.7093
 6387SOL    HW230795   2.372   2.634   0.386 -0.6059 -0.3914 -0.2013
 6388SOL     OW30796   4.572   3.062   0.953 -0.3780 -0.1208  0.5610
 6388SOL    HW130797   4.643   3.124   0.970 -0.1381 -0.5370  1.0374
 6388SOL    HW230798   4.602   2.982   0.995 -1.8391 -0.7814  0.3470
 6389SOL     OW30799   4.346   1.847   2.413 -0.6580 -0.0399  0.7994
 6389SOL    HW130800   4.271   1.826   2.468 -2.8800  1.1401 -1.7659
 6389SOL    HW230801   4.305   1.858   2.327 -0.1970 -0.6640  0.5017
 6390SOL     OW30802   0.971   4.475   6.177 -0.1868 -0.1691  0.0487
 6390SOL    HW130803   0.960   4.541   6.109  2.3454  2.6253  2.3513
 6390SOL    HW230804   1.007   4.523   6.252  1.7001 -0.6200 -0.5737
 6391SOL     OW30805   0.028   3.487   1.452  0.1537 -0.0406 -0.4475
 6391SOL    HW130806   0.121   3.484   1.473  0.5806  3.0690 -1.9314
 6391SOL    HW230807   4.742   3.492   1.543  2.2438 -2.1515  0.3565
 6392SOL     OW30808   0.915   4.484  14.245  0.7855  0.6125 -0.1744
 6392SOL    HW130809   0.850   4.438  14.191  0.3593  1.2844 -0.2413
 6392SOL    HW230810   0.992   4.468  14.190 -0.1454  1.6785 -1.8010
 6393SOL     OW30811   3.975   1.172   6.811 -0.1864 -0.2700  0.1921
 6393SOL    HW130812   4.008   1.105   6.750 -1.8503 -2.4467  1.6812
 6393SOL    HW230813   3.895   1.200   6.767  0.9041  1.0545 -0.9757
 6394SOL     OW30814   4.377   1.743   4.933  0.8822 -0.3034 -0.2274
 6394SOL    HW130815   4.331   1.801   4.873  1.6740  0.1110 -0.4360
 6394SOL    HW230816   4.433   1.802   4.984 -1.4516 -0.1327  2.1560
 6395SOL     OW30817   3.448   4.012   5.841  0.2069 -0.1951  0.4885
 6395SOL    HW130818   3.419   3.956   5.913 -0.5768 -2.8927 -1.9498
 6395SOL    HW230819   3.521   4.058   5.883  1.5913 -1.1542 -0.8755
 6396SOL     OW30820   3.053   3.047   2.261 -0.2582  0.2219  0.7110
 6396SOL    HW130821   3.092   3.131   2.283  0.8144  0.5079 -2.3442
 6396SOL    HW230822   3.130   2.992   2.280  0.9083  1.5556 -0.2419
 6397SOL     OW30823   3.453   2.666   3.522  0.0695 -0.7403  0.0100
 6397SOL    HW130824   3.426   2.603   3.455  0.4034 -0.8737 -0.0038
 6397SOL    HW230825   3.498   2.611   3.586  0.6791  0.8082  0.9002
 6398SOL     OW30826   1.321   3.603   7.028  1.0861  0.3857 -0.6038
 6398SOL    HW130827   1.288   3.529   6.977 -0.1025  0.6576 -0.2319
 6398SOL    HW230828   1.409   3.607   6.991  0.8137  2.2906 -1.0800
 6399SOL     OW30829   1.836   2.718   3.383  0.5779  0.2073  0.6807
 6399SOL    HW130830   1.902   2.780   3.350  0.9341  0.9021  2.6643
 6399SOL    HW230831   1.791   2.705   3.300  3.4933  1.7382 -1.1508
 6400SOL     OW30832   1.729   3.748   9.180  0.4340 -0.2596 -0.2490
 6400SOL    HW130833   1.779   3.826   9.202  1.4176 -0.8131 -0.5368
 6400SOL    HW230834   1.641   3.770   9.212 -1.3231 -3.9638 -2.4971
 6401SOL     OW30835   2.648   3.204   8.657  0.2408  0.6227 -0.2268
 6401SOL    HW130836   2.670   3.112   8.648  0.5675  0.7322 -0.5516
 6401SOL    HW230837   2.560   3.199   8.619  0.4904 -0.2106 -0.6832
 6402SOL     OW30838   3.224   3.681   1.019 -0.1936 -0.1070 -0.6686
 6402SOL    HW130839   3.226   3.766   1.062 -0.9973 -0.4237 -0.0216
 6402SOL    HW230840   3.218   3.624   1.096  2.6643  0.6851  0.1407
 6403SOL     OW30841   1.296   4.189   2.568  0.9720 -0.2018 -0.1106
 6403SOL    HW130842   1.341   4.272   2.554  2.0741 -1.0047 -1.3945
 6403SOL    HW230843   1.237   4.208   2.495  0.4647  0.8345  0.5740
 6404SOL     OW30844   3.773   3.744   6.357 -0.1359 -0.0261 -0.0470
 6404SOL    HW130845   3.864   3.745   6.387 -0.0081 -1.5803 -0.4032
 6404SOL    HW230846   3.776   3.823   6.303 -1.5918 -0.0329 -0.1371
 6405SOL     OW30847   1.476   1.650   5.996  0.1710 -0.2120  0.1522
 6405SOL    HW130848   1.537   1.618   6.063  1.3873 -0.1178 -0.9169
 6405SOL    HW230849   1.412   1.580   5.982 -0.3090  0.8587 -2.9768
 6406SOL     OW30850   0.270   0.417   5.205 -0.1888  0.3120  0.0526
 6406SOL    HW130851   0.361   0.447   5.199  0.3465 -1.4099 -0.2725
 6406SOL    HW230852   0.215   0.473   5.150  1.5329  0.9429 -1.0362
 6407SOL     OW30853   2.086   2.372   7.646  1.2633 -0.2935 -0.4350
 6407SOL    HW130854   2.037   2.450   7.670 -1.4882 -2.4313  0.9558
 6407SOL    HW230855   2.174   2.407   7.635 -0.0692  2.1064 -3.5663
 6408SOL     OW30856   1.829   0.332   2.348  0.3474 -0.1742 -0.5075
 6408SOL    HW130857   1.857   0.414   2.389  1.5957 -1.4031  1.1069
 6408SOL    HW230858   1.739   0.361   2.336  0.0020 -0.4551  1.3895
 6409SOL     OW30859   4.112   2.896   3.254 -0.4456 -0.3281  0.2649
 6409SOL    HW130860   4.102   2.968   3.192 -0.5156  0.2909  0.9998
 6409SOL    HW230861   4.152   2.823   3.206  0.4496 -1.0649  2.1309
 6410SOL     OW30862   0.177   1.653  17.081 -0.4373  0.1526  0.8067
 6410SOL    HW130863   0.114   1.696  17.138 -0.7899  2.8093 -1.5553
 6410SOL    HW230864   0.108   1.614  17.027  1.5962  0.8769 -2.3169
 6411SOL     OW30865   1.238   3.559   2.514  0.3611  0.0025  0.2111
 6411SOL    HW130866   1.179   3.626   2.479  1.2962  0.1918 -0.9919
 6411SOL    HW230867   1.253   3.512   2.432  0.2690  0.6221 -0.1610
 6412SOL     OW30868   2.781   0.971   3.560 -0.3148 -0.3647  0.2150
 6412SOL    HW130869   2.868   0.959   3.596 -0.2238 -1.7151 -0.4869
 6412SOL    HW230870   2.728   0.901   3.598  0.3496 -0.7757  0.3628
 6413SOL     OW30871   4.611   2.624  10.477 -0.5328  0.1020 -0.0844
 6413SOL    HW130872   4.652   2.710  10.466  0.3122  0.2211  3.7513
 6413SOL    HW230873   4.538   2.644  10.536 -1.2555 -2.1923 -0.1974
 6414SOL     OW30874   0.139   1.374   7.263 -0.3364 -0.2618 -0.5397
 6414SOL    HW130875   0.193   1.394   7.187  0.1856 -0.9721 -0.3617
 6414SOL    HW230876   0.062   1.349   7.212 -0.7573 -0.9880  0.4382
 6415SOL     OW30877   2.507   2.307   1.832 -0.6032 -0.7337 -0.4880
 6415SOL    HW130878   2.437   2.358   1.791 -0.7971  1.5403  2.6561
 6415SOL    HW230879   2.464   2.244   1.890  0.9176 -1.1143  0.2129
 6416SOL     OW30880   1.831   2.016   3.364  0.0849  0.1674 -0.0151
 6416SOL    HW130881   1.864   2.001   3.453  0.1274  0.1128 -0.0400
 6416SOL    HW230882   1.759   2.076   3.386 -0.3574 -0.5689  0.5584
 6417SOL     OW30883   2.752   1.724   6.399  0.4673 -0.3110 -0.1742
 6417SOL    HW130884   2.820   1.659   6.382  0.5073  0.0716 -1.4638
 6417SOL    HW230885   2.688   1.703   6.331  0.6560  0.4576 -0.5988
 6418SOL     OW30886   0.978   1.405   0.378  0.7029 -0.3936  0.1506
 6418SOL    HW130887   0.970   1.310   0.371  1.1654 -0.5140  1.2632
 6418SOL    HW230888   0.999   1.421   0.286 -1.2714 -0.7089 -0.3695
 6419SOL     OW30889   3.173   0.241  17.753  0.1128  0.0194 -0.1312
 6419SOL    HW130890   3.147   0.155  17.721  0.0130 -0.5209  1.4460
 6419SOL    HW230891   3.123   0.301  17.697  1.0095  1.1990  0.3431
 6420SOL     OW30892   0.395   2.594   4.327  0.0617  0.7267 -0.4243
 6420SOL    HW130893   0.484   2.627   4.337 -0.1067  1.0025  0.1259
 6420SOL    HW230894   0.374   2.597   4.420  1.0332 -0.5637 -0.1570
 6421SOL     OW30895   1.075   1.321   9.943  0.2507 -0.0963 -0.7044
 6421SOL    HW130896   1.148   1.292   9.888 -0.7424 -2.0994 -0.9663
 6421SOL    HW230897   1.023   1.371   9.881  0.3033 -1.4401 -1.8266
 6422SOL     OW30898   4.513   1.536   2.057 -0.1944  0.1093  0.3002
 6422SOL    HW130899   4.500   1.464   1.995 -2.3860 -1.1860  2.2729
 6422SOL    HW230900   4.474   1.507   2.139 -1.1507  3.9366  1.1853
 6423SOL     OW30901   2.243   0.887  12.246 -0.6421  0.0588 -0.4788
 6423SOL    HW130902   2.273   0.904  12.336  0.5242  0.0685 -0.8710
 6423SOL    HW230903   2.292   0.955  12.201  0.6463 -0.2566  0.4618
 6424SOL     OW30904   4.191   2.694   6.938 -0.0350 -0.0235  0.3125
 6424SOL    HW130905   4.168   2.775   6.985 -2.8339 -0.5971 -0.0808
 6424SOL    HW230906   4.111   2.642   6.943  0.4163 -0.8317 -1.0171
 6425SOL     OW30907   1.976   1.119   2.307 -0.0552 -0.7859 -0.1392
 6425SOL    HW130908   1.988   1.205   2.348 -0.1122  0.2502 -2.3049
 6425SOL    HW230909   2.028   1.118   2.227  2.7894 -1.6664  1.7031
 6426SOL     OW30910   1.363   1.163   3.379 -0.3691  0.2452 -0.1480
 6426SOL    HW130911   1.345   1.201   3.465  0.9850 -1.1135  0.7374
 6426SOL    HW230912   1.434   1.219   3.348 -0.7372  0.3835 -0.7437
 6427SOL     OW30913   4.225   2.408  16.794 -0.0287 -0.1473 -0.4596
 6427SOL    HW130914   4.163   2.481  16.783 -0.0639  0.0770  1.3083
 6427SOL    HW230915   4.245   2.407  16.887  0.8262  0.9244 -0.6325
 6428SOL     OW30916   2.852   4.322   9.043 -0.6455  0.1709  0.0709
 6428SOL    HW130917   2.908   4.327   8.965 -0.3217  2.3644  0.4311
 6428SOL    HW230918   2.814   4.240   9.012  0.9314 -0.1813 -0.9259
 6429SOL     OW30919   2.578   2.654  13.394 -0.5494  1.0925 -0.1653
 6429SOL    HW130920   2.628   2.703  13.330 -0.9081 -0.8700 -1.9434
 6429SOL    HW230921   2.514   2.717  13.428  0.8365  2.3144  0.1820
 6430SOL     OW30922   3.320   0.361   7.830 -0.0003 -0.1114 -0.8029
 6430SOL    HW130923   3.312   0.272   7.795 -1.9072  0.1342 -0.9928
 6430SOL    HW230924   3.348   0.340   7.919  1.2549  1.4338 -0.8280
 6431SOL     OW30925   1.887   0.935   6.818 -0.8749  0.3543  0.2814
 6431SOL    HW130926   1.801   0.900   6.842 -1.2916  1.3376  0.2217
 6431SOL    HW230927   1.940   0.858   6.800  0.8979  1.1028  2.3758
 6432SOL     OW30928   3.487   1.932  14.989 -0.9596  0.5816  0.4302
 6432SOL    HW130929   3.538   1.857  14.958  0.4028  1.0189  1.6059
 6432SOL    HW230930   3.516   1.936  15.081 -1.2160 -3.2203  0.6564
 6433SOL     OW30931   3.353   2.783  15.008 -0.2294  0.0535  0.5461
 6433SOL    HW130932   3.355   2.705  15.064  1.5139 -1.3229 -1.4763
 6433SOL    HW230933   3.327   2.738  14.928  2.2301 -0.7477  0.2094
 6434SOL     OW30934   2.745   2.398   1.906 -0.6560 -1.0800 -0.3890
 6434SOL    HW130935   2.661   2.354   1.891  0.0825 -3.1269  1.4529
 6434SOL    HW230936   2.741   2.456   1.830 -0.2457  0.6838  0.9151
 6435SOL     OW30937   3.286   0.385  14.367 -0.6902  0.0679  0.1264
 6435SOL    HW130938   3.223   0.345  14.427 -0.6717  1.6703  1.2123
 6435SOL    HW230939   3.365   0.332  14.384  0.7705  1.9673 -0.8249
 6436SOL     OW30940   0.346   0.784   1.702  0.0143  0.3544  0.0768
 6436SOL    HW130941   0.276   0.848   1.715  0.8977  1.0589  1.3023
 6436SOL    HW230942   0.339   0.758   1.610  0.5821  0.2680  0.0624
 6437SOL     OW30943   2.027   3.781   3.755 -0.4421  0.0908  0.5234
 6437SOL    HW130944   2.063   3.757   3.669 -1.2068 -1.1577  0.5463
 6437SOL    HW230945   1.957   3.844   3.735  0.3277  2.0588  4.1007
 6438SOL     OW30946   0.521   4.579   2.417 -0.4106 -0.1055  0.0554
 6438SOL    HW130947   0.539   4.610   2.328 -0.0210 -1.8783 -0.4862
 6438SOL    HW230948   0.539   4.662   2.460 -1.9949  0.9023 -1.2127
 6439SOL     OW30949   2.586   1.442   2.477 -0.5246 -0.3485 -0.6989
 6439SOL    HW130950   2.640   1.510   2.518 -1.6684  0.4654 -0.5494
 6439SOL    HW230951   2.513   1.445   2.539  2.3512  1.0646  2.6627
 6440SOL     OW30952   3.042   4.347   6.939 -0.2962 -0.1277 -0.3696
 6440SOL    HW130953   3.130   4.320   6.964 -0.9637 -0.3331  1.7494
 6440SOL    HW230954   3.008   4.394   7.015 -3.0869  0.1225 -1.7395
 6441SOL     OW30955   0.909   0.058   1.286 -0.5017  0.8470  0.4637
 6441SOL    HW130956   0.856   0.046   1.207 -0.4513 -1.4135  0.7654
 6441SOL    HW230957   0.857   0.121   1.334  0.4298  0.2588  2.2345
 6442SOL     OW30958   3.624   1.312   0.439 -0.3746  0.8898  0.3873
 6442SOL    HW130959   3.668   1.229   0.458  1.5572  2.0458  0.8744
 6442SOL    HW230960   3.575   1.287   0.360  1.0721 -0.2351 -0.1622
 6443SOL     OW30961   3.255   4.489   9.139 -0.1292 -0.2291  0.1491
 6443SOL    HW130962   3.203   4.436   9.199 -2.2049 -0.7105 -2.0653
 6443SOL    HW230963   3.200   4.511   9.064 -0.2567 -0.9361  0.0327
 6444SOL     OW30964   2.800   0.327  17.113 -0.3421  0.0262 -0.2490
 6444SOL    HW130965   2.808   0.233  17.126  2.2445  0.1940 -0.7009
 6444SOL    HW230966   2.733   0.340  17.046 -0.5079 -0.2706 -0.1354
 6445SOL     OW30967   3.687   1.824   8.812 -0.0265 -0.4356 -0.4945
 6445SOL    HW130968   3.668   1.757   8.878  1.7440 -1.8500 -1.4114
 6445SOL    HW230969   3.715   1.891   8.873 -0.4917 -0.7377  0.0527
 6446SOL     OW30970   0.825   1.780  16.210  0.8861 -0.5383 -0.7851
 6446SOL    HW130971   0.745   1.746  16.251  0.4043  0.8316 -0.5610
 6446SOL    HW230972   0.895   1.730  16.252  1.8061  1.4576  0.0732
 6447SOL     OW30973   0.173   0.460  16.848  0.0280  0.0682  0.2584
 6447SOL    HW130974   0.161   0.526  16.780  3.4709 -1.3042 -1.6787
 6447SOL    HW230975   0.261   0.485  16.877  0.6623 -2.3700  0.4511
 6448SOL     OW30976   0.467   0.671   0.701 -1.1912 -0.2449 -0.3355
 6448SOL    HW130977   0.485   0.742   0.639  0.3238  0.8328  1.3349
 6448SOL    HW230978   0.548   0.663   0.752 -0.8654 -0.7539 -0.9289
 6449SOL     OW30979   3.535   0.312   9.467  0.3538 -0.7049  0.1510
 6449SOL    HW130980   3.591   0.361   9.527  0.8778  0.3182 -1.1786
 6449SOL    HW230981   3.500   0.374   9.403 -1.2223  0.3634  2.0861
 6450SOL     OW30982   1.366   1.626   2.119  0.1803  0.4015 -0.0323
 6450SOL    HW130983   1.456   1.607   2.145 -0.0260 -1.1756 -0.4183
 6450SOL    HW230984   1.325   1.621   2.205 -1.7230  2.9578 -0.7901
 6451SOL     OW30985   0.754   1.614   8.453  0.2456  0.3620  0.4912
 6451SOL    HW130986   0.708   1.695   8.472 -0.0333  0.3446 -0.1194
 6451SOL    HW230987   0.845   1.643   8.454 -0.0608  1.5833 -4.1797
 6452SOL     OW30988   1.809   1.915   5.363 -0.3283  0.3752  0.4174
 6452SOL    HW130989   1.735   1.975   5.364  0.2464  1.0506  2.0173
 6452SOL    HW230990   1.840   1.926   5.453 -0.1935  0.7674  0.3245
 6453SOL     OW30991   3.677   3.159  12.888 -0.1134  0.6177  0.0171
 6453SOL    HW130992   3.643   3.082  12.843 -0.3096 -0.6288  2.3068
 6453SOL    HW230993   3.628   3.151  12.970  1.1440 -1.0043  0.6239
 6454SOL     OW30994   3.624   0.311   1.145 -0.3097 -0.3351 -0.1987
 6454SOL    HW130995   3.707   0.352   1.121 -0.8312 -0.2656 -1.8201
 6454SOL    HW230996   3.574   0.314   1.064 -0.9062 -0.1281  0.1732
 6455SOL     OW30997   2.541   2.416   5.278  0.2030  0.0930 -0.3094
 6455SOL    HW130998   2.481   2.390   5.348  1.4290  1.3607  1.2132
 6455SOL    HW230999   2.621   2.436   5.325 -1.1347  0.3066  1.8685
 6456SOL     OW31000   4.074   4.651  14.573  0.0233  0.5343 -0.0566
 6456SOL    HW131001   4.117   4.697  14.501  2.4882 -0.8253  0.5287
 6456SOL    HW231002   4.113   4.567  14.549 -0.1310  0.6131 -0.5766
 6457SOL     OW31003   0.122   0.726   2.385 -0.9371 -0.3603  0.1788
 6457SOL    HW131004   0.061   0.747   2.315 -0.1596  1.5543  0.0830
 6457SOL    HW231005   0.110   0.633   2.407 -2.3504 -0.6165 -1.6940
 6458SOL     OW31006   0.324   1.225   5.900  0.3757  0.1577 -0.1490
 6458SOL    HW131007   0.380   1.221   5.977 -2.4970 -0.6994  1.9020
 6458SOL    HW231008   0.264   1.156   5.930 -0.5671  1.8864  1.9316
 6459SOL     OW31009   3.936   2.520  13.871  0.1537  0.2983 -0.4698
 6459SOL    HW131010   3.861   2.530  13.813 -1.5280  0.8846  1.8317
 6459SOL    HW231011   3.898   2.505  13.957  1.2268 -0.8363 -0.1841
 6460SOL     OW31012   1.281   0.117   6.582  0.2489  0.0480 -0.0602
 6460SOL    HW131013   1.249   0.205   6.563  1.6774  0.7750  0.9583
 6460SOL    HW231014   1.270   0.085   6.492 -1.6792  2.3582 -0.6540
 6461SOL     OW31015   0.831   3.861   5.637  0.2701 -0.2042 -0.5527
 6461SOL    HW131016   0.911   3.864   5.586 -0.5439  1.8690 -1.7240
 6461SOL    HW231017   0.770   3.817   5.578  3.5558 -2.1000 -2.4906
 6462SOL     OW31018   4.481   1.910   5.781  0.1400  0.4739  0.1202
 6462SOL    HW131019   4.442   1.952   5.857 -0.5694 -0.0153  0.0289
 6462SOL    HW231020   4.408   1.901   5.720 -0.8408 -0.5177  1.4378
 6463SOL     OW31021   3.433   2.658   8.827 -0.7053  0.0524 -0.1658
 6463SOL    HW131022   3.452   2.565   8.819 -2.1407 -0.2150 -0.2891
 6463SOL    HW231023   3.509   2.691   8.778 -2.2486  1.3246 -1.6948
 6464SOL     OW31024   4.053   2.757   5.415 -0.0297  0.0999 -0.3106
 6464SOL    HW131025   4.112   2.684   5.438  0.1312 -0.1593 -1.5714
 6464SOL    HW231026   4.010   2.779   5.498  0.9088 -1.5206  0.6284
 6465SOL     OW31027   0.312   4.567   2.733 -0.3086 -0.1468 -0.5705
 6465SOL    HW131028   0.230   4.517   2.729  0.6039 -1.9302  2.6500
 6465SOL    HW231029   0.299   4.639   2.672 -0.3963 -2.4535 -3.2283
 6466SOL     OW31030   2.316   3.351   8.194  0.3426  0.0764 -0.0177
 6466SOL    HW131031   2.315   3.361   8.289  1.7548  1.9686 -0.2067
 6466SOL    HW231032   2.238   3.294   8.195  0.3683  0.0284 -0.6548
 6467SOL     OW31033   0.593   4.694   6.705 -0.4627 -0.1639 -0.4314
 6467SOL    HW131034   0.617   4.618   6.757 -2.0609 -0.4227 -0.0651
 6467SOL    HW231035   0.515   4.663   6.658 -0.9382  3.7545 -2.2732
 6468SOL     OW31036   1.293   2.886  10.850  0.2407  0.2042  0.0465
 6468SOL    HW131037   1.292   2.798  10.812  0.1202  0.1180  0.2486
 6468SOL    HW231038   1.216   2.890  10.906  0.0893 -1.2516 -0.0609
 6469SOL     OW31039   4.303   0.611   3.844 -0.0188 -0.6786  0.0447
 6469SOL    HW131040   4.307   0.644   3.934 -0.2045 -1.9951  0.5256
 6469SOL    HW231041   4.387   0.647   3.814 -0.7382  0.1777 -0.9759
 6470SOL     OW31042   0.973   2.263   5.500 -0.1449  0.1497 -0.1600
 6470SOL    HW131043   0.966   2.351   5.536  1.9255  1.4629 -2.9117
 6470SOL    HW231044   0.903   2.215   5.543 -0.3879  0.1627 -0.5330
 6471SOL     OW31045   4.166   3.284   4.958  0.0639 -0.1114  0.7826
 6471SOL    HW131046   4.252   3.284   4.917 -0.5952 -0.3258 -0.6360
 6471SOL    HW231047   4.157   3.190   4.975  0.0370 -0.1762  0.4187
 6472SOL     OW31048   2.136   0.137   7.877  1.0159 -0.2148 -0.2159
 6472SOL    HW131049   2.086   0.070   7.923  1.7237  1.0252  2.3796
 6472SOL    HW231050   2.088   0.132   7.795 -0.6501  0.0730  0.7508
 6473SOL     OW31051   3.731   2.409   3.309 -0.1779  0.2728 -0.0780
 6473SOL    HW131052   3.793   2.469   3.351  0.1367 -0.4856  0.5405
 6473SOL    HW231053   3.725   2.342   3.376 -0.7948 -1.1560 -1.5510
 6474SOL     OW31054   0.176   0.387   5.493 -0.3681  1.0070 -0.7805
 6474SOL    HW131055   0.221   0.435   5.423 -2.1560  0.8692 -2.0173
 6474SOL    HW231056   0.151   0.306   5.450  0.1353  0.3115  0.2349
 6475SOL     OW31057   2.003   0.060   4.051 -0.2152  0.3015 -0.0549
 6475SOL    HW131058   2.009   0.012   3.969  0.5056  0.2432  0.0268
 6475SOL    HW231059   2.094   0.073   4.079 -0.2964 -0.5144  0.5838
 6476SOL     OW31060   1.385   4.207   9.015  0.2663  0.3711 -0.1493
 6476SOL    HW131061   1.479   4.208   9.003 -0.0451  2.7677 -2.3976
 6476SOL    HW231062   1.360   4.115   9.008 -0.2597  0.3392  2.1393
 6477SOL     OW31063   2.785   0.796   5.480 -0.2528  0.1039 -0.8538
 6477SOL    HW131064   2.709   0.853   5.488 -1.7525 -1.9120 -1.0628
 6477SOL    HW231065   2.770   0.764   5.391  1.1065  0.7280 -1.3112
 6478SOL     OW31066   1.232   2.122   9.325  0.0982 -0.2417 -0.1711
 6478SOL    HW131067   1.149   2.166   9.344 -0.3701 -1.2686  0.2311
 6478SOL    HW231068   1.210   2.031   9.347  0.8212  0.1721  2.2605
 6479SOL     OW31069   3.913   1.070   7.380 -0.5172 -0.3341 -0.4251
 6479SOL    HW131070   3.942   1.049   7.468 -1.2350 -1.1323 -0.3746
 6479SOL    HW231071   3.877   0.983   7.361  1.5244 -1.3801  0.5205
 6480SOL     OW31072   0.947   3.947   4.073  0.0620 -0.2548 -0.0700
 6480SOL    HW131073   1.037   3.979   4.068 -0.7776  2.0703 -0.4937
 6480SOL    HW231074   0.955   3.891   4.151  2.6133 -0.1910 -0.2769
 6481SOL     OW31075   1.423   2.801  15.396 -0.2329 -0.3425  0.3637
 6481SOL    HW131076   1.468   2.838  15.472 -2.0822  1.2124  0.6991
 6481SOL    HW231077   1.487   2.734  15.372 -0.2481  0.2184 -1.2427
 6482SOL     OW31078   1.912   3.833  13.167  0.4347 -0.2479  0.0023
 6482SOL    HW131079   1.938   3.743  13.146  1.1220  0.6045 -2.8484
 6482SOL    HW231080   1.830   3.848  13.120  1.6776  0.6078 -1.9236
 6483SOL     OW31081   1.493   2.119   4.470 -0.1380  0.0220  0.2581
 6483SOL    HW131082   1.463   2.095   4.382  2.3510  0.5451 -0.7383
 6483SOL    HW231083   1.408   2.153   4.497  1.1931  2.7069  0.9968
 6484SOL     OW31084   2.219   4.714   8.999 -0.3721  0.5482 -0.5916
 6484SOL    HW131085   2.142   4.664   9.027  0.7599 -2.1115 -2.2208
 6484SOL    HW231086   2.248   0.008   9.082 -1.7858 -1.9822  1.0445
 6485SOL     OW31087   0.917   1.745   6.113  0.0060 -0.0680 -0.6242
 6485SOL    HW131088   0.964   1.674   6.156 -0.3385  0.2158  0.2145
 6485SOL    HW231089   0.833   1.736   6.157  0.4155  1.1642  0.4216
 6486SOL     OW31090   3.197   2.399   5.899  0.1920 -0.1121  0.2104
 6486SOL    HW131091   3.260   2.348   5.949  1.7801  1.0474 -0.6219
 6486SOL    HW231092   3.136   2.430   5.966  0.6761  0.5119  0.3624
 6487SOL     OW31093   2.357   3.731   5.006  0.1301  0.1429 -0.0833
 6487SOL    HW131094   2.371   3.739   5.100 -0.4233  0.3404 -0.0219
 6487SOL    HW231095   2.262   3.744   5.004  0.2514  1.1679  0.9460
 6488SOL     OW31096   3.918   3.695   4.806 -0.1566  0.2550  0.0689
 6488SOL    HW131097   3.877   3.773   4.843 -0.4914  0.6525 -1.1600
 6488SOL    HW231098   3.851   3.668   4.743 -0.1257 -1.4465  0.7518
 6489SOL     OW31099   1.497   1.020   7.432 -0.7105 -0.0551 -0.0886
 6489SOL    HW131100   1.427   1.038   7.371 -0.3951 -0.6138 -0.6198
 6489SOL    HW231101   1.536   1.107   7.431 -0.0179 -0.3354  2.0054
 6490SOL     OW31102   0.084   2.971   3.190  0.2275  0.1565  0.0094
 6490SOL    HW131103   0.170   2.932   3.207  0.4164  1.3558  1.7838
 6490SOL    HW231104   0.063   2.991   3.281 -0.6412  0.0486 -0.1628
 6491SOL     OW31105   0.594   3.845   4.497 -0.8686 -0.3849  0.2767
 6491SOL    HW131106   0.561   3.929   4.530 -0.1979  0.1353 -0.4118
 6491SOL    HW231107   0.513   3.795   4.484 -1.5112  0.7191  0.1136
 6492SOL     OW31108   2.662   2.443   5.713 -0.0245  0.2948 -0.0611
 6492SOL    HW131109   2.642   2.536   5.713  1.7847  0.6922 -1.3671
 6492SOL    HW231110   2.687   2.435   5.805 -0.2034 -2.6666 -0.2510
 6493SOL     OW31111   1.078   3.389   3.430  0.0522  0.3557 -0.0953
 6493SOL    HW131112   1.156   3.381   3.376  0.2350  0.8830  0.1012
 6493SOL    HW231113   1.077   3.483   3.449  0.9515  0.4918 -0.7588
 6494SOL     OW31114   3.995   2.099   3.920 -0.4439  0.3451  0.3053
 6494SOL    HW131115   3.934   2.063   3.985  1.4749 -0.8068  1.4870
 6494SOL    HW231116   4.077   2.062   3.955  0.9598 -1.1266 -4.6391
 6495SOL     OW31117   3.009   1.265  10.596  0.3664  0.2391  0.0647
 6495SOL    HW131118   3.008   1.171  10.579 -1.0146  0.2924 -0.1560
 6495SOL    HW231119   2.988   1.265  10.689  0.6294 -1.4010  0.1179
 6496SOL     OW31120   0.250   2.384   8.288 -0.2209  0.3446 -0.2275
 6496SOL    HW131121   0.162   2.362   8.317 -0.3442  0.2498 -0.6693
 6496SOL    HW231122   0.216   2.420   8.206 -0.3988 -1.7586 -1.0576
 6497SOL     OW31123   0.836   3.514   5.499 -0.2119  0.3210 -0.2958
 6497SOL    HW131124   0.818   3.450   5.430  1.9041 -1.6204  0.9576
 6497SOL    HW231125   0.791   3.593   5.467 -0.3643  0.7652  1.0136
 6498SOL     OW31126   0.480   0.915   3.698  0.3982  0.3224  0.0593
 6498SOL    HW131127   0.544   0.947   3.763 -0.9862  0.0430  1.5692
 6498SOL    HW231128   0.481   0.976   3.625  0.6009 -1.6119 -1.5395
 6499SOL     OW31129   4.719   2.526   5.962  0.0133  0.0522  0.7701
 6499SOL    HW131130   4.665   2.455   5.927 -1.2841  1.5782 -0.3176
 6499SOL    HW231131   0.037   2.541   5.889  1.0366 -0.4108  1.5390
 6500SOL     OW31132   4.054   3.820   7.687 -0.0068  0.0974  0.4226
 6500SOL    HW131133   3.978   3.826   7.746 -0.5200 -0.1284 -0.2096
 6500SOL    HW231134   4.111   3.760   7.735  0.1566 -0.5637 -0.5995
 6501SOL     OW31135   0.164   3.172  16.059  0.2561 -0.7410  0.2833
 6501SOL    HW131136   0.089   3.231  16.065  1.1076  0.1591  2.0485
 6501SOL    HW231137   0.117   3.089  16.049 -1.3615  0.0781  1.1762
 6502SOL     OW31138   2.186   4.462   6.261  0.1258  0.5022  0.5248
 6502SOL    HW131139   2.186   4.551   6.295  1.5431  0.3936  0.7985
 6502SOL    HW231140   2.144   4.464   6.175  2.4860 -0.0906 -0.6561
 6503SOL     OW31141   3.395   1.823   6.265  0.1920 -0.2678  0.1159
 6503SOL    HW131142   3.320   1.880   6.281  1.6235  2.4332 -2.7838
 6503SOL    HW231143   3.361   1.753   6.210 -0.0538 -0.3762  0.4053
 6504SOL     OW31144   4.520   1.389   8.445 -0.1019 -0.3920  0.0595
 6504SOL    HW131145   4.577   1.386   8.368 -0.4512 -0.1148 -0.2064
 6504SOL    HW231146   4.468   1.310   8.426  1.2399 -1.6390  1.6043
 6505SOL     OW31147   1.890   3.781  12.762  0.4512 -0.1960 -0.0860
 6505SOL    HW131148   1.971   3.823  12.733  0.8430  0.0183  1.3233
 6505SOL    HW231149   1.826   3.852  12.758  0.3922 -0.1025  2.6047
 6506SOL     OW31150   0.655   3.070   5.150 -0.3996 -0.0698 -0.0180
 6506SOL    HW131151   0.634   2.993   5.202  1.7553 -1.0581 -0.6389
 6506SOL    HW231152   0.678   3.136   5.216  0.7579  0.3493 -0.8448
 6507SOL     OW31153   0.782   1.224   3.827 -0.2310 -0.2718  0.3023
 6507SOL    HW131154   0.713   1.283   3.796 -1.7698 -1.0227  2.3305
 6507SOL    HW231155   0.842   1.276   3.881  1.1589 -1.0331 -0.5000
 6508SOL     OW31156   4.200   3.051   2.188  0.1228 -0.0701 -0.5207
 6508SOL    HW131157   4.147   2.974   2.209  1.6275 -0.4035  2.1276
 6508SOL    HW231158   4.153   3.129   2.216  1.5670  0.3506  0.7724
 6509SOL     OW31159   1.206   4.124   8.644  0.2688  0.0624 -0.5054
 6509SOL    HW131160   1.287   4.175   8.646  0.2316  0.0174  2.0130
 6509SOL    HW231161   1.151   4.194   8.679  0.4726 -0.1875  0.3154
 6510SOL     OW31162   1.024   1.211   8.543  0.3534 -0.6213 -0.4842
 6510SOL    HW131163   1.030   1.276   8.472 -0.8188 -1.0816 -1.0049
 6510SOL    HW231164   0.932   1.226   8.565 -0.0673 -2.9786 -0.6344
 6511SOL     OW31165   0.595   3.221   6.687  0.5317  0.0707 -0.3204
 6511SOL    HW131166   0.526   3.283   6.664  0.1638  0.3802  1.6799
 6511SOL    HW231167   0.612   3.196   6.596  1.4042  0.3554 -0.2324
 6512SOL     OW31168   2.634   2.239   2.099 -0.2618  0.2229 -0.4222
 6512SOL    HW131169   2.680   2.307   2.049  2.7161 -1.7819 -0.3858
 6512SOL    HW231170   2.542   2.258   2.079 -0.4471 -1.3605 -1.0615
 6513SOL     OW31171   0.741   4.456  15.588  0.4825 -0.2788  0.4492
 6513SOL    HW131172   0.804   4.394  15.624  3.4174  2.0620 -0.6436
 6513SOL    HW231173   0.771   4.541  15.621 -0.1306  0.1714 -0.1405
 6514SOL     OW31174   0.535   3.905  16.292 -0.9138  0.0384 -0.0359
 6514SOL    HW131175   0.520   3.836  16.227 -0.6052 -0.5319  0.5008
 6514SOL    HW231176   0.514   3.873  16.380 -0.7061  0.9164  0.3279
 6515SOL     OW31177   4.115   4.023  17.436  0.1278 -0.1502  0.1298
 6515SOL    HW131178   4.144   4.036  17.526 -1.7259  0.2825  0.6510
 6515SOL    HW231179   4.199   4.029  17.390 -0.0038  0.3900 -0.0437
 6516SOL     OW31180   2.143   2.221   5.367 -0.0237  0.8986 -0.1599
 6516SOL    HW131181   2.171   2.306   5.401  0.7070  0.8979 -0.7651
 6516SOL    HW231182   2.050   2.228   5.346 -0.4106 -0.2963  1.0845
 6517SOL     OW31183   4.269   2.668   6.489  0.4452 -0.5450 -0.4770
 6517SOL    HW131184   4.348   2.614   6.479  0.3817 -0.4843 -1.3359
 6517SOL    HW231185   4.296   2.750   6.528  0.0676 -0.5295 -0.2485
 6518SOL     OW31186   2.658   4.324   6.832 -0.3110  0.3421  0.4873
 6518SOL    HW131187   2.618   4.245   6.868 -1.1523  0.9536  0.8954
 6518SOL    HW231188   2.615   4.328   6.747 -0.2253  0.4710  0.4491
 6519SOL     OW31189   1.064   3.392  10.044 -0.0517 -0.0610 -0.8205
 6519SOL    HW131190   1.012   3.445   9.983  2.0944  2.1194 -0.7722
 6519SOL    HW231191   1.139   3.448  10.060 -1.9774  2.1206  0.6179
 6520SOL     OW31192   1.069   2.949   1.148  0.0461  0.3241  0.1963
 6520SOL    HW131193   1.110   2.955   1.062  1.0206  1.4964  0.7473
 6520SOL    HW231194   1.150   2.917   1.187  0.7762 -1.5098 -2.7899
 6521SOL     OW31195   3.480   1.101  10.767 -0.8074 -0.3798 -0.3474
 6521SOL    HW131196   3.404   1.158  10.780 -0.0675  0.4669  0.2773
 6521SOL    HW231197   3.489   1.052  10.849  0.8507 -1.2381 -1.0471
 6522SOL     OW31198   3.600   2.882   5.332 -0.2202  0.5613 -0.5114
 6522SOL    HW131199   3.676   2.823   5.333  0.5111  1.4978 -1.6023
 6522SOL    HW231200   3.637   2.970   5.336 -1.6236  1.0846  0.9694
 6523SOL     OW31201   1.349   1.805   7.269 -0.0439  0.0792  0.2414
 6523SOL    HW131202   1.286   1.846   7.328  0.8489  2.6657 -0.6357
 6523SOL    HW231203   1.431   1.818   7.318  1.5900 -3.0732 -1.6381
 6524SOL     OW31204   1.503   2.264   9.659 -0.3330  0.2104  0.3802
 6524SOL    HW131205   1.510   2.176   9.622  1.7904  0.7019 -0.3847
 6524SOL    HW231206   1.490   2.250   9.753  1.3096 -1.1513  0.3992
 6525SOL     OW31207   2.401   4.053   2.965 -0.0991 -0.0785  0.1146
 6525SOL    HW131208   2.381   4.036   2.872 -1.2579  1.8611 -0.0041
 6525SOL    HW231209   2.494   4.034   2.972 -0.2844 -0.8698  0.4190
 6526SOL     OW31210   1.634   3.704   5.844  0.6146 -0.2606  0.1885
 6526SOL    HW131211   1.645   3.612   5.821 -1.1243 -0.3464 -0.2910
 6526SOL    HW231212   1.683   3.731   5.767  1.1317 -0.2735  0.5141
 6527SOL     OW31213   2.956   3.317  13.497 -0.3892 -0.0442  0.3087
 6527SOL    HW131214   2.899   3.391  13.520  0.1238  0.4377  0.0368
 6527SOL    HW231215   3.045   3.347  13.476  0.1539 -0.1348  2.4354
 6528SOL     OW31216   1.407   1.812   9.738 -0.1616  0.0025  0.0584
 6528SOL    HW131217   1.425   1.850   9.652 -1.3601  2.0261  0.7035
 6528SOL    HW231218   1.372   1.728   9.710  1.0385 -0.6817  0.6181
 6529SOL     OW31219   3.117   4.540   6.037 -0.0929  0.7832 -0.4401
 6529SOL    HW131220   3.187   4.599   6.010  1.9874 -2.0667 -1.3503
 6529SOL    HW231221   3.083   4.523   5.949 -1.4133 -1.3696  0.4889
 6530SOL     OW31222   2.556   1.834   5.871  0.6948  0.0358  0.4199
 6530SOL    HW131223   2.593   1.747   5.884  0.8241  0.2310  1.3659
 6530SOL    HW231224   2.609   1.866   5.798 -2.6244  1.9511 -1.1577
 6531SOL     OW31225   0.973   1.649   2.730  0.5801  0.3971 -0.7358
 6531SOL    HW131226   1.014   1.730   2.700 -0.4492  1.1793 -0.0131
 6531SOL    HW231227   0.883   1.676   2.743  0.3579  0.1899 -1.8783
 6532SOL     OW31228   1.721   2.846  15.432  0.3524 -0.7961 -0.1395
 6532SOL    HW131229   1.766   2.781  15.485  1.0960  1.0730  1.5092
 6532SOL    HW231230   1.762   2.930  15.451 -0.2241 -0.8018  1.1138
 6533SOL     OW31231   2.655   3.486   6.218 -0.7783  0.0489 -0.1410
 6533SOL    HW131232   2.667   3.581   6.212 -0.5650  0.0962  1.0949
 6533SOL    HW231233   2.686   3.458   6.131  0.5391 -0.7197  0.5794
 6534SOL     OW31234   1.556   0.629   0.360 -0.5823  0.4937 -0.6516
 6534SOL    HW131235   1.474   0.592   0.394  0.4623 -1.9939 -0.8661
 6534SOL    HW231236   1.562   0.723   0.378  1.4228  0.4712 -1.1926
 6535SOL     OW31237   1.613   1.751   7.668  0.2568 -0.4679  0.0515
 6535SOL    HW131238   1.678   1.744   7.738 -0.7478  0.2378  1.0632
 6535SOL    HW231239   1.537   1.745   7.726 -0.0727 -0.3433 -0.3618
 6536SOL     OW31240   3.516   3.409   5.033  0.1882  0.6649 -0.5840
 6536SOL    HW131241   3.527   3.314   5.030 -1.0615  0.4569  0.7590
 6536SOL    HW231242   3.608   3.428   5.049 -0.5461  3.0683  0.8798
 6537SOL     OW31243   1.198   0.806   4.804  0.5003 -0.9735  0.7973
 6537SOL    HW131244   1.231   0.895   4.790  2.0689 -1.8863 -1.2645
 6537SOL    HW231245   1.118   0.816   4.753  0.7727  0.2394  0.6023
 6538SOL     OW31246   4.387   2.533   5.824  0.1983  1.0139  0.0496
 6538SOL    HW131247   4.451   2.464   5.843 -2.0882 -0.8038  1.2141
 6538SOL    HW231248   4.346   2.542   5.910  1.5718  4.8948  0.2864
 6539SOL     OW31249   0.083   4.093   2.099  0.0411  0.1361  0.5623
 6539SOL    HW131250   0.106   4.075   2.190 -0.7239  0.1187  0.7501
 6539SOL    HW231251   4.735   4.117   2.111 -0.2092 -0.9864  0.8378
 6540SOL     OW31252   1.044   0.610   5.038 -0.7204  0.1623 -0.3147
 6540SOL    HW131253   0.969   0.577   4.988 -0.6257 -0.5744  0.0307
 6540SOL    HW231254   1.037   0.703   5.020 -0.7638  0.2631  0.2129
 6541SOL     OW31255   1.248   0.741   2.154  0.4289  0.2865  0.1300
 6541SOL    HW131256   1.303   0.672   2.116 -0.2675 -0.8298  1.1349
 6541SOL    HW231257   1.239   0.699   2.240  0.7435  0.0340  0.0406
 6542SOL     OW31258   2.369   4.673   8.766 -0.3511  0.6389  0.2603
 6542SOL    HW131259   2.313   4.682   8.843 -1.7963  0.6649 -0.7834
 6542SOL    HW231260   2.312   4.689   8.691 -1.2132 -0.8031  0.6060
 6543SOL     OW31261   4.344   2.209   6.379  0.3759 -0.1405 -0.3764
 6543SOL    HW131262   4.314   2.119   6.372 -1.6303  0.5224 -0.2561
 6543SOL    HW231263   4.266   2.265   6.374 -1.0534 -1.9324  2.1577
 6544SOL     OW31264   0.364   1.192   0.574 -0.6201 -0.2501  0.1417
 6544SOL    HW131265   0.413   1.180   0.655 -0.9591  1.2080  0.5615
 6544SOL    HW231266   0.438   1.200   0.514  1.7025 -3.0765  2.6152
 6545SOL     OW31267   0.776   2.069  13.745 -0.4251  0.2507  0.4412
 6545SOL    HW131268   0.713   2.129  13.784 -0.9954 -0.4290  0.5621
 6545SOL    HW231269   0.727   2.041  13.668  0.6792 -3.1916  0.9971
 6546SOL     OW31270   0.426   2.847  10.784  0.0844  0.1708  0.2813
 6546SOL    HW131271   0.362   2.777  10.770  1.9899 -1.6686  0.6994
 6546SOL    HW231272   0.384   2.897  10.854  1.6143  1.8155  0.0182
 6547SOL     OW31273   4.052   0.652   4.079 -0.0881  0.7923  0.2447
 6547SOL    HW131274   4.128   0.703   4.050  0.0383  0.7915  0.5761
 6547SOL    HW231275   3.986   0.719   4.099 -0.3774  0.6850 -0.3578
 6548SOL     OW31276   3.489   0.070   2.347  0.0267  0.2895  0.5494
 6548SOL    HW131277   3.469   0.164   2.346 -2.6784 -0.2112  5.2722
 6548SOL    HW231278   3.500   0.059   2.252  0.7655 -0.5899  0.7351
 6549SOL     OW31279   1.669   3.014   5.220 -0.2057  0.4912  0.4093
 6549SOL    HW131280   1.663   2.970   5.305 -0.5543 -1.6379 -0.7309
 6549SOL    HW231281   1.709   2.943   5.170  0.1050  0.1856  1.0943
 6550SOL     OW31282   1.413   2.267   6.039  0.2040 -0.2552  0.3375
 6550SOL    HW131283   1.394   2.324   5.964  0.8304 -0.1368  0.2657
 6550SOL    HW231284   1.406   2.329   6.111  0.2630 -0.1022  0.2123
 6551SOL     OW31285   0.753   2.866  10.049 -0.4243  0.0386 -0.1592
 6551SOL    HW131286   0.832   2.870   9.994  0.1355 -4.2815  0.2799
 6551SOL    HW231287   0.770   2.951  10.090 -5.1290 -0.3058  2.4706
 6552SOL     OW31288   2.192   1.107   8.977 -0.5067  0.7273  0.3099
 6552SOL    HW131289   2.262   1.052   8.941 -1.4483 -0.8351  0.8386
 6552SOL    HW231290   2.215   1.113   9.069  0.3844  2.8430 -0.0626
 6553SOL     OW31291   4.127   3.905   3.957  0.2849  0.0503  0.0471
 6553SOL    HW131292   4.211   3.861   3.942  0.7805  1.0599 -0.1682
 6553SOL    HW231293   4.100   3.916   3.865  1.2949  2.2350  0.0006
 6554SOL     OW31294   3.052   4.085   4.529 -0.0287  0.0018 -0.4168
 6554SOL    HW131295   3.043   3.991   4.514 -2.1220 -0.2438  2.5294
 6554SOL    HW231296   3.139   4.102   4.491  0.3926  3.6728  2.2020
 6555SOL     OW31297   0.761   2.953   7.770 -0.2604 -0.2677 -0.3111
 6555SOL    HW131298   0.843   2.957   7.817 -0.0792 -1.3091 -0.5584
 6555SOL    HW231299   0.736   3.046   7.767 -1.3463 -0.5511 -0.0066
 6556SOL     OW31300   3.641   1.157   5.777  0.4896  0.5763 -0.0342
 6556SOL    HW131301   3.601   1.212   5.709  2.9590  3.1633  0.6050
 6556SOL    HW231302   3.710   1.214   5.811  0.2218  0.8362  0.0731
 6557SOL     OW31303   2.246   4.110  13.339 -0.0129  0.2341 -0.1165
 6557SOL    HW131304   2.283   4.029  13.303  0.3881  1.0837 -1.6575
 6557SOL    HW231305   2.245   4.087  13.432  0.2473 -0.0185 -0.1767
 6558SOL     OW31306   0.701   1.669  15.959  0.3984  0.6086  0.6123
 6558SOL    HW131307   0.727   1.746  16.010  2.7095 -0.7210  1.4537
 6558SOL    HW231308   0.642   1.698  15.890 -0.5680  0.0613  1.2102
 6559SOL     OW31309   2.454   2.174   5.837  0.1491  0.2563 -0.0361
 6559SOL    HW131310   2.486   2.113   5.771  2.3632  0.2976  0.9926
 6559SOL    HW231311   2.467   2.118   5.914 -4.0415  1.0112  1.2133
 6560SOL     OW31312   0.280   2.147   3.812  0.4126  0.4583 -0.6130
 6560SOL    HW131313   0.365   2.106   3.792  0.9242  0.3637  1.7997
 6560SOL    HW231314   0.293   2.167   3.904  0.6950 -0.7530 -0.3832
 6561SOL     OW31315   1.515   2.895   4.079  0.2862  0.6236 -0.5115
 6561SOL    HW131316   1.597   2.869   4.122  2.2818  1.8857 -3.5642
 6561SOL    HW231317   1.541   2.973   4.031  2.9348 -0.0504 -0.2189
 6562SOL     OW31318   1.133   2.312   5.922 -0.0375  0.1060 -0.2590
 6562SOL    HW131319   1.057   2.369   5.929 -0.6903 -0.8623  0.6232
 6562SOL    HW231320   1.181   2.379   5.875  2.9054 -1.1396  0.9224
 6563SOL     OW31321   4.260   0.767   7.921 -0.1743 -0.1658 -0.0990
 6563SOL    HW131322   4.175   0.728   7.898 -0.0479 -0.4764 -0.0405
 6563SOL    HW231323   4.257   0.857   7.888  2.9453 -0.4581 -1.1932
 6564SOL     OW31324   1.837   1.994   4.153  0.1858  0.0854  0.3757
 6564SOL    HW131325   1.919   2.030   4.187  0.2630 -0.1950  0.4878
 6564SOL    HW231326   1.773   2.064   4.166 -1.5544 -1.4729  0.1553
 6565SOL     OW31327   2.996   0.989   7.762 -0.2180 -0.3198 -0.3323
 6565SOL    HW131328   2.918   0.966   7.813 -0.8314  0.6760 -0.8203
 6565SOL    HW231329   3.001   0.912   7.705 -0.4757  1.6082 -2.9497
 6566SOL     OW31330   2.107   2.013   4.243 -0.1945 -0.0107 -0.4910
 6566SOL    HW131331   2.181   1.953   4.244  0.2516  0.5484  0.1648
 6566SOL    HW231332   2.136   2.067   4.317  0.4143 -1.0164  0.0100
 6567SOL     OW31333   2.760   3.571   3.891  0.0150 -0.3876 -0.0342
 6567SOL    HW131334   2.668   3.545   3.889  0.0948 -0.5551 -1.1270
 6567SOL    HW231335   2.795   3.485   3.869  1.1492 -0.0511  0.4803
 6568SOL     OW31336   0.489   3.557   7.224  0.2182  0.1480 -0.4140
 6568SOL    HW131337   0.504   3.477   7.173  0.7723  0.1673 -0.2813
 6568SOL    HW231338   0.557   3.610   7.184  2.3898 -0.6196  2.2188
 6569SOL     OW31339   0.331   3.260   7.664 -0.0037  0.6582 -0.3536
 6569SOL    HW131340   0.375   3.175   7.665  0.1200  0.6759 -3.0599
 6569SOL    HW231341   0.315   3.263   7.570  0.6652 -0.2590 -0.4893
 6570SOL     OW31342   3.621   2.642   4.441  0.4720 -0.4324  0.3245
 6570SOL    HW131343   3.548   2.692   4.477  1.4004  1.0293  0.1743
 6570SOL    HW231344   3.593   2.554   4.467  3.3115 -1.6480 -0.7401
 6571SOL     OW31345   1.374   0.679  11.390 -0.3992  0.9324  0.2835
 6571SOL    HW131346   1.283   0.689  11.362  0.0225  0.5715 -1.1869
 6571SOL    HW231347   1.415   0.653  11.307  1.2151 -1.1479  1.7224
 6572SOL     OW31348   3.025   0.139  12.382  0.1752 -0.1552  0.0493
 6572SOL    HW131349   3.012   0.105  12.470  0.9701  1.6546  0.8602
 6572SOL    HW231350   3.117   0.162  12.395  0.8311 -2.3225 -0.6239
 6573SOL     OW31351   4.494   2.506   2.005  0.0484  0.0137  0.2718
 6573SOL    HW131352   4.411   2.489   2.050 -2.0238  2.1860 -2.7270
 6573SOL    HW231353   4.446   2.544   1.931 -1.4659  0.5285  1.5128
 6574SOL     OW31354   4.133   2.994   0.130  0.3251 -0.4623  0.2282
 6574SOL    HW131355   4.202   2.979   0.195  0.6262 -0.6475 -0.1342
 6574SOL    HW231356   4.061   2.960   0.185 -0.0230  1.1952  0.7880
 6575SOL     OW31357   2.126   2.209   1.526 -0.4529 -0.3768  0.3114
 6575SOL    HW131358   2.202   2.161   1.559 -0.3931  0.5114  1.4914
 6575SOL    HW231359   2.088   2.142   1.470  0.9533  2.0753 -3.5809
 6576SOL     OW31360   2.282   4.656   1.719  0.1363  0.2043 -0.1241
 6576SOL    HW131361   2.309   4.585   1.777  0.8440  0.8229  0.2977
 6576SOL    HW231362   2.361   4.709   1.727 -0.1986  0.8540 -1.0871
 6577SOL     OW31363   4.111   2.980   9.110 -0.8906  0.4359 -0.1542
 6577SOL    HW131364   4.043   2.939   9.163 -1.6673  0.6450 -0.9819
 6577SOL    HW231365   4.172   2.908   9.095 -0.1830  1.0947 -0.4397
 6578SOL     OW31366   1.132   0.355   3.178  0.0125  0.3257  0.4278
 6578SOL    HW131367   1.211   0.320   3.137 -0.1409  2.8265 -1.9820
 6578SOL    HW231368   1.146   0.444   3.144  1.5433 -0.3469 -0.7400
 6579SOL     OW31369   2.977   3.161   2.706  0.5589  0.9564 -0.1839
 6579SOL    HW131370   2.927   3.197   2.633 -2.4550 -2.4938  0.1652
 6579SOL    HW231371   2.911   3.115   2.758  1.3646 -0.4963 -0.4290
 6580SOL     OW31372   1.313   3.793   4.234  0.3344 -0.0463  0.2298
 6580SOL    HW131373   1.397   3.770   4.193  0.6135 -0.2502  0.9197
 6580SOL    HW231374   1.252   3.774   4.163 -2.3883  1.3642  2.1847
 6581SOL     OW31375   3.278   3.364   4.880  0.6882 -0.0709  0.6800
 6581SOL    HW131376   3.347   3.374   4.945  0.7093 -2.5088  1.0459
 6581SOL    HW231377   3.326   3.343   4.800  1.7085 -1.2424  1.6055
 6582SOL     OW31378   0.494   1.131   3.513 -0.3976  0.3202  0.4861
 6582SOL    HW131379   0.428   1.189   3.474 -0.1336 -2.0677 -3.4734
 6582SOL    HW231380   0.546   1.103   3.438 -3.4371  0.3034 -1.6431
 6583SOL     OW31381   3.089   3.252   6.203 -0.0691  0.3069  0.4486
 6583SOL    HW131382   3.111   3.299   6.122  1.7780 -1.6965 -0.2128
 6583SOL    HW231383   3.073   3.161   6.180 -1.2151  0.5686  0.2092
 6584SOL     OW31384   2.800   4.672   9.499  0.4632 -0.1969  0.5715
 6584SOL    HW131385   2.884   4.688   9.454  0.2696 -0.2555  0.1896
 6584SOL    HW231386   2.818   4.586   9.536 -2.4096 -0.4603  1.3293
 6585SOL     OW31387   2.599   3.682  17.761  0.0655  0.2144 -0.1077
 6585SOL    HW131388   2.528   3.661   0.051 -0.3847 -0.9178 -0.9998
 6585SOL    HW231389   2.675   3.666   0.045  1.6841  2.6852 -1.6311
 6586SOL     OW31390   2.551   0.908   1.992 -0.4039  0.4722 -0.1378
 6586SOL    HW131391   2.582   0.867   2.073 -2.3127  1.1184  0.9253
 6586SOL    HW231392   2.639   0.931   1.963 -0.4437 -1.1567 -1.5437
 6587SOL     OW31393   3.536   0.976   8.621 -0.5226 -0.2687 -0.2667
 6587SOL    HW131394   3.509   0.885   8.629 -0.0165 -0.2710  1.6335
 6587SOL    HW231395   3.567   0.981   8.531 -1.1808 -1.5412 -0.5513
 6588SOL     OW31396   1.498   1.575   4.464 -0.2530  0.1575 -0.3568
 6588SOL    HW131397   1.574   1.571   4.407 -0.3639 -0.2710 -0.4796
 6588SOL    HW231398   1.510   1.658   4.510 -0.4869 -0.1376  0.2500
 6589SOL     OW31399   3.990   0.382   0.869 -0.1678  0.2485 -0.4990
 6589SOL    HW131400   4.047   0.355   0.797 -0.7445 -0.4405 -0.7077
 6589SOL    HW231401   4.045   0.411   0.941 -0.0158 -0.1307 -0.4623
 6590SOL     OW31402   3.453   2.741   3.949 -0.0005 -0.1127 -0.3840
 6590SOL    HW131403   3.526   2.697   3.993 -1.2078  0.3483  2.0838
 6590SOL    HW231404   3.388   2.734   4.019  0.0399  2.8854 -0.0351
 6591SOL     OW31405   4.652   4.060  11.805 -0.8181  0.4398 -0.2236
 6591SOL    HW131406   4.697   4.137  11.839  0.6812  0.2862 -1.8956
 6591SOL    HW231407   4.708   3.985  11.825 -1.6426  0.4530  2.2074
 6592SOL     OW31408   0.956   4.429  10.989 -1.0342  0.3607 -0.1732
 6592SOL    HW131409   0.964   4.446  10.895  2.4044 -1.4281 -0.1591
 6592SOL    HW231410   1.033   4.379  11.014  0.4636  2.5102 -0.4497
 6593SOL     OW31411   0.800   0.376   6.203 -0.0950 -0.6029  0.4453
 6593SOL    HW131412   0.750   0.431   6.143 -0.7558 -1.0738  0.5629
 6593SOL    HW231413   0.761   0.295   6.172 -2.1597  0.8947 -0.8207
 6594SOL     OW31414   2.608   0.403   1.216  0.6758  0.0306  0.4915
 6594SOL    HW131415   2.610   0.497   1.229  0.1754  0.2259 -0.7927
 6594SOL    HW231416   2.530   0.392   1.269 -0.3960 -0.2352 -1.1320
 6595SOL     OW31417   3.292   2.066   2.317  0.0014 -0.4320  0.4705
 6595SOL    HW131418   3.293   1.991   2.258  2.3765  0.6470 -0.8355
 6595SOL    HW231419   3.251   2.025   2.394 -2.1682 -3.7100 -2.4469
 6596SOL     OW31420   0.664   1.635  12.648  0.2772  0.5542 -0.3259
 6596SOL    HW131421   0.712   1.669  12.723 -0.8538 -0.1520  0.6991
 6596SOL    HW231422   0.618   1.716  12.624 -1.5856  0.4265  2.7913
 6597SOL     OW31423   2.840   0.861   5.970 -0.3465 -0.6013  0.2543
 6597SOL    HW131424   2.833   0.850   5.875  1.0140  1.7755 -0.1109
 6597SOL    HW231425   2.927   0.825   5.986 -0.8051 -0.3642  3.3734
 6598SOL     OW31426   0.637   3.018  11.811  0.7146 -0.5421  0.2574
 6598SOL    HW131427   0.627   3.005  11.717 -1.0400 -2.3013  0.6957
 6598SOL    HW231428   0.720   2.977  11.838  0.0333 -0.4783  2.4738
 6599SOL     OW31429   2.580   3.153   2.229 -0.1861  0.3953  0.2845
 6599SOL    HW131430   2.563   3.060   2.214  0.5769  0.1080  1.1812
 6599SOL    HW231431   2.494   3.194   2.216 -0.0946  0.1915 -0.9284
 6600SOL     OW31432   3.501   4.552   1.372 -0.8757  0.6066  0.4665
 6600SOL    HW131433   3.415   4.577   1.338 -0.7971 -0.0329 -0.2121
 6600SOL    HW231434   3.481   4.509   1.455 -2.3955 -1.7087 -1.0791
 6601SOL     OW31435   2.653   2.466   8.859  0.0313 -0.2934  0.3970
 6601SOL    HW131436   2.606   2.392   8.821 -0.4708 -1.1668  2.7596
 6601SOL    HW231437   2.590   2.522   8.904 -1.5613 -2.1896  0.4960
 6602SOL     OW31438   2.731   1.485   1.679  0.1491  0.4386 -0.0454
 6602SOL    HW131439   2.793   1.555   1.700  0.5816  0.7163 -2.1841
 6602SOL    HW231440   2.781   1.404   1.677 -1.0358 -0.2684 -0.4250
 6603SOL     OW31441   1.042   0.372   9.297 -0.1823 -0.1247 -0.2417
 6603SOL    HW131442   1.006   0.304   9.354  0.7822  0.0299  0.5607
 6603SOL    HW231443   1.113   0.327   9.252 -2.2670 -1.3911 -2.2220
 6604SOL     OW31444   2.958   4.600  14.766 -0.3061  0.0367 -0.1217
 6604SOL    HW131445   3.002   4.533  14.819  0.1953  1.3269  1.0781
 6604SOL    HW231446   2.876   4.610  14.815 -0.7181 -0.9893 -0.6093
 6605SOL     OW31447   4.128   0.691   1.777 -0.1367  0.1834 -0.1457
 6605SOL    HW131448   4.090   0.757   1.835 -0.0187 -3.0271  3.5909
 6605SOL    HW231449   4.098   0.612   1.822  2.2057  0.6551  2.2774
 6606SOL     OW31450   2.132   2.134   2.106 -0.1591  0.3420  0.4550
 6606SOL    HW131451   2.052   2.123   2.055  1.0690 -0.6663 -1.2267
 6606SOL    HW231452   2.116   2.073   2.178 -2.7522 -0.3320 -0.6976
 6607SOL     OW31453   1.461   0.752  13.365 -0.2890 -0.1817  0.3654
 6607SOL    HW131454   1.508   0.748  13.448  1.1942 -0.6045 -0.5034
 6607SOL    HW231455   1.450   0.658  13.352  0.0181  0.0001 -1.2361
 6608SOL     OW31456   0.808   3.032   2.631 -0.7536 -0.0105  0.2954
 6608SOL    HW131457   0.719   2.998   2.621 -0.0488 -1.8506  0.2760
 6608SOL    HW231458   0.797   3.111   2.578  2.0047  1.2061  1.4921
 6609SOL     OW31459   2.056   0.786  12.550  0.1868 -0.2883  0.5419
 6609SOL    HW131460   2.127   0.757  12.607  0.9941  3.1746  1.3136
 6609SOL    HW231461   2.066   0.880  12.566 -1.2147 -0.1955  0.8933
 6610SOL     OW31462   4.182   3.043  14.007  0.0320  0.2662 -0.3384
 6610SOL    HW131463   4.256   3.100  13.984 -0.9872  1.2566 -1.1724
 6610SOL    HW231464   4.223   2.958  13.993  0.6261  0.9732 -2.9473
 6611SOL     OW31465   4.435   2.253   8.100  0.3299 -0.1804  0.3041
 6611SOL    HW131466   4.386   2.293   8.172  1.0486 -0.6633  1.0654
 6611SOL    HW231467   4.465   2.172   8.142 -2.5201  0.0564  2.8572
 6612SOL     OW31468   0.002   0.828   3.705  0.4352  0.0759 -0.2306
 6612SOL    HW131469   0.091   0.858   3.725  1.0841 -1.7134 -0.4593
 6612SOL    HW231470   4.695   0.908   3.719 -0.1572 -0.7016  1.9695
 6613SOL     OW31471   2.290   1.818   4.323 -0.2668 -0.5210 -0.6065
 6613SOL    HW131472   2.220   1.766   4.361 -0.9904  0.3483 -0.7538
 6613SOL    HW231473   2.368   1.772   4.354  0.1376  2.3637  2.6254
 6614SOL     OW31474   3.510   1.950   5.319  0.2307  1.0372  0.3483
 6614SOL    HW131475   3.602   1.961   5.343  0.4288 -0.6865  0.4299
 6614SOL    HW231476   3.465   1.953   5.403  1.2414 -1.8372  0.9991
 6615SOL     OW31477   2.390   1.334   3.949 -0.7181  0.1095 -0.3023
 6615SOL    HW131478   2.317   1.345   3.887 -0.0880 -0.5896 -1.1683
 6615SOL    HW231479   2.387   1.421   3.987  3.0478  0.1278 -0.0519
 6616SOL     OW31480   0.784   3.631   8.607  0.3919  0.4773  0.2757
 6616SOL    HW131481   0.717   3.615   8.540 -0.4525  1.9545  0.7708
 6616SOL    HW231482   0.758   3.572   8.677 -1.4730  0.1902 -0.6686
 6617SOL     OW31483   1.342   1.412   8.927 -0.0641  0.0372  0.0795
 6617SOL    HW131484   1.408   1.450   8.868  0.0075  1.4354  1.0872
 6617SOL    HW231485   1.301   1.359   8.858  0.5149  1.5235 -1.4142
 6618SOL     OW31486   2.529   2.928   5.410  0.2572  0.1957  0.2924
 6618SOL    HW131487   2.473   2.971   5.346 -0.1566 -1.6982 -0.6421
 6618SOL    HW231488   2.586   2.998   5.439  1.6422  0.5987 -3.3159
 6619SOL     OW31489   3.792   1.264   5.460  0.1635  0.3940  0.2223
 6619SOL    HW131490   3.727   1.319   5.504  0.5952  0.6651  0.5237
 6619SOL    HW231491   3.856   1.333   5.444  0.8091 -0.7784 -2.3031
 6620SOL     OW31492   1.466   3.496   3.018  0.6802  0.0645  0.5550
 6620SOL    HW131493   1.443   3.478   2.927 -0.3037  0.3490  0.7493
 6620SOL    HW231494   1.472   3.592   3.019 -2.7868  0.3138 -0.9991
 6621SOL     OW31495   2.794   0.502   9.492 -0.2806  0.3681  1.0123
 6621SOL    HW131496   2.796   0.406   9.487 -0.1616  0.3928  0.4939
 6621SOL    HW231497   2.743   0.508   9.572 -2.1188 -2.7885  0.0896
 6622SOL     OW31498   1.403   0.287   8.342 -0.7774 -0.4307 -0.2604
 6622SOL    HW131499   1.333   0.350   8.325 -0.1860  1.0039  2.4832
 6622SOL    HW231500   1.445   0.269   8.258 -0.2761  0.9578 -0.3154
 6623SOL     OW31501   4.130   0.778   6.431  0.1937 -0.1169 -0.2703
 6623SOL    HW131502   4.087   0.748   6.511 -3.3926 -0.4106 -2.2931
 6623SOL    HW231503   4.119   0.707   6.366 -1.4875 -1.9103  1.9730
 6624SOL     OW31504   3.870   2.560   3.481  0.5568  0.2709  0.1179
 6624SOL    HW131505   3.879   2.654   3.469  0.8946  0.1174 -0.8492
 6624SOL    HW231506   3.945   2.551   3.540  2.6908  0.6876 -2.5347
 6625SOL     OW31507   2.713   0.086   7.544 -0.3483 -0.0207 -0.1103
 6625SOL    HW131508   2.623   0.120   7.549 -1.3343 -2.2113 -3.1541
 6625SOL    HW231509   2.755   0.133   7.616 -0.3407  0.1340 -0.2176
 6626SOL     OW31510   1.527   4.027   4.053  0.1489  0.2778 -0.0629
 6626SOL    HW131511   1.486   4.025   4.139  0.6231 -0.5992  0.1402
 6626SOL    HW231512   1.608   3.981   4.074  0.6258  1.5373  0.8445
 6627SOL     OW31513   3.615   4.698   5.262  0.2744  0.0678 -0.4827
 6627SOL    HW131514   3.569   4.616   5.249 -0.5180  0.1760  1.5476
 6627SOL    HW231515   3.694   4.679   5.314  0.6004 -0.8401 -1.3149
 6628SOL     OW31516   2.797   1.663   4.773 -0.1849 -0.0993 -0.1004
 6628SOL    HW131517   2.869   1.711   4.732  0.9904 -1.0965  0.7891
 6628SOL    HW231518   2.781   1.701   4.859  0.0030 -0.6037  0.1585
 6629SOL     OW31519   3.193   2.017   7.216  0.4222 -0.4858  0.0511
 6629SOL    HW131520   3.279   2.017   7.258  1.0932 -0.4386 -1.3120
 6629SOL    HW231521   3.135   2.002   7.291  0.4948  0.1726  0.2392
 6630SOL     OW31522   1.257   4.115   2.101 -0.6233 -0.4204 -0.5631
 6630SOL    HW131523   1.173   4.102   2.056 -1.1407  1.2885 -0.1065
 6630SOL    HW231524   1.329   4.109   2.038 -1.3096  1.9386 -1.5909
 6631SOL     OW31525   3.780   4.376   6.188 -0.1797  0.2327 -0.3099
 6631SOL    HW131526   3.736   4.460   6.174 -1.7837 -0.8993 -2.0579
 6631SOL    HW231527   3.762   4.361   6.281  1.2157  0.0465 -0.0727
 6632SOL     OW31528   2.457   0.577   0.726 -0.1803  0.7022 -0.2616
 6632SOL    HW131529   2.488   0.504   0.779 -2.0461 -0.7985 -1.2676
 6632SOL    HW231530   2.382   0.534   0.685  1.1471 -1.2814 -0.5799
 6633SOL     OW31531   4.054   2.825   2.171 -0.2551  0.4426  0.0446
 6633SOL    HW131532   3.980   2.820   2.232  2.2527  0.8762  3.1048
 6633SOL    HW231533   4.016   2.773   2.100  0.4138  1.5822 -1.1496
 6634SOL     OW31534   0.079   1.805   4.885 -0.2055  0.1383 -0.3039
 6634SOL    HW131535   0.110   1.894   4.903  0.1459  0.2207 -1.3048
 6634SOL    HW231536   0.141   1.786   4.814  0.3859  0.4488  0.1237
 6635SOL     OW31537   1.636   3.205   5.876  0.2062  0.8471  0.0130
 6635SOL    HW131538   1.693   3.272   5.913 -0.7756  0.8764  1.4888
 6635SOL    HW231539   1.695   3.139   5.840 -1.4315 -0.8978  0.5111
 6636SOL     OW31540   2.203   1.407  16.883  0.2602 -0.8886  0.3235
 6636SOL    HW131541   2.148   1.442  16.813  0.0737 -0.7249  0.5555
 6636SOL    HW231542   2.189   1.479  16.944 -1.5418  0.1129 -1.2443
 6637SOL     OW31543   3.002   1.535  10.162 -0.0908  0.4088  0.1220
 6637SOL    HW131544   2.923   1.488  10.136 -0.4817  2.2458 -2.0627
 6637SOL    HW231545   2.999   1.517  10.256  0.6506 -1.5374 -0.2362
 6638SOL     OW31546   1.015   3.015  10.513 -0.8260  0.5932  0.6960
 6638SOL    HW131547   1.093   3.069  10.526  0.8498 -1.8748  1.0197
 6638SOL    HW231548   0.963   3.065  10.450  0.0739  0.2136 -0.3631
 6639SOL     OW31549   3.218   1.500   9.995 -0.5447 -0.0235  0.1362
 6639SOL    HW131550   3.141   1.522  10.047  0.5756  4.5055 -0.0645
 6639SOL    HW231551   3.238   1.413  10.030  2.1359  1.4778  2.3707
 6640SOL     OW31552   3.845   2.292  10.527  0.0168  0.3196 -0.9143
 6640SOL    HW131553   3.797   2.276  10.445  0.8705  1.4820 -1.6618
 6640SOL    HW231554   3.904   2.217  10.521  1.2203  1.1044  1.1622
 6641SOL     OW31555   3.732   4.623   0.329  0.4505 -0.1858  0.3262
 6641SOL    HW131556   3.769   4.642   0.243  2.0907 -0.5918  0.9239
 6641SOL    HW231557   3.673   4.696   0.344  1.3439  0.5913  0.0813
 6642SOL     OW31558   4.226   4.224   3.632 -0.3333  0.4067  0.3203
 6642SOL    HW131559   4.138   4.241   3.598 -0.4300 -1.4441 -0.3983
 6642SOL    HW231560   4.228   4.260   3.720  3.2777  1.2435 -0.1099
 6643SOL     OW31561   2.763   4.585   3.858 -0.4463  0.2148  0.4745
 6643SOL    HW131562   2.770   4.517   3.790  2.0266 -0.0361  0.9726
 6643SOL    HW231563   2.801   4.541   3.935  0.7858  0.9765  0.3048
 6644SOL     OW31564   0.560   3.712   2.456 -0.3740  0.0647  0.0669
 6644SOL    HW131565   0.583   3.803   2.479 -0.5283  0.2549 -0.5196
 6644SOL    HW231566   0.465   3.723   2.454 -0.3576  0.2644  0.3992
 6645SOL     OW31567   2.707   0.351  10.603 -0.0771 -0.4248  0.1295
 6645SOL    HW131568   2.799   0.355  10.630  0.4103 -0.6460 -1.4974
 6645SOL    HW231569   2.710   0.366  10.509 -0.1736  0.9019  0.3271
 6646SOL     OW31570   1.294   1.147   7.261 -0.5065  0.0916 -0.5084
 6646SOL    HW131571   1.361   1.121   7.199  1.0512  2.0168  0.3738
 6646SOL    HW231572   1.224   1.087   7.235  1.6155 -1.8546 -1.6531
 6647SOL     OW31573   4.189   4.488   3.055 -0.8871  0.0743 -1.0231
 6647SOL    HW131574   4.141   4.429   2.997 -1.9221 -0.2921  0.2183
 6647SOL    HW231575   4.258   4.438   3.099 -2.9047  0.9354  3.1043
 6648SOL     OW31576   1.272   4.052   5.086 -0.4353 -0.4056 -0.5694
 6648SOL    HW131577   1.291   3.958   5.079  0.9359 -0.1417 -0.4104
 6648SOL    HW231578   1.185   4.049   5.125 -0.7504 -1.4281 -1.3193
 6649SOL     OW31579   3.580   0.891   7.336  0.0362 -0.0868 -0.6983
 6649SOL    HW131580   3.600   0.805   7.372 -0.9155  0.4723  1.1620
 6649SOL    HW231581   3.506   0.857   7.285 -0.4285  0.3645 -0.3252
 6650SOL     OW31582   3.475   0.523  10.042 -0.4696  0.0832  0.3079
 6650SOL    HW131583   3.474   0.563  10.129 -1.4318  1.2568 -0.2467
 6650SOL    HW231584   3.432   0.594   9.995 -0.2189  1.0091  1.4458
 6651SOL     OW31585   4.739   4.594   7.389 -0.5136 -0.8789  0.3030
 6651SOL    HW131586   0.065   4.529   7.400  0.3948  0.2119  0.9361
 6651SOL    HW231587   4.697   4.556   7.312  0.7052  0.3279 -0.9763
 6652SOL     OW31588   0.659   4.087   7.090  0.3307  0.2436 -0.3173
 6652SOL    HW131589   0.683   4.070   6.999  2.8523 -1.6581  0.6962
 6652SOL    HW231590   0.614   4.171   7.079  0.0433  0.1938  0.4520
 6653SOL     OW31591   4.512   4.413  12.648 -0.2741 -0.5652 -0.1423
 6653SOL    HW131592   4.513   4.434  12.555  1.3104 -1.2490 -0.2842
 6653SOL    HW231593   4.606   4.400  12.663 -0.5386 -0.9227  1.2044
 6654SOL     OW31594   0.075   0.489   2.859 -0.5975 -0.3648 -0.4381
 6654SOL    HW131595   0.105   0.567   2.812  2.0627  0.2979  2.3155
 6654SOL    HW231596   0.002   0.529   2.906 -1.9408 -0.3243 -2.5753
 6655SOL     OW31597   1.601   1.388   5.425  0.4278 -0.0209 -0.2260
 6655SOL    HW131598   1.566   1.314   5.473 -1.7233 -0.1412 -1.9446
 6655SOL    HW231599   1.687   1.405   5.465 -0.1459  1.5248  0.3592
 6656SOL     OW31600   1.438   3.004  12.776  0.3545  0.0222  0.2522
 6656SOL    HW131601   1.419   2.911  12.764 -1.6590  0.5178 -0.4099
 6656SOL    HW231602   1.355   3.023  12.821  1.1762  3.1616  0.4190
 6657SOL     OW31603   1.240   2.302  11.613 -0.5539 -0.3959 -0.0426
 6657SOL    HW131604   1.154   2.334  11.639  0.6316  2.1474  0.7497
 6657SOL    HW231605   1.294   2.378  11.634  1.4668 -1.3724 -1.6684
 6658SOL     OW31606   0.871   4.584  10.668 -0.2384 -0.0605 -0.7752
 6658SOL    HW131607   0.795   4.526  10.660  1.6036 -2.5294 -0.4101
 6658SOL    HW231608   0.837   4.673  10.661  0.6099  0.2942 -0.4182
 6659SOL     OW31609   4.429   1.444   5.603 -0.0193  0.0675 -0.3654
 6659SOL    HW131610   4.391   1.387   5.537 -1.8861  1.6225 -0.6276
 6659SOL    HW231611   4.357   1.495   5.641  0.3775  0.0222  0.4567
 6660SOL     OW31612   1.422   0.754   9.664 -0.2766  0.1395  0.3162
 6660SOL    HW131613   1.502   0.806   9.661 -0.1433  0.0929  3.2338
 6660SOL    HW231614   1.442   0.679   9.720  1.3743 -0.0048 -0.4423
 6661SOL     OW31615   3.251   2.096  12.240  0.0891  0.4033 -0.1000
 6661SOL    HW131616   3.344   2.097  12.263 -0.0846 -1.9684  0.6850
 6661SOL    HW231617   3.226   2.181  12.277 -0.6789 -0.1407  0.6340
 6662SOL     OW31618   1.910   2.767   8.505  0.1600  0.0233  0.2048
 6662SOL    HW131619   1.969   2.796   8.575  2.3327 -2.0682 -0.7668
 6662SOL    HW231620   1.832   2.729   8.547  1.0791  0.5068  2.3597
 6663SOL     OW31621   2.179   3.774   2.928 -0.3397  0.4523  0.6893
 6663SOL    HW131622   2.108   3.709   2.931 -1.8586  2.1234  0.7811
 6663SOL    HW231623   2.187   3.794   3.021 -0.2529  0.1935  0.7375
 6664SOL     OW31624   2.879   3.373  12.259  0.1476 -0.5848 -0.1294
 6664SOL    HW131625   2.934   3.347  12.185 -2.9224 -0.3184 -2.5208
 6664SOL    HW231626   2.825   3.437  12.214  3.7687  2.8158  0.3300
 6665SOL     OW31627   3.247   2.573  12.270 -0.0683  0.6201  0.3440
 6665SOL    HW131628   3.195   2.493  12.262  0.8695 -0.1187  1.7527
 6665SOL    HW231629   3.338   2.544  12.262 -0.1291  0.1597  1.3872
 6666SOL     OW31630   4.697   3.607   7.054 -0.0387  0.3897 -0.1070
 6666SOL    HW131631   4.712   3.698   7.082  2.6058  1.0945 -3.8484
 6666SOL    HW231632   4.643   3.580   7.129 -0.2177  0.6703 -0.1324
 6667SOL     OW31633   4.698   1.908   6.954  0.4631  0.2352  0.0184
 6667SOL    HW131634   4.624   1.861   6.994  1.2867 -1.1778 -0.1190
 6667SOL    HW231635   4.681   1.902   6.860  0.6625 -0.0167 -0.0023
 6668SOL     OW31636   4.635   1.148   1.314  0.7525 -0.7355  0.8981
 6668SOL    HW131637   4.709   1.123   1.258  0.0450  0.7951 -0.7102
 6668SOL    HW231638   4.561   1.164   1.256 -0.0514 -0.2164  2.0493
 6669SOL     OW31639   2.223   2.856   9.317  0.3976  0.0908 -0.1648
 6669SOL    HW131640   2.299   2.802   9.298  1.1120  1.1069 -0.1601
 6669SOL    HW231641   2.155   2.793   9.343 -0.3158  0.7510 -0.4311
 6670SOL     OW31642   3.376   3.986   3.598 -0.6454  0.8215 -0.8443
 6670SOL    HW131643   3.291   3.953   3.627 -1.3841  1.6335 -2.0852
 6670SOL    HW231644   3.371   4.077   3.628 -0.3882  0.7994 -0.7371
 6671SOL     OW31645   2.561   0.524  13.947  0.7644  0.3645 -0.0491
 6671SOL    HW131646   2.646   0.480  13.942  1.1487  1.1679 -0.5568
 6671SOL    HW231647   2.557   0.568  13.862  0.9403  0.0516 -0.2163
 6672SOL     OW31648   1.760   4.226  10.525  0.2546  0.4769  0.2974
 6672SOL    HW131649   1.744   4.184  10.440 -1.0630 -1.4187  1.4912
 6672SOL    HW231650   1.838   4.280  10.512  1.9390 -2.5026 -1.8095
 6673SOL     OW31651   3.539   4.194   4.957 -0.3752  0.2857  0.1041
 6673SOL    HW131652   3.606   4.257   4.930 -1.3567  1.7965  1.1700
 6673SOL    HW231653   3.580   4.147   5.030 -0.7325  0.7024  0.5737
 6674SOL     OW31654   3.636   0.858   3.767 -0.2066 -0.0590  0.4061
 6674SOL    HW131655   3.561   0.827   3.717 -0.9134  1.9162  0.2378
 6674SOL    HW231656   3.670   0.769   3.772 -2.0593 -0.6438  2.5126
 6675SOL     OW31657   1.242   1.052  13.387  0.4477 -0.6722 -0.5780
 6675SOL    HW131658   1.304   1.039  13.315 -0.8475  2.3132 -2.2332
 6675SOL    HW231659   1.301   1.057  13.462 -0.0314 -1.2190 -0.1710
 6676SOL     OW31660   1.783   4.133   7.401 -0.8680  0.2284  0.0370
 6676SOL    HW131661   1.773   4.125   7.496 -2.8174  1.2595 -0.0899
 6676SOL    HW231662   1.877   4.114   7.394 -1.1516 -1.6863  1.4827
 6677SOL     OW31663   0.165   1.408   9.117  0.0449  0.2232 -0.0878
 6677SOL    HW131664   0.121   1.460   9.050 -2.4895  1.6124  2.6627
 6677SOL    HW231665   0.096   1.392   9.182  0.0074 -0.9102 -0.4037
 6678SOL     OW31666   3.933   4.357  10.034  0.1073  0.2079 -0.1410
 6678SOL    HW131667   3.967   4.269  10.050  0.7651  0.4519 -0.1881
 6678SOL    HW231668   3.949   4.399  10.118  1.4661  0.1597 -0.3700
 6679SOL     OW31669   1.736   2.741  15.125  0.0052  0.3665  0.1994
 6679SOL    HW131670   1.655   2.745  15.073 -0.0866 -0.0886  0.3118
 6679SOL    HW231671   1.709   2.750  15.216 -1.3996 -3.2028  0.1397
 6680SOL     OW31672   2.159   3.727   8.203 -0.3103  0.0719 -0.3907
 6680SOL    HW131673   2.126   3.645   8.240  0.1106 -0.3787 -1.0234
 6680SOL    HW231674   2.211   3.688   8.133 -1.3206  1.2636 -1.7916
 6681SOL     OW31675   3.020   0.978   4.909 -0.8281 -0.0809  0.0734
 6681SOL    HW131676   3.091   0.935   4.957 -0.4991 -0.7325 -0.9994
 6681SOL    HW231677   2.982   1.045   4.966 -3.0118 -0.2818 -1.1305
 6682SOL     OW31678   1.217   1.125   8.926  0.1398 -0.1501  0.2072
 6682SOL    HW131679   1.175   1.043   8.899 -0.3682  0.7567 -1.7549
 6682SOL    HW231680   1.209   1.184   8.850  0.5381 -0.6243 -0.2037
 6683SOL     OW31681   2.319   2.001   6.888 -0.3125 -0.5093  0.8785
 6683SOL    HW131682   2.384   2.020   6.955  2.4554  1.8448 -2.4692
 6683SOL    HW231683   2.282   2.089   6.889 -2.1324 -1.2658  0.0721
 6684SOL     OW31684   1.270   2.788   4.173  0.8128 -0.3734 -0.0243
 6684SOL    HW131685   1.350   2.754   4.132  0.1768 -2.4403  0.4461
 6684SOL    HW231686   1.252   2.724   4.242  1.1785 -1.3136 -0.7937
 6685SOL     OW31687   4.572   0.925   2.762 -0.1709  0.7957 -0.1721
 6685SOL    HW131688   4.506   0.879   2.814  2.0285 -2.7222 -0.4896
 6685SOL    HW231689   4.646   0.927   2.824  0.2056 -0.2535 -0.5991
 6686SOL     OW31690   3.496   3.412   3.757  0.4815 -0.7909 -0.1637
 6686SOL    HW131691   3.508   3.487   3.700 -1.2879 -1.6570 -1.6882
 6686SOL    HW231692   3.564   3.404   3.824  0.0197 -0.2790  0.3536
 6687SOL     OW31693   3.067   2.412   3.253 -0.6131 -0.0334  0.3791
 6687SOL    HW131694   3.008   2.371   3.190 -1.0206  0.6489  0.3083
 6687SOL    HW231695   3.096   2.492   3.209  1.6488 -0.6969  0.6760
 6688SOL     OW31696   3.172   1.575   5.075  0.4459 -0.2788 -0.2150
 6688SOL    HW131697   3.083   1.569   5.109 -0.0420 -1.5246 -1.6726
 6688SOL    HW231698   3.153   1.567   4.981 -0.4306 -0.9688  0.0242
 6689SOL     OW31699   1.290   2.558   1.240  0.4782 -0.4373  0.1755
 6689SOL    HW131700   1.228   2.566   1.312 -0.0194 -0.1734 -0.2903
 6689SOL    HW231701   1.354   2.617   1.280 -0.9936  1.9595 -1.0174
 6690SOL     OW31702   2.131   4.532   9.656 -0.1824  0.2689  0.2863
 6690SOL    HW131703   2.189   4.573   9.591 -0.3843 -1.6104 -1.0780
 6690SOL    HW231704   2.046   4.574   9.641 -0.7426 -0.9355  0.0852
 6691SOL     OW31705   2.599   0.673   4.839 -0.4684  0.2114 -0.8786
 6691SOL    HW131706   2.608   0.597   4.897  2.8948 -0.0378 -1.6856
 6691SOL    HW231707   2.666   0.656   4.773 -0.5296  0.2744 -0.9558
 6692SOL     OW31708   0.876   1.049   4.790 -0.1059  0.3802  0.2091
 6692SOL    HW131709   0.783   1.031   4.778 -0.0320  0.7320 -0.9071
 6692SOL    HW231710   0.904   0.995   4.864 -0.5427 -1.1408 -0.7511
 6693SOL     OW31711   2.332   1.559   8.586  0.4002 -0.7080  0.1153
 6693SOL    HW131712   2.422   1.543   8.612  0.4717  1.8212  1.4113
 6693SOL    HW231713   2.331   1.631   8.522  0.6188 -1.1355 -0.3678
 6694SOL     OW31714   1.113   4.111   1.530 -0.6768  0.3383  0.6000
 6694SOL    HW131715   1.150   4.152   1.452  1.1571 -0.8192  0.8633
 6694SOL    HW231716   1.070   4.045   1.476  1.0415 -0.3300  0.0341
 6695SOL     OW31717   3.558   0.963   0.580 -0.0052 -0.0720 -0.3164
 6695SOL    HW131718   3.502   0.913   0.520 -1.9928 -0.1586  1.6038
 6695SOL    HW231719   3.623   0.995   0.518 -0.6989  1.3854 -0.2883
 6696SOL     OW31720   0.505   2.211   1.507  0.5424 -0.2110  0.0201
 6696SOL    HW131721   0.482   2.133   1.457 -2.6741  0.0269  1.1094
 6696SOL    HW231722   0.441   2.213   1.579  1.6245 -0.4654  0.9894
 6697SOL     OW31723   2.106   3.404  15.778  1.1294  0.3292  0.3276
 6697SOL    HW131724   2.017   3.426  15.805  0.4709 -1.5983 -0.3138
 6697SOL    HW231725   2.124   3.344  15.850 -0.6930 -0.9420 -0.2777
 6698SOL     OW31726   3.418   3.010   6.531  0.0105 -0.5269  0.5081
 6698SOL    HW131727   3.445   3.089   6.577 -1.5618 -0.5190  1.3893
 6698SOL    HW231728   3.424   3.042   6.441  0.7749 -0.3397  0.6278
 6699SOL     OW31729   2.853   0.215   9.135  0.5905 -0.1064  0.3625
 6699SOL    HW131730   2.885   0.129   9.162  0.2601 -0.2988  0.1424
 6699SOL    HW231731   2.834   0.257   9.219  0.1481  1.9838 -0.7780
 6700SOL     OW31732   1.047   1.509  14.873 -0.3499  0.1211  0.2865
 6700SOL    HW131733   1.093   1.521  14.789  1.2735 -0.6883  1.0618
 6700SOL    HW231734   1.113   1.534  14.937  1.2046 -0.4526 -1.0808
 6701SOL     OW31735   2.128   2.442   3.489 -0.2144  0.1033 -0.7870
 6701SOL    HW131736   2.170   2.383   3.552 -0.1827 -0.7155 -1.5603
 6701SOL    HW231737   2.105   2.375   3.425 -2.1763 -0.4886  0.5639
 6702SOL     OW31738   3.791   4.357   8.687  0.2581  0.1903 -0.0792
 6702SOL    HW131739   3.839   4.289   8.734  0.0423  0.3972  0.4485
 6702SOL    HW231740   3.711   4.368   8.739 -0.0306 -0.5009 -0.3780
 6703SOL     OW31741   1.574   4.197  15.628 -0.2433  0.0250 -0.6492
 6703SOL    HW131742   1.523   4.219  15.706 -1.6738 -2.1282 -0.9809
 6703SOL    HW231743   1.626   4.123  15.659 -1.3587 -1.0580 -1.3627
 6704SOL     OW31744   3.097   4.563   2.298  0.0555  0.6642 -0.2185
 6704SOL    HW131745   3.097   4.530   2.388 -3.5605  2.1044  0.3059
 6704SOL    HW231746   3.103   4.658   2.305 -0.0659  0.6580 -0.0515
 6705SOL     OW31747   0.590   1.657   8.905 -0.6363 -0.2147  0.1037
 6705SOL    HW131748   0.598   1.608   8.986  0.4862 -0.7261 -0.3060
 6705SOL    HW231749   0.680   1.639   8.875 -0.3263  2.5522 -0.6548
 6706SOL     OW31750   4.228   0.765   8.890 -0.3447 -0.0532  0.0548
 6706SOL    HW131751   4.168   0.840   8.892  0.7008  0.7853 -0.3931
 6706SOL    HW231752   4.251   0.769   8.797 -0.4876  0.2729  0.0360
 6707SOL     OW31753   4.137   2.009   5.372  0.6329  0.1960 -0.3493
 6707SOL    HW131754   4.072   2.002   5.302 -2.3245 -0.8483  2.4715
 6707SOL    HW231755   4.179   2.094   5.357  1.9735 -0.6558 -1.3212
 6708SOL     OW31756   1.222   1.211   5.948 -0.2946  0.0892 -0.3738
 6708SOL    HW131757   1.315   1.233   5.949 -0.2482 -0.3183  2.6371
 6708SOL    HW231758   1.206   1.143   5.883  0.3331 -1.1055  0.7319
 6709SOL     OW31759   4.319   0.672   9.475  0.3347 -0.4235 -0.2387
 6709SOL    HW131760   4.250   0.704   9.416  0.8287  0.3119 -0.4203
 6709SOL    HW231761   4.267   0.618   9.534  1.0864 -1.1742 -0.2668
 6710SOL     OW31762   2.442   3.853   6.208 -0.1870 -0.1234 -0.5389
 6710SOL    HW131763   2.516   3.858   6.147  0.8948  0.7896  0.8203
 6710SOL    HW231764   2.372   3.887   6.154  0.7802  0.8329 -1.1943
 6711SOL     OW31765   3.820   1.001   5.650  0.4529  0.1154 -0.5359
 6711SOL    HW131766   3.737   1.036   5.681 -0.4791 -1.4583 -1.2102
 6711SOL    HW231767   3.825   1.054   5.570  1.7326 -0.3622 -0.7721
 6712SOL     OW31768   0.193   3.021   2.765  0.2058  0.4020  0.0998
 6712SOL    HW131769   0.183   3.072   2.684 -0.4342  0.2760  0.1022
 6712SOL    HW231770   0.154   3.070   2.837 -1.2955 -0.7950  0.1041
 6713SOL     OW31771   3.711   4.163   2.653  0.1268 -0.4563  0.1218
 6713SOL    HW131772   3.661   4.243   2.634  2.1181  0.4295 -1.3484
 6713SOL    HW231773   3.780   4.182   2.716  1.2848 -1.6549 -0.8054
 6714SOL     OW31774   0.357   2.649   4.582 -0.6286  0.0667 -0.1671
 6714SOL    HW131775   0.318   2.561   4.582  1.0678 -0.6874 -0.6237
 6714SOL    HW231776   0.308   2.693   4.651  1.6181  1.8499  0.2974
 6715SOL     OW31777   3.381   2.743  17.044 -0.2159 -0.4998  0.0748
 6715SOL    HW131778   3.377   2.670  17.105  1.3727 -0.4208  0.2830
 6715SOL    HW231779   3.470   2.730  17.011 -0.6674 -2.4515 -0.3717
 6716SOL     OW31780   2.779   4.422   5.571 -0.2086 -0.2295  0.4744
 6716SOL    HW131781   2.798   4.514   5.552  0.2982 -0.2271  1.0193
 6716SOL    HW231782   2.853   4.372   5.537  0.3624  1.8144 -1.3322
 6717SOL     OW31783   0.012   0.037   7.907  0.1878 -0.1974 -0.2044
 6717SOL    HW131784   0.085   0.018   7.967  0.7376 -0.7153 -1.0415
 6717SOL    HW231785   0.065   0.070   7.835 -0.9700 -0.7860 -1.3076
 6718SOL     OW31786   4.369   2.322   7.565 -0.1596  0.2594  0.4247
 6718SOL    HW131787   4.298   2.385   7.580 -0.7280 -0.2995  0.0753
 6718SOL    HW231788   4.426   2.362   7.500 -0.4222 -1.5940 -0.9572
 6719SOL     OW31789   1.746   4.514   7.337  0.1605  0.0385 -0.3195
 6719SOL    HW131790   1.711   4.520   7.426  1.2598 -1.3628  0.2092
 6719SOL    HW231791   1.783   4.601   7.320  1.3104 -0.5093 -0.6191
 6720SOL     OW31792   1.065   1.163   7.859 -0.5893  0.0285 -0.1285
 6720SOL    HW131793   1.081   1.246   7.814 -2.5399  0.2365 -0.4111
 6720SOL    HW231794   1.005   1.118   7.800 -0.6962  0.0996 -0.0731
 6721SOL     OW31795   0.824   1.274  17.029  0.0819  0.2674 -0.3747
 6721SOL    HW131796   0.886   1.272  17.101  0.4367 -1.2075 -0.7108
 6721SOL    HW231797   0.743   1.283  17.079 -1.0909 -1.4185 -1.9614
 6722SOL     OW31798   1.041   4.085   2.689 -0.2223  0.0458 -0.3633
 6722SOL    HW131799   1.128   4.097   2.650 -0.7546  2.0042 -0.9058
 6722SOL    HW231800   1.065   4.096   2.781  0.0727  1.5649 -0.6321
 6723SOL     OW31801   4.218   3.684   1.414  0.0208  0.4016  0.5970
 6723SOL    HW131802   4.248   3.749   1.351  0.5036 -1.7667 -1.4000
 6723SOL    HW231803   4.298   3.673   1.466  1.0052 -0.6761 -1.1622
 6724SOL     OW31804   0.332   1.333   8.460 -0.1507 -0.1818  0.0734
 6724SOL    HW131805   0.425   1.354   8.473  0.0401 -0.0131 -1.5832
 6724SOL    HW231806   0.348   1.247   8.421  0.5287  0.3846 -0.9054
 6725SOL     OW31807   2.287   2.273  12.642  0.0472  0.2754  0.5800
 6725SOL    HW131808   2.363   2.214  12.643  0.5458  0.8814 -0.6148
 6725SOL    HW231809   2.284   2.301  12.550 -0.9982 -0.8336  0.2909
 6726SOL     OW31810   4.657   0.112  15.577 -0.0689  0.4186  0.1601
 6726SOL    HW131811   4.650   0.099  15.482 -0.5855 -1.7825  0.5136
 6726SOL    HW231812   4.570   0.096  15.613 -1.3216  0.6625 -2.7386
 6727SOL     OW31813   3.659   3.826   7.264  0.1119 -0.5506  0.4087
 6727SOL    HW131814   3.710   3.907   7.270  2.1304 -1.7793 -0.1946
 6727SOL    HW231815   3.731   3.764   7.269  0.2405 -0.2276  2.5015
 6728SOL     OW31816   1.041   4.625   6.906 -0.2234 -0.5195  0.2341
 6728SOL    HW131817   1.133   4.612   6.884  0.3049  0.7213  1.7229
 6728SOL    HW231818   1.028   4.531   6.915  0.2377 -0.5862  0.2081
 6729SOL     OW31819   1.439   4.316   6.794  0.6085  0.7094  0.3894
 6729SOL    HW131820   1.374   4.350   6.732  1.2576  0.3109 -0.5096
 6729SOL    HW231821   1.410   4.227   6.814  0.0579  0.8791  0.3748
 6730SOL     OW31822   1.344   0.205   3.078  0.0301 -0.2669 -0.0775
 6730SOL    HW131823   1.414   0.178   3.018 -0.6108  1.2730 -1.4970
 6730SOL    HW231824   1.343   0.121   3.125  0.7738  0.5340  1.3595
 6731SOL     OW31825   4.108   0.479   6.406 -0.8187 -0.8144 -0.1990
 6731SOL    HW131826   4.020   0.456   6.375 -0.2226  0.1433 -2.6449
 6731SOL    HW231827   4.157   0.407   6.364 -0.1824 -0.2138 -0.4872
 6732SOL     OW31828   0.143   1.190   3.114 -0.2051 -0.1819  0.3805
 6732SOL    HW131829   0.099   1.123   3.062  1.1431  0.5762 -1.7133
 6732SOL    HW231830   0.089   1.222   3.186 -1.1182  2.6793 -1.5925
 6733SOL     OW31831   1.578   1.186   2.405  0.2504  0.4728  0.6253
 6733SOL    HW131832   1.649   1.144   2.356  1.2234  2.6798  0.1512
 6733SOL    HW231833   1.623   1.223   2.481 -0.0611 -5.4055  3.7010
 6734SOL     OW31834   3.282   2.936   6.135 -0.1423  0.2741  0.1030
 6734SOL    HW131835   3.310   2.861   6.082  1.6206  1.9704 -1.3757
 6734SOL    HW231836   3.192   2.907   6.146 -1.6286  4.4083 -1.2004
 6735SOL     OW31837   1.154   3.982  13.784  0.0811  0.0122  0.0073
 6735SOL    HW131838   1.163   3.948  13.695 -0.4099 -2.5478  0.9390
 6735SOL    HW231839   1.071   4.023  13.762  0.4287  2.2499  2.7799
 6736SOL     OW31840   0.157   3.242   4.807 -0.2275  0.3296  0.0881
 6736SOL    HW131841   0.083   3.187   4.781  0.3706 -0.3983 -0.0692
 6736SOL    HW231842   0.126   3.327   4.776  0.7401  0.7320  0.2468
 6737SOL     OW31843   0.897   1.859   4.032 -0.1616  0.2162 -0.2711
 6737SOL    HW131844   0.968   1.918   4.008  0.5877 -0.7638 -0.4323
 6737SOL    HW231845   0.931   1.772   4.012 -1.6464  0.0340 -2.1025
 6738SOL     OW31846   3.633   0.919   5.192 -0.0276 -0.3413  0.6729
 6738SOL    HW131847   3.647   0.903   5.285 -0.4560  0.5749  0.8918
 6738SOL    HW231848   3.539   0.908   5.176 -0.0346 -1.2323  1.3577
 6739SOL     OW31849   1.615   1.353   4.839 -0.2045  0.2972 -0.1645
 6739SOL    HW131850   1.699   1.358   4.793 -0.8355  1.2545 -1.1917
 6739SOL    HW231851   1.553   1.363   4.767 -0.8091 -0.9348  0.1837
 6740SOL     OW31852   2.663   0.802  15.505  0.0230  0.0843  0.6872
 6740SOL    HW131853   2.595   0.857  15.467 -0.8546 -0.2082  1.8165
 6740SOL    HW231854   2.624   0.714  15.508  1.6276 -0.6308  0.4026
 6741SOL     OW31855   1.431   3.210   2.420 -0.0226 -0.1610 -0.3005
 6741SOL    HW131856   1.422   3.253   2.505  0.1454 -2.5249  0.9039
 6741SOL    HW231857   1.468   3.282   2.369  2.7323 -0.8397  0.7652
 6742SOL     OW31858   2.013   1.022  10.232  0.4055  0.1196 -0.0900
 6742SOL    HW131859   1.940   1.080  10.215  0.0042 -0.3201  0.1280
 6742SOL    HW231860   2.043   1.007  10.142  1.5263  2.6500 -0.1353
 6743SOL     OW31861   3.162   1.844  12.358 -0.3012  0.4278 -0.0355
 6743SOL    HW131862   3.233   1.800  12.404  0.1827  0.2978 -0.9080
 6743SOL    HW231863   3.199   1.926  12.324  1.7595 -1.3507 -2.0790
 6744SOL     OW31864   2.751   4.412   7.214 -0.7028 -0.0638 -0.3451
 6744SOL    HW131865   2.676   4.471   7.218 -2.1480 -1.9979  1.1102
 6744SOL    HW231866   2.715   4.325   7.232 -0.1783  0.1778  1.8364
 6745SOL     OW31867   0.024   1.796  16.720  0.9374 -0.1548 -0.3871
 6745SOL    HW131868   4.688   1.843  16.695  0.0446 -0.0059  2.8012
 6745SOL    HW231869   0.016   1.715  16.669 -1.3529  0.0935 -0.4262
 6746SOL     OW31870   3.759   4.418  15.496  0.4884  0.7480 -0.2811
 6746SOL    HW131871   3.806   4.384  15.420 -0.9387 -2.3447  0.2006
 6746SOL    HW231872   3.686   4.464  15.455  0.2329  1.6277  1.1454
 6747SOL     OW31873   0.578   4.311   1.125  0.9276 -0.1630 -0.2435
 6747SOL    HW131874   0.537   4.348   1.047 -0.3008  0.6030  0.7846
 6747SOL    HW231875   0.583   4.383   1.188  0.5069 -1.2079  0.9950
 6748SOL     OW31876   4.639   0.462   7.734 -0.1942  0.7982  0.1786
 6748SOL    HW131877   4.603   0.420   7.656  2.0516  2.2825 -1.6604
 6748SOL    HW231878   4.581   0.537   7.746 -1.0257 -0.0021  1.1541
 6749SOL     OW31879   3.645   0.862   8.106 -0.3426  0.1790  0.0876
 6749SOL    HW131880   3.581   0.892   8.041 -0.1918 -0.2034 -0.2328
 6749SOL    HW231881   3.695   0.805   8.048  1.9278 -0.7553  2.9585
 6750SOL     OW31882   1.020   1.785   0.463 -0.0296  0.2275 -0.1801
 6750SOL    HW131883   1.089   1.804   0.399  1.5118 -0.3085  1.3088
 6750SOL    HW231884   0.949   1.787   0.399 -1.5670 -2.2900  1.4707
 6751SOL     OW31885   2.639   3.467   6.658 -0.2200  0.1768  0.0317
 6751SOL    HW131886   2.561   3.512   6.690  0.3477  0.2724  1.3175
 6751SOL    HW231887   2.614   3.427   6.575 -0.0507  0.0051  0.0627
 6752SOL     OW31888   4.586   1.975   7.703  0.0439  0.8105  0.4696
 6752SOL    HW131889   4.517   1.966   7.637 -0.7350  0.7187  1.2895
 6752SOL    HW231890   4.550   2.052   7.748  0.7201  1.2770  0.2023
 6753SOL     OW31891   3.506   4.685   8.513  0.9182  0.3810  0.0320
 6753SOL    HW131892   3.420   4.717   8.486  0.5916  0.1883  0.8156
 6753SOL    HW231893   3.485   4.594   8.532 -0.4437  0.3894 -1.4214
 6754SOL     OW31894   0.512   0.956   7.281  0.0756 -0.2049  0.4622
 6754SOL    HW131895   0.572   0.889   7.249 -0.3109 -1.7025  2.8376
 6754SOL    HW231896   0.574   1.008   7.334  0.2031 -0.1380  0.2460
 6755SOL     OW31897   1.238   3.851  11.308  0.2694 -0.1535  0.0802
 6755SOL    HW131898   1.290   3.860  11.228  1.8937  2.6970  1.4558
 6755SOL    HW231899   1.165   3.912  11.297 -0.4801 -1.4272 -2.0679
 6756SOL     OW31900   1.079   2.111  11.115 -0.0432  0.8591  0.5084
 6756SOL    HW131901   1.067   2.019  11.095 -2.5668  1.6369 -1.6191
 6756SOL    HW231902   1.079   2.109  11.210 -2.4389  1.4257  0.5237
 6757SOL     OW31903   4.556   2.330   5.861 -0.4285 -0.5583  0.3441
 6757SOL    HW131904   4.608   2.301   5.785 -4.1192 -0.5319 -2.1671
 6757SOL    HW231905   4.528   2.247   5.899 -0.0583 -1.3132 -0.9959
 6758SOL     OW31906   2.645   3.192   3.641  0.3789 -0.0401 -0.5271
 6758SOL    HW131907   2.607   3.255   3.579 -2.4265 -1.4772 -0.2894
 6758SOL    HW231908   2.719   3.175   3.583  1.3481 -0.2895  0.8031
 6759SOL     OW31909   3.907   1.664   0.048 -0.2212  0.2010 -0.2972
 6759SOL    HW131910   3.904   1.676   0.143 -2.9712  2.5309 -0.7027
 6759SOL    HW231911   3.993   1.700   0.027 -0.2928  0.3932 -0.2551
 6760SOL     OW31912   0.624   1.640   3.244 -0.9004 -0.5263 -0.3896
 6760SOL    HW131913   0.555   1.648   3.179 -1.0833  2.8480  0.2379
 6760SOL    HW231914   0.658   1.555   3.217 -0.2118 -0.8293  1.3826
 6761SOL     OW31915   1.366   0.715  12.978  0.6518 -0.4579  0.0210
 6761SOL    HW131916   1.302   0.678  13.039  0.5186 -1.3452 -0.6472
 6761SOL    HW231917   1.333   0.804  12.969  3.1500  0.5726  1.1756
 6762SOL     OW31918   1.552   1.784   4.719  0.2495 -0.2773  0.2098
 6762SOL    HW131919   1.639   1.746   4.728  1.2523  1.5994 -1.4886
 6762SOL    HW231920   1.502   1.728   4.778 -1.6600  0.5700 -0.5827
 6763SOL     OW31921   2.918   0.167   4.371  0.1269  0.3807 -0.0604
 6763SOL    HW131922   2.938   0.249   4.417  2.9770  0.1149 -0.7848
 6763SOL    HW231923   2.937   0.197   4.282  0.1789  0.9644  0.1442
 6764SOL     OW31924   2.425   3.003   7.152  0.0241 -0.4032 -0.3759
 6764SOL    HW131925   2.487   2.955   7.206 -0.5762  0.4063  1.0361
 6764SOL    HW231926   2.475   3.081   7.127 -0.0838 -1.6406 -4.4138
 6765SOL     OW31927   0.635   3.314   3.688 -0.0243  0.4817 -0.4719
 6765SOL    HW131928   0.588   3.322   3.606  0.0292 -0.1437 -0.5591
 6765SOL    HW231929   0.569   3.333   3.755 -1.2910 -1.1147 -1.2774
 6766SOL     OW31930   2.604   2.570   0.202  0.4299  0.0602  0.8240
 6766SOL    HW131931   2.608   2.509   0.128  0.3733  0.7288  0.2752
 6766SOL    HW231932   2.655   2.514   0.260  2.2934 -0.2965 -1.1275
 6767SOL     OW31933   4.164   2.213  12.754 -0.0083  0.1795  0.7568
 6767SOL    HW131934   4.136   2.162  12.678  0.7249  1.9408 -0.7001
 6767SOL    HW231935   4.127   2.172  12.832 -0.6762  1.1544  0.9525
 6768SOL     OW31936   4.127   2.930   8.260  0.0864  0.0096 -0.2424
 6768SOL    HW131937   4.140   2.841   8.292  2.5381  0.6582  0.5728
 6768SOL    HW231938   4.146   2.915   8.168  1.2470  0.5295 -0.0876
 6769SOL     OW31939   1.497   3.678   7.712  0.2479 -0.5348 -0.2404
 6769SOL    HW131940   1.584   3.686   7.672  0.8375  0.1553  1.2082
 6769SOL    HW231941   1.517   3.626   7.790  0.7844  1.4003  0.8938
 6770SOL     OW31942   3.942   4.346   4.264 -0.6708  0.0623  0.0654
 6770SOL    HW131943   3.937   4.261   4.310  1.2242 -2.1812 -3.8904
 6770SOL    HW231944   3.875   4.387   4.318  1.0768 -0.5051  2.6722
 6771SOL     OW31945   1.606   4.637   8.483 -0.6510 -0.3314 -0.0459
 6771SOL    HW131946   1.677   4.637   8.547 -2.2485 -1.6518  1.7322
 6771SOL    HW231947   1.612   4.731   8.466  0.4914 -0.6905 -1.5563
 6772SOL     OW31948   4.342   4.240   5.723 -0.3609  0.3437 -0.1037
 6772SOL    HW131949   4.304   4.179   5.786 -0.0720  1.7732  1.4588
 6772SOL    HW231950   4.339   4.320   5.776 -0.0240  0.4245 -0.2068
 6773SOL     OW31951   2.104   0.675   0.783 -0.4799  1.1843 -0.0242
 6773SOL    HW131952   2.118   0.686   0.877 -0.8420  0.8666  0.0662
 6773SOL    HW231953   2.097   0.766   0.754 -0.7738  1.6867  1.6585
 6774SOL     OW31954   3.347   0.435   9.273  0.9485  0.2730 -0.2770
 6774SOL    HW131955   3.346   0.499   9.201  0.3031  0.8022  0.2027
 6774SOL    HW231956   3.267   0.442   9.326  1.4042  0.1245  0.4286
 6775SOL     OW31957   3.202   1.958   3.101 -0.0335  0.0151 -0.3728
 6775SOL    HW131958   3.162   2.039   3.134  1.4309  0.9887 -0.9932
 6775SOL    HW231959   3.270   1.943   3.166 -0.4610 -0.1492  0.0365
 6776SOL     OW31960   4.163   1.330   4.477  0.1208  0.5179 -0.2181
 6776SOL    HW131961   4.069   1.342   4.460 -0.3525 -0.3746  1.7160
 6776SOL    HW231962   4.157   1.262   4.544  1.2345 -1.3415 -2.0043
 6777SOL     OW31963   0.347   0.768   9.586  0.4826  0.9251  0.2351
 6777SOL    HW131964   0.436   0.794   9.563  0.9604 -2.5268 -1.8818
 6777SOL    HW231965   0.301   0.852   9.589  0.1840  0.7111  1.5296
 6778SOL     OW31966   3.296   0.583   3.592 -0.0004  0.2071 -0.0720
 6778SOL    HW131967   3.230   0.533   3.639  0.7995  0.0403  0.8601
 6778SOL    HW231968   3.364   0.516   3.584 -0.8363 -0.4531 -1.6665
 6779SOL     OW31969   3.494   3.533   8.563 -0.1994 -0.2379 -0.0311
 6779SOL    HW131970   3.481   3.473   8.636  0.4880 -2.1698 -1.5241
 6779SOL    HW231971   3.589   3.546   8.560 -0.3516  0.9547  0.1863
 6780SOL     OW31972   2.477   0.727   5.336 -0.1635  0.1015 -0.4103
 6780SOL    HW131973   2.419   0.718   5.260 -0.1991 -0.8310 -0.2689
 6780SOL    HW231974   2.415   0.732   5.408  1.0220  0.9984  0.5521
 6781SOL     OW31975   1.613   1.430   9.112 -0.4389 -0.3913  0.1976
 6781SOL    HW131976   1.703   1.429   9.080 -0.8529  0.6843 -0.9995
 6781SOL    HW231977   1.567   1.378   9.046  0.6066 -0.7148 -0.2627
 6782SOL     OW31978   2.418   1.781   2.891 -0.1632  0.4885 -0.3171
 6782SOL    HW131979   2.462   1.847   2.943 -1.9307  2.1546 -0.9340
 6782SOL    HW231980   2.382   1.723   2.958  2.2697 -0.2946  0.3140
 6783SOL     OW31981   3.447   4.020   2.029 -0.5256 -0.2172  0.2227
 6783SOL    HW131982   3.481   3.963   2.098  1.9425 -2.5644 -2.9215
 6783SOL    HW231983   3.478   4.109   2.042  0.5112 -0.3840 -1.1129
 6784SOL     OW31984   0.251   2.742   4.805  0.6749 -0.1615  0.1726
 6784SOL    HW131985   0.235   2.828   4.766  0.6208  0.5014  1.6515
 6784SOL    HW231986   0.323   2.763   4.864  0.2924  0.2893  0.4798
 6785SOL     OW31987   2.351   1.115   1.155 -0.5519 -0.6336  0.2649
 6785SOL    HW131988   2.347   1.166   1.236 -1.1267 -2.6622  1.4915
 6785SOL    HW231989   2.380   1.180   1.091 -2.4863 -0.1406 -0.1139
 6786SOL     OW31990   3.495   4.588   7.382  0.7616 -0.1080 -0.8483
 6786SOL    HW131991   3.539   4.594   7.297 -2.4757  0.8693 -2.4724
 6786SOL    HW231992   3.469   4.496   7.374  2.4728 -0.7249  0.8483
 6787SOL     OW31993   0.120   3.768   6.183 -0.5402 -0.2410  0.0739
 6787SOL    HW131994   0.080   3.765   6.270  0.7510  0.3469  0.7061
 6787SOL    HW231995   0.206   3.806   6.201  0.9005 -3.3155 -0.3264
 6788SOL     OW31996   3.018   0.634   4.065  0.2973 -0.3414 -0.1957
 6788SOL    HW131997   3.019   0.681   4.148  2.5664  1.1895 -1.1088
 6788SOL    HW231998   2.927   0.632   4.035  0.5816  0.5599 -1.1261
 6789SOL     OW31999   0.743   0.057   1.060  0.2731  0.3250 -0.0447
 6789SOL    HW132000   0.745   0.101   0.975 -2.9092  2.0672  0.7851
 6789SOL    HW232001   0.652   0.072   1.086  0.2547 -0.3923  0.3175
 6790SOL     OW32002   0.476   0.916   8.629  0.3682 -0.1911 -0.3839
 6790SOL    HW132003   0.425   0.978   8.682 -0.0214  0.1945 -1.2150
 6790SOL    HW232004   0.427   0.920   8.547 -1.2547 -0.2625  0.5650
 6791SOL     OW32005   3.827   2.830   7.706  0.1059  0.1812 -0.3748
 6791SOL    HW132006   3.865   2.781   7.779 -1.2983  1.6450  1.3670
 6791SOL    HW232007   3.743   2.841   7.751  0.0889  1.9105 -0.8289
 6792SOL     OW32008   2.703   2.071   9.963 -0.9296  0.3417  0.4414
 6792SOL    HW132009   2.733   2.023  10.040 -0.4636  0.6649  0.4659
 6792SOL    HW232010   2.770   2.140   9.956  0.2780 -0.7318  1.4680
 6793SOL     OW32011   1.068   1.535  14.358 -0.0656 -0.0804  0.2882
 6793SOL    HW132012   1.065   1.445  14.390  0.9551  0.1720  1.0754
 6793SOL    HW232013   0.982   1.537  14.315  0.0567  0.8175  0.0772
 6794SOL     OW32014   2.890   1.669   3.680  0.4541 -0.2927  0.0338
 6794SOL    HW132015   2.867   1.609   3.610 -1.8126  0.5521  0.0473
 6794SOL    HW232016   2.977   1.690   3.645  0.2350  0.2435 -0.1833
 6795SOL     OW32017   2.476   1.817   5.472 -0.1469 -1.0846 -0.9651
 6795SOL    HW132018   2.489   1.811   5.377 -1.0625 -0.8785 -1.1055
 6795SOL    HW232019   2.552   1.764   5.494  1.5677  0.7813 -2.3416
 6796SOL     OW32020   2.223   2.993   4.005 -0.6112  0.0073  0.2310
 6796SOL    HW132021   2.198   2.947   3.925 -1.7501  0.7126  0.1732
 6796SOL    HW232022   2.246   3.082   3.977 -1.5453  0.2661  0.3072
 6797SOL     OW32023   3.912   4.353   2.185 -0.7486 -0.1948  0.3764
 6797SOL    HW132024   3.874   4.287   2.126 -0.2004 -0.9204  0.8329
 6797SOL    HW232025   3.997   4.310   2.191 -2.1447 -2.7452  2.2168
 6798SOL     OW32026   4.076   2.535  10.772  0.2944 -0.0802 -0.2229
 6798SOL    HW132027   4.135   2.471  10.733 -0.0641 -0.8251  0.4435
 6798SOL    HW232028   4.112   2.517  10.859 -2.6494 -1.2017  0.7517
 6799SOL     OW32029   1.815   2.857   9.423 -0.0643  0.0343 -0.1283
 6799SOL    HW132030   1.798   2.893   9.510 -0.8287 -2.1895  0.6249
 6799SOL    HW232031   1.887   2.794   9.432 -2.4426 -2.5835  0.1719
 6800SOL     OW32032   2.088   1.237   0.448  0.1002  0.4243  0.0340
 6800SOL    HW132033   2.092   1.279   0.534 -0.9953  0.4321  0.0812
 6800SOL    HW232034   2.169   1.187   0.455  0.6493  1.5483  1.7958
 6801SOL     OW32035   2.381   0.036   7.787  0.3308 -0.2738 -0.5910
 6801SOL    HW132036   2.364   4.720   7.861  0.2292  0.3474 -0.1125
 6801SOL    HW232037   2.291   0.068   7.779  1.7065  3.2915 -1.7076
 6802SOL     OW32038   3.152   4.621   5.397  0.5701  0.4724 -0.0889
 6802SOL    HW132039   3.184   4.531   5.383 -1.8779  0.0373 -2.7684
 6802SOL    HW232040   3.225   4.651   5.452 -0.6036  2.6876  0.2419
 6803SOL     OW32041   2.947   2.255   1.642 -0.0280 -0.0831  0.3356
 6803SOL    HW132042   3.007   2.180   1.642  0.0393 -0.0300  0.3073
 6803SOL    HW232043   2.962   2.268   1.736  0.4353  1.5211  0.0525
 6804SOL     OW32044   0.301   4.581  10.799 -0.2870  0.4945  0.1686
 6804SOL    HW132045   0.272   4.647  10.736  0.7128 -0.1499 -0.9735
 6804SOL    HW232046   0.373   4.626  10.844  0.9811  0.0614 -1.4293
 6805SOL     OW32047   2.627   2.926   6.498 -0.1554  0.0383 -0.4407
 6805SOL    HW132048   2.675   3.009   6.502 -1.3485  0.7586 -1.1703
 6805SOL    HW232049   2.667   2.890   6.578 -1.8443 -1.5744 -0.3146
 6806SOL     OW32050   1.442   2.127   4.810 -0.3343 -0.2100  0.2699
 6806SOL    HW132051   1.410   2.049   4.763 -0.3324  0.2794 -0.5465
 6806SOL    HW232052   1.536   2.107   4.815 -0.0541  1.1627  0.2755
 6807SOL     OW32053   3.690   0.685   9.981 -0.4246 -0.3539 -0.1958
 6807SOL    HW132054   3.623   0.619   9.998 -0.8958 -0.1339 -1.1760
 6807SOL    HW232055   3.739   0.691  10.062 -0.7080 -2.1154  0.1151
 6808SOL     OW32056   0.253   3.639   3.946 -0.5489 -0.7965 -0.4262
 6808SOL    HW132057   0.328   3.610   3.893  0.7240  2.0143 -0.1666
 6808SOL    HW232058   0.298   3.704   4.000  0.7365 -1.2932 -0.9044
 6809SOL     OW32059   0.608   4.276  16.221 -0.7564 -0.2230 -1.0090
 6809SOL    HW132060   0.658   4.325  16.287 -0.8340  1.0845 -1.9228
 6809SOL    HW232061   0.545   4.340  16.188  0.3353  1.1742 -0.3913
 6810SOL     OW32062   2.266   4.025   3.213  0.4130 -0.1958 -0.8738
 6810SOL    HW132063   2.181   4.016   3.170  0.3985 -0.4550 -0.7876
 6810SOL    HW232064   2.329   4.001   3.144  1.8450  5.3260 -1.4993
 6811SOL     OW32065   0.176   2.839  10.276 -0.5467 -0.8094  0.1165
 6811SOL    HW132066   0.242   2.826  10.208 -0.3133 -1.4875  0.4719
 6811SOL    HW232067   0.211   2.915  10.323 -0.8467  0.9711 -2.5682
 6812SOL     OW32068   2.135   4.161   9.195  0.9162 -0.1597 -0.2047
 6812SOL    HW132069   2.140   4.112   9.113 -0.5139 -1.7087  0.6127
 6812SOL    HW232070   2.179   4.236   9.156 -1.6977  2.2871  1.5443
 6813SOL     OW32071   0.318   2.949   9.204  0.0776 -0.0968  0.1682
 6813SOL    HW132072   0.352   3.019   9.149  0.5205  0.0692  0.6563
 6813SOL    HW232073   0.384   2.947   9.273 -1.3554  0.0395  1.5217
 6814SOL     OW32074   4.013   1.103   7.069  0.2417  0.0624  0.1508
 6814SOL    HW132075   4.005   1.146   6.984  1.1739  0.7116  0.3894
 6814SOL    HW232076   4.106   1.078   7.067  1.0109  3.1573 -1.9627
 6815SOL     OW32077   4.048   1.103   9.980 -0.3342  0.0963 -0.0190
 6815SOL    HW132078   4.141   1.120   9.988 -0.2072  0.0310 -1.3970
 6815SOL    HW232079   4.016   1.193   9.967  3.0612  1.1938 -0.5943
 6816SOL     OW32080   2.585   3.395  12.386  0.1406 -0.2787  0.2663
 6816SOL    HW132081   2.656   3.425  12.329  0.1826 -2.6740 -0.9532
 6816SOL    HW232082   2.540   3.336  12.326  1.9200 -0.0372 -1.3084
 6817SOL     OW32083   3.755   3.358   4.838 -0.0185 -0.1066  0.0767
 6817SOL    HW132084   3.757   3.446   4.802  0.1746 -1.0274 -2.1557
 6817SOL    HW232085   3.732   3.314   4.756 -0.5169 -1.0337  0.7178
 6818SOL     OW32086   4.738   2.332   7.474 -0.1248 -0.0406 -0.0843
 6818SOL    HW132087   0.039   2.401   7.524 -1.8809  0.2255  1.0948
 6818SOL    HW232088   4.659   2.377   7.445  0.0209  0.1258 -0.2294
 6819SOL     OW32089   2.697   1.596   5.921 -0.1221  0.1021  0.4035
 6819SOL    HW132090   2.779   1.548   5.913  0.0254  0.4108  0.0778
 6819SOL    HW232091   2.642   1.533   5.873  0.0792 -1.3402  2.0863
 6820SOL     OW32092   4.472   2.617   2.643 -0.1648 -0.0245 -0.9300
 6820SOL    HW132093   4.536   2.655   2.583 -2.4431  1.2410 -2.5840
 6820SOL    HW232094   4.395   2.654   2.600  0.1480 -1.2083 -2.5097
 6821SOL     OW32095   3.778   2.103  13.903 -0.0901 -0.0860  0.6758
 6821SOL    HW132096   3.790   2.137  13.991 -2.3073 -0.5645  1.1612
 6821SOL    HW232097   3.856   2.148  13.869 -0.6828 -2.8354 -4.2987
 6822SOL     OW32098   0.726   4.280  10.122 -0.5570  0.7993 -0.2198
 6822SOL    HW132099   0.808   4.300  10.079 -0.6148  0.2966 -0.5579
 6822SOL    HW232100   0.723   4.352  10.185 -1.4769  0.7770 -0.2304
 6823SOL     OW32101   0.984   3.703  16.960  0.3087  0.3919 -0.1621
 6823SOL    HW132102   0.918   3.758  17.001 -2.0530 -1.8218 -0.9793
 6823SOL    HW232103   1.052   3.762  16.925 -0.4788  0.9907 -0.6727
 6824SOL     OW32104   0.193   1.896  16.308  0.1432  0.5673 -0.1511
 6824SOL    HW132105   0.153   1.812  16.333 -0.4576 -0.1579 -3.5535
 6824SOL    HW232106   0.283   1.866  16.294  0.1655  1.5202 -2.1022
 6825SOL     OW32107   3.099   2.356   3.610 -0.3182  0.9991 -0.0484
 6825SOL    HW132108   3.180   2.404   3.629  0.4244  0.0046 -0.7532
 6825SOL    HW232109   3.135   2.273   3.582 -0.2473  1.2210 -0.6072
 6826SOL     OW32110   0.651   3.672  17.451 -1.0153 -0.4740  0.2188
 6826SOL    HW132111   0.646   3.742  17.386 -0.0179 -1.2997 -0.7233
 6826SOL    HW232112   0.681   3.706  17.535 -2.4418  1.8230 -0.1772
 6827SOL     OW32113   3.155   4.101   7.975  0.2404 -0.0785  0.7114
 6827SOL    HW132114   3.066   4.134   7.987  0.8880  2.3099 -1.1400
 6827SOL    HW232115   3.202   4.166   7.923 -0.4032 -1.2884 -1.4028
 6828SOL     OW32116   3.115   2.202   0.123 -0.7466  0.0012  0.2165
 6828SOL    HW132117   3.161   2.158   0.195  1.1695  0.1837 -0.9041
 6828SOL    HW232118   3.174   2.186   0.049 -1.8943 -0.7148 -0.5499
 6829SOL     OW32119   1.297   0.883   3.045 -0.0936 -0.0605 -0.0457
 6829SOL    HW132120   1.387   0.853   3.030 -0.5536 -0.5474 -1.7935
 6829SOL    HW232121   1.282   0.946   2.974  1.6411 -1.1607 -1.3968
 6830SOL     OW32122   2.719   0.066   5.250  1.2738 -0.8233 -0.5425
 6830SOL    HW132123   2.695   4.738   5.193  0.6164 -0.3696 -0.8297
 6830SOL    HW232124   2.813   0.051   5.258  0.7929 -2.3402  2.3003
 6831SOL     OW32125   3.986   3.569   2.978 -0.4120 -0.2511  0.0158
 6831SOL    HW132126   3.985   3.558   2.883  2.1592 -3.5519  0.4051
 6831SOL    HW232127   3.924   3.501   3.005 -0.2333 -1.2246 -2.0479
 6832SOL     OW32128   3.787   2.090  16.780  0.3779 -0.0852 -0.3817
 6832SOL    HW132129   3.692   2.086  16.765  0.6304 -1.9652 -1.4970
 6832SOL    HW232130   3.794   2.183  16.798 -0.2439  0.0783 -0.9669
 6833SOL     OW32131   2.777   0.528   3.128 -0.3485  0.3294  0.3645
 6833SOL    HW132132   2.686   0.524   3.157 -0.2915  0.1813  0.5219
 6833SOL    HW232133   2.820   0.593   3.184 -0.3270 -0.2945  1.0753
 6834SOL     OW32134   0.383   2.688   3.146 -0.3767  0.2617 -0.1916
 6834SOL    HW132135   0.373   2.684   3.051 -0.0751  1.2175 -0.2629
 6834SOL    HW232136   0.341   2.608   3.179  0.2730  0.2911  0.6943
 6835SOL     OW32137   2.845   1.312   8.014  0.6831  0.1112 -0.0096
 6835SOL    HW132138   2.833   1.279   7.925 -0.4698  0.0903  0.1476
 6835SOL    HW232139   2.814   1.397   7.984 -2.6590  0.2267  3.6004
 6836SOL     OW32140   3.263   1.809   1.208  0.0050 -0.0950  0.1725
 6836SOL    HW132141   3.327   1.743   1.179 -1.2054 -1.3933  0.4557
 6836SOL    HW232142   3.288   1.807   1.301 -0.7663 -0.4692  0.3739
 6837SOL     OW32143   3.163   4.656   6.883  0.2415 -0.7107  1.1075
 6837SOL    HW132144   3.117   4.738   6.867 -1.5583 -2.3131 -1.8851
 6837SOL    HW232145   3.149   4.625   6.793 -0.6244  0.4399  0.8491
 6838SOL     OW32146   1.618   0.426   1.177 -0.1905 -0.2099  0.1340
 6838SOL    HW132147   1.698   0.471   1.204 -0.3262 -0.1800  0.4840
 6838SOL    HW232148   1.557   0.450   1.247  0.9500 -0.6993  1.2742
 6839SOL     OW32149   3.161   3.843   7.602 -0.2571 -0.2908  0.2853
 6839SOL    HW132150   3.182   3.843   7.695  0.2915 -3.0524  0.1650
 6839SOL    HW232151   3.165   3.937   7.586 -1.7529 -0.3255 -0.3426
 6840SOL     OW32152   0.857   1.937   8.248  0.3369  0.5033 -0.1997
 6840SOL    HW132153   0.911   1.996   8.301  0.7600  0.0677 -0.1468
 6840SOL    HW232154   0.812   1.900   8.324  0.1956 -1.0763 -1.0520
 6841SOL     OW32155   2.539   1.118  17.328  0.3919 -0.2137  0.4366
 6841SOL    HW132156   2.520   1.110  17.235 -3.7748  0.5718  1.2012
 6841SOL    HW232157   2.504   1.032  17.356 -3.6735  0.7607 -1.6643
 6842SOL     OW32158   0.538   3.989   9.038  0.2115 -0.2429  0.1013
 6842SOL    HW132159   0.587   3.919   8.996  0.8142  1.4940 -2.0514
 6842SOL    HW232160   0.549   4.067   8.984  2.6472 -0.7197 -0.0758
 6843SOL     OW32161   1.266   0.062   6.310 -0.2586  0.1951  0.3627
 6843SOL    HW132162   1.256   0.001   6.236  2.1295 -1.9262  1.8215
 6843SOL    HW232163   1.196   0.125   6.293 -0.2037  0.9109  2.8165
 6844SOL     OW32164   4.565   2.456   3.478  0.4337 -0.5799  0.7287
 6844SOL    HW132165   4.604   2.503   3.552 -0.0591 -1.4564  1.5469
 6844SOL    HW232166   4.646   2.437   3.432 -0.8156 -0.2526 -1.6243
 6845SOL     OW32167   2.491   1.768  14.418 -0.3563  0.4757 -0.2757
 6845SOL    HW132168   2.408   1.723  14.432  0.0076 -0.6823 -1.8673
 6845SOL    HW232169   2.459   1.842  14.366 -0.7152  2.0404  2.1608
 6846SOL     OW32170   3.464   2.972  12.495  0.2713 -0.0469  0.1118
 6846SOL    HW132171   3.401   3.034  12.458 -0.1615 -0.1595  0.6485
 6846SOL    HW232172   3.463   2.900  12.433 -1.6755 -0.2529  0.4040
 6847SOL     OW32173   2.093   1.418   1.632 -0.1885  0.4051  0.6629
 6847SOL    HW132174   2.176   1.464   1.625  0.1533 -0.5494 -1.4328
 6847SOL    HW232175   2.135   1.333   1.648 -1.4175 -0.8788 -2.9430
 6848SOL     OW32176   0.884   2.383   6.007  0.1018  0.1205 -0.2190
 6848SOL    HW132177   0.937   2.387   6.086 -2.1506  1.2243  1.2411
 6848SOL    HW232178   0.805   2.342   6.042  1.9575  0.3569  4.2720
 6849SOL     OW32179   2.665   0.615  17.631 -0.1452 -0.2867  0.8308
 6849SOL    HW132180   2.635   0.536  17.678  1.1483 -1.3537 -0.1407
 6849SOL    HW232181   2.584   0.621  17.580  0.5552 -0.2201 -0.2706
 6850SOL     OW32182   0.675   1.112   7.412 -0.2700  0.2326  0.0198
 6850SOL    HW132183   0.683   1.198   7.371  4.0906  0.1971  0.7619
 6850SOL    HW232184   0.765   1.093   7.440 -1.2674 -2.0534  1.6247
 6851SOL     OW32185   1.084   3.931   4.866 -0.5300  0.0536  0.1743
 6851SOL    HW132186   1.168   3.976   4.861 -0.1267 -0.7184  0.1342
 6851SOL    HW232187   1.102   3.852   4.816  1.1227  0.3616  0.2735
 6852SOL     OW32188   1.383   4.697  10.455 -0.1238 -0.0366  0.2647
 6852SOL    HW132189   1.397   4.725  10.546 -0.5500  0.1747  0.2644
 6852SOL    HW232190   1.470   4.707  10.415 -0.4453  0.0918 -0.3904
 6853SOL     OW32191   1.392   3.081   5.000 -0.1885  0.6579  0.7573
 6853SOL    HW132192   1.444   3.158   5.023  2.1085 -0.3036 -1.1845
 6853SOL    HW232193   1.444   3.004   5.025 -1.1441 -0.1255  0.2987
 6854SOL     OW32194   2.748   1.055  16.098  1.0060 -0.4318  0.1996
 6854SOL    HW132195   2.774   1.041  16.189 -1.8006 -0.3087  1.0031
 6854SOL    HW232196   2.690   1.131  16.103 -1.0920 -1.9399 -1.0454
 6855SOL     OW32197   1.793   4.644  11.297 -0.3782 -0.0794  0.4519
 6855SOL    HW132198   1.838   4.560  11.299 -1.3608 -0.5933  1.1734
 6855SOL    HW232199   1.753   4.638  11.384 -1.0919  1.7830  0.2530
 6856SOL     OW32200   0.198   4.394   7.243  0.4055 -0.0797 -0.8088
 6856SOL    HW132201   0.253   4.410   7.319 -1.1256 -2.3997  0.7952
 6856SOL    HW232202   0.216   4.306   7.211  0.1034 -0.7085  0.7758
 6857SOL     OW32203   0.278   1.194   6.315  0.1791 -0.3470  0.3692
 6857SOL    HW132204   0.253   1.148   6.396 -1.5191  0.3538  0.2628
 6857SOL    HW232205   0.219   1.153   6.251  0.3276 -0.1084  0.0835
 6858SOL     OW32206   2.555   2.955  12.271  0.4745  0.2572 -0.1676
 6858SOL    HW132207   2.510   3.039  12.258 -2.8034 -1.5276 -0.4068
 6858SOL    HW232208   2.605   2.957  12.352  0.1996 -0.8855  0.0190
 6859SOL     OW32209   1.113   4.682   8.029  0.1967 -0.3476 -0.0091
 6859SOL    HW132210   1.193   4.677   8.082 -0.6465  0.0317  1.2809
 6859SOL    HW232211   1.046   4.671   8.095  0.3670  1.4533  0.4614
 6860SOL     OW32212   2.687   4.166  11.077 -0.1085  0.3599 -0.0040
 6860SOL    HW132213   2.646   4.097  11.024 -1.0395  0.8002  0.1555
 6860SOL    HW232214   2.651   4.150  11.164 -1.1176 -0.0705 -0.5039
 6861SOL     OW32215   4.296   0.860   8.294 -0.8641  0.0469  0.1535
 6861SOL    HW132216   4.242   0.921   8.344  0.4261  0.7355  0.7259
 6861SOL    HW232217   4.249   0.777   8.289  1.2488 -1.2753  1.7886
 6862SOL     OW32218   1.011   3.758   5.886  0.5156 -0.2562 -0.4330
 6862SOL    HW132219   0.980   3.669   5.900  0.7292 -0.4192 -1.0044
 6862SOL    HW232220   1.088   3.739   5.832  0.5839 -1.0729 -0.0422
 6863SOL     OW32221   3.518   2.138   6.490  0.9564 -0.3176 -0.9048
 6863SOL    HW132222   3.586   2.102   6.547  0.7807  2.1999  0.8767
 6863SOL    HW232223   3.441   2.088   6.515  1.7598  0.4028  2.9093
 6864SOL     OW32224   0.300   0.431   6.033  0.2543  0.5153 -0.0982
 6864SOL    HW132225   0.260   0.345   6.017 -1.4564  1.0658  1.1620
 6864SOL    HW232226   0.317   0.458   5.943 -1.7547  1.1914 -0.2822
 6865SOL     OW32227   2.239   4.078  11.926 -0.2844  0.8068 -0.1316
 6865SOL    HW132228   2.166   4.025  11.958  0.1627  0.9010  1.0768
 6865SOL    HW232229   2.224   4.083  11.832 -0.1649 -0.1611 -0.2076
 6866SOL     OW32230   3.752   0.644   2.775  0.2872  0.1294 -0.0042
 6866SOL    HW132231   3.755   0.673   2.866  1.6658  1.5671 -0.5099
 6866SOL    HW232232   3.699   0.565   2.788 -0.0978 -0.0113 -2.3958
 6867SOL     OW32233   3.962   3.239   8.277 -0.5472  0.0095  0.1717
 6867SOL    HW132234   3.943   3.328   8.308 -0.6549 -0.1689  0.6097
 6867SOL    HW232235   3.990   3.204   8.362  0.1820  0.7527  0.2393
 6868SOL     OW32236   3.025   4.658   7.838  0.0696  0.0491  0.2054
 6868SOL    HW132237   2.932   4.634   7.846 -0.5234  2.1618 -0.3358
 6868SOL    HW232238   3.052   4.607   7.762 -0.1723  0.9262 -0.4704
 6869SOL     OW32239   2.721   2.004   5.716 -0.1696 -0.3820 -0.1446
 6869SOL    HW132240   2.771   2.022   5.795  0.9692 -0.1647 -0.9062
 6869SOL    HW232241   2.786   1.952   5.668  1.4179  1.5154 -0.0457
 6870SOL     OW32242   0.560   3.750  12.909 -0.7940  0.0648 -0.3351
 6870SOL    HW132243   0.559   3.778  12.818  0.0191  1.1374 -0.0046
 6870SOL    HW232244   0.468   3.757  12.933 -0.1728  2.1109  1.4717
 6871SOL     OW32245   3.758   1.023   7.119  0.3757  0.1043 -0.2499
 6871SOL    HW132246   3.703   1.069   7.183 -1.1390 -1.0761 -0.7040
 6871SOL    HW232247   3.836   1.078   7.111 -0.1894  0.7398 -1.3854
 6872SOL     OW32248   1.575   2.163   3.447  0.1673  0.1030  0.1465
 6872SOL    HW132249   1.507   2.223   3.416 -1.1170 -1.4959 -0.1283
 6872SOL    HW232250   1.636   2.223   3.488  0.2383  0.0369  0.1368
 6873SOL     OW32251   0.644   0.607   0.404  0.0018 -0.0878 -0.5620
 6873SOL    HW132252   0.651   0.601   0.499  2.0281  2.9785 -0.5273
 6873SOL    HW232253   0.579   0.537   0.397  1.6230 -1.7625  1.3061
 6874SOL     OW32254   2.898   4.323   8.264 -0.0118 -0.1783 -0.4191
 6874SOL    HW132255   2.884   4.396   8.325  1.0182 -0.3614  0.0408
 6874SOL    HW232256   2.855   4.356   8.186  1.9566  1.3106 -0.8579
 6875SOL     OW32257   3.484   3.557   4.139 -0.4897  0.1874  0.5616
 6875SOL    HW132258   3.474   3.644   4.180  1.3736 -1.0102  3.5533
 6875SOL    HW232259   3.507   3.518   4.223  0.9540 -1.5632 -0.6618
 6876SOL     OW32260   2.489   1.418   5.407  0.7383  0.2647  0.0701
 6876SOL    HW132261   2.571   1.384   5.441  0.5786 -0.8656 -0.6554
 6876SOL    HW232262   2.486   1.499   5.457 -0.4521  1.2252 -1.5566
 6877SOL     OW32263   1.656   0.234   1.825  0.4453  0.1174  0.1389
 6877SOL    HW132264   1.614   0.155   1.790 -0.1727  0.4001  0.2432
 6877SOL    HW232265   1.715   0.190   1.886 -0.9669  0.6530  1.8582
 6878SOL     OW32266   4.052   1.862   6.367  0.5981 -0.3410 -0.0738
 6878SOL    HW132267   3.961   1.879   6.390  0.4841 -0.7322 -0.2392
 6878SOL    HW232268   4.040   1.773   6.334  1.8700  0.4488 -2.6627
 6879SOL     OW32269   0.424   1.154   5.620  0.3215 -0.3446 -0.1245
 6879SOL    HW132270   0.394   1.189   5.703 -1.6387  1.5768 -1.6501
 6879SOL    HW232271   0.494   1.099   5.655  0.4850 -0.0912 -0.0557
 6880SOL     OW32272   2.339   0.982   8.785 -0.0690  0.1491  0.3162
 6880SOL    HW132273   2.304   1.015   8.702 -1.3608 -2.8177 -0.3314
 6880SOL    HW232274   2.407   1.043   8.812 -0.3128 -0.0055  1.2585
 6881SOL     OW32275   2.919   2.961   4.078 -0.2632 -0.5505  0.0416
 6881SOL    HW132276   2.963   2.880   4.103 -0.4937 -1.0580 -1.1785
 6881SOL    HW232277   2.855   2.929   4.015 -2.2070  1.6957  0.8588
 6882SOL     OW32278   0.720   3.324   1.510 -0.1151 -0.0328 -0.2722
 6882SOL    HW132279   0.762   3.238   1.516  1.9814  1.1540  2.3562
 6882SOL    HW232280   0.688   3.324   1.420 -0.8312 -0.4388 -0.0131
 6883SOL     OW32281   4.460   2.039  17.579 -0.2328 -0.7948 -0.0767
 6883SOL    HW132282   4.513   1.997  17.512  2.0367  0.9925  0.5768
 6883SOL    HW232283   4.493   2.000  17.660  0.9639 -1.8100 -1.0501
 6884SOL     OW32284   3.558   2.865   2.858 -0.0603 -0.2511 -0.2303
 6884SOL    HW132285   3.520   2.914   2.785 -2.0779 -1.0888  0.2578
 6884SOL    HW232286   3.518   2.779   2.846  0.5118 -0.5469 -0.0181
 6885SOL     OW32287   2.997   2.286   7.367  0.4191 -0.1893  0.3864
 6885SOL    HW132288   2.986   2.240   7.450  1.4768  1.0523  1.2190
 6885SOL    HW232289   3.088   2.274   7.341  0.3871 -1.6546  0.9530
 6886SOL     OW32290   0.592   1.166   9.451 -0.0351  0.1062 -0.2612
 6886SOL    HW132291   0.520   1.109   9.423  0.5558 -0.3432 -0.8532
 6886SOL    HW232292   0.538   1.236   9.487 -0.9972 -0.6129 -0.3118
 6887SOL     OW32293   3.144   1.545  14.758  0.3714 -0.2440 -0.3014
 6887SOL    HW132294   3.231   1.555  14.718  2.1134  2.1296  4.0524
 6887SOL    HW232295   3.104   1.611  14.701  0.2082 -0.7475 -0.7666
 6888SOL     OW32296   3.370   1.812   8.067 -0.1797  0.2646  0.2380
 6888SOL    HW132297   3.303   1.837   8.004 -0.6184 -0.2869  0.4843
 6888SOL    HW232298   3.322   1.743   8.113 -0.6842  0.9908  0.8033
 6889SOL     OW32299   3.769   0.404   7.480 -0.3881  0.0072 -0.2895
 6889SOL    HW132300   3.764   0.313   7.509  1.1999 -0.5748 -1.8275
 6889SOL    HW232301   3.828   0.385   7.406  1.3386  2.6447  0.4140
 6890SOL     OW32302   4.732   3.763   2.749  0.1009 -0.1621 -0.7160
 6890SOL    HW132303   0.047   3.820   2.699 -0.8699  0.5038 -1.1160
 6890SOL    HW232304   4.663   3.824   2.777  2.4969  1.4236  1.7667
 6891SOL     OW32305   4.476   0.008   5.934  0.5297  0.4740 -0.2562
 6891SOL    HW132306   4.489   4.726   5.842  1.2276 -1.1327  0.2972
 6891SOL    HW232307   4.564   4.732   5.967  0.3445 -1.5304 -0.9894
 6892SOL     OW32308   3.739   3.695   8.148 -0.4093 -0.5750  0.3009
 6892SOL    HW132309   3.689   3.704   8.067 -1.4812 -1.3107  0.8917
 6892SOL    HW232310   3.829   3.708   8.118 -0.8497  1.5129 -0.1250
 6893SOL     OW32311   3.540   2.386  10.751 -0.2299  0.2724  0.9940
 6893SOL    HW132312   3.524   2.334  10.830 -0.2269 -1.5099 -0.2004
 6893SOL    HW232313   3.627   2.419  10.773  1.1712 -0.9709 -2.8257
 6894SOL     OW32314   1.228   0.292   0.781 -0.2192 -0.2644 -0.3227
 6894SOL    HW132315   1.228   0.247   0.866 -0.2324 -0.6205 -0.5119
 6894SOL    HW232316   1.299   0.348   0.811 -1.3446  1.2312 -0.4547
 6895SOL     OW32317   2.389   2.641   5.213  0.5651  0.0890 -0.3289
 6895SOL    HW132318   2.449   2.574   5.179 -0.2914 -0.8458 -0.0115
 6895SOL    HW232319   2.448   2.717   5.211  0.5910  0.0818  0.0911
 6896SOL     OW32320   1.306   4.469   1.697 -0.2128  0.5186 -0.2137
 6896SOL    HW132321   1.233   4.524   1.725 -0.5606  0.9269 -1.9065
 6896SOL    HW232322   1.300   4.474   1.602 -1.5772  0.9589 -0.1056
 6897SOL     OW32323   2.288   4.068   5.080 -0.1705  0.0680 -0.1018
 6897SOL    HW132324   2.318   4.024   5.159  0.3910  0.0208 -0.3410
 6897SOL    HW232325   2.196   4.043   5.072 -0.1500  0.2798 -1.0795
 6898SOL     OW32326   3.709   0.142   5.057  0.0909 -0.4720 -0.1423
 6898SOL    HW132327   3.633   0.131   5.000  1.0292 -1.0859 -1.2782
 6898SOL    HW232328   3.674   0.089   5.128  0.7924 -1.0559 -0.2341
 6899SOL     OW32329   0.970   4.624   9.637  0.2995 -0.6313 -0.0010
 6899SOL    HW132330   0.918   4.547   9.657  0.6696  0.0476  3.5301
 6899SOL    HW232331   0.913   4.698   9.659 -1.4906 -1.5813 -1.4103
 6900SOL     OW32332   2.558   1.579   8.204 -0.1103 -0.3638 -0.2698
 6900SOL    HW132333   2.645   1.606   8.174 -1.1024  3.2275  0.1506
 6900SOL    HW232334   2.532   1.520   8.133 -1.2271 -0.9624  0.6282
 6901SOL     OW32335   1.858   3.074  12.661  0.2225 -0.1187 -0.1987
 6901SOL    HW132336   1.912   3.007  12.621  0.5698  0.0946 -0.0853
 6901SOL    HW232337   1.813   3.027  12.731  0.9431 -0.5842 -0.0514
 6902SOL     OW32338   4.020   4.429   6.825  0.2281  0.6227 -0.1748
 6902SOL    HW132339   4.088   4.421   6.758  0.8800 -0.6048  0.6266
 6902SOL    HW232340   4.077   4.451   6.899 -2.0589  1.3033  1.3718
 6903SOL     OW32341   0.677   2.038  13.154 -0.3600 -0.4192 -0.0962
 6903SOL    HW132342   0.630   2.047  13.072  1.8716  1.3644 -1.1964
 6903SOL    HW232343   0.751   1.989  13.119  0.5372 -1.1999  2.9001
 6904SOL     OW32344   0.999   4.285   8.728 -0.5827 -0.1421  0.4693
 6904SOL    HW132345   0.975   4.377   8.719 -0.1005 -0.1429 -0.8660
 6904SOL    HW232346   0.997   4.279   8.823 -0.2362 -1.7031  0.3859
 6905SOL     OW32347   0.172   2.780   6.524  0.5470  0.6885 -0.1051
 6905SOL    HW132348   0.220   2.788   6.606 -1.0376  0.2564  0.8442
 6905SOL    HW232349   0.085   2.801   6.557  0.6758  2.1266 -0.6693
 6906SOL     OW32350   0.845   1.677  10.776  0.5298  0.2530 -0.5265
 6906SOL    HW132351   0.779   1.746  10.765  0.7749  0.7288  0.9794
 6906SOL    HW232352   0.901   1.701  10.702  1.8841  0.4094  0.5539
 6907SOL     OW32353   2.060   4.067   2.447 -0.2229  0.3088  0.2616
 6907SOL    HW132354   2.151   4.084   2.472 -0.4086 -0.1415  1.2449
 6907SOL    HW232355   2.042   4.155   2.413  1.7824  0.3685 -0.6463
 6908SOL     OW32356   3.380   1.329   7.455 -0.0391 -0.3378  0.6432
 6908SOL    HW132357   3.474   1.322   7.439 -0.3218 -1.0258 -0.7403
 6908SOL    HW232358   3.364   1.236   7.472 -1.0857 -0.0516  1.2621
 6909SOL     OW32359   1.032   3.736   6.494 -0.1791  0.5049 -0.6993
 6909SOL    HW132360   1.031   3.790   6.574 -0.7871  0.5585 -0.7441
 6909SOL    HW232361   0.955   3.769   6.448 -0.2849  1.5436  0.2290
 6910SOL     OW32362   2.285   2.381   1.702 -0.3560 -0.0804  0.1787
 6910SOL    HW132363   2.226   2.330   1.647  0.4672 -2.0496  1.1361
 6910SOL    HW232364   2.227   2.394   1.777  1.6101  0.4886  1.5958
 6911SOL     OW32365   1.314   0.456  16.861  0.0168 -0.1310  0.4719
 6911SOL    HW132366   1.261   0.395  16.912 -0.8075  0.7783  0.7073
 6911SOL    HW232367   1.398   0.422  16.893 -0.6317 -1.0293  1.1910
 6912SOL     OW32368   4.581   4.380  13.057  1.0201  0.1359 -0.6292
 6912SOL    HW132369   4.499   4.359  13.100  0.1525  1.5628 -1.6123
 6912SOL    HW232370   4.641   4.331  13.113  0.3580  0.3245  0.2325
 6913SOL     OW32371   4.001   2.087   2.331  0.1702  0.4750 -0.4411
 6913SOL    HW132372   3.968   2.157   2.274  0.4309  0.4569 -0.6165
 6913SOL    HW232373   3.945   2.092   2.408 -0.1197 -0.3545 -0.5959
 6914SOL     OW32374   1.341   0.681   5.012  0.1367 -0.0923 -0.0665
 6914SOL    HW132375   1.292   0.614   5.061  1.0258  0.0142  0.9860
 6914SOL    HW232376   1.277   0.712   4.948 -0.1012 -0.5292 -0.0403
 6915SOL     OW32377   1.806   2.892  11.046 -0.1941 -0.6452  0.2879
 6915SOL    HW132378   1.713   2.883  11.026  0.1533 -1.7619 -0.7898
 6915SOL    HW232379   1.840   2.803  11.043  1.1669 -0.0694 -1.3609
 6916SOL     OW32380   1.355   3.871   3.106 -0.0590 -0.7447 -0.3822
 6916SOL    HW132381   1.410   3.854   3.030  0.9217 -1.7646  0.5548
 6916SOL    HW232382   1.324   3.960   3.088  1.4940  0.0306  0.6797
 6917SOL     OW32383   1.993   2.265   3.289  0.0639 -0.6167 -0.1739
 6917SOL    HW132384   2.048   2.188   3.276 -0.5766 -0.9844 -0.7578
 6917SOL    HW232385   1.925   2.223   3.342  0.4534  0.1522  0.9289
 6918SOL     OW32386   1.788   3.627   4.114 -0.1239  0.2496 -0.5385
 6918SOL    HW132387   1.801   3.548   4.062  2.6991  0.8995 -0.8565
 6918SOL    HW232388   1.855   3.621   4.182 -0.0145  2.0431 -0.4782
 6919SOL     OW32389   4.324   4.667   7.277 -0.5704 -0.8028 -0.5646
 6919SOL    HW132390   4.273   0.001   7.254 -0.4362 -0.0940  1.5205
 6919SOL    HW232391   4.331   4.687   7.370  0.7324 -0.3574 -0.7568
 6920SOL     OW32392   0.799   1.744  10.178 -0.0960  0.0588  0.0638
 6920SOL    HW132393   0.746   1.823  10.177 -0.5620 -0.2476  1.8107
 6920SOL    HW232394   0.743   1.693  10.237 -1.5995  2.5842  0.7809
 6921SOL     OW32395   2.796   0.787   4.467 -0.1191  1.5169 -0.0422
 6921SOL    HW132396   2.825   0.878   4.471  0.1181  1.3474  2.2687
 6921SOL    HW232397   2.793   0.765   4.374  1.9208  0.9311  0.0308
 6922SOL     OW32398   2.713   0.075   8.943 -0.4970  0.0055  0.0821
 6922SOL    HW132399   2.733   0.136   9.014  1.1825  0.0981 -0.4844
 6922SOL    HW232400   2.716   4.736   8.990 -0.9973 -1.5439 -2.6099
 6923SOL     OW32401   3.719   4.120   9.329 -0.3162  0.5537 -0.6232
 6923SOL    HW132402   3.732   4.025   9.329 -2.6645  0.2250 -0.3598
 6923SOL    HW232403   3.718   4.127   9.424  2.5997 -0.0657 -0.5513
 6924SOL     OW32404   0.672   2.175  17.745  0.2809 -0.0717 -0.0686
 6924SOL    HW132405   0.607   2.245  17.737  1.2839  1.2079  2.9079
 6924SOL    HW232406   0.756   2.222  17.743 -0.8698  2.0106  0.3169
 6925SOL     OW32407   2.676   2.151   1.612 -0.5620 -0.0317  0.0048
 6925SOL    HW132408   2.664   2.196   1.696 -0.3081  0.6726 -0.3331
 6925SOL    HW232409   2.766   2.183   1.602 -1.3310  1.9499 -0.6573
 6926SOL     OW32410   1.028   3.445   9.101 -0.2153 -0.4370  0.0277
 6926SOL    HW132411   1.068   3.403   9.178  0.7904  1.8823  0.7506
 6926SOL    HW232412   1.064   3.532   9.089 -0.4844 -0.0817  1.7672
 6927SOL     OW32413   0.366   2.402   7.910 -0.3835  0.7353 -0.4337
 6927SOL    HW132414   0.381   2.324   7.856  0.0367 -0.0795  0.8646
 6927SOL    HW232415   0.381   2.469   7.843 -2.8034  0.8638 -0.8688
 6928SOL     OW32416   0.402   1.264   4.491  0.1048  0.2428  0.2854
 6928SOL    HW132417   0.349   1.185   4.498  2.0284 -1.0111  0.4832
 6928SOL    HW232418   0.395   1.279   4.396  0.7823 -0.0808  0.1870
 6929SOL     OW32419   0.527   1.313   3.071 -0.2010  0.6903  0.4705
 6929SOL    HW132420   0.581   1.239   3.099  1.1530  0.6710 -2.2161
 6929SOL    HW232421   0.579   1.362   3.007 -0.4079  0.0095 -0.2235
 6930SOL     OW32422   1.956   1.189   5.968  0.3169 -0.4907 -0.3611
 6930SOL    HW132423   1.979   1.174   5.877  1.3185  1.5860 -0.4549
 6930SOL    HW232424   2.041   1.224   5.994 -0.6823  0.4201  1.6532
 6931SOL     OW32425   4.554   2.927   4.110  0.0179 -0.2730 -0.1891
 6931SOL    HW132426   4.594   2.870   4.045  1.4916  0.3853  0.1421
 6931SOL    HW232427   4.474   2.959   4.067 -0.6907 -0.3064  1.0911
 6932SOL     OW32428   4.274   4.489   5.113 -0.1754  0.5026 -0.5505
 6932SOL    HW132429   4.282   4.396   5.136  0.8244  0.2361 -1.9624
 6932SOL    HW232430   4.190   4.494   5.158 -0.7757  2.7962 -1.9565
 6933SOL     OW32431   1.778   0.554   5.711 -0.0728  0.4292 -0.0402
 6933SOL    HW132432   1.814   0.610   5.642  1.3800 -0.3999  0.0283
 6933SOL    HW232433   1.842   0.572   5.780 -1.6722  0.8570  1.3127
 6934SOL     OW32434   0.084   3.429   9.449  0.2742  0.6331  0.2026
 6934SOL    HW132435   0.077   3.510   9.499 -0.8143 -0.2671  1.5481
 6934SOL    HW232436   0.179   3.425   9.451  0.2474  0.1521  0.7570
 6935SOL     OW32437   3.181   4.551  13.942 -0.4386 -0.3210  0.1847
 6935SOL    HW132438   3.244   4.608  13.899 -0.1014 -0.7257  0.1378
 6935SOL    HW232439   3.205   4.464  13.910 -1.0615 -0.4346  0.0229
 6936SOL     OW32440   2.982   0.021   5.214  0.6133  0.3359  0.3109
 6936SOL    HW132441   3.037   4.713   5.273  1.4069 -0.4414 -1.1115
 6936SOL    HW232442   3.046   0.040   5.146  0.3463  1.0535  0.2589
 6937SOL     OW32443   4.384   0.857   6.567 -0.1548  0.3982  0.4181
 6937SOL    HW132444   4.297   0.832   6.535  0.4338 -1.3997  0.2252
 6937SOL    HW232445   4.433   0.901   6.497 -1.9391  1.1615 -0.3685
 6938SOL     OW32446   0.822   3.729   9.690  0.2214  0.0351 -0.5001
 6938SOL    HW132447   0.852   3.806   9.642 -0.3137  0.8618  0.4998
 6938SOL    HW232448   0.762   3.685   9.630 -1.0329  0.5150  0.4255
 6939SOL     OW32449   3.930   2.865   1.873 -0.8298  0.2151  0.1630
 6939SOL    HW132450   3.925   2.889   1.780  1.0328  2.2535  0.5730
 6939SOL    HW232451   3.843   2.889   1.904 -0.4510  0.0566  1.3494
 6940SOL     OW32452   4.370   2.493   3.264  0.1325 -0.6854  0.0817
 6940SOL    HW132453   4.350   2.400   3.248 -4.6946  0.6506 -1.4902
 6940SOL    HW232454   4.412   2.492   3.350 -1.9250 -0.2275  1.0783
 6941SOL     OW32455   2.974   2.847   8.281  0.3118 -0.0735 -0.2195
 6941SOL    HW132456   2.902   2.898   8.319  1.1927  0.3671  0.8480
 6941SOL    HW232457   2.973   2.777   8.347 -1.7908  1.5831  1.5339
 6942SOL     OW32458   2.503   0.590  17.045  0.1245 -0.0827  0.5736
 6942SOL    HW132459   2.577   0.635  17.087 -0.8273 -0.3722  2.5660
 6942SOL    HW232460   2.433   0.655  17.051  0.1320  0.0663 -1.0694
 6943SOL     OW32461   4.286   2.002  15.077 -0.1557 -0.3889 -0.6467
 6943SOL    HW132462   4.193   2.017  15.092 -0.1246 -0.1146 -0.7254
 6943SOL    HW232463   4.305   2.095  15.092 -1.6994 -0.1957  0.1004
 6944SOL     OW32464   1.352   3.013   3.739 -0.1344  0.4605  0.2141
 6944SOL    HW132465   1.416   3.062   3.790  1.1474 -0.5412 -0.4503
 6944SOL    HW232466   1.283   2.996   3.804 -1.2879 -0.8016 -1.3385
 6945SOL     OW32467   3.314   3.724   2.682 -0.1563  0.4084  0.3137
 6945SOL    HW132468   3.227   3.763   2.672 -1.6893 -3.1199  0.1504
 6945SOL    HW232469   3.296   3.641   2.638 -2.3734  1.2019 -0.2926
 6946SOL     OW32470   3.824   2.316  10.792  0.2936  0.3111 -0.0958
 6946SOL    HW132471   3.832   2.319  10.696 -0.1951  2.3372 -0.0714
 6946SOL    HW232472   3.853   2.229  10.818  1.1515  0.5492 -0.2411
 6947SOL     OW32473   1.258   3.207   1.887 -0.3169  0.0425 -0.2064
 6947SOL    HW132474   1.234   3.264   1.960  0.8626  0.2776 -0.0020
 6947SOL    HW232475   1.230   3.125   1.929  1.8419  0.3571  1.8437
 6948SOL     OW32476   0.894   0.424  13.965 -0.2487 -0.2740  0.3651
 6948SOL    HW132477   0.956   0.352  13.953 -0.5616 -0.4808  0.0205
 6948SOL    HW232478   0.893   0.475  13.883 -0.8306  0.3163  0.7367
 6949SOL     OW32479   4.712   2.886  10.458 -0.3282 -0.4051  0.6702
 6949SOL    HW132480   0.018   2.861  10.381  1.1082 -1.0822  1.8208
 6949SOL    HW232481   4.727   2.979  10.471 -0.3131  0.0170 -2.4452
 6950SOL     OW32482   1.866   0.872   8.381 -0.8660  0.3850 -0.2651
 6950SOL    HW132483   1.833   0.783   8.387 -0.0545  0.1514  0.7832
 6950SOL    HW232484   1.947   0.857   8.429 -0.7035 -0.6105 -0.8622
 6951SOL     OW32485   1.331   4.258   3.908  0.2112  0.0126  0.1583
 6951SOL    HW132486   1.244   4.290   3.886  1.1585  0.9625 -2.1850
 6951SOL    HW232487   1.348   4.303   3.991  1.4537 -1.9342  0.9691
 6952SOL     OW32488   1.812   3.307   8.089  0.8074  0.1053  0.8580
 6952SOL    HW132489   1.812   3.276   7.998 -2.5814 -1.7410  1.4888
 6952SOL    HW232490   1.724   3.294   8.125  0.8015  1.1033  1.2141
 6953SOL     OW32491   3.083   0.687  11.100 -0.2006 -0.2229 -0.2248
 6953SOL    HW132492   3.136   0.765  11.083 -1.0993 -0.1926 -2.9553
 6953SOL    HW232493   3.117   0.616  11.045 -0.5250 -1.0790  0.6771
 6954SOL     OW32494   0.742   0.642  12.315  0.4054 -0.4569  0.2255
 6954SOL    HW132495   0.806   0.575  12.342  0.7581 -0.1601  0.1200
 6954SOL    HW232496   0.803   0.705  12.278 -2.0288  1.8667  0.1667
 6955SOL     OW32497   3.008   3.838   2.749  0.4612 -0.4880  0.1665
 6955SOL    HW132498   2.952   3.798   2.816 -2.2491 -0.1115 -1.8510
 6955SOL    HW232499   2.971   3.802   2.668  1.3392  2.5838 -1.6024
 6956SOL     OW32500   3.168   2.820  15.795 -0.0768 -0.3677  0.0854
 6956SOL    HW132501   3.116   2.876  15.853 -0.0968  0.7892 -1.0520
 6956SOL    HW232502   3.244   2.810  15.853  0.4457 -0.2408 -0.5881
 6957SOL     OW32503   1.538   0.690   6.758 -0.3124  1.0609  0.2534
 6957SOL    HW132504   1.539   0.597   6.781 -2.1198  1.1074  0.4892
 6957SOL    HW232505   1.621   0.709   6.713 -0.2902  1.4582  0.4590
 6958SOL     OW32506   4.608   4.550   3.853 -0.4311 -0.3408  0.0337
 6958SOL    HW132507   4.669   4.477   3.866  1.3528  1.1622  0.0636
 6958SOL    HW232508   4.667   4.626   3.852 -0.2047 -0.5269 -1.0926
 6959SOL     OW32509   3.856   0.402  16.735 -0.1367  0.0336  0.3469
 6959SOL    HW132510   3.889   0.467  16.798  1.5698 -0.3904 -0.1227
 6959SOL    HW232511   3.932   0.349  16.715 -0.2439  0.4435 -1.0983
 6960SOL     OW32512   0.750   0.352  17.060 -0.1596 -0.3394 -0.0980
 6960SOL    HW132513   0.670   0.299  17.051 -0.7085  0.4397  0.1851
 6960SOL    HW232514   0.760   0.378  16.968  0.9873  2.0343  0.6928
 6961SOL     OW32515   4.668   4.539   6.602  0.2077 -0.5567  0.5819
 6961SOL    HW132516   4.718   4.516   6.524  1.9018 -4.3091  2.7470
 6961SOL    HW232517   4.691   4.464   6.658 -1.3771 -0.4289  1.4169
 6962SOL     OW32518   2.877   1.778  15.549  0.2997 -0.3206  0.7917
 6962SOL    HW132519   2.786   1.793  15.576  0.7550  0.5195  1.8098
 6962SOL    HW232520   2.876   1.682  15.549  0.3373 -0.3217  0.4643
 6963SOL     OW32521   3.102   0.087   4.954  0.4036 -0.0030 -0.6087
 6963SOL    HW132522   3.165   0.098   4.883  2.0582 -1.2561  0.6543
 6963SOL    HW232523   3.071   0.177   4.952  2.5568  0.7476 -0.0594
 6964SOL     OW32524   1.128   1.625   6.264  0.4828  0.6963  0.2257
 6964SOL    HW132525   1.166   1.566   6.329 -0.7623  0.4963  0.7790
 6964SOL    HW232526   1.185   1.702   6.258  1.3538 -0.2228 -3.3708
 6965SOL     OW32527   1.960   1.084   0.727 -0.0344  0.0693  0.2462
 6965SOL    HW132528   1.962   1.145   0.800  0.9904 -1.5292  1.5713
 6965SOL    HW232529   2.027   1.021   0.755  1.0194  0.3161 -1.6975
 6966SOL     OW32530   2.599   0.609  16.758 -0.9385 -0.5759 -0.1231
 6966SOL    HW132531   2.628   0.519  16.771 -0.6374  0.0987  3.7202
 6966SOL    HW232532   2.559   0.624  16.843  0.9410 -1.3546  0.9020
 6967SOL     OW32533   2.773   0.872   6.727 -0.5245 -0.6157  0.3180
 6967SOL    HW132534   2.820   0.818   6.790  1.3094  0.5165 -0.0577
 6967SOL    HW232535   2.775   0.954   6.777  0.5387 -1.2598  1.3123
 6968SOL     OW32536   0.726   0.447  16.791 -0.1813 -0.1089  0.1268
 6968SOL    HW132537   0.751   0.538  16.776 -0.4292  0.3239  2.3672
 6968SOL    HW232538   0.764   0.409  16.712  0.6847  1.1466 -0.0588
 6969SOL     OW32539   2.209   1.063   8.158 -0.1594 -0.1408  0.5834
 6969SOL    HW132540   2.257   0.999   8.105 -1.4293 -0.0822 -0.6391
 6969SOL    HW232541   2.281   1.118   8.187 -0.4771  0.9883 -0.8117
 6970SOL     OW32542   1.827   4.667   8.232 -0.1223 -0.0000  0.1397
 6970SOL    HW132543   1.732   4.662   8.225 -0.1859  0.0410  1.0923
 6970SOL    HW232544   1.842   4.741   8.290  0.5165  0.1071 -0.1603
 6971SOL     OW32545   0.421   4.148   2.645 -0.5939  0.3144 -0.1166
 6971SOL    HW132546   0.375   4.215   2.596 -0.7279 -1.3668 -2.2995
 6971SOL    HW232547   0.479   4.204   2.697  0.6069  0.3165 -1.4338
 6972SOL     OW32548   2.346   1.351   4.657 -0.6854 -0.1992 -0.0922
 6972SOL    HW132549   2.356   1.442   4.683 -2.1921 -0.6314  2.0451
 6972SOL    HW232550   2.439   1.331   4.646 -0.7578 -1.3669  1.4457
 6973SOL     OW32551   3.252   1.143   9.630  0.2298 -0.0412  0.4688
 6973SOL    HW132552   3.258   1.172   9.539 -0.4146 -2.4147 -0.3307
 6973SOL    HW232553   3.169   1.095   9.630 -0.3931  1.0121 -0.5140
 6974SOL     OW32554   3.047   1.515   9.062 -0.3640  0.5400  0.1649
 6974SOL    HW132555   3.044   1.441   9.122 -2.8881  1.0928  0.7428
 6974SOL    HW232556   3.102   1.478   8.994  1.4788  1.1363  1.3215
 6975SOL     OW32557   0.417   3.005   7.160 -0.4745  0.0880  0.3522
 6975SOL    HW132558   0.484   3.047   7.107  0.3863 -0.5613  0.9179
 6975SOL    HW232559   0.365   2.954   7.098 -0.3115  1.4141 -0.8808
 6976SOL     OW32560   0.871   0.159   2.835 -0.3083 -0.3858 -0.2828
 6976SOL    HW132561   0.863   0.224   2.905 -0.9903 -1.7598  0.9275
 6976SOL    HW232562   0.937   0.100   2.873 -1.8944 -0.3919  2.5244
 6977SOL     OW32563   2.970   2.164   7.587 -0.5302 -0.2652 -0.5145
 6977SOL    HW132564   2.935   2.112   7.659  0.0542  0.5284  0.3598
 6977SOL    HW232565   3.013   2.227   7.646 -0.4171 -0.4492 -0.3989
 6978SOL     OW32566   4.151   2.051   8.114 -0.1152 -0.1097  0.0415
 6978SOL    HW132567   4.062   2.019   8.104 -0.3685  0.3412  0.8529
 6978SOL    HW232568   4.166   2.055   8.208 -1.9090  0.3037  0.2966
 6979SOL     OW32569   2.233   3.444   1.891  0.0400 -0.0665  0.1246
 6979SOL    HW132570   2.143   3.426   1.917  0.2354 -1.3908 -0.1451
 6979SOL    HW232571   2.226   3.455   1.796 -0.5324  0.7449  0.2535
 6980SOL     OW32572   0.499   1.559   2.067 -0.1075 -0.2441  0.2072
 6980SOL    HW132573   0.540   1.547   1.981 -0.7844  1.8814 -0.4184
 6980SOL    HW232574   0.476   1.468   2.088 -0.4338 -0.5554 -1.4849
 6981SOL     OW32575   3.490   0.272   5.459  0.7184 -0.3102 -0.3018
 6981SOL    HW132576   3.535   0.350   5.427  0.3081 -0.2371 -0.6969
 6981SOL    HW232577   3.445   0.237   5.382 -2.1929  0.9505  0.8269
 6982SOL     OW32578   3.720   0.186   7.635  0.4700  0.5277 -0.3557
 6982SOL    HW132579   3.769   0.104   7.624 -0.8360 -0.1452 -1.2124
 6982SOL    HW232580   3.734   0.209   7.726 -1.1835  0.1348 -0.0077
 6983SOL     OW32581   1.088   3.465  16.930 -0.5562 -0.1280 -0.1757
 6983SOL    HW132582   1.036   3.545  16.934  2.7819  2.0249 -0.7246
 6983SOL    HW232583   1.171   3.484  16.973  0.5006  0.4002 -2.4686
 6984SOL     OW32584   0.074   2.963   6.995  0.3488 -0.2213 -0.0058
 6984SOL    HW132585   0.015   3.026   7.036 -0.6886  0.2751 -2.2352
 6984SOL    HW232586   0.080   2.896   7.062 -0.1570 -0.2740 -0.0138
 6985SOL     OW32587   1.726   1.808  11.114 -0.7096 -0.5191  0.1860
 6985SOL    HW132588   1.668   1.877  11.082 -1.4643  0.6339  4.0625
 6985SOL    HW232589   1.673   1.754  11.172 -0.8220 -1.9621 -1.2703
 6986SOL     OW32590   4.408   0.271   7.555  0.2665 -0.0649  0.4976
 6986SOL    HW132591   4.459   0.319   7.490 -1.1602 -0.7181 -1.0931
 6986SOL    HW232592   4.345   0.339   7.578  0.9627  0.8374 -0.2754
 6987SOL     OW32593   2.241   3.610   3.498  0.3476  0.6619 -0.1145
 6987SOL    HW132594   2.240   3.515   3.510  0.4843  0.6027 -0.5959
 6987SOL    HW232595   2.147   3.626   3.493  0.2696  0.2114 -0.1257
 6988SOL     OW32596   4.477   1.897   4.663 -0.3587 -0.3586  0.0222
 6988SOL    HW132597   4.556   1.929   4.706  0.0585 -1.4486  0.0471
 6988SOL    HW232598   4.479   1.802   4.666 -0.1678 -0.3585 -0.1005
 6989SOL     OW32599   1.403   0.042   7.259  0.1577  0.3087  0.5677
 6989SOL    HW132600   1.331   0.102   7.281  0.2770  0.1170  1.4949
 6989SOL    HW232601   1.375   0.003   7.176 -0.6151  4.3923 -1.1234
 6990SOL     OW32602   0.093   2.332   7.082  0.1267  0.4642 -0.3247
 6990SOL    HW132603   0.075   2.388   7.006  4.1194  0.1191 -1.5486
 6990SOL    HW232604   0.031   2.259   7.078  0.5636  0.1746 -2.0454
 6991SOL     OW32605   2.895   4.675   2.999  0.1252  0.0373  0.6127
 6991SOL    HW132606   2.812   4.629   2.992 -0.0876  0.2450  1.8091
 6991SOL    HW232607   2.929   4.621   3.071  1.0100  1.2370  1.1047
 6992SOL     OW32608   4.019   1.499   6.713  0.4808  0.1890 -0.6878
 6992SOL    HW132609   3.997   1.447   6.790 -0.5842  2.3467  0.4712
 6992SOL    HW232610   3.950   1.562   6.730 -0.1669 -0.2474 -1.7044
 6993SOL     OW32611   2.975   1.183   5.119  0.2902  0.6260  0.1276
 6993SOL    HW132612   2.953   1.215   5.031  0.1882 -2.2709 -0.8884
 6993SOL    HW232613   3.069   1.178   5.100  0.0762 -0.8487 -0.5090
 6994SOL     OW32614   3.509   4.558   9.245  0.2187  0.0375  0.0545
 6994SOL    HW132615   3.493   4.562   9.340  2.5891 -0.4958  0.4687
 6994SOL    HW232616   3.431   4.513   9.212 -0.8783  1.6514  0.4752
 6995SOL     OW32617   0.996   1.163   6.111 -0.0245  0.0472  0.5613
 6995SOL    HW132618   1.010   1.079   6.155 -1.9291 -0.9006 -0.6614
 6995SOL    HW232619   1.081   1.190   6.078  0.7958 -0.5143  2.2000
 6996SOL     OW32620   2.433   4.410   3.917  0.5248  0.4606 -0.1084
 6996SOL    HW132621   2.410   4.333   3.969 -0.2394  1.5718  1.1956
 6996SOL    HW232622   2.480   4.451   3.990 -0.3341 -1.1065  1.3092
 6997SOL     OW32623   2.786   1.114  17.469  0.1345  0.4913  0.1901
 6997SOL    HW132624   2.696   1.136  17.445 -0.9809 -3.0923  1.0972
 6997SOL    HW232625   2.827   1.200  17.454  1.1453 -0.1800 -0.8850
 6998SOL     OW32626   0.182   0.014   5.172  0.2521 -0.5599  0.0035
 6998SOL    HW132627   0.243   4.726   5.106  0.4816 -0.3896  0.1352
 6998SOL    HW232628   0.099   0.013   5.124 -0.2927 -1.0509  0.9735
 6999SOL     OW32629   1.086   3.765   2.410 -0.3522  0.1686 -0.2680
 6999SOL    HW132630   1.056   3.712   2.336  2.3651 -1.2867 -0.3305
 6999SOL    HW232631   1.086   3.850   2.364 -0.4809  0.1770 -0.2505
 7000SOL     OW32632   0.239   4.017  13.752  0.3906  0.4343 -0.6801
 7000SOL    HW132633   0.188   4.089  13.788  0.8018  0.7626 -0.7579
 7000SOL    HW232634   0.260   3.966  13.831 -0.7885  1.7804  0.4922
 7001SOL     OW32635   4.303   4.285   9.245  0.0046  0.4306  0.6364
 7001SOL    HW132636   4.310   4.254   9.336  0.4835 -2.5098 -0.3945
 7001SOL    HW232637   4.361   4.224   9.200 -1.9494  0.5881 -2.0357
 7002SOL     OW32638   4.381   1.958   3.680  0.1385 -0.2954 -0.1714
 7002SOL    HW132639   4.359   2.025   3.616  2.0145  1.0429  0.6265
 7002SOL    HW232640   4.474   1.976   3.687 -0.0530  0.5482  0.1703
 7003SOL     OW32641   3.761   2.835  16.409 -0.0191  0.2023  0.0607
 7003SOL    HW132642   3.798   2.883  16.336  0.4969 -1.7592 -0.9735
 7003SOL    HW232643   3.667   2.833  16.388 -0.2873 -0.5608  1.3004
 7004SOL     OW32644   3.332   1.428   4.293  0.2248  0.1012  0.5351
 7004SOL    HW132645   3.344   1.499   4.355 -2.6891  1.5437 -0.5035
 7004SOL    HW232646   3.419   1.428   4.254 -0.4479  1.5824 -0.9426
 7005SOL     OW32647   2.557   3.652  12.572  0.2243 -0.3857 -0.0551
 7005SOL    HW132648   2.540   3.705  12.494  1.1219  0.8687  0.5966
 7005SOL    HW232649   2.627   3.707  12.609  0.2831 -1.1867  1.0276
 7006SOL     OW32650   1.463   4.077  11.175 -0.0285  0.3506  0.1059
 7006SOL    HW132651   1.532   4.142  11.185  0.5431 -0.3278  0.6542
 7006SOL    HW232652   1.502   4.007  11.229 -1.9170 -0.4650  0.4329
 7007SOL     OW32653   2.195   2.059   3.275 -0.2503  0.7712 -0.2746
 7007SOL    HW132654   2.170   2.028   3.362  0.7710  2.7238  0.6966
 7007SOL    HW232655   2.289   2.047   3.283 -0.2279  1.0110 -0.1990
 7008SOL     OW32656   4.653   1.974   8.489  0.4648 -0.7554  0.0419
 7008SOL    HW132657   4.612   1.940   8.410  0.9364  1.4620 -1.1521
 7008SOL    HW232658   4.588   2.043   8.498 -0.7902 -2.0719  0.9266
 7009SOL     OW32659   3.474   0.359   4.487  0.1631  0.5809  1.1536
 7009SOL    HW132660   3.420   0.414   4.430  0.7255 -0.5320 -0.4462
 7009SOL    HW232661   3.558   0.404   4.498 -0.5588  2.6288 -1.7898
 7010SOL     OW32662   2.817   4.468   8.046  0.5194  0.0786 -0.6062
 7010SOL    HW132663   2.741   4.441   7.995  0.1980 -1.0966  0.5059
 7010SOL    HW232664   2.805   4.563   8.039  0.7774  0.3372  2.2363
 7011SOL     OW32665   4.324   0.555  14.625  0.5060  0.2405  0.4830
 7011SOL    HW132666   4.420   0.562  14.624  0.4192  1.1731 -0.7700
 7011SOL    HW232667   4.298   0.599  14.544  0.7290  2.1359  1.4241
 7012SOL     OW32668   3.926   2.125   4.906  0.3094 -0.2517 -0.3641
 7012SOL    HW132669   4.007   2.116   4.856 -0.5386 -2.2041 -1.3853
 7012SOL    HW232670   3.926   2.221   4.897 -1.3419  0.0143  2.4554
 7013SOL     OW32671   1.532   2.085  16.808 -0.0154 -0.5217 -0.1312
 7013SOL    HW132672   1.488   2.097  16.892 -1.2182 -1.9310 -0.5514
 7013SOL    HW232673   1.596   2.155  16.819 -0.1479 -0.8661  2.9618
 7014SOL     OW32674   1.037   0.280   4.975 -0.3542  0.2276  0.4265
 7014SOL    HW132675   0.997   0.245   4.895  1.8624 -0.9155 -0.1816
 7014SOL    HW232676   1.072   0.197   5.008  1.8975  0.7300 -0.6594
 7015SOL     OW32677   1.239   4.407   7.688 -0.5136 -0.6841 -0.4801
 7015SOL    HW132678   1.195   4.394   7.771  0.4046 -2.9378 -0.3603
 7015SOL    HW232679   1.322   4.362   7.695  0.1739  0.7502  0.4505
 7016SOL     OW32680   1.350   4.290   8.353 -0.3553 -0.5676  0.0712
 7016SOL    HW132681   1.261   4.310   8.324  0.3086  0.8064 -1.0082
 7016SOL    HW232682   1.341   4.274   8.447  1.6005 -2.1529 -0.0282
 7017SOL     OW32683   3.431   1.332   2.352  0.2243  0.1332  0.1274
 7017SOL    HW132684   3.458   1.373   2.435 -0.2812  1.2678 -0.2716
 7017SOL    HW232685   3.402   1.414   2.312  1.1617  1.0241  1.2642
 7018SOL     OW32686   3.229   0.643   7.024 -0.3266 -0.2613 -0.1935
 7018SOL    HW132687   3.248   0.552   7.000 -2.0414 -0.4693 -0.7678
 7018SOL    HW232688   3.136   0.645   7.046 -0.6257 -1.4689 -1.3458
 7019SOL     OW32689   3.365   1.956   3.343  0.1151 -0.1521  0.0935
 7019SOL    HW132690   3.392   1.916   3.426  0.0274  2.0335  1.1790
 7019SOL    HW232691   3.447   1.997   3.315 -0.1990  0.3720 -0.0538
 7020SOL     OW32692   3.391   3.225  12.360  0.3932 -0.2626  0.2593
 7020SOL    HW132693   3.333   3.286  12.406  0.8143  0.6184 -0.3795
 7020SOL    HW232694   3.472   3.262  12.395 -0.7373  1.8782  0.6007
 7021SOL     OW32695   2.377   2.160   2.012 -0.2080 -0.0728 -0.0835
 7021SOL    HW132696   2.413   2.073   2.030 -1.4395 -0.1122  2.2129
 7021SOL    HW232697   2.297   2.159   2.063 -0.2465  0.2940 -0.1363
 7022SOL     OW32698   1.744   2.949  13.894 -0.2494  0.0179 -0.3288
 7022SOL    HW132699   1.694   2.868  13.891 -1.8828  0.9626  1.3975
 7022SOL    HW232700   1.833   2.931  13.926 -0.9834  0.2907  1.8581
 7023SOL     OW32701   3.595   2.070   1.839 -0.7552  0.3091  0.6177
 7023SOL    HW132702   3.688   2.049   1.850 -0.7093 -0.0460 -0.4230
 7023SOL    HW232703   3.596   2.165   1.846  0.3123  0.1965  2.0676
 7024SOL     OW32704   1.616   1.973   1.383  0.3460 -0.3377 -0.0594
 7024SOL    HW132705   1.575   1.995   1.467  2.5967  4.7708 -0.2942
 7024SOL    HW232706   1.588   1.884   1.365  0.6693 -0.3977 -0.2694
 7025SOL     OW32707   1.610   2.414   2.817 -0.3950 -0.2724  0.4734
 7025SOL    HW132708   1.569   2.342   2.866  0.8213 -0.1821  1.6121
 7025SOL    HW232709   1.615   2.362   2.737 -0.2043 -0.5450  0.6634
 7026SOL     OW32710   1.058   3.045   6.532  0.5966 -0.3444 -0.1389
 7026SOL    HW132711   1.076   3.134   6.503 -1.2022  0.3973  1.0192
 7026SOL    HW232712   1.147   3.017   6.552  0.5674 -0.6527 -0.4244
 7027SOL     OW32713   1.371   2.910   1.816  0.0768  0.3022 -0.0927
 7027SOL    HW132714   1.392   2.899   1.908 -0.4606 -0.4383 -0.0516
 7027SOL    HW232715   1.292   2.856   1.816  0.4755 -0.2653  3.1212
 7028SOL     OW32716   1.730   0.731  10.334 -0.5690  0.5111 -0.3121
 7028SOL    HW132717   1.641   0.718  10.300 -0.7236 -0.5094  0.4659
 7028SOL    HW232718   1.705   0.742  10.425  2.3939 -1.2920  0.7214
 7029SOL     OW32719   3.437   0.655   5.180 -0.1282  0.4348 -0.4735
 7029SOL    HW132720   3.358   0.681   5.226  0.7452 -0.4581  1.5205
 7029SOL    HW232721   3.480   0.601   5.246  1.4969  2.7471  0.3647
 7030SOL     OW32722   1.201   3.067   0.941  0.1721 -0.0450 -0.4604
 7030SOL    HW132723   1.184   3.141   0.882  1.6478  0.7984  0.1824
 7030SOL    HW232724   1.295   3.076   0.955  0.0793 -0.6332  0.5084
 7031SOL     OW32725   4.421   0.619  17.621  0.6136 -0.2794 -0.5712
 7031SOL    HW132726   4.441   0.682  17.689 -1.1468 -0.8080  0.4481
 7031SOL    HW232727   4.335   0.648  17.592  0.4915 -0.6439 -0.5837
 7032SOL     OW32728   3.765   1.280  15.592  0.1553 -0.4500 -0.3840
 7032SOL    HW132729   3.806   1.222  15.528 -1.1347 -2.2004  0.3569
 7032SOL    HW232730   3.838   1.313  15.645  0.0842 -0.3942 -0.3213
 7033SOL     OW32731   0.086   0.916   8.279  0.5074 -0.7184 -0.0030
 7033SOL    HW132732   4.737   0.892   8.286  0.7144 -0.7794  2.4561
 7033SOL    HW232733   0.093   0.894   8.186 -0.6823 -0.5392 -0.1446
 7034SOL     OW32734   2.600   2.999   9.570  0.1311 -0.0520 -0.8402
 7034SOL    HW132735   2.652   2.961   9.499  0.5410 -1.7229  0.3761
 7034SOL    HW232736   2.621   3.092   9.570 -1.8300  0.4059 -2.0026
 7035SOL     OW32737   1.486   1.105   7.059  0.1209 -0.0951  0.0473
 7035SOL    HW132738   1.512   1.023   7.016  1.2557  0.6327 -0.6794
 7035SOL    HW232739   1.399   1.123   7.025  0.0014 -0.8809 -0.0699
 7036SOL     OW32740   4.738   0.104   6.303  0.1846 -0.0211  0.2756
 7036SOL    HW132741   0.059   0.100   6.373 -0.6155  2.5906  1.1784
 7036SOL    HW232742   4.666   0.079   6.361  0.8331 -1.5873  0.3846
 7037SOL     OW32743   1.086   0.840  11.029  0.2144 -0.0543 -0.6259
 7037SOL    HW132744   1.076   0.752  10.993  3.0953 -1.4611  2.0131
 7037SOL    HW232745   1.086   0.833  11.125  1.6724 -2.5015 -0.8156
 7038SOL     OW32746   1.722   3.295   2.590  0.2350  0.9324 -0.4445
 7038SOL    HW132747   1.640   3.309   2.637  0.8918  2.1160  0.3508
 7038SOL    HW232748   1.786   3.337   2.648  0.3810  0.8298 -0.5318
 7039SOL     OW32749   3.602   3.796   3.069  0.2519 -0.1315  0.1982
 7039SOL    HW132750   3.660   3.841   3.007  1.2509  0.6850  1.7263
 7039SOL    HW232751   3.517   3.794   3.024 -0.4475  0.5035  1.4850
 7040SOL     OW32752   1.147   3.317   1.459  0.5736 -0.1692  0.0807
 7040SOL    HW132753   1.098   3.293   1.380  0.6814  1.0321 -0.3580
 7040SOL    HW232754   1.112   3.406   1.456 -2.0526 -1.2024  0.0478
 7041SOL     OW32755   2.156   2.313  14.496  0.3931  0.0583 -0.4581
 7041SOL    HW132756   2.093   2.358  14.439 -0.1251 -2.6680 -2.0419
 7041SOL    HW232757   2.224   2.282  14.436  1.2058  1.2365 -0.1455
 7042SOL     OW32758   4.543   1.498   4.400  0.0597  0.1235 -0.6061
 7042SOL    HW132759   4.572   1.515   4.489 -1.8700  0.5308 -0.0522
 7042SOL    HW232760   4.511   1.408   4.404 -1.6032  0.7560  0.2256
 7043SOL     OW32761   4.493   3.559  11.394  0.1041  0.5760 -0.2114
 7043SOL    HW132762   4.441   3.527  11.468  0.7178  1.3510  0.5572
 7043SOL    HW232763   4.465   3.651  11.398  0.6802  0.9162 -3.6148
 7044SOL     OW32764   2.245   1.656  14.402 -0.0208 -0.3659  0.1711
 7044SOL    HW132765   2.205   1.727  14.452  2.4881  1.6134 -0.5775
 7044SOL    HW232766   2.179   1.630  14.338 -1.0130  1.2234  0.5606
 7045SOL     OW32767   1.341   2.456   6.658 -0.3120 -0.2271  0.0359
 7045SOL    HW132768   1.329   2.367   6.626  4.0285 -1.4625  1.8656
 7045SOL    HW232769   1.433   2.456   6.683 -0.8979 -4.0033  2.2977
 7046SOL     OW32770   2.606   4.470   6.258  0.0743  0.0098  0.1917
 7046SOL    HW132771   2.660   4.549   6.257 -1.2948  0.9472  0.3415
 7046SOL    HW232772   2.656   4.421   6.192  0.7597  2.4239 -1.0736
 7047SOL     OW32773   2.292   3.573  15.679  0.8487 -0.0749  0.0058
 7047SOL    HW132774   2.262   3.552  15.591  0.6603 -0.1623  0.0915
 7047SOL    HW232775   2.241   3.506  15.725  1.7936 -1.1141 -0.4719
 7048SOL     OW32776   4.009   2.762   7.305 -0.0528 -0.6500 -0.2133
 7048SOL    HW132777   3.971   2.817   7.237  0.4004 -2.1011 -1.6325
 7048SOL    HW232778   4.074   2.716   7.253 -0.4168  0.5511 -1.7305
 7049SOL     OW32779   4.601   1.629   4.175  0.3160  0.2548 -0.1172
 7049SOL    HW132780   4.620   1.713   4.217  2.2306  0.0187 -0.5200
 7049SOL    HW232781   4.582   1.581   4.255 -0.9463 -0.2970 -0.7546
 7050SOL     OW32782   3.386   3.013   1.891 -0.4344  0.3131 -0.4275
 7050SOL    HW132783   3.477   3.024   1.919 -1.1688 -0.1324  2.1462
 7050SOL    HW232784   3.338   3.082   1.936 -0.4444 -0.7344  1.1726
 7051SOL     OW32785   2.866   2.680  10.307 -0.1474 -0.1417 -1.2772
 7051SOL    HW132786   2.810   2.724  10.242 -1.6153 -1.6813 -1.0374
 7051SOL    HW232787   2.801   2.617  10.336 -0.1583  0.3466 -0.2358
 7052SOL     OW32788   0.376   2.254   4.091 -0.3870  0.0532  0.2113
 7052SOL    HW132789   0.451   2.304   4.124  0.6189 -0.2304 -1.5981
 7052SOL    HW232790   0.413   2.167   4.072  2.6188  1.1806  0.9356
 7053SOL     OW32791   2.750   0.193   2.202 -0.6685 -0.0151 -0.5929
 7053SOL    HW132792   2.832   0.218   2.160  0.3825 -1.0564  0.8243
 7053SOL    HW232793   2.708   0.279   2.206  1.5857  1.0448  0.1121
 7054SOL     OW32794   3.221   4.652  10.970  0.1062  0.1685 -0.6047
 7054SOL    HW132795   3.304   4.604  10.967  0.7034  1.1079  0.7927
 7054SOL    HW232796   3.162   4.578  10.959  0.1508 -0.0304  0.4776
 7055SOL     OW32797   2.867   4.704   7.355 -0.4902  0.3587  0.1273
 7055SOL    HW132798   2.820   4.742   7.429  0.3915  0.5547  0.5868
 7055SOL    HW232799   2.798   4.701   7.288 -1.7142 -1.0151  1.4782
 7056SOL     OW32800   0.945   1.878  14.174 -0.1963 -1.1275  0.6606
 7056SOL    HW132801   0.962   1.971  14.158  3.0274 -1.8250  0.1009
 7056SOL    HW232802   0.918   1.849  14.086  0.3523  0.8591 -0.1535
 7057SOL     OW32803   0.584   3.096   2.046  0.1160  0.0245  0.2439
 7057SOL    HW132804   0.651   3.109   1.979 -0.2205 -3.3705 -0.7438
 7057SOL    HW232805   0.537   3.033   1.992 -3.0514  2.2883  0.3196
 7058SOL     OW32806   3.346   0.021   0.229 -0.2830 -0.1218  0.4428
 7058SOL    HW132807   3.351   4.671   0.249 -1.2455 -0.3217 -0.2906
 7058SOL    HW232808   3.321   0.056   0.315 -2.6253 -0.0689 -0.2786
 7059SOL     OW32809   1.287   2.653   7.483  0.4172 -0.5038 -0.3563
 7059SOL    HW132810   1.337   2.618   7.557  0.9569 -2.1521 -1.4964
 7059SOL    HW232811   1.351   2.645   7.412 -0.0799  1.1959 -0.9846
 7060SOL     OW32812   0.227   0.356   9.010 -0.2172  0.0441  0.2443
 7060SOL    HW132813   0.244   0.356   8.916 -0.2952  0.8888  0.2319
 7060SOL    HW232814   0.134   0.378   9.012 -0.1916  0.1835 -0.1937
 7061SOL     OW32815   1.151   2.224   4.289 -0.3075  0.2666  0.0181
 7061SOL    HW132816   1.069   2.210   4.336  0.1032 -2.1011  0.0229
 7061SOL    HW232817   1.207   2.232   4.366 -0.7596 -0.0915  0.3783
 7062SOL     OW32818   4.405   1.412  12.490 -0.0993 -0.0293  0.0363
 7062SOL    HW132819   4.445   1.468  12.557  0.3508  0.3066 -0.5106
 7062SOL    HW232820   4.442   1.435  12.405 -0.9288 -0.4441 -0.4384
 7063SOL     OW32821   0.196   4.426   5.076  0.4049  0.6464  0.2067
 7063SOL    HW132822   0.277   4.451   5.119  0.7803 -2.1703  1.0770
 7063SOL    HW232823   0.168   4.500   5.022  0.9487  1.1965  0.6866
 7064SOL     OW32824   3.045   0.909   8.326 -0.0854  0.2016 -0.4036
 7064SOL    HW132825   3.000   0.988   8.354 -0.9781 -0.6556  0.5992
 7064SOL    HW232826   3.003   0.857   8.394  0.7718  0.4577  0.3360
 7065SOL     OW32827   1.554   3.134   1.755  0.7662 -0.5988  0.5357
 7065SOL    HW132828   1.487   3.068   1.771  0.9897 -0.4279  2.1759
 7065SOL    HW232829   1.503   3.192   1.700 -0.0718 -0.6191  1.2900
 7066SOL     OW32830   2.293   4.110   3.616 -0.4814  0.1277  0.2708
 7066SOL    HW132831   2.250   4.030   3.646  1.0865 -0.9681 -0.3901
 7066SOL    HW232832   2.243   4.183   3.651 -0.6364  0.0738  0.1588
 7067SOL     OW32833   0.965   2.854  12.495 -0.0657 -0.2128  0.0013
 7067SOL    HW132834   1.045   2.806  12.516 -0.5015 -0.4574  1.0527
 7067SOL    HW232835   0.986   2.929  12.549  2.3199 -0.7632 -0.1818
 7068SOL     OW32836   0.134   1.881  11.749 -0.2747 -0.2753  0.1678
 7068SOL    HW132837   0.109   1.813  11.686 -0.5356  2.3965 -2.6108
 7068SOL    HW232838   0.098   1.840  11.827 -1.2809  0.8069  0.2772
 7069SOL     OW32839   0.372   2.014   9.051  0.1804  0.5497  0.1420
 7069SOL    HW132840   0.418   2.089   9.014  1.9755 -0.5990  0.0374
 7069SOL    HW232841   0.300   2.049   9.104 -0.6625 -2.4550  1.0146
 7070SOL     OW32842   2.245   2.235  13.352  0.4812  0.2045 -0.0736
 7070SOL    HW132843   2.304   2.309  13.352 -0.3599  0.8756  0.3903
 7070SOL    HW232844   2.180   2.269  13.413  0.5812 -0.1116  0.2084
 7071SOL     OW32845   1.017   2.381   8.710 -0.2596 -0.2682  0.2936
 7071SOL    HW132846   1.022   2.405   8.617 -0.1930  0.3571  0.4605
 7071SOL    HW232847   0.968   2.299   8.709  1.7594 -1.4587 -1.8639
 7072SOL     OW32848   1.921   2.295   2.760 -0.0654 -0.0244 -0.3446
 7072SOL    HW132849   1.991   2.360   2.769  0.5618 -1.0169  1.7884
 7072SOL    HW232850   1.902   2.275   2.851 -0.2853  0.4545 -0.2850
 7073SOL     OW32851   4.450   3.069   9.377 -0.1750 -0.1701  0.0852
 7073SOL    HW132852   4.490   3.156   9.373 -0.9877  0.2529  1.4098
 7073SOL    HW232853   4.400   3.073   9.295 -0.2696  0.3059  0.1628
 7074SOL     OW32854   3.536   4.469   7.771  0.5318  0.2472  0.1640
 7074SOL    HW132855   3.528   4.374   7.767 -1.3189  0.2934  2.7317
 7074SOL    HW232856   3.631   4.469   7.763  0.5105  1.5454 -0.0268
 7075SOL     OW32857   1.870   2.559  12.828  0.3696  0.1379 -0.0055
 7075SOL    HW132858   1.951   2.610  12.826 -0.3072  1.1315 -2.4996
 7075SOL    HW232859   1.904   2.474  12.856  0.6183  0.3640  0.3759
 7076SOL     OW32860   1.600   3.080   4.723  0.0832 -0.0028 -0.5960
 7076SOL    HW132861   1.561   3.009   4.774 -0.0683 -0.4961 -1.3933
 7076SOL    HW232862   1.572   3.158   4.770  2.3542 -0.3398  1.3228
 7077SOL     OW32863   0.730   0.846   0.958 -0.3608  0.5494  0.1846
 7077SOL    HW132864   0.796   0.898   0.913  0.4625  0.4692  1.2970
 7077SOL    HW232865   0.714   0.909   1.028 -1.1037  0.0250  0.4958
 7078SOL     OW32866   4.451   0.568   0.188  0.1250  0.0468  0.3736
 7078SOL    HW132867   4.371   0.614   0.212  0.0158 -0.2086  0.4968
 7078SOL    HW232868   4.501   0.644   0.156 -0.2921 -0.2089 -0.8919
 7079SOL     OW32869   2.158   1.637  17.045  0.1900 -0.2605 -0.1881
 7079SOL    HW132870   2.078   1.601  17.084  1.5590 -1.8150  1.1460
 7079SOL    HW232871   2.121   1.714  17.001 -0.1436 -0.7239 -0.7155
 7080SOL     OW32872   0.629   1.302   1.417 -0.5858  0.0612 -0.2971
 7080SOL    HW132873   0.601   1.291   1.508  0.4308  1.4441  0.1814
 7080SOL    HW232874   0.678   1.221   1.402 -1.5284 -0.5161 -0.2534
 7081SOL     OW32875   4.709   3.714   2.081  0.1087 -0.3982 -0.0030
 7081SOL    HW132876   0.036   3.666   2.124 -0.3006 -0.3528  0.7119
 7081SOL    HW232877   4.728   3.695   1.989  2.9487 -0.7265  0.6720
 7082SOL     OW32878   2.722   2.063   2.267  0.3030 -0.0544  0.7677
 7082SOL    HW132879   2.679   2.109   2.339 -0.6393  0.8147 -0.3415
 7082SOL    HW232880   2.719   2.135   2.204 -2.0038 -1.8377 -1.1709
 7083SOL     OW32881   4.516   2.290  17.601  0.0540 -0.7024  0.9397
 7083SOL    HW132882   4.431   2.325  17.573  1.7879  1.4600 -1.6663
 7083SOL    HW232883   4.511   2.196  17.587  1.5231 -0.4443 -1.3307
 7084SOL     OW32884   1.090   2.902   2.315 -0.2883  0.0227  0.3285
 7084SOL    HW132885   1.148   2.974   2.289 -0.5905 -0.0080 -0.4152
 7084SOL    HW232886   1.088   2.925   2.408 -2.0888  3.8041 -0.6793
 7085SOL     OW32887   3.145   3.877   3.685 -0.7248  0.1098 -0.3065
 7085SOL    HW132888   3.106   3.790   3.695  0.1561  0.0225  2.3548
 7085SOL    HW232889   3.078   3.928   3.730 -1.2183 -0.7035 -0.0991
 7086SOL     OW32890   2.291   1.764  14.011 -0.2565  0.0166  0.0236
 7086SOL    HW132891   2.241   1.688  13.980 -0.5117 -0.1251  0.7854
 7086SOL    HW232892   2.331   1.811  13.937 -1.3559 -1.0171 -1.2403
 7087SOL     OW32893   4.478   3.201   1.828  0.4391  0.2757  0.3126
 7087SOL    HW132894   4.408   3.182   1.890  1.4709 -2.8094  0.5481
 7087SOL    HW232895   4.449   3.139   1.760 -0.3641 -0.0027  0.9048
 7088SOL     OW32896   3.287   4.641  11.287  0.4301  0.5594  0.1021
 7088SOL    HW132897   3.323   4.686  11.363  0.0144 -1.8178  1.7062
 7088SOL    HW232898   3.343   4.673  11.216  1.3312  1.3513  1.1701
 7089SOL     OW32899   3.642   0.887   6.155  0.0899  0.0540  0.3050
 7089SOL    HW132900   3.583   0.922   6.089  1.1901  1.4353  0.0518
 7089SOL    HW232901   3.634   0.948   6.228 -1.8986  1.7441 -1.3523
 7090SOL     OW32902   4.487   3.360   7.988 -0.5956  0.2252  0.6805
 7090SOL    HW132903   4.400   3.364   8.028  0.2632  0.1547  2.5869
 7090SOL    HW232904   4.548   3.372   8.062  1.9064 -1.4884 -1.1125
 7091SOL     OW32905   3.610   0.838   5.486 -0.3984 -0.0365  0.0253
 7091SOL    HW132906   3.598   0.919   5.536  0.4997  1.2960 -1.9433
 7091SOL    HW232907   3.548   0.787   5.538  0.4047  1.2950  2.3257
 7092SOL     OW32908   0.502   4.248   5.450 -0.3434  0.7033  0.0486
 7092SOL    HW132909   0.498   4.193   5.528  0.5864 -0.2170 -0.5525
 7092SOL    HW232910   0.445   4.319   5.479  1.2445  1.3168  1.6263
 7093SOL     OW32911   0.111   0.603  17.583 -0.0589 -0.0901  0.5042
 7093SOL    HW132912   0.153   0.519  17.603  2.4471  1.0722  0.1494
 7093SOL    HW232913   0.094   0.598  17.489 -1.5658 -0.2188  0.7874
 7094SOL     OW32914   0.599   3.595   8.397 -0.0756 -0.3059  0.0261
 7094SOL    HW132915   0.523   3.540   8.416 -0.2511  0.5767  1.9017
 7094SOL    HW232916   0.567   3.645   8.322 -0.9812  0.5459  0.9844
 7095SOL     OW32917   3.808   2.383  14.100  0.5834 -0.2250  0.0632
 7095SOL    HW132918   3.720   2.394  14.064  0.9869  0.5536 -0.7070
 7095SOL    HW232919   3.799   2.290  14.120 -0.6818  0.2632  1.7002
 7096SOL     OW32920   1.102   0.473  12.828  0.0839 -0.1218 -0.2360
 7096SOL    HW132921   1.195   0.462  12.844  0.6080  3.0609 -1.0829
 7096SOL    HW232922   1.104   0.503  12.737 -1.6006  1.8047  0.3318
 7097SOL     OW32923   1.403   1.257   7.819  0.2796 -0.0146  0.2026
 7097SOL    HW132924   1.460   1.328   7.790 -0.3568 -0.3325 -1.8192
 7097SOL    HW232925   1.338   1.259   7.749 -0.1835  2.3379  0.7036
 7098SOL     OW32926   1.251   0.519   7.547  0.3989  0.5505 -0.5362
 7098SOL    HW132927   1.286   0.526   7.635 -2.8610 -1.9107  0.9335
 7098SOL    HW232928   1.164   0.558   7.556  1.0423  1.5999  1.0663
 7099SOL     OW32929   3.215   2.217   8.842  0.2379  0.4775 -0.0933
 7099SOL    HW132930   3.176   2.192   8.925  0.0690  1.3860  0.0971
 7099SOL    HW232931   3.140   2.261   8.801  0.3602 -0.1267 -0.9801
 7100SOL     OW32932   1.707   2.155   6.963 -0.2188  0.5846  0.9216
 7100SOL    HW132933   1.791   2.138   6.921 -0.3035 -0.2308  1.0840
 7100SOL    HW232934   1.700   2.249   6.947 -1.2590  0.5396  1.1180
 7101SOL     OW32935   0.579   2.363   5.432 -0.5755 -0.0709 -0.1888
 7101SOL    HW132936   0.620   2.450   5.433  1.5871 -1.1044  1.6190
 7101SOL    HW232937   0.486   2.385   5.428 -1.1498 -2.4587  0.1516
 7102SOL     OW32938   4.069   0.316   7.566  0.3931  0.5282  0.2067
 7102SOL    HW132939   4.037   0.323   7.476  0.9517  0.8858  0.0369
 7102SOL    HW232940   4.121   0.395   7.571  0.1601  0.7005 -0.1091
 7103SOL     OW32941   0.624   4.094   9.719 -0.2307  0.1811  0.3063
 7103SOL    HW132942   0.682   4.050   9.782  0.2412 -1.0144 -0.9874
 7103SOL    HW232943   0.614   4.179   9.762 -1.6424  0.0265  0.2877
 7104SOL     OW32944   1.584   0.799   3.206 -0.4601 -0.4355  0.3705
 7104SOL    HW132945   1.559   0.707   3.195  1.8028 -1.0662  0.4769
 7104SOL    HW232946   1.677   0.779   3.201 -0.7442 -1.3727 -1.2341
 7105SOL     OW32947   2.120   1.598   1.940 -0.1097  0.3408  0.6680
 7105SOL    HW132948   2.141   1.512   1.975  1.6600  0.7334  0.5759
 7105SOL    HW232949   2.200   1.649   1.954 -0.8697  2.6391 -3.2482
 7106SOL     OW32950   3.627   3.877  12.922  0.0033  0.8156 -0.1843
 7106SOL    HW132951   3.577   3.797  12.908 -0.1377  1.2859 -2.4073
 7106SOL    HW232952   3.705   3.848  12.969  0.1148 -0.3674 -1.0789
 7107SOL     OW32953   2.468   3.828  17.551 -0.5744  0.2865  0.1789
 7107SOL    HW132954   2.468   3.747  17.604 -3.0182 -0.0646 -0.3281
 7107SOL    HW232955   2.547   3.870  17.584 -1.3133  1.0197  1.0390
 7108SOL     OW32956   0.534   1.643  13.040 -0.2083 -0.4947 -0.6836
 7108SOL    HW132957   0.609   1.636  13.099  0.4497 -0.4362 -1.5139
 7108SOL    HW232958   0.532   1.556  12.999 -2.2664 -1.8091  2.2110
 7109SOL     OW32959   4.126   1.473   3.718  0.1177  0.5640 -0.7690
 7109SOL    HW132960   4.176   1.553   3.701  1.6452 -0.5994 -1.7790
 7109SOL    HW232961   4.158   1.426   3.641  1.7736  1.1498 -0.4288
 7110SOL     OW32962   2.141   0.126   4.957 -0.7241  0.4089  0.6132
 7110SOL    HW132963   2.082   0.202   4.960 -0.5245  0.6975 -3.0350
 7110SOL    HW232964   2.127   0.092   4.869 -0.1534 -0.6174  0.9258
 7111SOL     OW32965   4.573   1.669  17.512 -0.0296  0.1512  0.2313
 7111SOL    HW132966   4.604   1.629  17.431 -2.3228 -1.6741  0.2566
 7111SOL    HW232967   4.480   1.649  17.506 -0.3659  2.2207 -1.5707
 7112SOL     OW32968   1.489   1.395   3.365  0.0060 -0.2675  0.5704
 7112SOL    HW132969   1.572   1.437   3.344 -0.8660  0.7292 -0.8828
 7112SOL    HW232970   1.433   1.464   3.401 -0.4007  0.4100 -1.3476
 7113SOL     OW32971   2.523   4.127  11.310 -0.2147 -0.1623 -0.3716
 7113SOL    HW132972   2.449   4.071  11.332  2.0415 -1.8154  3.1547
 7113SOL    HW232973   2.586   4.101  11.378  2.1077  0.9089 -2.1236
 7114SOL     OW32974   3.682   0.578   3.333 -0.6517 -0.6705 -0.3206
 7114SOL    HW132975   3.649   0.551   3.418  0.7797 -1.2673  0.0366
 7114SOL    HW232976   3.654   0.669   3.323  0.9091 -0.2264 -0.7409
 7115SOL     OW32977   4.729   3.996   6.807 -0.1815  0.2286 -0.2678
 7115SOL    HW132978   4.741   4.065   6.872 -2.1272  1.3680 -1.1174
 7115SOL    HW232979   4.738   3.915   6.858 -1.7922 -0.3922 -0.9834
 7116SOL     OW32980   3.465   0.400   2.736 -0.8288 -0.2259  0.4562
 7116SOL    HW132981   3.547   0.393   2.686 -0.0877 -2.7846  1.9838
 7116SOL    HW232982   3.420   0.322   2.704  1.6226 -2.0943  1.5046
 7117SOL     OW32983   4.592   0.813   4.650 -0.5979 -0.0274 -0.3207
 7117SOL    HW132984   4.611   0.728   4.610  1.8478 -0.6062  2.1298
 7117SOL    HW232985   4.499   0.804   4.628 -0.9798  1.3482  0.6782
 7118SOL     OW32986   0.387   0.059  11.671  0.3256  0.6585  0.4508
 7118SOL    HW132987   0.475   0.086  11.644  0.4452 -0.9109 -0.7432
 7118SOL    HW232988   0.349   0.131  11.621 -1.2165 -0.1841  0.4302
 7119SOL     OW32989   3.453   0.457   0.222 -0.4248 -0.1500  1.3460
 7119SOL    HW132990   3.427   0.390   0.284  0.1958 -0.0576  1.7032
 7119SOL    HW232991   3.367   0.470   0.183  0.3301  1.1589  0.1056
 7120SOL     OW32992   0.334   2.064   7.549  0.5610 -0.1319  0.3726
 7120SOL    HW132993   0.251   2.016   7.554  0.2036  0.3884 -0.3615
 7120SOL    HW232994   0.387   1.999   7.501  2.7285 -0.3835  3.1361
 7121SOL     OW32995   0.406   2.727   5.666  0.2272  0.7078 -0.1872
 7121SOL    HW132996   0.470   2.766   5.726  1.2582  0.6634 -1.2796
 7121SOL    HW232997   0.418   2.636   5.692 -0.5348  1.3116  2.3048
 7122SOL     OW32998   2.174   4.596   2.685  0.5770 -0.4028 -0.3483
 7122SOL    HW132999   2.238   4.527   2.702  0.3709 -0.4784  0.1226
 7122SOL    HW233000   2.222   4.677   2.702  0.5385 -0.5131  0.2966
 7123SOL     OW33001   2.301   4.689   8.263  0.2523  0.0014 -0.0756
 7123SOL    HW133002   2.278   0.030   8.302  0.5263  0.5825 -1.1663
 7123SOL    HW233003   2.224   4.642   8.292  0.7738  1.9201  4.4801
 7124SOL     OW33004   1.425   1.713   3.174 -0.4904  1.0060  0.0934
 7124SOL    HW133005   1.490   1.748   3.235 -2.2114  0.2960  2.3355
 7124SOL    HW233006   1.485   1.706   3.100 -1.1188 -2.3426 -0.0958
 7125SOL     OW33007   1.724   0.831  14.565  0.0554 -0.0936 -0.2458
 7125SOL    HW133008   1.680   0.815  14.482  2.2370  1.7015 -1.7499
 7125SOL    HW233009   1.675   0.779  14.628 -0.8692  1.3210  0.1800
 7126SOL     OW33010   4.428   3.832  10.015 -0.1549 -0.2068  0.0561
 7126SOL    HW133011   4.337   3.824  10.042  0.0369 -0.6149  0.5811
 7126SOL    HW233012   4.433   3.743   9.980 -2.6331  0.6632 -2.4437
 7127SOL     OW33013   4.338   1.192   2.278 -0.5288 -0.3476  0.1052
 7127SOL    HW133014   4.323   1.127   2.210  1.0887  0.1535 -0.7304
 7127SOL    HW233015   4.329   1.129   2.350 -1.1915  0.9490  1.1760
 7128SOL     OW33016   1.574   3.722   4.736 -0.6771 -0.0259 -0.0831
 7128SOL    HW133017   1.654   3.670   4.731 -1.3642 -1.2695  1.6337
 7128SOL    HW233018   1.600   3.804   4.695  0.8903 -0.9581 -0.9238
 7129SOL     OW33019   2.549   2.499   2.915 -0.1299 -0.2699  0.0683
 7129SOL    HW133020   2.491   2.559   2.961 -2.6376 -2.0423 -0.8170
 7129SOL    HW233021   2.507   2.414   2.924  1.6665 -1.2932 -1.0354
 7130SOL     OW33022   3.637   0.151  14.057  0.3385 -0.0330  0.5995
 7130SOL    HW133023   3.699   0.131  13.987 -2.1078 -1.1324 -1.2444
 7130SOL    HW233024   3.600   0.063  14.068  1.4508 -0.3262  1.9488
 7131SOL     OW33025   1.634   0.778  10.561 -0.1958 -0.4591 -0.1848
 7131SOL    HW133026   1.545   0.747  10.575 -0.0199 -1.2193 -0.7350
 7131SOL    HW233027   1.667   0.752  10.647 -0.8866  0.2457  0.2890
 7132SOL     OW33028   1.830   1.130   5.365  0.3829 -0.2131  0.6869
 7132SOL    HW133029   1.801   1.220   5.348  1.2829  0.1053  0.8026
 7132SOL    HW233030   1.749   1.083   5.383 -0.9265  1.1577 -1.6646
 7133SOL     OW33031   4.082   2.605   4.129 -0.5429  0.2630 -0.1862
 7133SOL    HW133032   4.042   2.648   4.205 -2.3284 -1.0547 -0.3745
 7133SOL    HW233033   4.162   2.565   4.162 -1.1783 -1.5447 -0.8115
 7134SOL     OW33034   1.359   1.626   6.482  0.0482  0.1099  0.3322
 7134SOL    HW133035   1.434   1.627   6.542  0.6592 -0.1342 -0.4204
 7134SOL    HW233036   1.333   1.535   6.493 -2.1476  0.6476 -0.2965
 7135SOL     OW33037   1.497   0.840  11.824 -0.1048 -0.3031  0.2116
 7135SOL    HW133038   1.514   0.854  11.917 -1.5195 -0.7385  0.5342
 7135SOL    HW233039   1.586   0.851  11.790 -1.2904  0.8083 -2.5890
 7136SOL     OW33040   1.583   2.402   3.164  0.1833  0.1016  0.6220
 7136SOL    HW133041   1.564   2.433   3.253  0.0534 -1.0056  0.9776
 7136SOL    HW233042   1.575   2.308   3.177 -1.3255  0.2397  0.7851
 7137SOL     OW33043   4.391   2.876   7.564  0.5084 -0.9942 -0.0760
 7137SOL    HW133044   4.343   2.951   7.529 -1.1531 -1.1190  1.9674
 7137SOL    HW233045   4.473   2.890   7.515  0.0107 -0.4077 -0.7392
 7138SOL     OW33046   1.710   2.661   2.066  0.0730 -1.0883  0.0737
 7138SOL    HW133047   1.700   2.672   2.160  2.8306  1.8006  0.0524
 7138SOL    HW233048   1.621   2.647   2.035 -0.3411  1.5628  0.0035
 7139SOL     OW33049   1.478   3.113   6.082 -0.1755 -0.5824  0.2226
 7139SOL    HW133050   1.474   3.017   6.090  0.8582 -0.6897 -0.5606
 7139SOL    HW233051   1.564   3.121   6.040  0.2626  1.3050  1.5149
 7140SOL     OW33052   0.280   0.527   1.807  0.0426  0.5462 -0.1696
 7140SOL    HW133053   0.250   0.563   1.891  1.0587 -2.9786  1.7228
 7140SOL    HW233054   0.278   0.610   1.761 -1.3097  0.0010 -1.0795
 7141SOL     OW33055   1.428   3.169   6.559  0.7017  0.5713 -0.4459
 7141SOL    HW133056   1.488   3.236   6.594 -0.0443  1.3798 -0.7058
 7141SOL    HW233057   1.477   3.134   6.484  0.6665 -1.0187  0.2815
 7142SOL     OW33058   1.093   2.161   2.264  0.6976  0.0057  0.0949
 7142SOL    HW133059   1.186   2.151   2.286  0.6844 -0.5743 -0.1128
 7142SOL    HW233060   1.059   2.222   2.329 -0.4642  0.6152 -1.0790
 7143SOL     OW33061   0.233   3.517   7.353 -0.1601  0.1633  0.3075
 7143SOL    HW133062   0.219   3.600   7.398  0.6425 -0.7100  2.1589
 7143SOL    HW233063   0.324   3.535   7.327 -0.6183  0.0062 -1.4256
 7144SOL     OW33064   0.939   2.781  15.768 -0.3542 -0.2475 -1.3348
 7144SOL    HW133065   0.857   2.751  15.806 -0.4372 -1.3530 -2.3621
 7144SOL    HW233066   0.984   2.804  15.849  1.0372 -0.7669 -1.9571
 7145SOL     OW33067   2.418   0.945   6.931  0.5215  0.9883 -0.4944
 7145SOL    HW133068   2.478   0.924   6.859  0.3916 -0.9436 -0.0276
 7145SOL    HW233069   2.453   0.893   7.003  2.1595 -0.3374 -2.2335
 7146SOL     OW33070   2.326   2.884   4.689  0.6544  0.1260 -0.0557
 7146SOL    HW133071   2.241   2.853   4.657  0.4039  2.4996 -1.7160
 7146SOL    HW233072   2.380   2.825   4.636 -1.1094  0.0127 -1.7253
 7147SOL     OW33073   0.191   2.815   6.796 -0.3127 -0.7346  0.1087
 7147SOL    HW133074   0.138   2.848   6.869  0.4422  0.0722  0.2848
 7147SOL    HW233075   0.230   2.899   6.772 -0.1494 -0.9516 -0.3756
 7148SOL     OW33076   4.689   2.379  12.269 -0.9722  0.6167 -0.1143
 7148SOL    HW133077   4.604   2.415  12.294 -0.0657  0.2138  3.4783
 7148SOL    HW233078   0.000   2.439  12.320 -0.6747  0.6822 -0.5109
 7149SOL     OW33079   0.469   3.192   9.195  0.3621  0.2157 -0.5068
 7149SOL    HW133080   0.526   3.257   9.236 -1.8196  1.4604  0.5746
 7149SOL    HW233081   0.466   3.239   9.111 -1.3102  0.4490 -0.3282
 7150SOL     OW33082   3.298   3.284  14.850  0.0818 -0.1193 -0.1218
 7150SOL    HW133083   3.223   3.313  14.799 -0.3240 -0.1803  0.4454
 7150SOL    HW233084   3.313   3.196  14.813 -2.9923  0.0042 -1.6572
 7151SOL     OW33085   0.788   4.085   2.510 -0.3153 -0.1402 -0.4126
 7151SOL    HW133086   0.767   4.176   2.487 -1.1636  0.6340  3.3805
 7151SOL    HW233087   0.864   4.094   2.568 -1.6329 -0.2879  1.3502
 7152SOL     OW33088   0.069   1.521  10.686 -0.0656 -0.3936 -0.5275
 7152SOL    HW133089   0.121   1.479  10.754 -2.7780  0.8344  2.2640
 7152SOL    HW233090   4.730   1.498  10.727 -0.6979  3.0806  0.1144
 7153SOL     OW33091   1.845   0.812   6.124 -0.4735 -0.5778  0.9525
 7153SOL    HW133092   1.894   0.871   6.182  0.2818  1.1023 -1.3778
 7153SOL    HW233093   1.761   0.848   6.095 -0.3336 -0.6921  0.3929
 7154SOL     OW33094   1.812   0.579   1.260  0.0399 -0.6146  0.3735
 7154SOL    HW133095   1.875   0.544   1.197  1.1590 -1.5298  1.9872
 7154SOL    HW233096   1.865   0.576   1.340  0.2737 -0.9583  0.2032
 7155SOL     OW33097   1.913   1.550  11.365 -0.2997  0.7632  0.0834
 7155SOL    HW133098   1.907   1.604  11.286 -2.1093 -0.1090 -0.3803
 7155SOL    HW233099   2.008   1.545  11.371 -0.2803 -1.1795 -1.9469
 7156SOL     OW33100   0.802   4.321   4.799 -0.2025  0.0912  0.4797
 7156SOL    HW133101   0.856   4.396   4.823 -0.4864  0.1347  0.9953
 7156SOL    HW233102   0.713   4.358   4.798 -0.3454 -0.1874  2.2995
 7157SOL     OW33103   0.303   4.519  12.857 -0.4955 -0.3718 -0.7185
 7157SOL    HW133104   0.211   4.493  12.862 -0.5695 -0.4340 -2.2612
 7157SOL    HW233105   0.322   4.521  12.950 -0.1073  0.0109 -0.8036
 7158SOL     OW33106   4.178   1.557   6.087  0.5003  0.2281 -0.5419
 7158SOL    HW133107   4.265   1.572   6.049  0.0986  1.8469 -0.8295
 7158SOL    HW233108   4.180   1.600   6.172  0.5951  0.6820 -0.7746
 7159SOL     OW33109   0.374   1.549   8.777  0.8616  0.6104  0.1545
 7159SOL    HW133110   0.448   1.605   8.800  0.3153  0.6214  1.9548
 7159SOL    HW233111   0.332   1.597   8.706  0.9778 -0.8855 -0.9238
 7160SOL     OW33112   3.523   2.413   7.723  0.3770 -0.3574 -0.2887
 7160SOL    HW133113   3.615   2.424   7.746 -0.1090  0.4386  1.2439
 7160SOL    HW233114   3.473   2.434   7.802  2.1224 -1.2164  1.0419
 7161SOL     OW33115   2.274   1.103   5.011  0.2356 -0.3127 -0.5792
 7161SOL    HW133116   2.272   1.082   4.918 -0.3828 -1.2008 -0.3635
 7161SOL    HW233117   2.288   1.198   5.007 -0.6029 -0.2484 -1.9217
 7162SOL     OW33118   1.143   4.191   7.289  0.3386 -0.4685  0.3378
 7162SOL    HW133119   1.221   4.222   7.243  0.3122  0.6798  1.0599
 7162SOL    HW233120   1.134   4.263   7.352 -0.0993 -0.1473 -0.0898
 7163SOL     OW33121   1.442   1.490   1.780 -0.9824 -0.4464  0.0534
 7163SOL    HW133122   1.411   1.563   1.726 -1.5521 -0.9057 -0.2409
 7163SOL    HW233123   1.406   1.516   1.865 -2.7830  2.2637 -1.5452
 7164SOL     OW33124   3.465   0.825   4.971  0.4608  0.0785  0.0843
 7164SOL    HW133125   3.456   0.750   5.029 -3.7568  0.1383 -0.5292
 7164SOL    HW233126   3.545   0.798   4.926  0.2368 -0.1518 -0.1763
 7165SOL     OW33127   1.272   0.263   9.274  0.3461  0.4574 -0.1230
 7165SOL    HW133128   1.256   0.173   9.247 -0.8830  0.8386 -0.6633
 7165SOL    HW233129   1.280   0.249   9.368  3.1242  0.2694 -0.3702
 7166SOL     OW33130   3.324   2.168   5.502 -0.4146  0.1107  0.0572
 7166SOL    HW133131   3.370   2.251   5.515 -0.5286  0.1878 -0.0254
 7166SOL    HW233132   3.372   2.104   5.554  2.2941  2.0846 -0.0227
 7167SOL     OW33133   1.130   2.919  13.184  0.0231 -0.3163  0.0477
 7167SOL    HW133134   1.144   2.957  13.271 -0.2549 -2.1420  0.8797
 7167SOL    HW233135   1.035   2.920  13.190  0.0353 -0.0326  0.2124
 7168SOL     OW33136   4.166   4.581   9.685 -0.6626 -0.0375 -0.1973
 7168SOL    HW133137   4.092   4.589   9.625 -1.6001 -1.1981  0.7829
 7168SOL    HW233138   4.135   4.628   9.762  1.0504 -0.4072  0.7065
 7169SOL     OW33139   3.002   1.559   1.432  0.3105  0.2478  0.2288
 7169SOL    HW133140   3.057   1.491   1.392  0.2490  1.2632 -1.5994
 7169SOL    HW233141   3.032   1.557   1.523  0.9206 -1.0441 -0.0061
 7170SOL     OW33142   1.442   2.634   0.499  0.0432  0.1038 -0.0629
 7170SOL    HW133143   1.407   2.711   0.543 -0.8353  0.2577 -1.0238
 7170SOL    HW233144   1.534   2.631   0.526 -0.1902  0.8305  0.8107
 7171SOL     OW33145   3.837   3.216   2.358 -0.6922 -0.2623  0.3605
 7171SOL    HW133146   3.912   3.220   2.298 -0.7602 -2.9737  0.0932
 7171SOL    HW233147   3.822   3.309   2.377  0.3050 -0.1763  0.7569
 7172SOL     OW33148   1.289   1.357   9.194 -0.3576 -0.1747 -0.5793
 7172SOL    HW133149   1.305   1.360   9.100 -3.0468 -0.1501 -1.0292
 7172SOL    HW233150   1.287   1.264   9.216  1.1628 -0.1650 -0.4080
 7173SOL     OW33151   0.978   4.220   4.211 -0.0614  0.7771 -0.5054
 7173SOL    HW133152   0.905   4.203   4.151 -0.0852 -0.1384 -0.2129
 7173SOL    HW233153   0.940   4.290   4.263  1.8682  2.2419 -1.0758
 7174SOL     OW33154   3.564   0.766   6.502 -0.7681 -0.1510  0.3748
 7174SOL    HW133155   3.571   0.824   6.578 -1.2913  0.7048 -0.2418
 7174SOL    HW233156   3.569   0.685   6.554  0.6568  0.6469  1.4801
 7175SOL     OW33157   2.216   1.067   8.557 -0.0234  0.1784  0.2658
 7175SOL    HW133158   2.128   1.103   8.560 -0.6151 -1.3292  1.1106
 7175SOL    HW233159   2.274   1.140   8.534  2.0188 -1.1656  1.1604
 7176SOL     OW33160   3.634   1.533   3.646  0.2447 -0.2321 -0.1119
 7176SOL    HW133161   3.684   1.547   3.726  1.3606 -1.4677 -0.5941
 7176SOL    HW233162   3.690   1.463   3.611  0.7279 -0.9453  2.0845
 7177SOL     OW33163   4.220   0.025  14.359 -0.3096  0.2899  0.3175
 7177SOL    HW133164   4.143   0.048  14.308  0.4730  3.4259  0.5726
 7177SOL    HW233165   4.243   0.106  14.405  0.0479  1.0762 -1.2566
 7178SOL     OW33166   3.513   2.862   3.717 -0.1340 -0.1157 -0.2567
 7178SOL    HW133167   3.484   2.790   3.661 -0.1720 -0.8401  0.7036
 7178SOL    HW233168   3.490   2.826   3.802 -0.7834  0.4554 -0.1900
 7179SOL     OW33169   1.690   1.919  16.645  0.4238 -0.1878  0.0004
 7179SOL    HW133170   1.644   1.964  16.574 -0.9918  1.0760  1.7307
 7179SOL    HW233171   1.645   1.960  16.719 -0.0825 -2.9024  1.1750
 7180SOL     OW33172   1.935   4.549   4.868  0.1546  0.5843 -0.3710
 7180SOL    HW133173   1.990   4.586   4.799 -2.1001  5.2915  0.3581
 7180SOL    HW233174   1.925   4.625   4.927 -0.0216  0.4337 -0.2057
 7181SOL     OW33175   4.563   0.031   7.078  0.4506 -0.4972 -0.2649
 7181SOL    HW133176   4.602   4.688   7.070 -0.2682 -0.6830 -1.7677
 7181SOL    HW233177   4.495   0.006   7.140 -0.2939 -1.2314 -1.3793
 7182SOL     OW33178   2.092   4.095  10.866  0.1828 -0.2614  0.8250
 7182SOL    HW133179   2.125   4.018  10.820 -3.1069 -1.3603  0.3647
 7182SOL    HW233180   2.173   4.111  10.915  1.1357 -2.5692 -0.0099
 7183SOL     OW33181   3.378   0.129   9.684 -0.7999 -0.1755 -0.0428
 7183SOL    HW133182   3.329   0.194   9.735  0.0106  1.9607 -1.9878
 7183SOL    HW233183   3.365   0.159   9.594  1.0941 -0.2798 -0.3491
 7184SOL     OW33184   3.614   3.372   4.323  0.4835  0.2021 -0.2015
 7184SOL    HW133185   3.656   3.306   4.267 -2.1526 -0.4491 -1.4199
 7184SOL    HW233186   3.690   3.424   4.351 -0.9932  1.2472  1.8033
 7185SOL     OW33187   2.203   1.619   4.128  0.2404 -0.3389  0.7443
 7185SOL    HW133188   2.249   1.700   4.149  0.0210  0.0069 -0.1306
 7185SOL    HW233189   2.144   1.610   4.202  0.5291 -1.5203  0.8308
 7186SOL     OW33190   0.190   2.603   3.535 -0.1607  0.1028 -0.1012
 7186SOL    HW133191   0.264   2.566   3.583 -0.1304  0.2525 -0.0347
 7186SOL    HW233192   0.225   2.631   3.450  2.1311  0.5768  1.0239
 7187SOL     OW33193   2.272   2.725  13.339  0.1737 -0.3845  0.1587
 7187SOL    HW133194   2.253   2.793  13.403  0.5674 -0.8315  0.7476
 7187SOL    HW233195   2.247   2.764  13.255  0.1513 -1.0215 -0.1349
 7188SOL     OW33196   1.951   3.508  12.745  0.4220 -0.2075 -0.2337
 7188SOL    HW133197   1.947   3.602  12.763  1.1725  0.2687 -2.5292
 7188SOL    HW233198   1.859   3.491  12.725  0.2609  0.3106  0.0643
 7189SOL     OW33199   0.814   3.751   8.135  0.6288 -0.3959 -0.2252
 7189SOL    HW133200   0.876   3.753   8.208 -0.9618  0.6412  1.0881
 7189SOL    HW233201   0.845   3.673   8.087  0.8536 -1.3165  1.4251
 7190SOL     OW33202   2.067   3.483   6.019 -0.2166  0.3362  0.5934
 7190SOL    HW133203   2.047   3.505   5.928  2.7538  0.6018  0.0071
 7190SOL    HW233204   1.999   3.535   6.062 -0.5436 -0.0072  0.4888
 7191SOL     OW33205   0.087   1.687  11.542  0.0705 -0.0802 -0.2564
 7191SOL    HW133206   0.098   1.757  11.478  0.4960 -0.3076 -0.4333
 7191SOL    HW233207   0.159   1.628  11.518 -0.1199 -0.0877 -0.8005
 7192SOL     OW33208   3.751   4.294   9.786 -0.4956  0.3422  0.3326
 7192SOL    HW133209   3.696   4.253   9.853 -1.3978 -1.3960 -1.4955
 7192SOL    HW233210   3.812   4.334   9.848  0.4966 -2.0164  0.8794
 7193SOL     OW33211   3.076   1.751   3.235 -0.1811 -0.8105 -0.4631
 7193SOL    HW133212   3.153   1.696   3.252  0.6707  0.4408 -0.2451
 7193SOL    HW233213   3.113   1.795   3.159 -2.4761 -1.7917 -2.1207
 7194SOL     OW33214   2.178   3.524   2.214  0.6923  0.7040 -0.2849
 7194SOL    HW133215   2.108   3.536   2.278 -1.5172 -1.7934 -2.1971
 7194SOL    HW233216   2.156   3.583   2.142 -1.1805 -0.3453 -0.5856
 7195SOL     OW33217   0.758   4.627  14.413 -0.3847 -0.2763 -0.3115
 7195SOL    HW133218   0.815   4.583  14.349 -1.2286 -1.0168 -0.5550
 7195SOL    HW233219   0.674   4.619  14.367  0.4657  1.0813 -2.1030
 7196SOL     OW33220   4.725   3.090   4.394  0.1148  0.0715  0.0728
 7196SOL    HW133221   0.009   3.158   4.333  3.1658 -2.2049 -1.0116
 7196SOL    HW233222   4.632   3.079   4.371 -0.1573  1.3119  0.5871
 7197SOL     OW33223   1.294   3.068   7.025 -0.7333 -0.3129  0.5597
 7197SOL    HW133224   1.261   2.979   7.022 -0.4025 -0.5151  2.6584
 7197SOL    HW233225   1.385   3.059   7.052 -0.3349 -1.9970 -1.3664
 7198SOL     OW33226   1.328   1.591   9.654 -0.0988 -0.0190 -0.1107
 7198SOL    HW133227   1.293   1.579   9.566  1.2072  2.2350 -0.9324
 7198SOL    HW233228   1.356   1.501   9.669 -0.4125 -0.3014 -1.2364
 7199SOL     OW33229   0.695   1.208   1.124 -0.7170 -0.0922 -0.0921
 7199SOL    HW133230   0.703   1.202   1.029  0.9762  0.5138  0.0209
 7199SOL    HW233231   0.652   1.292   1.142 -0.1999 -0.7233  4.0595
 7200SOL     OW33232   3.397   2.579   2.614 -0.8512 -0.2835 -0.7309
 7200SOL    HW133233   3.483   2.537   2.611 -0.6991  0.0085 -0.3982
 7200SOL    HW233234   3.337   2.510   2.585 -2.1501 -0.3298  2.0540
 7201SOL     OW33235   2.991   0.722   3.491 -0.3661 -0.2940 -0.9193
 7201SOL    HW133236   2.907   0.688   3.520  0.5380 -1.4154  0.4063
 7201SOL    HW233237   3.036   0.736   3.575 -0.3906 -1.5782 -0.6901
 7202SOL     OW33238   3.838   3.074   5.465  0.5943  0.7652 -0.0863
 7202SOL    HW133239   3.764   3.120   5.425 -0.7363  1.6644  3.3752
 7202SOL    HW233240   3.795   3.036   5.542  2.0938 -1.8680 -0.5385
 7203SOL     OW33241   2.766   2.681   3.515 -0.0062  0.1314 -0.2473
 7203SOL    HW133242   2.730   2.697   3.427  2.0962  0.7320 -0.9909
 7203SOL    HW233243   2.810   2.597   3.504 -2.0158 -0.7788 -1.3746
 7204SOL     OW33244   3.915   0.530  16.955  0.1057 -0.6840  0.5501
 7204SOL    HW133245   3.901   0.624  16.943  0.8077 -0.8012 -1.1503
 7204SOL    HW233246   3.983   0.530  17.022  0.8972 -0.4622 -0.2484
 7205SOL     OW33247   2.541   2.349   7.063 -0.3329  0.1218 -0.0858
 7205SOL    HW133248   2.478   2.399   7.012 -0.1045 -0.1787 -0.6663
 7205SOL    HW233249   2.617   2.398   7.032  1.0173 -1.1468  1.2695
 7206SOL     OW33250   0.597   1.692   7.964  0.2729  0.0483  0.1384
 7206SOL    HW133251   0.685   1.726   7.954  1.3549 -2.2651  1.7671
 7206SOL    HW233252   0.551   1.720   7.884  1.8820  2.1395 -0.0513
 7207SOL     OW33253   3.165   1.223   8.170 -0.2026 -0.0450  0.6268
 7207SOL    HW133254   3.202   1.159   8.231  0.8205  0.0232  0.0660
 7207SOL    HW233255   3.204   1.204   8.085 -0.6841  0.2987  0.3315
 7208SOL     OW33256   3.957   0.374   8.820 -0.1934  0.5330 -0.0610
 7208SOL    HW133257   4.026   0.372   8.753  2.2939  1.7648  2.4984
 7208SOL    HW233258   3.997   0.358   8.905 -0.9313  4.5323  1.0261
 7209SOL     OW33259   2.417   3.887   5.277 -0.5755  0.3196  0.1723
 7209SOL    HW133260   2.360   3.819   5.313 -1.4434  1.0867  0.2292
 7209SOL    HW233261   2.454   3.924   5.357  0.1477  2.8700 -1.3340
 7210SOL     OW33262   3.481   1.096   9.201  0.4626  0.0087 -0.0595
 7210SOL    HW133263   3.430   1.090   9.120 -0.3524 -1.2945  0.5516
 7210SOL    HW233264   3.568   1.060   9.184  1.4843  2.6313 -0.5071
 7211SOL     OW33265   2.482   4.253   5.044  0.3050  0.1242  0.0923
 7211SOL    HW133266   2.523   4.237   4.959  1.2896 -0.3910  0.6596
 7211SOL    HW233267   2.397   4.208   5.044  1.0476 -1.2773 -2.0767
 7212SOL     OW33268   0.685   1.050  15.963 -0.0951 -0.2289 -0.1672
 7212SOL    HW133269   0.591   1.067  15.953  0.3655  2.6170  0.5055
 7212SOL    HW233270   0.692   0.958  15.938 -0.2387 -0.4858  0.7320
 7213SOL     OW33271   2.503   2.096   8.021  0.1335 -0.4590  0.0757
 7213SOL    HW133272   2.442   2.036   8.064 -1.0123  0.7750  0.1637
 7213SOL    HW233273   2.535   2.143   8.098 -2.4179  1.4111 -0.0349
 7214SOL     OW33274   4.695   0.718   2.131  0.1608  0.9633  0.1199
 7214SOL    HW133275   4.675   0.783   2.065 -1.1374  1.5406  1.0970
 7214SOL    HW233276   4.712   0.642   2.074  2.3905  0.9765  0.7569
 7215SOL     OW33277   1.556   3.377  17.263 -0.1863 -0.7348 -0.1393
 7215SOL    HW133278   1.625   3.324  17.303  0.4099  0.8608  0.9418
 7215SOL    HW233279   1.602   3.384  17.179 -0.1754  0.0759 -0.0670
 7216SOL     OW33280   2.687   3.955   5.949  0.0975  0.1108 -0.2579
 7216SOL    HW133281   2.611   3.977   5.895 -0.2535  0.6553  0.4625
 7216SOL    HW233282   2.751   3.940   5.879  0.1344 -1.3273  0.0803
 7217SOL     OW33283   1.798   4.523   4.360  0.0106 -0.0182  0.4413
 7217SOL    HW133284   1.811   4.548   4.269  0.3334 -0.3497  0.3998
 7217SOL    HW233285   1.789   4.428   4.357 -2.5074  0.1099  2.9419
 7218SOL     OW33286   4.005   1.412  13.495 -0.3196  0.4870  0.5945
 7218SOL    HW133287   3.921   1.455  13.477 -0.3341  0.3623  0.3691
 7218SOL    HW233288   4.073   1.477  13.475  0.8842 -1.0889 -0.3544
 7219SOL     OW33289   2.106   1.775   8.952  0.0130 -0.2141 -0.0363
 7219SOL    HW133290   2.110   1.681   8.970  1.9921 -0.5684 -2.3288
 7219SOL    HW233291   2.050   1.808   9.022  0.5986  0.8269 -0.0724
 7220SOL     OW33292   2.014   2.824  17.370  0.1482  0.4410 -0.0026
 7220SOL    HW133293   1.953   2.771  17.319 -0.8617  1.1720  0.4215
 7220SOL    HW233294   2.073   2.762  17.413  0.4377  1.1153  0.5800
 7221SOL     OW33295   3.044   1.745  16.086  0.3767  0.2762 -0.4896
 7221SOL    HW133296   3.067   1.669  16.139 -0.0515  0.1329 -0.5086
 7221SOL    HW233297   2.973   1.775  16.142  1.9409  0.5527  1.3143
 7222SOL     OW33298   2.932   4.260   0.610 -0.2558 -0.3521 -0.2799
 7222SOL    HW133299   2.984   4.180   0.605  0.0337 -0.2299  0.7891
 7222SOL    HW233300   2.876   4.243   0.685  1.2211  1.4190  1.2317
 7223SOL     OW33301   1.352   2.718   5.162 -0.8444 -0.2252 -0.2526
 7223SOL    HW133302   1.426   2.675   5.117 -1.3539 -1.9888  0.5785
 7223SOL    HW233303   1.383   2.711   5.252 -0.4132  1.4214 -0.2716
 7224SOL     OW33304   0.308   2.696   4.096 -0.1201  0.7215 -0.2284
 7224SOL    HW133305   0.312   2.789   4.116  1.5731  0.4284  0.7986
 7224SOL    HW233306   0.339   2.661   4.179 -1.5473  0.0624  0.0226
 7225SOL     OW33307   0.835   1.593   8.768 -0.2386 -0.5171  0.0659
 7225SOL    HW133308   0.921   1.584   8.726 -0.8453 -0.9419 -1.1103
 7225SOL    HW233309   0.778   1.557   8.700  1.5313  0.3067 -1.8760
 7226SOL     OW33310   2.465   2.133   3.312 -0.3924  0.0023  0.0052
 7226SOL    HW133311   2.473   2.188   3.389  1.0966  0.3190 -0.3866
 7226SOL    HW233312   2.556   2.141   3.284 -0.2291 -0.4000  0.4197
 7227SOL     OW33313   4.061   4.546  17.083  0.4159  0.0224 -0.1758
 7227SOL    HW133314   3.971   4.543  17.117  0.5367 -0.7036  0.0840
 7227SOL    HW233315   4.041   4.548  16.990  0.2976  0.0204 -0.1506
 7228SOL     OW33316   0.743   1.225   4.133  0.0854  0.1002  0.0971
 7228SOL    HW133317   0.762   1.158   4.067 -1.0896 -0.4344  0.3105
 7228SOL    HW233318   0.820   1.280   4.116 -0.8249  2.1529  2.5192
 7229SOL     OW33319   2.351   3.383   3.112 -0.1515 -0.1373 -0.0810
 7229SOL    HW133320   2.273   3.436   3.098  1.0352  1.3689 -0.9951
 7229SOL    HW233321   2.385   3.408   3.026 -0.0868  0.2974  0.0706
 7230SOL     OW33322   1.404   1.348   3.090  0.0764  0.1447 -0.8127
 7230SOL    HW133323   1.324   1.305   3.119  0.5107 -0.1687 -0.0482
 7230SOL    HW233324   1.460   1.340   3.168 -1.1507 -0.4281 -0.0002
 7231SOL     OW33325   4.485   1.069   0.100 -0.1046  0.1152  0.1549
 7231SOL    HW133326   4.396   1.045   0.122  0.0931 -0.2854  0.5095
 7231SOL    HW233327   4.488   1.164   0.110 -0.1191  0.2637 -1.2481
 7232SOL     OW33328   0.431   1.799  16.234 -0.1097 -0.1547 -0.0061
 7232SOL    HW133329   0.483   1.878  16.247 -0.3011 -0.4212  2.3073
 7232SOL    HW233330   0.484   1.728  16.269  0.4888 -0.4817 -1.5791
 7233SOL     OW33331   2.254   2.252   3.679 -0.1576 -0.4184 -0.4555
 7233SOL    HW133332   2.173   2.224   3.720 -0.2494 -0.0564 -0.3836
 7233SOL    HW233333   2.307   2.240   3.758 -1.3102 -0.0144  0.3829
 7234SOL     OW33334   2.375   3.069   5.246  0.3402  0.0235  0.1289
 7234SOL    HW133335   2.283   3.062   5.272  0.4668 -1.7084  0.0822
 7234SOL    HW233336   2.379   3.138   5.180 -2.9962 -1.7567 -1.9679
 7235SOL     OW33337   3.357   0.862   6.854 -0.0328  0.1114 -0.5722
 7235SOL    HW133338   3.451   0.847   6.863 -0.0480 -0.1833 -0.9126
 7235SOL    HW233339   3.323   0.786   6.902 -0.0323 -0.0834 -0.8786
 7236SOL     OW33340   1.603   3.947   3.607  0.0703 -0.3200  0.1367
 7236SOL    HW133341   1.528   3.936   3.665  1.2958 -1.0579  1.6007
 7236SOL    HW233342   1.627   4.039   3.618 -0.0138 -0.2002 -0.7096
 7237SOL     OW33343   0.018   3.111   4.082 -0.1497  0.0467 -0.0172
 7237SOL    HW133344   4.701   3.036   4.082 -1.2119  0.9184 -1.9867
 7237SOL    HW233345   0.103   3.078   4.052  0.5821  1.6100  0.3315
 7238SOL     OW33346   2.015   1.084   8.768 -0.2058  0.4694  0.1545
 7238SOL    HW133347   1.960   1.007   8.781 -0.2505  0.7302  1.5310
 7238SOL    HW233348   2.085   1.084   8.833  0.6859 -1.4630 -0.8142
 7239SOL     OW33349   2.216   1.951  14.402  0.0430 -0.3898  0.2283
 7239SOL    HW133350   2.145   2.003  14.364  1.7337  1.6331 -0.1406
 7239SOL    HW233351   2.270   1.939  14.324 -0.6304 -0.3805 -0.2388
 7240SOL     OW33352   2.864   2.386   2.672 -0.1903  0.1412 -0.0971
 7240SOL    HW133353   2.836   2.403   2.582 -1.9693  0.1764  0.4642
 7240SOL    HW233354   2.792   2.343   2.717  1.0436  0.3020  2.0145
 7241SOL     OW33355   2.123   0.372   1.880 -0.0751 -0.1421  0.4702
 7241SOL    HW133356   2.063   0.298   1.896  0.0562 -0.2974  0.2476
 7241SOL    HW233357   2.166   0.355   1.796  0.3938  0.1396  0.6590
 7242SOL     OW33358   3.380   1.461   8.712 -0.1749 -0.5303 -0.2748
 7242SOL    HW133359   3.475   1.449   8.717 -0.0230  1.0353  0.3095
 7242SOL    HW233360   3.366   1.544   8.757  2.6290 -0.6959  0.8727
 7243SOL     OW33361   2.554   3.991   8.320  0.3820 -0.1309  0.3002
 7243SOL    HW133362   2.567   3.962   8.230 -1.5849 -1.9693  0.5824
 7243SOL    HW233363   2.640   4.030   8.330  1.9936 -3.7310  0.5305
 7244SOL     OW33364   2.560   4.322  10.027 -0.4331  0.3359  0.0753
 7244SOL    HW133365   2.494   4.290  10.088  0.1926 -1.6916 -0.3168
 7244SOL    HW233366   2.549   4.417  10.025 -2.8431  0.0636  0.5102
 7245SOL     OW33367   0.641   3.877  12.374  0.0965 -0.2449 -0.9368
 7245SOL    HW133368   0.601   3.952  12.329 -0.4076  0.8379  1.3259
 7245SOL    HW233369   0.598   3.803  12.332 -2.2367  0.9095 -0.5786
 7246SOL     OW33370   0.238   1.300  13.986 -0.2372 -0.0789 -0.1801
 7246SOL    HW133371   0.200   1.368  13.931 -1.4578 -1.4876 -1.0764
 7246SOL    HW233372   0.261   1.351  14.064 -2.7744  0.3385  0.3237
 7247SOL     OW33373   3.360   2.753   1.314 -0.0199 -0.0823  0.5210
 7247SOL    HW133374   3.454   2.756   1.297 -0.1691 -0.0021 -0.2935
 7247SOL    HW233375   3.353   2.700   1.393  1.1514  0.4955  1.0030
 7248SOL     OW33376   1.564   4.186  10.095  0.6622  0.5982  0.7842
 7248SOL    HW133377   1.544   4.102  10.055  1.7118  1.0555 -0.6819
 7248SOL    HW233378   1.567   4.240  10.015 -0.3106  0.2850  0.5297
 7249SOL     OW33379   4.096   0.628   7.234  0.0836  0.4056  0.5292
 7249SOL    HW133380   4.066   0.715   7.208 -0.7744 -0.0828 -0.1138
 7249SOL    HW233381   4.112   0.590   7.148 -2.5261 -1.8180  1.0303
 7250SOL     OW33382   3.129   3.053  13.796  0.0850  0.3985 -0.1477
 7250SOL    HW133383   3.130   3.149  13.800  0.3042  0.4026 -0.2682
 7250SOL    HW233384   3.044   3.031  13.760  0.4414 -1.2224  0.0062
 7251SOL     OW33385   2.541   0.866   8.556 -0.0914  0.3636  0.3390
 7251SOL    HW133386   2.503   0.953   8.549  1.4595  1.0316  0.2694
 7251SOL    HW233387   2.464   0.809   8.550  1.2013 -0.9221 -3.6903
 7252SOL     OW33388   0.353   0.491   4.826  0.1809 -0.2743  0.0676
 7252SOL    HW133389   0.429   0.528   4.782  0.6726 -0.5601  0.6765
 7252SOL    HW233390   0.346   0.560   4.891  1.6053 -0.5124  0.4653
 7253SOL     OW33391   2.975   3.729   7.439 -0.1904 -0.0341  0.0641
 7253SOL    HW133392   3.026   3.657   7.402  0.4204  1.5574 -2.1925
 7253SOL    HW233393   3.042   3.766   7.496 -1.9350 -0.6808  2.5483
 7254SOL     OW33394   0.724   0.381   4.196 -0.2910 -0.3495  0.3773
 7254SOL    HW133395   0.729   0.451   4.130 -1.2006 -1.5027 -0.9335
 7254SOL    HW233396   0.771   0.314   4.145 -0.6773 -2.1189  2.3276
 7255SOL     OW33397   2.381   0.486   2.070  0.0597  0.2258 -0.2490
 7255SOL    HW133398   2.436   0.553   2.112  1.8223 -0.3425 -1.6685
 7255SOL    HW233399   2.290   0.505   2.093  0.0406 -1.8818  1.3951
 7256SOL     OW33400   3.422   3.440   1.930 -0.0121 -0.3867  0.4760
 7256SOL    HW133401   3.381   3.353   1.937  3.4890 -1.9936  1.2742
 7256SOL    HW233402   3.348   3.481   1.885 -0.3249  1.1523  2.4102
 7257SOL     OW33403   2.386   0.728   5.052 -0.0156  0.0203  0.3603
 7257SOL    HW133404   2.444   0.745   4.978 -1.6270 -0.4021 -0.9991
 7257SOL    HW233405   2.329   0.659   5.017  4.9191 -2.4948 -2.6642
 7258SOL     OW33406   3.122   0.987   8.923  0.3566 -0.0936 -0.6998
 7258SOL    HW133407   3.034   1.022   8.935  1.0203  2.4607 -3.2474
 7258SOL    HW233408   3.118   0.992   8.828 -2.9898 -1.1853 -0.6023
 7259SOL     OW33409   1.346   2.710   5.854  0.2476  0.4856 -0.3512
 7259SOL    HW133410   1.267   2.761   5.834  0.0422  0.0751 -0.5788
 7259SOL    HW233411   1.376   2.744   5.938 -1.3852 -3.4048  1.8064
 7260SOL     OW33412   0.543   2.088   2.212  0.3163 -0.6092  0.1357
 7260SOL    HW133413   0.531   1.993   2.216 -0.4982 -0.4872  0.6108
 7260SOL    HW233414   0.517   2.115   2.300 -1.3219 -3.5526  0.5708
 7261SOL     OW33415   4.547   1.345  12.182 -0.3292 -0.1360 -0.1389
 7261SOL    HW133416   4.591   1.409  12.238  0.3004 -0.6741 -0.0142
 7261SOL    HW233417   4.458   1.379  12.183 -0.6514 -0.9288 -2.4856
 7262SOL     OW33418   2.344   2.959  13.512  0.4361  0.4001  0.7711
 7262SOL    HW133419   2.277   3.019  13.544  1.8638  2.4815 -0.1304
 7262SOL    HW233420   2.358   2.919  13.597  2.1707  2.7286  1.5741
 7263SOL     OW33421   1.134   0.707   5.985  0.1759 -0.2744  0.2842
 7263SOL    HW133422   1.100   0.718   5.896  3.4944 -1.7939 -1.1641
 7263SOL    HW233423   1.052   0.706   6.035  1.6265 -0.8362  2.6675
 7264SOL     OW33424   0.178   2.276  11.530  0.0618  0.4411 -0.2771
 7264SOL    HW133425   0.131   2.193  11.526  0.8680  0.0240 -1.0686
 7264SOL    HW233426   0.223   2.265  11.615  2.0091 -4.1566 -1.9183
 7265SOL     OW33427   1.707   1.424   3.659 -0.3640  0.4869 -0.2617
 7265SOL    HW133428   1.709   1.333   3.627 -1.4389  0.3206  0.1595
 7265SOL    HW233429   1.793   1.448   3.626  1.4405 -0.1536  4.0239
 7266SOL     OW33430   2.585   0.295   5.224 -0.0093 -0.1051  0.1546
 7266SOL    HW133431   2.612   0.204   5.233  1.0278  0.0201 -1.5885
 7266SOL    HW233432   2.495   0.293   5.257 -0.8158 -0.1169 -2.0682
 7267SOL     OW33433   2.479   0.840   4.133  0.1341 -0.5393 -0.0591
 7267SOL    HW133434   2.454   0.898   4.206  0.9466  0.4183 -0.5434
 7267SOL    HW233435   2.435   0.888   4.063 -0.2570 -3.2413 -1.6420
 7268SOL     OW33436   3.118   2.481   2.667  0.7400  0.0885 -0.0988
 7268SOL    HW133437   3.124   2.546   2.737 -1.4601 -0.6463  0.7921
 7268SOL    HW233438   3.023   2.469   2.675  0.6673  0.4452 -0.4180
 7269SOL     OW33439   3.796   2.483   7.851  0.0726  0.4287 -0.0091
 7269SOL    HW133440   3.795   2.433   7.933 -1.5895  1.8944  0.8650
 7269SOL    HW233441   3.784   2.572   7.882 -0.3890  0.7099 -0.9771
 7270SOL     OW33442   0.047   4.146   7.786 -0.0167  0.1725 -0.1246
 7270SOL    HW133443   0.139   4.121   7.776 -0.2198 -1.6037  2.2954
 7270SOL    HW233444   0.009   4.062   7.812  1.9274 -0.0873  1.9182
 7271SOL     OW33445   1.289   3.342   6.923  0.1638 -0.0195 -0.3508
 7271SOL    HW133446   1.332   3.349   7.008 -1.1366  1.4253  0.1897
 7271SOL    HW233447   1.281   3.247   6.919  0.9328  0.0033 -2.4334
 7272SOL     OW33448   0.143   1.758  13.381 -0.1494 -0.3534  0.0340
 7272SOL    HW133449   0.073   1.774  13.318  1.6567  0.4051 -1.7894
 7272SOL    HW233450   0.212   1.759  13.314  0.0257  1.8189  0.2394
 7273SOL     OW33451   0.400   0.236  12.849 -0.9472 -0.3251 -0.3904
 7273SOL    HW133452   0.396   0.279  12.934  1.3093 -0.4231 -0.2431
 7273SOL    HW233453   0.349   0.299  12.799  2.2436  0.8145 -2.2455
 7274SOL     OW33454   0.953   3.970   1.937 -0.1470 -0.0823 -0.7457
 7274SOL    HW133455   0.967   3.994   2.028  0.6799  2.1681 -1.4792
 7274SOL    HW233456   0.886   4.035   1.917 -0.3457 -0.0181  0.1661
 7275SOL     OW33457   2.686   1.502   7.810  0.1156 -0.3486 -0.6401
 7275SOL    HW133458   2.768   1.521   7.766 -1.2532  2.0076 -2.1610
 7275SOL    HW233459   2.621   1.550   7.759  0.9897 -0.0221 -1.4493
 7276SOL     OW33460   2.797   3.983   3.457 -0.3112  0.1874  0.1615
 7276SOL    HW133461   2.795   3.981   3.552  2.0920 -2.5166  0.1696
 7276SOL    HW233462   2.803   3.892   3.429  0.2975  0.3362 -0.2016
 7277SOL     OW33463   0.793   3.128   8.611 -0.1169 -0.9801  0.5417
 7277SOL    HW133464   0.725   3.061   8.604  0.1449 -1.2943  1.0258
 7277SOL    HW233465   0.753   3.199   8.560  0.5908 -0.3076  0.9265
 7278SOL     OW33466   3.903   0.153   3.503  0.5665 -0.1216  0.2495
 7278SOL    HW133467   3.852   0.209   3.444 -0.0770 -0.5232  0.4127
 7278SOL    HW233468   3.885   0.067   3.464 -1.4347  1.0036 -1.3023
 7279SOL     OW33469   2.300   2.372   2.759 -0.2110  0.5162 -0.4293
 7279SOL    HW133470   2.252   2.447   2.795 -3.6551 -2.1576  0.4914
 7279SOL    HW233471   2.268   2.367   2.669  1.2228 -0.8762 -0.8756
 7280SOL     OW33472   1.949   1.435   0.753  0.5123  0.2161 -0.1424
 7280SOL    HW133473   2.025   1.378   0.760 -0.5006 -1.2373 -1.1316
 7280SOL    HW233474   1.879   1.380   0.788  0.2298  0.3507 -0.4927
 7281SOL     OW33475   3.690   0.802   4.785 -0.1829  0.4082 -0.1269
 7281SOL    HW133476   3.758   0.798   4.852 -0.9158  0.8745  0.6434
 7281SOL    HW233477   3.744   0.783   4.708 -0.5046 -3.9206  0.7151
 7282SOL     OW33478   3.832   1.922   1.319  0.3835 -0.1317  0.3749
 7282SOL    HW133479   3.822   1.927   1.414 -2.0323 -1.1134  0.1752
 7282SOL    HW233480   3.745   1.912   1.282  0.1614  1.3847  0.5151
 7283SOL     OW33481   0.206   0.556   8.562 -0.1812  0.0764  0.2076
 7283SOL    HW133482   0.112   0.555   8.578 -0.2333  0.0870 -0.0840
 7283SOL    HW233483   0.209   0.572   8.467 -1.2048 -1.3994 -0.0719
 7284SOL     OW33484   2.333   3.666   7.987 -0.1261 -0.9326  0.1880
 7284SOL    HW133485   2.412   3.613   8.000  0.7735  0.1694 -0.7927
 7284SOL    HW233486   2.272   3.607   7.943  1.5362 -2.4581 -0.0486
 7285SOL     OW33487   3.873   1.717   0.321 -0.1126  0.0466  0.1266
 7285SOL    HW133488   3.874   1.666   0.402  0.8358  1.6772  1.1570
 7285SOL    HW233489   3.963   1.747   0.329 -0.2244  1.0882 -2.5087
 7286SOL     OW33490   4.441   3.342   6.528  0.7254  0.3321 -0.0746
 7286SOL    HW133491   4.459   3.428   6.565 -2.7389  0.5608  1.0910
 7286SOL    HW233492   4.356   3.326   6.571  0.1465  0.4850 -1.1635
 7287SOL     OW33493   3.994   3.005   4.823  0.0458 -0.3803 -0.2921
 7287SOL    HW133494   4.075   3.023   4.871  1.9738 -1.1442 -3.3051
 7287SOL    HW233495   3.932   3.037   4.889  0.0831 -1.0426  0.0617
 7288SOL     OW33496   3.243   3.272   0.069  0.5237  0.4193  0.2639
 7288SOL    HW133497   3.197   3.225   0.139  0.3665  2.2676  1.4175
 7288SOL    HW233498   3.318   3.213   0.058 -0.4263 -0.6937 -0.2425
 7289SOL     OW33499   0.944   4.698  15.159 -0.3869 -0.5131  0.0121
 7289SOL    HW133500   1.005   4.625  15.170  0.0996 -0.3839 -1.7791
 7289SOL    HW233501   0.874   4.673  15.218 -1.0064 -0.6709 -0.7943
 7290SOL     OW33502   0.684   4.563   7.107  0.2618 -0.1212 -0.3406
 7290SOL    HW133503   0.754   4.540   7.168 -2.4028 -1.4543  2.2351
 7290SOL    HW233504   0.645   4.645   7.140 -2.4453 -1.8637  0.7952
 7291SOL     OW33505   4.541   1.754  10.608 -0.4052  0.2049  0.2558
 7291SOL    HW133506   4.583   1.693  10.548 -0.8083  1.2515 -1.1051
 7291SOL    HW233507   4.610   1.791  10.664  0.6661  1.5170 -1.9156
 7292SOL     OW33508   0.079   4.360   8.967  0.1412  0.0541 -0.0447
 7292SOL    HW133509   0.022   4.431   8.995 -0.4642 -0.8452  1.0012
 7292SOL    HW233510   0.109   4.344   9.056  2.6344  1.6195 -0.6090
 7293SOL     OW33511   4.281   0.276   1.024  0.4744 -0.0152 -0.1906
 7293SOL    HW133512   4.237   0.359   1.044 -0.7582 -0.7358  0.0620
 7293SOL    HW233513   4.214   0.209   1.036 -0.1658  0.6295 -0.1639
 7294SOL     OW33514   3.993   0.363   7.294  0.3147  0.0807  0.3661
 7294SOL    HW133515   3.924   0.356   7.228 -1.8995  2.2109  2.4515
 7294SOL    HW233516   4.018   0.451   7.265 -0.3690 -0.1023 -0.7659
 7295SOL     OW33517   1.160   0.820   1.800 -0.4228 -0.4163  0.1018
 7295SOL    HW133518   1.168   0.914   1.815  0.5523 -0.2862 -1.1941
 7295SOL    HW233519   1.071   0.800   1.830 -0.7095  0.2737 -0.2986
 7296SOL     OW33520   1.259   3.519   4.306  0.5543  0.0554 -0.4166
 7296SOL    HW133521   1.314   3.478   4.373 -0.0261  1.4113  0.9185
 7296SOL    HW233522   1.328   3.579   4.277 -0.5581  3.1208  3.1922
 7297SOL     OW33523   1.475   3.578   8.656  0.2329  0.7259 -0.1140
 7297SOL    HW133524   1.482   3.492   8.697  0.2820  1.6973  1.9578
 7297SOL    HW233525   1.458   3.545   8.568  0.9922  2.6475 -0.9790
 7298SOL     OW33526   3.470   2.794  15.841 -0.5287 -0.3523  0.4796
 7298SOL    HW133527   3.463   2.778  15.747 -0.6537  0.8706  0.2796
 7298SOL    HW233528   3.529   2.870  15.838 -1.0933  0.1508  2.1229
 7299SOL     OW33529   0.223   3.380   3.049 -0.2336  0.1225  0.2436
 7299SOL    HW133530   0.291   3.335   3.000  1.5786  1.2675  1.7063
 7299SOL    HW233531   0.215   3.462   2.999  1.8413  1.0082  1.3820
 7300SOL     OW33532   0.670   1.486  16.176 -0.2646  0.0339 -0.2872
 7300SOL    HW133533   0.657   1.541  16.099 -0.8728  1.7604  1.0471
 7300SOL    HW233534   0.588   1.446  16.206  1.3089 -1.7306  1.6826
 7301SOL     OW33535   3.398   4.679   7.634 -0.3369  1.0155  0.0614
 7301SOL    HW133536   3.432   4.657   7.548  0.5891 -0.5945  0.8517
 7301SOL    HW233537   3.449   4.616   7.684 -0.9985 -0.3699 -1.0173
 7302SOL     OW33538   4.527   1.816   6.240  0.2730  0.4670  0.0400
 7302SOL    HW133539   4.571   1.855   6.164 -1.6713 -0.0883 -1.3774
 7302SOL    HW233540   4.543   1.725   6.218 -1.4648  0.6203 -1.9095
 7303SOL     OW33541   2.911   1.070   2.113 -0.3427 -0.1474 -0.2753
 7303SOL    HW133542   2.930   1.056   2.021 -1.2712  0.3352 -0.5411
 7303SOL    HW233543   2.994   1.107   2.142 -0.1379 -1.3082  0.6220
 7304SOL     OW33544   0.350   4.070   3.161 -0.4079  0.0055 -0.2754
 7304SOL    HW133545   0.317   4.070   3.251 -0.3701  0.6460 -0.2665
 7304SOL    HW233546   0.272   4.050   3.109  0.2131  0.2248 -1.2842
 7305SOL     OW33547   0.165   2.505   2.073  0.0429 -0.4095 -0.3916
 7305SOL    HW133548   0.095   2.461   2.023  1.7125 -1.6286 -1.6697
 7305SOL    HW233549   0.222   2.529   2.000  0.1389  1.4677  0.3011
 7306SOL     OW33550   0.621   0.715  11.588 -0.3745 -0.2921  0.5570
 7306SOL    HW133551   0.715   0.719  11.602  0.0629  1.6377 -2.9426
 7306SOL    HW233552   0.604   0.639  11.533  0.6965  0.1468 -0.3821
 7307SOL     OW33553   3.764   0.702   1.200 -0.6203  0.2935  0.2074
 7307SOL    HW133554   3.737   0.640   1.133  0.2469  1.7879 -1.5163
 7307SOL    HW233555   3.838   0.647   1.228 -0.4262  1.2246  1.5130
 7308SOL     OW33556   2.765   3.333   2.948  0.2449  0.1741  0.0724
 7308SOL    HW133557   2.681   3.354   2.907  0.7496 -0.1451 -1.1099
 7308SOL    HW233558   2.816   3.414   2.934 -0.7935  0.6314 -1.0814
 7309SOL     OW33559   0.841   1.043   5.490  0.1458  0.3468 -0.2563
 7309SOL    HW133560   0.897   1.119   5.501  1.5239 -0.6825 -0.2515
 7309SOL    HW233561   0.814   1.056   5.399  2.1503  2.0014 -0.5834
 7310SOL     OW33562   2.572   4.708   1.627  0.7032  0.4731  0.0061
 7310SOL    HW133563   2.535   4.656   1.556  0.3812 -0.1220  0.6037
 7310SOL    HW233564   2.625   4.649   1.682 -2.3964 -0.5733  1.8491
 7311SOL     OW33565   1.202   1.464  12.052 -0.6255 -0.9328  0.5596
 7311SOL    HW133566   1.180   1.433  11.965 -0.1442 -0.1995  0.1720
 7311SOL    HW233567   1.296   1.451  12.060 -0.6297 -0.6292  1.1463
 7312SOL     OW33568   0.742   0.327   4.568 -0.1934 -0.3086  0.0748
 7312SOL    HW133569   0.733   0.421   4.550 -1.0427 -0.4043 -0.0070
 7312SOL    HW233570   0.678   0.288   4.509 -2.1079  0.4327  1.6638
 7313SOL     OW33571   3.351   1.321   2.942 -0.1096  0.1454  0.6281
 7313SOL    HW133572   3.410   1.310   2.867 -0.7327  1.0115 -0.0009
 7313SOL    HW233573   3.377   1.405   2.980  0.1549  1.7010 -2.9534
 7314SOL     OW33574   2.706   3.890   2.171  0.3577  0.4198  0.0746
 7314SOL    HW133575   2.657   3.876   2.089  0.4499  2.9990 -0.4298
 7314SOL    HW233576   2.787   3.929   2.137  0.0563 -1.4406 -2.7948
 7315SOL     OW33577   3.694   2.881   3.090 -0.4887  0.8642  0.5848
 7315SOL    HW133578   3.659   2.797   3.120  0.0572  0.0218 -1.1238
 7315SOL    HW233579   3.657   2.890   3.003  0.5121 -2.4927 -0.1917
 7316SOL     OW33580   4.525   3.321  10.227 -0.0247  0.0501 -0.4412
 7316SOL    HW133581   4.431   3.312  10.208 -0.3950  0.8663  1.0254
 7316SOL    HW233582   4.547   3.376  10.152 -0.9032  1.8655  0.6286
 7317SOL     OW33583   4.212   0.465  14.869  0.2675  0.2362  0.8963
 7317SOL    HW133584   4.185   0.549  14.906 -0.6159  0.5574 -0.4908
 7317SOL    HW233585   4.228   0.494  14.779  1.1972 -0.9112  0.6859
 7318SOL     OW33586   0.187   3.642   6.919  0.9792 -0.2350 -0.2082
 7318SOL    HW133587   0.225   3.692   6.992  0.9975 -0.4840 -0.0473
 7318SOL    HW233588   0.136   3.579   6.970 -0.4484 -0.1142 -1.5019
 7319SOL     OW33589   2.656   1.875   3.081  0.4721 -0.4645 -0.0720
 7319SOL    HW133590   2.709   1.928   3.142 -0.9120  1.2037 -0.3140
 7319SOL    HW233591   2.699   1.897   2.998 -0.8469  2.3231 -0.0211
 7320SOL     OW33592   3.416   1.535  14.661 -0.1974 -0.3965  0.2873
 7320SOL    HW133593   3.497   1.490  14.684  1.0697  1.9284  0.3841
 7320SOL    HW233594   3.452   1.577  14.583 -0.4466 -1.0304 -0.1756
 7321SOL     OW33595   4.520   0.181   7.990  0.5514  0.0242  0.4619
 7321SOL    HW133596   4.568   0.112   7.945  1.5785  1.7649 -1.0979
 7321SOL    HW233597   4.478   0.213   7.910  0.4366  0.4594  0.6953
 7322SOL     OW33598   1.679   3.800   0.621 -0.2438 -0.2426 -0.2722
 7322SOL    HW133599   1.760   3.826   0.578 -1.6432  0.0652 -2.7316
 7322SOL    HW233600   1.609   3.830   0.563  1.7337  1.1039 -1.9734
 7323SOL     OW33601   1.694   1.316   4.212 -0.0183 -0.5094 -0.7397
 7323SOL    HW133602   1.603   1.290   4.225  0.0328 -0.2596  0.1268
 7323SOL    HW233603   1.728   1.237   4.170 -0.4427 -0.4568 -1.1826
 7324SOL     OW33604   1.686   0.228   6.668  0.2035 -0.1469 -0.2215
 7324SOL    HW133605   1.670   0.143   6.626  2.3662  0.4500 -2.2381
 7324SOL    HW233606   1.706   0.279   6.590 -0.8928  1.2958  0.4313
 7325SOL     OW33607   1.480   3.773   9.281 -0.4696 -0.4619 -0.0994
 7325SOL    HW133608   1.443   3.836   9.219  0.9162 -0.1409 -0.5969
 7325SOL    HW233609   1.424   3.697   9.293 -1.3947 -0.2142 -2.9957
 7326SOL     OW33610   1.006   2.517  12.409 -0.8754  0.0087 -0.0106
 7326SOL    HW133611   1.090   2.558  12.387 -1.1271  0.7227  0.3804
 7326SOL    HW233612   0.994   2.465  12.329 -1.0009 -0.1876  0.1361
 7327SOL     OW33613   1.382   4.084   6.062 -0.5051  0.1980  0.1319
 7327SOL    HW133614   1.314   4.069   5.996  1.0342  0.1744 -1.4450
 7327SOL    HW233615   1.390   3.992   6.089 -0.8044  0.2959  0.5608
 7328SOL     OW33616   1.856   0.844   5.666 -0.2645  0.0218 -0.1712
 7328SOL    HW133617   1.787   0.869   5.604 -0.1438  1.2928  0.2040
 7328SOL    HW233618   1.930   0.871   5.611 -1.3916  1.1404 -1.1671
 7329SOL     OW33619   1.813   3.082   5.705 -0.2086  0.7789  0.1086
 7329SOL    HW133620   1.846   3.000   5.740 -1.1021  0.5998  0.5204
 7329SOL    HW233621   1.876   3.109   5.638 -2.0782 -1.5809 -2.5865
 7330SOL     OW33622   3.031   3.177   6.487  0.5213 -0.3132 -0.3666
 7330SOL    HW133623   3.070   3.175   6.399  1.1793  0.3607 -0.0868
 7330SOL    HW233624   3.037   3.267   6.519  1.4077 -0.2494 -0.7020
 7331SOL     OW33625   0.449   2.052  14.883  0.0414 -0.0379  0.2505
 7331SOL    HW133626   0.439   2.091  14.797 -1.2685  0.9142  0.8279
 7331SOL    HW233627   0.428   2.120  14.947 -1.4131 -0.0883 -0.1703
 7332SOL     OW33628   0.252   2.182  17.062 -0.4081 -0.1028 -0.4758
 7332SOL    HW133629   0.175   2.178  17.006 -1.3510 -2.8181  1.0423
 7332SOL    HW233630   0.309   2.233  17.004 -0.4548 -1.0498 -1.3579
 7333SOL     OW33631   1.804   3.610   4.837 -0.1003 -0.3018  0.4012
 7333SOL    HW133632   1.868   3.578   4.900  0.0993  0.7573  0.7425
 7333SOL    HW233633   1.762   3.679   4.890 -1.2771 -0.9240  0.2751
 7334SOL     OW33634   1.218   4.424   9.204 -0.4315  0.1737 -0.0785
 7334SOL    HW133635   1.286   4.385   9.150 -0.8360 -2.3534  1.2044
 7334SOL    HW233636   1.257   4.493   9.258 -0.8741  0.8060 -0.5779
 7335SOL     OW33637   2.670   3.945  16.768 -0.1688 -0.1079 -0.5627
 7335SOL    HW133638   2.589   3.895  16.759  0.4068 -0.9161 -1.4018
 7335SOL    HW233639   2.646   4.007  16.837  1.3508 -0.7266  0.5292
 7336SOL     OW33640   1.966   0.451   6.712  0.3300  0.6122 -0.4111
 7336SOL    HW133641   1.902   0.387   6.680  1.3347 -0.4134 -0.3504
 7336SOL    HW233642   2.001   0.401   6.786 -0.7218  0.6413  0.1073
 7337SOL     OW33643   2.473   2.885   9.805 -0.1394 -0.1081 -0.2901
 7337SOL    HW133644   2.524   2.893   9.724  0.4588  0.6376  0.1601
 7337SOL    HW233645   2.385   2.910   9.778  0.1418 -0.7161 -1.7353
 7338SOL     OW33646   2.230   1.761   9.315 -0.2232 -0.0984  0.1125
 7338SOL    HW133647   2.257   1.712   9.238  0.1858 -1.3207  1.0381
 7338SOL    HW233648   2.220   1.851   9.285  2.3208 -0.2410 -1.1467
 7339SOL     OW33649   3.580   3.622   3.610  0.8065  0.1842  0.9912
 7339SOL    HW133650   3.662   3.599   3.566  0.0560 -1.0692  0.2240
 7339SOL    HW233651   3.598   3.712   3.638  1.1685  0.7202 -0.9791
 7340SOL     OW33652   3.562   0.790  12.694 -0.1220 -0.1025 -0.1860
 7340SOL    HW133653   3.597   0.875  12.668 -0.4536 -0.6468 -2.4191
 7340SOL    HW233654   3.564   0.737  12.615  1.9863 -1.5495  0.8152
 7341SOL     OW33655   1.039   2.600   2.609  0.3881  0.2450 -0.1864
 7341SOL    HW133656   1.046   2.610   2.514  0.8828 -0.7137 -0.2454
 7341SOL    HW233657   0.959   2.649   2.626 -0.8631 -1.7849 -0.2242
 7342SOL     OW33658   0.059   3.400   5.319  0.4844 -0.9304 -0.2713
 7342SOL    HW133659   0.007   3.364   5.247  0.9724 -0.0098 -1.0860
 7342SOL    HW233660   0.045   3.336   5.389 -2.2174 -0.4319 -0.3531
 7343SOL     OW33661   0.775   0.350   7.892 -0.3598  0.2035  0.6234
 7343SOL    HW133662   0.835   0.343   7.817 -1.2967  0.9515 -0.1972
 7343SOL    HW233663   0.761   0.444   7.882  1.9972  0.5348  0.4390
 7344SOL     OW33664   3.997   3.520  17.598 -0.3439 -0.2873  0.1380
 7344SOL    HW133665   4.016   3.499  17.506 -0.6040  2.5343 -0.5476
 7344SOL    HW233666   3.941   3.594  17.575  0.2993  0.0334 -0.4027
 7345SOL     OW33667   3.585   3.189   0.006  0.0086  0.0668  0.4904
 7345SOL    HW133668   3.658   3.181  17.716  0.4950 -0.0807  1.0855
 7345SOL    HW233669   3.623   3.246   0.073 -0.3220  0.3312  0.4574
 7346SOL     OW33670   2.522   2.629   6.691  0.2542 -0.1332  0.0309
 7346SOL    HW133671   2.499   2.678   6.613 -0.7911  0.6420  0.8214
 7346SOL    HW233672   2.607   2.590   6.672  0.8023  0.2973  1.5660
 7347SOL     OW33673   2.599   0.925  16.963 -0.6519 -0.1865  0.1485
 7347SOL    HW133674   2.537   0.976  17.016  0.0551 -0.1275  0.9312
 7347SOL    HW233675   2.632   0.868  17.033 -1.7144 -0.0736  0.7447
 7348SOL     OW33676   4.691   3.734  11.565 -0.4201 -0.6954 -0.1504
 7348SOL    HW133677   4.708   3.670  11.634  3.9626 -1.0755 -1.5940
 7348SOL    HW233678   0.006   3.802  11.597  0.9113 -2.2040  0.6115
 7349SOL     OW33679   1.357   3.470   2.294 -0.3364 -0.3431  0.2313
 7349SOL    HW133680   1.441   3.439   2.261 -2.7984 -3.2707 -3.2345
 7349SOL    HW233681   1.365   3.565   2.284 -2.9286 -0.2564 -1.1233
 7350SOL     OW33682   3.387   1.494   0.573  0.9502  0.4688 -0.2097
 7350SOL    HW133683   3.463   1.435   0.579  1.3332  1.3128  3.4016
 7350SOL    HW233684   3.332   1.448   0.636 -0.6049  0.4427 -1.5744
 7351SOL     OW33685   0.231   2.469   0.322  0.7269 -0.4175  0.1769
 7351SOL    HW133686   0.173   2.465   0.246 -0.0619 -0.8871  0.8002
 7351SOL    HW233687   0.314   2.473   0.276  1.6461  2.4382  2.0887
 7352SOL     OW33688   4.551   2.380  17.315 -0.2469 -0.3690  0.3763
 7352SOL    HW133689   4.621   2.318  17.337 -0.3528 -0.7897 -0.4843
 7352SOL    HW233690   4.469   2.339  17.342  0.1819 -0.7004  1.1860
 7353SOL     OW33691   2.124   3.974   7.565  0.6036 -0.3158  0.4515
 7353SOL    HW133692   2.122   3.914   7.640 -0.0022 -0.0840  0.6208
 7353SOL    HW233693   2.205   3.946   7.522  0.0735 -0.1189 -0.6758
 7354SOL     OW33694   4.662   1.705  13.235 -0.5526  0.0685  0.3217
 7354SOL    HW133695   4.725   1.646  13.194 -1.3522 -1.1033  0.7753
 7354SOL    HW233696   4.579   1.663  13.213  0.4864 -2.2386  0.8833
 7355SOL     OW33697   1.512   3.603  15.932 -0.4338 -0.0483  0.0675
 7355SOL    HW133698   1.425   3.639  15.952 -1.2447 -2.2640  0.4339
 7355SOL    HW233699   1.557   3.620  16.015 -0.4651  0.7422 -0.0712
 7356SOL     OW33700   3.660   0.933   1.291  0.3419  0.3541 -0.1840
 7356SOL    HW133701   3.684   0.856   1.239  0.5707  2.7259 -3.6081
 7356SOL    HW233702   3.694   0.909   1.377 -0.4571  0.4167  0.1509
 7357SOL     OW33703   2.713   0.837   8.789  0.0006  0.2151 -0.0192
 7357SOL    HW133704   2.651   0.897   8.748  0.9105  0.4143 -1.1068
 7357SOL    HW233705   2.658   0.776   8.836 -0.4021 -1.1816 -2.2970
 7358SOL     OW33706   1.427   1.152   1.923  0.0635 -0.8964 -0.3790
 7358SOL    HW133707   1.433   1.064   1.962 -0.2194 -0.4624  0.6432
 7358SOL    HW233708   1.516   1.165   1.890  0.5893 -1.7632  0.6932
 7359SOL     OW33709   1.431   3.466   3.609  0.5724  0.2562 -0.2347
 7359SOL    HW133710   1.395   3.391   3.560  2.4582 -0.3287 -0.7371
 7359SOL    HW233711   1.526   3.451   3.607 -0.0020 -3.4424  0.9172
 7360SOL     OW33712   0.723   2.781   7.286  0.6005 -0.3358  0.1220
 7360SOL    HW133713   0.813   2.813   7.276  0.4621 -0.3205 -1.0196
 7360SOL    HW233714   0.707   2.768   7.193  1.0616  0.3299 -0.0533
 7361SOL     OW33715   0.138   0.695   2.720 -0.2039  0.2694 -0.0709
 7361SOL    HW133716   0.153   0.699   2.626 -2.7872 -0.1664 -0.5273
 7361SOL    HW233717   0.074   0.765   2.738  0.8881  1.3873 -0.6011
 7362SOL     OW33718   3.462   4.496   4.561  0.0595  0.7744  0.0899
 7362SOL    HW133719   3.462   4.407   4.598 -0.5802  0.9272  0.4525
 7362SOL    HW233720   3.503   4.542   4.634  0.0892 -0.4161  0.8344
 7363SOL     OW33721   3.876   2.814   3.363 -0.1598  0.1750  0.1127
 7363SOL    HW133722   3.818   2.850   3.296 -1.2005 -1.7970 -0.0558
 7363SOL    HW233723   3.957   2.835   3.316  0.1238  1.8148  1.3527
 7364SOL     OW33724   1.324   0.979   0.997  0.5459 -0.6265 -0.6110
 7364SOL    HW133725   1.405   1.020   0.968  0.7408  1.0306  2.2570
 7364SOL    HW233726   1.296   1.025   1.076 -0.2645  0.2451 -1.4136
 7365SOL     OW33727   3.775   0.365   0.696  0.2969 -0.1197  0.8809
 7365SOL    HW133728   3.850   0.343   0.750  1.5689 -0.6087 -1.0670
 7365SOL    HW233729   3.772   0.303   0.622  1.2895 -0.4152  1.0881
 7366SOL     OW33730   3.945   1.051   7.824 -0.0079 -0.0504 -0.3053
 7366SOL    HW133731   3.902   1.090   7.900  5.0180 -0.2574  2.6351
 7366SOL    HW233732   3.865   1.021   7.781 -0.0299 -0.9907  0.3982
 7367SOL     OW33733   2.892   4.225  12.836  0.1531 -0.1169  0.5874
 7367SOL    HW133734   2.976   4.222  12.790  0.0170 -1.9804  0.4536
 7367SOL    HW233735   2.893   4.138  12.878 -0.3169 -0.8016 -0.8379
 7368SOL     OW33736   1.440   1.433   5.664  0.2964  0.1315 -0.1335
 7368SOL    HW133737   1.479   1.418   5.578 -0.3179 -1.5963 -0.1079
 7368SOL    HW233738   1.437   1.350   5.712  1.6602  0.5455  0.6802
 7369SOL     OW33739   0.710   0.000   9.471 -0.2713 -0.1883  0.1852
 7369SOL    HW133740   0.739   0.024   9.559 -0.9701  0.2625  0.3004
 7369SOL    HW233741   0.629   0.051   9.465 -0.8718 -1.2506 -0.6071
 7370SOL     OW33742   4.072   1.375   6.460  0.0861  0.5556  0.5998
 7370SOL    HW133743   4.135   1.303   6.462  0.1103  0.5071 -1.9010
 7370SOL    HW233744   4.101   1.418   6.541  3.4030 -0.2952 -0.1091
 7371SOL     OW33745   2.297   3.147   4.603  0.0524  0.0212 -0.5475
 7371SOL    HW133746   2.226   3.163   4.666  0.1385 -0.3619 -0.3529
 7371SOL    HW233747   2.340   3.072   4.644 -2.0138 -0.8180  0.0960
 7372SOL     OW33748   2.151   2.859   3.775 -0.3814 -0.0197  0.2316
 7372SOL    HW133749   2.220   2.825   3.719  0.7724  1.3023  0.8411
 7372SOL    HW233750   2.083   2.794   3.757 -1.0797  0.8163 -0.1453
 7373SOL     OW33751   4.024   4.355   2.882  0.2587 -0.0455 -0.5974
 7373SOL    HW133752   3.929   4.372   2.880  0.4599  1.2453  0.1099
 7373SOL    HW233753   4.020   4.280   2.940  0.4182  0.9679  0.7363
 7374SOL     OW33754   4.606   3.280   8.730 -0.6189 -0.1277  0.9128
 7374SOL    HW133755   4.634   3.322   8.811  0.0217 -2.3379  1.8249
 7374SOL    HW233756   4.611   3.352   8.666  1.7618 -0.9237  0.2093
 7375SOL     OW33757   1.264   2.336   1.820  0.4593  0.1304  0.4818
 7375SOL    HW133758   1.230   2.402   1.881 -1.4807 -0.9938  0.6325
 7375SOL    HW233759   1.180   2.312   1.781  0.6510  2.1013 -1.1431
 7376SOL     OW33760   0.776   3.502   6.482 -0.2105 -0.1467  0.7091
 7376SOL    HW133761   0.691   3.504   6.438 -0.7607  1.8296  1.8778
 7376SOL    HW233762   0.782   3.595   6.504 -0.6134  0.0387  0.0290
 7377SOL     OW33763   2.549   3.614   3.387  0.5672 -0.2819 -0.3263
 7377SOL    HW133764   2.508   3.667   3.456 -0.3317 -0.3439 -0.8065
 7377SOL    HW233765   2.538   3.662   3.304 -0.2230  0.7027  0.3406
 7378SOL     OW33766   0.687   0.934   5.123 -0.1923 -0.1443 -0.3454
 7378SOL    HW133767   0.703   1.025   5.149 -0.1831 -0.6860  1.5169
 7378SOL    HW233768   0.611   0.907   5.175 -0.2176 -1.2027 -0.9297
 7379SOL     OW33769   2.507   3.563  15.388  0.2798  0.8913  0.3955
 7379SOL    HW133770   2.414   3.538  15.392  0.7810 -0.6300  2.7307
 7379SOL    HW233771   2.528   3.600  15.474 -3.8247 -0.0320  1.8148
 7380SOL     OW33772   0.624   4.345   9.285 -0.2224 -0.5747  0.2082
 7380SOL    HW133773   0.546   4.388   9.251  0.0854  0.4851  0.8532
 7380SOL    HW233774   0.609   4.269   9.229 -1.6405  0.8730 -1.3584
 7381SOL     OW33775   3.413   4.574   8.002  0.0703  0.0106  0.0620
 7381SOL    HW133776   3.484   4.600   8.060 -0.5169 -1.1974  1.3226
 7381SOL    HW233777   3.465   4.541   7.929 -0.5560 -0.5817 -0.1181
 7382SOL     OW33778   2.467   1.154   7.869 -0.0295 -0.1385  0.4757
 7382SOL    HW133779   2.430   1.117   7.788  2.6623 -0.1110 -0.7564
 7382SOL    HW233780   2.450   1.081   7.928  0.1588 -1.0593 -0.6112
 7383SOL     OW33781   1.100   1.157  11.949  0.3666 -0.0084  0.4518
 7383SOL    HW133782   1.085   1.066  11.926 -1.4535  0.0016  1.6764
 7383SOL    HW233783   1.194   1.165  11.934 -0.2488  0.7446 -2.8823
 7384SOL     OW33784   2.124   4.277   5.248 -0.9225 -0.6801  0.1491
 7384SOL    HW133785   2.045   4.235   5.281  0.2019 -1.3466  2.0347
 7384SOL    HW233786   2.089   4.315   5.168  2.0058 -2.2623 -1.8905
 7385SOL     OW33787   2.371   1.722  15.279 -0.5029  0.0313 -0.5247
 7385SOL    HW133788   2.434   1.652  15.293  1.3117  1.4651 -1.4546
 7385SOL    HW233789   2.295   1.669  15.254  0.0650 -2.1938  2.5923
 7386SOL     OW33790   0.365   0.237   2.754  0.3262  0.8125 -0.1885
 7386SOL    HW133791   0.458   0.237   2.731  0.4751 -0.0312  0.4036
 7386SOL    HW233792   0.332   0.160   2.708  1.3352 -0.4897  1.2521
 7387SOL     OW33793   3.390   0.162   0.684  0.3536  0.1625  0.1783
 7387SOL    HW133794   3.405   0.070   0.707  2.0286  0.0118 -1.5049
 7387SOL    HW233795   3.324   0.152   0.615 -0.6978 -1.7151  1.4546
 7388SOL     OW33796   2.782   3.398  11.801  0.0974 -0.7539  0.4234
 7388SOL    HW133797   2.844   3.419  11.871  0.4823  1.8479 -0.7216
 7388SOL    HW233798   2.776   3.303  11.787  0.9928 -0.6865 -0.3835
 7389SOL     OW33799   1.478   1.541   2.901 -0.4707  0.6098 -0.0473
 7389SOL    HW133800   1.555   1.579   2.944  0.0708  1.9632 -2.1756
 7389SOL    HW233801   1.464   1.469   2.962 -1.1558  1.5558  0.9123
 7390SOL     OW33802   0.460   2.472  17.321 -0.0747  0.0769 -0.0349
 7390SOL    HW133803   0.375   2.473  17.278  1.0041  0.6957 -2.1472
 7390SOL    HW233804   0.484   2.564  17.317 -0.2352  0.1837  1.3482
 7391SOL     OW33805   2.630   1.677   2.707  0.3859 -0.4809 -0.2368
 7391SOL    HW133806   2.545   1.636   2.687  0.0585 -1.0289  2.2268
 7391SOL    HW233807   2.610   1.674   2.801  1.2066 -1.5620 -0.0932
 7392SOL     OW33808   0.774   0.092   2.162  0.1915  0.2983 -0.1223
 7392SOL    HW133809   0.851   0.060   2.116  0.7066 -0.1928  1.0761
 7392SOL    HW233810   0.713   0.024   2.135  1.2954  0.0761 -2.0505
 7393SOL     OW33811   3.871   4.554  15.704 -0.2544 -0.9966  0.2011
 7393SOL    HW133812   3.833   4.513  15.627  2.9144 -0.2935 -1.7377
 7393SOL    HW233813   3.917   4.626  15.661  1.4431 -0.9944  1.9787
 7394SOL     OW33814   2.069   2.950  13.851 -0.4474  0.6437  0.8427
 7394SOL    HW133815   2.023   2.972  13.769  1.3929  1.2179 -0.0480
 7394SOL    HW233816   2.161   2.944  13.825 -0.5131  1.3858  0.4344
 7395SOL     OW33817   1.349   0.358   5.774 -0.1470 -0.4684 -0.7933
 7395SOL    HW133818   1.372   0.353   5.867 -0.0270 -2.0204 -0.9175
 7395SOL    HW233819   1.385   0.444   5.753 -0.6425 -0.0425  0.1045
 7396SOL     OW33820   3.633   0.555   7.056 -0.2996  0.0929  0.0032
 7396SOL    HW133821   3.582   0.482   7.021  1.3748 -1.1800  0.2534
 7396SOL    HW233822   3.622   0.536   7.149 -1.6990  2.2792  0.2855
 7397SOL     OW33823   1.342   3.568   5.243 -0.3212 -0.0926  0.0662
 7397SOL    HW133824   1.317   3.493   5.298  1.7477 -0.0599  1.0335
 7397SOL    HW233825   1.305   3.527   5.165 -0.1595  0.3221 -0.2297
 7398SOL     OW33826   0.699   1.284   5.706 -0.1572  0.4328 -0.6754
 7398SOL    HW133827   0.678   1.199   5.744 -0.7130  0.2113 -1.4815
 7398SOL    HW233828   0.791   1.292   5.731  0.3849 -2.1402 -1.8464
 7399SOL     OW33829   0.365   1.310   5.019 -0.1359  0.1679 -0.1085
 7399SOL    HW133830   0.329   1.318   5.107  0.2425 -2.3701  0.2697
 7399SOL    HW233831   0.454   1.343   5.030  0.2860 -0.3568 -1.8118
 7400SOL     OW33832   3.471   2.614   6.743 -0.1408  0.0839 -0.0531
 7400SOL    HW133833   3.467   2.614   6.838 -1.2181 -0.7494 -0.1064
 7400SOL    HW233834   3.423   2.535   6.718 -3.5553  2.1955 -0.1198
 7401SOL     OW33835   3.721   4.390   4.847 -0.0495 -0.4043  0.1792
 7401SOL    HW133836   3.790   4.439   4.891 -0.7010  1.0000 -0.3571
 7401SOL    HW233837   3.672   4.466   4.815  1.8330  0.5274 -0.4529
 7402SOL     OW33838   0.772   3.364   8.749  0.2585  0.6038  0.7367
 7402SOL    HW133839   0.754   3.339   8.839  1.4189 -0.1275  0.7672
 7402SOL    HW233840   0.784   3.281   8.703 -1.3874 -0.2675  1.8797
 7403SOL     OW33841   1.961   2.097   2.575  0.5725  0.0485  0.2046
 7403SOL    HW133842   1.945   2.159   2.645  0.2348 -2.1255  2.0431
 7403SOL    HW233843   1.908   2.029   2.616 -0.8116  2.3762  2.2683
 7404SOL     OW33844   0.251   2.548   6.719 -0.2747 -0.7951 -0.0448
 7404SOL    HW133845   0.167   2.542   6.764 -0.3121  1.2044  0.1649
 7404SOL    HW233846   0.266   2.638   6.749  1.6623 -0.1769 -2.8206
 7405SOL     OW33847   1.473   2.525   7.688  0.2725  0.4410 -0.2677
 7405SOL    HW133848   1.413   2.512   7.761 -0.4940  1.9134 -0.6481
 7405SOL    HW233849   1.482   2.432   7.668  0.2968  0.3007  0.4038
 7406SOL     OW33850   1.456   3.024  17.048  0.0095  0.0014 -0.4631
 7406SOL    HW133851   1.407   3.079  17.110 -2.4242 -1.9172 -0.6890
 7406SOL    HW233852   1.421   3.065  16.969  2.4804 -1.4184 -2.2532
 7407SOL     OW33853   3.339   0.767  15.361  0.3036 -0.2590 -0.2530
 7407SOL    HW133854   3.273   0.715  15.407  0.8699 -0.7473 -0.0077
 7407SOL    HW233855   3.398   0.792  15.431  1.2908  1.3592 -1.6480
 7408SOL     OW33856   3.838   4.282  14.386 -0.3233  0.3677  0.1949
 7408SOL    HW133857   3.845   4.193  14.353 -0.9298  0.7980 -1.1017
 7408SOL    HW233858   3.856   4.274  14.480 -1.5427  1.1887  0.5028
 7409SOL     OW33859   4.107   3.503   7.420 -0.3002  0.5343 -0.1475
 7409SOL    HW133860   4.102   3.494   7.515  1.2903 -1.3815 -0.2423
 7409SOL    HW233861   4.112   3.597   7.406  0.5146  0.6826  1.1494
 7410SOL     OW33862   2.922   1.928   6.303 -0.3883 -0.3425  0.2420
 7410SOL    HW133863   2.855   1.992   6.278 -2.5026 -0.8455  4.5152
 7410SOL    HW233864   2.867   1.856   6.334 -0.0392 -1.5671 -1.9821
 7411SOL     OW33865   1.018   1.377   7.507 -0.6289 -0.3473  0.1105
 7411SOL    HW133866   0.927   1.407   7.503  0.1847  2.1513  0.4379
 7411SOL    HW233867   1.012   1.302   7.448 -3.1848 -1.8250  2.2246
 7412SOL     OW33868   1.858   1.539   6.337 -0.2455  0.6255  0.3724
 7412SOL    HW133869   1.867   1.449   6.367  1.8277  0.2816 -1.3018
 7412SOL    HW233870   1.804   1.573   6.409 -0.8820 -0.1574  0.2574
 7413SOL     OW33871   4.172   1.777  17.755 -0.0005  0.0254  0.2689
 7413SOL    HW133872   4.179   1.869   0.008 -0.7184 -0.4996  2.4083
 7413SOL    HW233873   4.175   1.784  17.659 -0.0176 -1.9651  0.1130
 7414SOL     OW33874   1.668   2.601   3.554  0.6238  0.6992 -0.0351
 7414SOL    HW133875   1.640   2.683   3.593 -0.5807 -0.0867  0.7217
 7414SOL    HW233876   1.712   2.636   3.476 -0.5092  2.6545  0.2292
 7415SOL     OW33877   2.746   4.043   3.752 -0.3738  0.0638  0.0979
 7415SOL    HW133878   2.686   4.117   3.753  0.7106  0.9414 -0.6217
 7415SOL    HW233879   2.705   3.968   3.709 -0.8033 -0.3063  1.1302
 7416SOL     OW33880   3.481   3.062   3.238  0.3902  0.1148  0.0290
 7416SOL    HW133881   3.426   3.010   3.298  2.6084 -1.3565  0.7705
 7416SOL    HW233882   3.535   2.998   3.192 -0.6582  1.1054 -2.5944
 7417SOL     OW33883   2.450   1.476  16.752 -0.1038  0.1853 -0.3938
 7417SOL    HW133884   2.438   1.568  16.778 -2.1394 -1.1750  3.3938
 7417SOL    HW233885   2.357   1.453  16.755 -0.5591  2.3414  2.0603
 7418SOL     OW33886   0.451   0.583   9.110  0.1979 -0.5114 -0.7180
 7418SOL    HW133887   0.362   0.559   9.084  0.0461 -0.3797 -0.3279
 7418SOL    HW233888   0.506   0.534   9.050  0.5384 -1.7762  0.6216
 7419SOL     OW33889   1.685   2.795   7.862  0.0289 -0.0524  0.8689
 7419SOL    HW133890   1.724   2.736   7.926  3.9024  1.0820 -0.3838
 7419SOL    HW233891   1.701   2.754   7.776 -1.9903  0.6364  0.1616
 7420SOL     OW33892   3.736   2.334   8.855 -0.1708 -0.2598  0.8477
 7420SOL    HW133893   3.640   2.334   8.860 -0.1888 -1.7907  0.5433
 7420SOL    HW233894   3.751   2.244   8.886  0.4213 -0.0472  1.1679
 7421SOL     OW33895   2.280   4.064   5.972 -0.0609 -0.5945 -0.2357
 7421SOL    HW133896   2.256   3.972   5.970 -1.2147 -0.3135  1.2318
 7421SOL    HW233897   2.240   4.105   6.049 -1.0788  1.1705 -1.6919
 7422SOL     OW33898   2.735   0.601   7.787  0.7124  0.2482  0.4343
 7422SOL    HW133899   2.676   0.526   7.791 -1.0601  1.5541 -1.1359
 7422SOL    HW233900   2.681   0.668   7.744 -1.4209 -0.8447  1.4101
 7423SOL     OW33901   3.765   0.732   7.903 -0.3638 -0.2352  0.2801
 7423SOL    HW133902   3.749   0.661   7.840  1.4053  0.5267 -1.0335
 7423SOL    HW233903   3.790   0.802   7.842 -0.6652  0.6415  1.1734
 7424SOL     OW33904   3.297   3.274  15.155  0.3473  0.1255  0.2082
 7424SOL    HW133905   3.292   3.280  15.060 -0.1964  0.7906  0.2768
 7424SOL    HW233906   3.282   3.180  15.162 -2.2157  0.6978  2.6786
 7425SOL     OW33907   2.086   1.418  10.688 -0.2589 -0.3680 -0.2165
 7425SOL    HW133908   2.097   1.424  10.593  1.0756 -1.4504 -0.1254
 7425SOL    HW233909   2.171   1.452  10.715 -1.2071 -1.3845  4.0582
 7426SOL     OW33910   1.066   2.841  17.383  0.1162  0.4065 -0.0835
 7426SOL    HW133911   1.115   2.923  17.393 -0.2247  0.6653 -0.5651
 7426SOL    HW233912   0.984   2.855  17.431 -0.4548  0.6438 -1.1248
 7427SOL     OW33913   1.967   1.952   4.717 -0.5419 -0.1860 -0.0746
 7427SOL    HW133914   1.998   1.892   4.648 -1.8040 -1.8361  0.8064
 7427SOL    HW233915   1.876   1.974   4.697 -0.5411  0.4916  0.6804
 7428SOL     OW33916   2.711   0.638   8.575 -0.2854  0.7923 -0.0313
 7428SOL    HW133917   2.698   0.564   8.634 -1.9809  1.7229  0.7518
 7428SOL    HW233918   2.630   0.685   8.592  0.0769  1.7851 -1.0085
 7429SOL     OW33919   3.313   3.343  15.529 -0.3908  0.6131  0.4108
 7429SOL    HW133920   3.370   3.378  15.460 -1.0487  0.0819 -0.4074
 7429SOL    HW233921   3.351   3.371  15.612  0.9754 -3.3174  1.0857
 7430SOL     OW33922   4.643   1.313   7.156 -0.0423  0.5529  0.6425
 7430SOL    HW133923   4.672   1.227   7.126 -0.0278  0.7221  0.1714
 7430SOL    HW233924   4.558   1.320   7.113  1.1906 -1.0951 -2.0977
 7431SOL     OW33925   1.986   1.743  15.296  0.5372 -0.3202  0.7665
 7431SOL    HW133926   2.028   1.658  15.298 -1.0774 -1.1128  1.1723
 7431SOL    HW233927   2.049   1.807  15.328  1.1832  0.1561 -1.4291
 7432SOL     OW33928   0.294   4.484   5.639  0.1203  0.5239  0.1742
 7432SOL    HW133929   0.365   4.536   5.601 -0.5408  1.4332  0.1834
 7432SOL    HW233930   0.299   4.518   5.729  1.5750 -1.2851  0.7708
 7433SOL     OW33931   1.740   2.976   7.555 -0.4455  0.0928 -0.2392
 7433SOL    HW133932   1.833   2.975   7.578 -0.7897 -2.5244  1.0884
 7433SOL    HW233933   1.721   2.882   7.557 -1.7064  0.3375 -1.2470
 7434SOL     OW33934   0.100   1.767   5.390  0.5905  0.5587 -0.2862
 7434SOL    HW133935   0.062   1.725   5.313  0.6799  1.5478 -0.8621
 7434SOL    HW233936   0.115   1.690   5.445 -4.1027  0.1697  0.4446
 7435SOL     OW33937   2.935   4.408   7.687  0.3890 -0.1838 -0.3341
 7435SOL    HW133938   2.993   4.461   7.632  1.3484  0.6648  1.4853
 7435SOL    HW233939   2.855   4.460   7.692 -0.5209 -1.5369 -0.8631
 7436SOL     OW33940   0.608   4.327  17.454  0.0925 -0.3459  0.0881
 7436SOL    HW133941   0.577   4.395  17.514 -0.5215 -0.1371 -0.4661
 7436SOL    HW233942   0.567   4.250  17.494 -1.0443  1.0768  1.6943
 7437SOL     OW33943   1.552   0.734  14.765  0.2645  1.0204  0.6144
 7437SOL    HW133944   1.588   0.692  14.844  1.6037  1.5164  0.2615
 7437SOL    HW233945   1.459   0.734  14.790  0.4629  2.3487  1.3568
 7438SOL     OW33946   0.099   0.782  14.305 -0.0659 -0.0483 -0.3274
 7438SOL    HW133947   0.121   0.846  14.237 -0.9030  0.0098 -0.5396
 7438SOL    HW233948   0.036   0.840  14.346  0.9122 -0.8744  2.3124
 7439SOL     OW33949   1.052   0.693   5.699 -0.1932  0.2304  0.1007
 7439SOL    HW133950   1.107   0.679   5.622  3.4064 -0.7784  2.8474
 7439SOL    HW233951   0.973   0.700   5.645  1.0406 -0.0367 -1.7418
 7440SOL     OW33952   1.151   0.167   7.843  0.3909  0.3711 -0.7537
 7440SOL    HW133953   1.193   0.236   7.894  0.6877 -0.1737 -0.2631
 7440SOL    HW233954   1.126   0.100   7.907 -0.8085  0.2546 -1.3336
 7441SOL     OW33955   4.022   1.471   8.720 -0.1976  0.1399 -0.1473
 7441SOL    HW133956   4.078   1.401   8.686  0.5684  0.3478  0.6847
 7441SOL    HW233957   4.048   1.537   8.656  1.0550  2.1652  2.4506
 7442SOL     OW33958   0.862   1.137   0.401 -0.2416 -0.0451  0.4697
 7442SOL    HW133959   0.878   1.058   0.452  3.0091  1.5585  1.9038
 7442SOL    HW233960   0.891   1.105   0.316  1.1739 -1.2446  1.4098
 7443SOL     OW33961   3.560   0.549   8.114  0.3852  0.0825  0.2400
 7443SOL    HW133962   3.632   0.510   8.162  0.2920 -2.1297 -1.4163
 7443SOL    HW233963   3.584   0.549   8.021  0.6394 -1.8865  0.3098
 7444SOL     OW33964   2.894   0.572  17.029 -0.0362  0.1218  0.0138
 7444SOL    HW133965   2.916   0.556  16.937 -1.3767  0.4996 -0.3621
 7444SOL    HW233966   2.868   0.483  17.053  0.5361  0.1541  0.7733
 7445SOL     OW33967   2.114   2.255   6.215  0.1315 -0.1206  0.2158
 7445SOL    HW133968   2.105   2.344   6.183 -0.5886 -0.0622  0.5846
 7445SOL    HW233969   2.201   2.229   6.185 -0.1466 -0.2552 -0.4510
 7446SOL     OW33970   2.260   1.182  10.803 -0.3017 -0.2140  0.4482
 7446SOL    HW133971   2.187   1.213  10.857  1.1762  0.4720  2.0306
 7446SOL    HW233972   2.277   1.253  10.741 -1.2169 -1.2298 -0.9726
 7447SOL     OW33973   0.083   2.085   8.256 -0.1166  0.3604  0.6813
 7447SOL    HW133974   0.104   1.992   8.253  0.6174  0.5791 -1.0271
 7447SOL    HW233975   0.122   2.120   8.175  1.9597  0.4437  1.7314
 7448SOL     OW33976   0.561   1.325  13.777 -0.0609  0.0326 -1.0443
 7448SOL    HW133977   0.567   1.343  13.684 -0.3653  2.7240 -0.5300
 7448SOL    HW233978   0.654   1.315  13.794 -0.0592  1.9325  0.0044
 7449SOL     OW33979   1.568   4.471   2.972  0.6357 -0.2298 -0.1386
 7449SOL    HW133980   1.509   4.445   2.902  0.9689 -2.0142  0.2538
 7449SOL    HW233981   1.653   4.433   2.951 -0.6215 -2.7084 -0.6359
 7450SOL     OW33982   0.084   4.469   6.017 -0.3042  0.1234  0.6301
 7450SOL    HW133983   0.021   4.491   6.086 -0.6659 -2.5627  1.1456
 7450SOL    HW233984   0.044   4.392   5.977 -0.8979  0.7942 -0.0645
 7451SOL     OW33985   0.172   3.270   9.719 -0.0198  0.3355 -0.6123
 7451SOL    HW133986   0.168   3.216   9.798 -3.3204 -0.6692 -1.4614
 7451SOL    HW233987   0.118   3.343   9.750 -1.8154 -1.5565  0.7286
 7452SOL     OW33988   1.681   2.456  14.012 -0.2407  0.2414  0.1467
 7452SOL    HW133989   1.703   2.401  13.937 -1.5774 -2.1937  1.5490
 7452SOL    HW233990   1.587   2.470  13.999 -0.3877  0.6333  1.6075
 7453SOL     OW33991   4.491   3.356   9.657 -0.0004  0.0996  0.5515
 7453SOL    HW133992   4.527   3.337   9.571  0.8202  2.0507  0.4638
 7453SOL    HW233993   4.403   3.391   9.640  0.3864  1.0851  0.5569
 7454SOL     OW33994   1.855   3.625   9.628  0.5622 -0.3709 -0.0905
 7454SOL    HW133995   1.817   3.549   9.673  0.0153  0.4308  0.8129
 7454SOL    HW233996   1.775   3.667   9.595  0.9360 -1.0948 -1.8900
 7455SOL     OW33997   0.415   2.924   1.797 -0.1649 -0.5626 -0.2687
 7455SOL    HW133998   0.454   2.932   1.710  2.4087 -0.5001  0.9035
 7455SOL    HW233999   0.347   2.991   1.800  0.6533  0.3008 -1.1540
 7456SOL     OW34000   4.076   4.189   9.141 -0.1343  0.3129  0.5584
 7456SOL    HW134001   4.147   4.241   9.180 -0.3145  0.6017  0.4977
 7456SOL    HW234002   4.085   4.114   9.201  2.0085  1.7299  2.0510
 7457SOL     OW34003   1.643   2.704  10.379  0.3139  0.1793 -0.6133
 7457SOL    HW134004   1.664   2.649  10.454 -1.0365 -1.3950 -1.4023
 7457SOL    HW234005   1.664   2.655  10.300 -1.4117  0.4280 -1.2171
 7458SOL     OW34006   2.742   1.044   1.349  0.4857 -0.6781 -0.2280
 7458SOL    HW134007   2.766   0.952   1.347 -0.6663 -0.9989  0.6150
 7458SOL    HW234008   2.689   1.054   1.429  0.3735 -2.6440 -0.0567
 7459SOL     OW34009   1.393   1.626   3.526 -0.5384 -0.5743  0.2255
 7459SOL    HW134010   1.449   1.704   3.519  1.6975 -2.2639 -0.8360
 7459SOL    HW234011   1.305   1.651   3.555 -1.6926 -2.0936 -1.9822
 7460SOL     OW34012   3.454   0.262   0.404 -0.1681  0.5174 -0.1906
 7460SOL    HW134013   3.422   0.208   0.476  1.1446 -0.2764 -0.1971
 7460SOL    HW234014   3.435   0.350   0.437 -2.7353 -0.3499  0.6764
 7461SOL     OW34015   1.946   0.414  15.857  0.3198  0.2637  0.4013
 7461SOL    HW134016   1.857   0.411  15.892  0.6390 -1.8612  0.9719
 7461SOL    HW234017   1.996   0.473  15.913  0.8669 -0.9571  1.1892
 7462SOL     OW34018   0.076   2.250   1.509 -0.0777 -0.3457 -0.2666
 7462SOL    HW134019   4.735   2.209   1.491 -0.2291 -0.7355  1.3206
 7462SOL    HW234020   0.064   2.288   1.596  1.4225 -0.5244  0.0300
 7463SOL     OW34021   1.651   1.541  17.071  0.2949  0.2847  0.2617
 7463SOL    HW134022   1.599   1.508  17.145  1.6104  0.9078  1.4554
 7463SOL    HW234023   1.734   1.554  17.115  1.5230 -0.4958 -1.8271
 7464SOL     OW34024   4.302   3.158   4.338 -0.1401 -0.3906 -0.5091
 7464SOL    HW134025   4.378   3.196   4.294  0.1346  1.4649  1.5933
 7464SOL    HW234026   4.308   3.213   4.416  0.7251  1.1270 -1.6415
 7465SOL     OW34027   1.007   2.341   1.667 -0.1454 -0.0741  0.4019
 7465SOL    HW134028   0.918   2.326   1.637  0.1303 -0.6651 -0.1355
 7465SOL    HW234029   0.998   2.428   1.707 -0.2084 -0.5780  1.5012
 7466SOL     OW34030   3.145   3.264  12.676  0.2441 -0.6521 -0.4074
 7466SOL    HW134031   3.077   3.256  12.610 -0.0656  0.6077 -0.2270
 7466SOL    HW234032   3.106   3.337  12.723 -1.4588 -1.1075 -1.1164
 7467SOL     OW34033   2.114   0.781   6.780 -0.6184 -1.0375  0.5374
 7467SOL    HW134034   2.165   0.805   6.702 -1.4840 -1.6418 -0.2206
 7467SOL    HW234035   2.180   0.751   6.841  0.6629  2.6448  0.9554
 7468SOL     OW34036   2.518   0.094   6.415  0.1010 -0.5652  0.8575
 7468SOL    HW134037   2.588   0.071   6.354 -2.5081 -2.0673 -1.5566
 7468SOL    HW234038   2.491   0.180   6.383  0.0658 -1.6375 -1.9615
 7469SOL     OW34039   1.506   3.320  10.536 -0.0097  0.6580  0.8915
 7469SOL    HW134040   1.580   3.263  10.556  1.3445  2.4092  0.8546
 7469SOL    HW234041   1.459   3.304  10.618  1.5756  2.2893  2.0983
 7470SOL     OW34042   3.227   4.121   2.405  0.2501 -0.6490  0.4328
 7470SOL    HW134043   3.307   4.146   2.453  0.8872 -0.6041 -0.6505
 7470SOL    HW234044   3.154   4.147   2.461 -0.5571 -0.4716 -0.6996
 7471SOL     OW34045   1.976   4.117  13.272  0.0889 -0.3398  0.4982
 7471SOL    HW134046   1.955   4.025  13.253  0.1734 -0.0930 -0.7423
 7471SOL    HW234047   2.068   4.109  13.296  0.3932  1.6520 -0.0492
 7472SOL     OW34048   2.813   2.851   6.139  0.0457 -0.5057 -0.0946
 7472SOL    HW134049   2.814   2.805   6.223  0.0097 -0.5252 -0.1050
 7472SOL    HW234050   2.719   2.842   6.126 -0.2469  0.8325  1.0736
 7473SOL     OW34051   1.524   2.709   9.638 -0.5850  0.3219  0.1700
 7473SOL    HW134052   1.480   2.707   9.553  1.3145 -1.2606 -0.7844
 7473SOL    HW234053   1.572   2.627   9.628 -1.0506 -0.1392  1.7539
 7474SOL     OW34054   1.196   1.236   3.872 -0.3735  0.3187 -0.3125
 7474SOL    HW134055   1.224   1.212   3.783  3.5904 -0.9362  1.2512
 7474SOL    HW234056   1.241   1.163   3.915  0.9896 -0.3327 -2.8511
 7475SOL     OW34057   4.668   0.839   6.485 -0.6128  0.0244  0.0592
 7475SOL    HW134058   4.627   0.912   6.439 -2.5405  0.6316  2.7213
 7475SOL    HW234059   4.662   0.769   6.420  0.3450  0.4711 -0.5165
 7476SOL     OW34060   4.173   0.612   8.319 -0.2876 -0.2298 -0.3759
 7476SOL    HW134061   4.124   0.614   8.401 -1.8721 -3.1709 -1.2550
 7476SOL    HW234062   4.216   0.527   8.323 -0.1045 -0.2260 -2.1038
 7477SOL     OW34063   2.716   3.756   6.123 -0.2594  0.1182  0.1015
 7477SOL    HW134064   2.779   3.791   6.187  1.2942 -0.8212 -0.9123
 7477SOL    HW234065   2.694   3.831   6.067  1.1855  0.9301  0.6086
 7478SOL     OW34066   3.513   2.318   2.396 -0.0599  0.2703 -0.0594
 7478SOL    HW134067   3.459   2.298   2.472  0.2194 -0.1854  0.0189
 7478SOL    HW234068   3.552   2.233   2.374 -1.9556 -0.6656  0.2139
 7479SOL     OW34069   2.106   0.110  17.684 -0.3524 -0.1813 -0.2291
 7479SOL    HW134070   2.011   0.114  17.674 -0.6708 -2.3068  1.6769
 7479SOL    HW234071   2.109   0.022  17.647 -2.3036  0.7356 -2.5974
 7480SOL     OW34072   3.162   2.963   6.617  0.2200  0.6734  0.1651
 7480SOL    HW134073   3.229   2.956   6.549  0.3858  1.7088  0.2287
 7480SOL    HW234074   3.102   3.026   6.579 -1.5326 -1.6544 -0.9217
 7481SOL     OW34075   2.595   2.571   3.691  0.2361 -0.9127  0.0668
 7481SOL    HW134076   2.630   2.627   3.623  0.7038 -0.5736  0.5882
 7481SOL    HW234077   2.661   2.501   3.688  0.1092 -0.9795 -1.0766
 7482SOL     OW34078   4.293   4.472  13.568 -0.1557 -0.2278  0.8710
 7482SOL    HW134079   4.381   4.440  13.550 -0.0676  0.7649 -0.4792
 7482SOL    HW234080   4.270   4.515  13.486  0.1365 -1.1856  0.2895
 7483SOL     OW34081   3.069   1.975  12.595  0.1153  0.1295 -0.0488
 7483SOL    HW134082   3.094   1.905  12.535  0.1098  1.6072 -1.7862
 7483SOL    HW234083   3.014   1.922  12.652 -1.8444  0.2817 -1.8021
 7484SOL     OW34084   3.961   0.700  16.687 -0.5739  0.8767 -0.2606
 7484SOL    HW134085   3.880   0.650  16.694 -0.9546  1.1605 -2.7003
 7484SOL    HW234086   3.949   0.749  16.606 -4.0311 -0.3161 -0.4396
 7485SOL     OW34087   3.803   4.045   7.238 -0.0539  0.4129  1.1039
 7485SOL    HW134088   3.885   4.063   7.193 -1.1236  0.8018 -0.6777
 7485SOL    HW234089   3.823   4.066   7.329  0.6583  2.0555  0.5647
 7486SOL     OW34090   2.047   1.710   6.940 -0.4473  0.0143  0.1971
 7486SOL    HW134091   2.136   1.743   6.952 -0.6794  1.0841 -1.0025
 7486SOL    HW234092   2.041   1.626   6.985  2.1526 -0.0244  0.4695
 7487SOL     OW34093   0.741   0.250   2.431 -0.4505  0.1906  0.2886
 7487SOL    HW134094   0.765   0.202   2.351 -1.4326 -2.5200  1.6425
 7487SOL    HW234095   0.800   0.324   2.422 -0.8786  0.4069 -0.7947
 7488SOL     OW34096   2.373   2.191   9.147 -0.1560  0.4861 -0.3593
 7488SOL    HW134097   2.386   2.205   9.053  0.5674 -1.0665 -0.4940
 7488SOL    HW234098   2.428   2.113   9.157 -0.6569  0.2632  0.6357
 7489SOL     OW34099   2.680   2.541   4.100 -0.1815 -0.3209 -0.1946
 7489SOL    HW134100   2.706   2.577   4.185  1.0303 -0.5384 -0.4819
 7489SOL    HW234101   2.608   2.603   4.086  0.3911 -0.1773 -2.5507
 7490SOL     OW34102   0.598   3.735   6.221  0.4056  0.0961  0.2949
 7490SOL    HW134103   0.616   3.697   6.135  1.5649  0.2233  0.4776
 7490SOL    HW234104   0.590   3.825   6.189 -1.3426 -0.9256 -2.2240
 7491SOL     OW34105   4.408   3.046   1.609  0.1117 -0.5189  0.1505
 7491SOL    HW134106   4.464   2.969   1.594 -0.9971 -1.5660  1.3640
 7491SOL    HW234107   4.324   3.001   1.621 -0.7616  0.8761 -0.8254
 7492SOL     OW34108   0.500   4.170   7.952 -0.2864  0.3317 -0.0781
 7492SOL    HW134109   0.578   4.116   7.942 -0.5637 -0.1652  0.4475
 7492SOL    HW234110   0.468   4.143   8.038  0.5709 -1.5228 -0.3235
 7493SOL     OW34111   2.247   0.395   5.768 -0.0154  0.1774 -0.0059
 7493SOL    HW134112   2.308   0.398   5.694  1.6287 -0.3425  1.3563
 7493SOL    HW234113   2.178   0.340   5.729 -1.6253  1.4173  1.0837
 7494SOL     OW34114   2.055   3.584   1.704 -0.2994 -0.3088  0.2969
 7494SOL    HW134115   1.979   3.639   1.726 -1.1784 -1.1947 -0.5007
 7494SOL    HW234116   2.078   3.625   1.622  0.1236 -1.9199 -0.3987
 7495SOL     OW34117   1.789   2.035   3.633  0.4112  0.0335  0.6924
 7495SOL    HW134118   1.845   1.992   3.698  0.0368 -1.6869 -0.1136
 7495SOL    HW234119   1.815   2.126   3.649  1.2078  0.1000 -1.0099
 7496SOL     OW34120   4.678   3.336   7.378  0.0338  0.4034 -0.3265
 7496SOL    HW134121   4.602   3.309   7.326 -0.7902 -1.3245  1.8029
 7496SOL    HW234122   4.646   3.420   7.411 -3.1383 -0.7364 -0.5045
 7497SOL     OW34123   1.958   4.723   8.008  0.2362 -0.5153 -0.1346
 7497SOL    HW134124   1.920   4.704   8.094  1.1469  1.5787  0.7300
 7497SOL    HW234125   1.889   4.677   7.959  0.3159 -0.0762 -0.6621
 7498SOL     OW34126   2.066   2.025   1.246 -0.0625  0.6505  0.3148
 7498SOL    HW134127   1.997   2.075   1.290 -0.4869 -1.3482  1.9218
 7498SOL    HW234128   2.057   1.930   1.255  0.3167  0.7353  1.6954
 7499SOL     OW34129   3.831   0.718   8.644 -0.3190  0.0791  0.3183
 7499SOL    HW134130   3.784   0.639   8.672 -0.3027  0.8564  2.5350
 7499SOL    HW234131   3.765   0.771   8.601  1.3869 -0.9171 -3.4700
 7500SOL     OW34132   3.882   4.701   4.679 -0.0521  0.5124 -0.1216
 7500SOL    HW134133   3.950   4.635   4.665 -0.3023  0.2839 -0.2520
 7500SOL    HW234134   3.797   4.657   4.680 -0.2999  0.9860 -0.2640
 7501SOL     OW34135   0.629   4.455   5.651  0.3616  0.3041 -0.4742
 7501SOL    HW134136   0.680   4.451   5.571  0.1528 -0.5218 -0.5724
 7501SOL    HW234137   0.661   4.382   5.705  1.4964  1.0045 -0.1950
 7502SOL     OW34138   2.554   3.960   8.897  0.4165  0.2724 -0.6050
 7502SOL    HW134139   2.598   3.879   8.871 -0.0137  0.2458 -1.2228
 7502SOL    HW234140   2.629   4.018   8.912  0.9448 -0.3547 -0.8024
 7503SOL     OW34141   3.988   2.264   3.262  0.0245  0.1658 -0.5190
 7503SOL    HW134142   3.900   2.282   3.228 -0.0420 -0.7724 -0.8460
 7503SOL    HW234143   4.042   2.270   3.184  1.9835 -0.2053  0.8045
 7504SOL     OW34144   0.284   2.163   4.485 -0.5684  0.5817  0.4061
 7504SOL    HW134145   0.228   2.140   4.411  0.0700 -0.2933  0.1966
 7504SOL    HW234146   0.339   2.086   4.502 -2.0391 -0.6008 -0.1955
 7505SOL     OW34147   1.370   0.118   2.715  0.3426  0.5526 -0.0454
 7505SOL    HW134148   1.431   0.149   2.782  0.6242 -1.5668  0.6951
 7505SOL    HW234149   1.300   0.183   2.712 -0.4492 -0.3210 -0.8855
 7506SOL     OW34150   3.250   0.724   1.759 -0.5880  0.5085  0.4313
 7506SOL    HW134151   3.253   0.632   1.786 -0.7148  0.2723 -0.3711
 7506SOL    HW234152   3.170   0.720   1.706  0.4452  0.7342 -1.1187
 7507SOL     OW34153   1.511   4.378   3.754  0.0303  0.6779 -0.2166
 7507SOL    HW134154   1.434   4.349   3.801  0.5480 -1.3163 -0.6194
 7507SOL    HW234155   1.492   4.388   3.661  1.9332 -0.7365 -0.7700
 7508SOL     OW34156   1.445   2.767   4.593  0.3137 -0.2111  0.7810
 7508SOL    HW134157   1.384   2.815   4.538 -1.9021 -0.4043  3.0315
 7508SOL    HW234158   1.421   2.803   4.679  2.6477  0.7952  1.0186
 7509SOL     OW34159   3.033   0.992  10.589 -0.6267  0.1022  0.0269
 7509SOL    HW134160   2.964   0.955  10.643 -2.4854 -0.7715 -2.9686
 7509SOL    HW234161   3.111   0.939  10.606 -1.2196  0.2425  3.1832
 7510SOL     OW34162   2.634   2.277   4.651  0.6536  0.7718  0.5335
 7510SOL    HW134163   2.538   2.272   4.648  0.8348 -0.4882 -3.0343
 7510SOL    HW234164   2.641   2.369   4.675  0.7764  1.3947 -1.9227
 7511SOL     OW34165   0.389   2.617   2.859  0.0887  0.0537 -0.2957
 7511SOL    HW134166   0.366   2.676   2.788  0.5395  2.8368  1.8911
 7511SOL    HW234167   0.478   2.649   2.875  0.3907 -0.7951 -0.2329
 7512SOL     OW34168   1.483   1.117  13.539 -0.3280  0.0636 -0.5963
 7512SOL    HW134169   1.571   1.106  13.502  0.3840 -2.3219  1.7746
 7512SOL    HW234170   1.468   1.211  13.534  4.1258  0.8828  1.7645
 7513SOL     OW34171   3.782   0.915   6.705  0.7804  0.2405 -0.0179
 7513SOL    HW134172   3.731   0.873   6.775  2.1927 -0.7850  0.3923
 7513SOL    HW234173   3.869   0.884   6.731  1.0247  1.2722  0.4058
 7514SOL     OW34174   1.877   0.175  14.408 -0.3033  1.0302  0.1766
 7514SOL    HW134175   1.804   0.180  14.470  0.3082 -2.4910  1.1514
 7514SOL    HW234176   1.852   0.099  14.357 -2.5500  1.2810  0.8832
 7515SOL     OW34177   1.820   0.626  13.902 -0.0582 -0.2133 -0.1697
 7515SOL    HW134178   1.788   0.537  13.915 -0.3483  0.0318  0.7277
 7515SOL    HW234179   1.748   0.675  13.942  0.4879 -0.9507  1.7042
 7516SOL     OW34180   3.554   0.414   4.059  0.6642 -0.1343 -0.4265
 7516SOL    HW134181   3.533   0.481   3.994  2.6375  0.9959  0.1082
 7516SOL    HW234182   3.630   0.461   4.093 -0.5323  0.8409  0.8924
 7517SOL     OW34183   0.620   2.862   1.562 -0.0296 -0.3891 -0.6418
 7517SOL    HW134184   0.618   2.820   1.477 -0.0408 -2.4474  0.3764
 7517SOL    HW234185   0.687   2.930   1.547 -2.0731  1.7402 -0.1210
 7518SOL     OW34186   3.103   1.324   4.494  0.2091 -0.1317  0.1049
 7518SOL    HW134187   3.154   1.266   4.438 -1.6403  1.0515 -2.8394
 7518SOL    HW234188   3.126   1.291   4.581  0.2083 -0.4959 -0.0337
 7519SOL     OW34189   2.829   0.206  15.641 -0.2895 -0.1139 -0.2870
 7519SOL    HW134190   2.740   0.185  15.669  0.0295 -0.1584  0.6969
 7519SOL    HW234191   2.822   0.204  15.546 -2.5553 -0.8278 -0.1017
 7520SOL     OW34192   0.342   3.361   9.415 -0.1860  1.3489  0.1461
 7520SOL    HW134193   0.429   3.322   9.425 -0.0088  1.2745 -1.7318
 7520SOL    HW234194   0.350   3.384   9.323  0.1739  0.0554 -0.1536
 7521SOL     OW34195   0.575   4.327   9.547  0.0482 -0.4198  0.4746
 7521SOL    HW134196   0.600   4.240   9.578  0.8798  0.0137  1.0266
 7521SOL    HW234197   0.606   4.324   9.457  1.4672 -0.8197  0.9687
 7522SOL     OW34198   3.006   1.803   8.121  0.1528 -0.3837  0.1435
 7522SOL    HW134199   2.921   1.823   8.084  0.4548 -0.6141 -0.6683
 7522SOL    HW234200   3.034   1.746   8.049 -0.2260  0.4069 -0.6269
 7523SOL     OW34201   3.846   4.687   9.841 -0.0660  0.5526 -0.1101
 7523SOL    HW134202   3.858   4.658   9.751 -0.3625 -1.3646  0.4629
 7523SOL    HW234203   3.759   4.727   9.842  0.2995  1.3449 -1.2150
 7524SOL     OW34204   3.476   2.688   7.612 -0.1770 -0.1759 -0.0555
 7524SOL    HW134205   3.507   2.635   7.686  1.3129  0.4695 -0.2141
 7524SOL    HW234206   3.438   2.756   7.667 -2.2524 -0.9068 -0.5655
 7525SOL     OW34207   2.068   2.794   4.609 -0.1818 -0.1758  0.1434
 7525SOL    HW134208   1.994   2.854   4.595 -0.3262 -0.0198  1.5285
 7525SOL    HW234209   2.057   2.745   4.528 -2.4084  0.2961  0.1584
 7526SOL     OW34210   3.888   0.683   9.790 -0.1233 -0.0205  0.5511
 7526SOL    HW134211   3.813   0.676   9.849  0.5513 -0.5657  1.3556
 7526SOL    HW234212   3.899   0.777   9.780 -0.5768 -0.0690 -0.3563
 7527SOL     OW34213   0.657   4.607  10.948 -0.0838 -0.3698  0.0558
 7527SOL    HW134214   0.677   4.553  11.024  1.2717  2.0091  1.3600
 7527SOL    HW234215   0.686   4.551  10.876 -0.5332 -0.2455 -0.2184
 7528SOL     OW34216   0.290   1.583   6.637 -0.0220 -0.0128 -0.9101
 7528SOL    HW134217   0.356   1.609   6.572 -0.0612 -0.8794 -1.2989
 7528SOL    HW234218   0.316   1.495   6.664 -2.8362 -0.6960 -0.4462
 7529SOL     OW34219   0.835   2.255   8.034 -0.1748 -0.1943  0.5203
 7529SOL    HW134220   0.764   2.193   8.051 -1.0970  0.3630 -1.3048
 7529SOL    HW234221   0.811   2.284   7.946  0.6447 -4.2138 -0.9963
 7530SOL     OW34222   2.821   1.045   4.722 -0.3668 -0.0071  0.0138
 7530SOL    HW134223   2.871   1.030   4.642  0.1241  1.2907  0.0675
 7530SOL    HW234224   2.871   0.999   4.790 -1.4547  0.2474  1.0016
 7531SOL     OW34225   3.830   0.142   4.211  0.0655 -0.4458 -0.0679
 7531SOL    HW134226   3.853   0.154   4.303 -0.4479  0.2489 -0.0315
 7531SOL    HW234227   3.736   0.147   4.228  0.1831  2.6278 -0.3534
 7532SOL     OW34228   0.867   1.994  16.014 -0.2757 -0.3232 -0.2952
 7532SOL    HW134229   0.837   1.944  16.090  1.8889  2.5127  2.4392
 7532SOL    HW234230   0.910   1.931  15.955  0.5654  0.9925 -1.0799
 7533SOL     OW34231   3.616   0.182   6.620  0.0064 -0.7489  0.6586
 7533SOL    HW134232   3.618   0.273   6.590  1.1727 -0.4610  1.5982
 7533SOL    HW234233   3.661   0.193   6.704 -1.4274  0.5627  1.2606
 7534SOL     OW34234   4.391   0.654   1.706  0.2220 -0.7845  0.0304
 7534SOL    HW134235   4.298   0.654   1.730 -0.0944  0.2685 -1.2051
 7534SOL    HW234236   4.412   0.742   1.735  0.3909 -1.4502  1.9658
 7535SOL     OW34237   2.422   0.492   6.600 -0.0580 -0.4081  0.0445
 7535SOL    HW134238   2.486   0.463   6.664 -0.4271  0.5265  0.8283
 7535SOL    HW234239   2.382   0.566   6.646  1.0273  0.2603 -0.0786
 7536SOL     OW34240   3.531   0.285   0.887  0.4678 -0.1119  0.4084
 7536SOL    HW134241   3.509   0.362   0.834  0.3017  1.0956  2.2292
 7536SOL    HW234242   3.485   0.216   0.837  0.4068 -0.0156  0.3315
 7537SOL     OW34243   4.285   2.109  17.090  0.1012 -0.5908 -0.4043
 7537SOL    HW134244   4.319   2.124  17.178  1.3839  1.3800 -1.2189
 7537SOL    HW234245   4.207   2.067  17.127  0.4370 -2.1072 -1.4344
 7538SOL     OW34246   1.033   1.001   9.957 -0.7882  0.0098  0.1109
 7538SOL    HW134247   1.098   1.070   9.955 -0.7654 -0.0484 -1.0528
 7538SOL    HW234248   0.999   1.007   9.868  0.2155  0.8025 -0.2122
 7539SOL     OW34249   2.098   2.651   1.473 -0.0466  0.2289  0.1768
 7539SOL    HW134250   2.035   2.716   1.504 -1.0964  0.6534 -2.8436
 7539SOL    HW234251   2.053   2.582   1.523  1.4856 -0.0406  1.1808
 7540SOL     OW34252   1.367   3.213   5.367  0.4841  0.2355 -0.1053
 7540SOL    HW134253   1.328   3.133   5.402  1.5805 -0.4189 -0.3884
 7540SOL    HW234254   1.293   3.272   5.381  1.3623  0.9700  1.4167
 7541SOL     OW34255   1.746   2.658   8.782 -0.1149 -0.1728 -0.0055
 7541SOL    HW134256   1.656   2.652   8.814 -0.3391 -1.4274 -0.8454
 7541SOL    HW234257   1.776   2.567   8.791  1.8924  0.6666  1.9361
 7542SOL     OW34258   2.800   4.087   8.932 -0.1207 -0.5128  0.3291
 7542SOL    HW134259   2.798   4.078   8.836  1.9565  2.6420 -0.0098
 7542SOL    HW234260   2.891   4.068   8.953 -0.1400 -1.8474 -0.8173
 7543SOL     OW34261   3.136   1.056   0.636 -0.2113 -0.8364 -0.1837
 7543SOL    HW134262   3.047   1.091   0.644 -0.3798 -1.2521 -0.2673
 7543SOL    HW234263   3.181   1.075   0.719 -1.4472  0.6291  0.1630
 7544SOL     OW34264   0.312   4.141   3.448  0.6508 -0.4881  0.4012
 7544SOL    HW134265   0.248   4.210   3.461  0.7713 -0.8202  2.7394
 7544SOL    HW234266   0.324   4.108   3.537  0.3740 -0.4761  0.4405
 7545SOL     OW34267   2.667   2.004   0.762  0.3862 -0.2991  0.0501
 7545SOL    HW134268   2.639   2.090   0.792 -0.5765 -0.3248 -0.7603
 7545SOL    HW234269   2.591   1.984   0.707  0.7589 -2.3245  0.2747
 7546SOL     OW34270   4.274   2.613   2.236 -0.6345 -0.1746  0.3245
 7546SOL    HW134271   4.317   2.686   2.192 -0.1926 -0.2191  0.6809
 7546SOL    HW234272   4.264   2.655   2.321 -2.2936  0.9684 -0.4458
 7547SOL     OW34273   1.155   2.112   0.835  0.0225  0.0700 -0.2914
 7547SOL    HW134274   1.126   2.158   0.756 -1.6271 -1.4230 -0.5676
 7547SOL    HW234275   1.174   2.027   0.796  0.9841  0.7507 -1.2923
 7548SOL     OW34276   2.990   2.624   5.256 -0.4211  0.0757  0.4042
 7548SOL    HW134277   2.934   2.622   5.178 -2.1812 -3.2816  1.7777
 7548SOL    HW234278   2.935   2.666   5.322  0.1255 -2.1135  2.2430
 7549SOL     OW34279   0.717   0.738   7.225 -0.3345 -0.0796 -0.6338
 7549SOL    HW134280   0.784   0.715   7.290  0.2058  0.0662 -1.1396
 7549SOL    HW234281   0.680   0.655   7.198  1.6991 -1.2407  0.1434
 7550SOL     OW34282   1.218   2.765   9.483  0.8006  0.2153  0.0615
 7550SOL    HW134283   1.263   2.726   9.558  0.6172  2.7408  1.4846
 7550SOL    HW234284   1.217   2.682   9.435  0.9822  0.6549 -0.7118
 7551SOL     OW34285   0.564   2.594   7.435 -0.1784 -0.4619 -0.8742
 7551SOL    HW134286   0.531   2.557   7.353  1.8564  0.8333 -2.2725
 7551SOL    HW234287   0.638   2.645   7.402  0.0048  0.6160  1.1888
 7552SOL     OW34288   2.287   1.071   2.368  0.0630  0.2910  0.3621
 7552SOL    HW134289   2.299   1.129   2.443 -2.3853 -0.4548  1.3487
 7552SOL    HW234290   2.374   1.031   2.369  0.1396  0.4425 -0.3143
 7553SOL     OW34291   1.864   2.813  13.071 -0.4596 -0.0841 -0.3081
 7553SOL    HW134292   1.801   2.821  13.000 -0.4403 -1.1921 -0.4542
 7553SOL    HW234293   1.950   2.833  13.034  0.1790  2.3737  2.5017
 7554SOL     OW34294   3.401   1.806  15.790  0.8228 -0.4854  0.7820
 7554SOL    HW134295   3.466   1.787  15.722  0.0770 -1.2196  0.2894
 7554SOL    HW234296   3.345   1.731  15.775  0.7610  0.4142 -3.5784
 7555SOL     OW34297   4.620   0.137   8.235  0.1179  0.1833  0.9014
 7555SOL    HW134298   4.599   0.156   8.144  0.5257 -1.4711  0.4632
 7555SOL    HW234299   4.568   0.205   8.280 -1.1250 -1.0672  1.3755
 7556SOL     OW34300   2.790   3.089   5.916 -0.0939 -0.3436  0.2144
 7556SOL    HW134301   2.741   3.049   5.843  0.5279  0.3391 -0.5748
 7556SOL    HW234302   2.882   3.085   5.890 -0.5133 -0.1968 -1.2845
 7557SOL     OW34303   1.774   1.386  10.295  0.1323  0.2933 -0.0812
 7557SOL    HW134304   1.745   1.458  10.239 -1.8130 -0.4596 -0.0472
 7557SOL    HW234305   1.697   1.372  10.350  0.6366 -2.3512 -0.0817
 7558SOL     OW34306   1.209   3.677   8.032 -0.5606  0.0879 -0.6486
 7558SOL    HW134307   1.193   3.676   8.126  0.5481 -2.2368 -0.4903
 7558SOL    HW234308   1.280   3.613   8.037 -0.3796  0.2255 -1.4410
 7559SOL     OW34309   4.698   3.773   1.528  0.1343  0.5645 -0.5258
 7559SOL    HW134310   4.723   3.815   1.445  0.2028  1.8910  0.1580
 7559SOL    HW234311   4.722   3.690   1.487 -0.2512  1.1362 -1.9389
 7560SOL     OW34312   0.120   2.532   0.034 -0.1064  0.1386  0.2415
 7560SOL    HW134313   0.075   2.588  17.742  0.0123 -1.1296 -0.9398
 7560SOL    HW234314   0.100   2.444   0.005 -0.2583  1.1470 -2.6818
 7561SOL     OW34315   0.175   3.490   2.638  0.1506  0.5931  0.4595
 7561SOL    HW134316   0.101   3.430   2.633  0.6748  0.2093 -2.6580
 7561SOL    HW234317   0.248   3.429   2.644  0.3451  0.5877 -2.0511
 7562SOL     OW34318   3.310   1.487   9.315  0.2186 -0.4703 -0.5750
 7562SOL    HW134319   3.281   1.558   9.372 -0.7674 -1.4886  0.2019
 7562SOL    HW234320   3.405   1.500   9.315  0.3071 -1.0844  1.7945
 7563SOL     OW34321   0.515   2.007   3.338  0.1583  0.2643 -0.2355
 7563SOL    HW134322   0.590   2.000   3.278 -0.0512  2.2002 -0.7458
 7563SOL    HW234323   0.440   1.983   3.284  1.0951  1.3920 -2.0380
 7564SOL     OW34324   1.885   2.849   2.929  0.4269 -0.1743  0.4796
 7564SOL    HW134325   1.828   2.905   2.876 -0.0659 -0.7528  0.4083
 7564SOL    HW234326   1.817   2.783   2.941  0.4881 -0.2479  0.4172
 7565SOL     OW34327   1.127   0.421   1.732 -0.1588 -0.6249  0.6080
 7565SOL    HW134328   1.050   0.467   1.767 -0.4165  0.1842 -1.0221
 7565SOL    HW234329   1.117   0.332   1.765  0.1026 -0.5297  0.9436
 7566SOL     OW34330   0.436   4.569   5.164 -0.3433  0.1308 -0.2345
 7566SOL    HW134331   0.405   4.583   5.253 -0.7307 -0.5324 -0.2667
 7566SOL    HW234332   0.522   4.612   5.160  0.1833 -0.8264  0.7145
 7567SOL     OW34333   2.062   4.051   3.956  0.3754  0.0129  0.0135
 7567SOL    HW134334   2.082   4.003   4.036 -1.6116 -0.5970  0.1553
 7567SOL    HW234335   1.994   4.001   3.911 -0.4087 -0.2710  1.5220
 7568SOL     OW34336   2.708   3.676   7.326 -0.1215  0.3834 -0.1259
 7568SOL    HW134337   2.667   3.680   7.413 -0.7891  0.6092 -0.4495
 7568SOL    HW234338   2.790   3.724   7.340 -1.2489  1.8494  1.4984
 7569SOL     OW34339   3.745   1.159   3.087 -0.4756 -0.7544 -0.2131
 7569SOL    HW134340   3.663   1.150   3.038 -0.1882 -0.3068 -0.7870
 7569SOL    HW234341   3.791   1.088   3.041  0.7704  0.3971 -0.7580
 7570SOL     OW34342   0.560   0.313   5.888 -0.1088 -0.6402 -0.0411
 7570SOL    HW134343   0.643   0.317   5.842  0.0787 -2.0358  0.1616
 7570SOL    HW234344   0.544   0.403   5.918  0.2843 -1.3764  2.4238
 7571SOL     OW34345   2.514   3.597   9.902 -0.0838  0.0768  0.5281
 7571SOL    HW134346   2.462   3.562   9.974  0.3284  0.0955  0.8338
 7571SOL    HW234347   2.456   3.576   9.829 -1.2888  3.9343  0.3635
 7572SOL     OW34348   1.860   2.134   2.031  0.7076 -0.1253  0.1968
 7572SOL    HW134349   1.807   2.059   2.056 -0.0302 -0.5348 -2.6136
 7572SOL    HW234350   1.809   2.199   2.078 -2.8518 -2.8416  0.0230
 7573SOL     OW34351   4.326   4.726  11.515 -0.2059  0.4158 -0.3979
 7573SOL    HW134352   4.419   4.713  11.494 -0.1849 -0.1652  0.0372
 7573SOL    HW234353   4.332   4.701  11.608 -0.7425  1.6630 -0.0337
 7574SOL     OW34354   3.333   1.545   2.219 -0.1595 -0.4959 -0.6884
 7574SOL    HW134355   3.273   1.582   2.156  0.0443 -1.8104 -1.6506
 7574SOL    HW234356   3.416   1.589   2.198 -0.6102  0.7274  0.1166
 7575SOL     OW34357   3.260   2.614   1.512  0.1533 -0.8839  0.1623
 7575SOL    HW134358   3.274   2.643   1.603 -2.4247  1.7938 -0.3009
 7575SOL    HW234359   3.167   2.627   1.496 -0.5666  0.4565  5.3319
 7576SOL     OW34360   1.648   1.063   1.748 -0.3158 -0.3423  0.0003
 7576SOL    HW134361   1.726   1.116   1.766  0.1610 -0.9174 -0.3970
 7576SOL    HW234362   1.594   1.116   1.688  0.1582  1.5159  1.2010
 7577SOL     OW34363   3.077   1.267   7.253 -0.0743  0.1270 -0.2075
 7577SOL    HW134364   3.127   1.192   7.283 -1.2508 -0.6480 -0.1922
 7577SOL    HW234365   3.126   1.298   7.176  0.1730  0.5491  0.1206
 7578SOL     OW34366   3.915   3.012  14.069 -0.1822  0.5441  0.0291
 7578SOL    HW134367   3.907   2.927  14.027 -1.2089 -1.1351  3.5864
 7578SOL    HW234368   4.003   3.032  14.039 -1.2052  0.9641 -2.6315
 7579SOL     OW34369   1.399   0.350   1.024 -0.1379 -0.0566  0.2776
 7579SOL    HW134370   1.485   0.386   1.047  0.4412 -0.8670 -0.6319
 7579SOL    HW234371   1.417   0.257   1.040  1.6592  0.6625  2.3820
 7580SOL     OW34372   4.623   0.803   4.929  0.0293 -0.2879  0.3763
 7580SOL    HW134373   4.536   0.806   4.970 -1.4810  0.4487 -2.8867
 7580SOL    HW234374   4.609   0.840   4.842  2.2304 -1.1713 -0.3332
 7581SOL     OW34375   3.971   2.087   7.853 -0.6947  0.2264 -0.0082
 7581SOL    HW134376   3.912   2.105   7.926 -0.0720 -1.3301  0.8986
 7581SOL    HW234377   3.935   2.000   7.835  1.6602 -0.3841 -1.9086
 7582SOL     OW34378   3.621   1.633   6.085 -0.0427 -0.2840 -0.1513
 7582SOL    HW134379   3.529   1.628   6.059 -0.1023  0.1311 -0.0314
 7582SOL    HW234380   3.614   1.586   6.168 -1.7742 -2.5508 -1.6102
 7583SOL     OW34381   1.241   0.384  14.592  0.0592 -0.4929 -0.4856
 7583SOL    HW134382   1.306   0.413  14.656 -1.4134 -0.0433  0.8086
 7583SOL    HW234383   1.189   0.332  14.654  0.1715  0.8872  0.7778
 7584SOL     OW34384   3.807   1.760   8.361 -0.7043 -0.4864 -0.4878
 7584SOL    HW134385   3.714   1.755   8.338 -1.3387 -0.9966  2.2840
 7584SOL    HW234386   3.807   1.715   8.445 -0.7951  0.5795  0.0845
 7585SOL     OW34387   3.265   2.380   4.931  0.3235 -0.2547  0.5230
 7585SOL    HW134388   3.357   2.355   4.938  0.1340 -1.3017 -0.6873
 7585SOL    HW234389   3.237   2.373   5.022  2.4665  4.2978  1.5254
 7586SOL     OW34390   3.597   1.458  14.009  0.5670 -0.3454  0.3425
 7586SOL    HW134391   3.616   1.509  14.087  0.5479 -1.2010  0.9020
 7586SOL    HW234392   3.616   1.514  13.934 -1.3291 -1.3680 -0.9108
 7587SOL     OW34393   1.807   2.884  14.823 -0.2438  0.3969 -0.7476
 7587SOL    HW134394   1.793   2.972  14.789  0.0344  0.2855 -1.1557
 7587SOL    HW234395   1.873   2.914  14.885 -0.2415 -0.7498 -0.2016
 7588SOL     OW34396   1.424   4.707   9.039 -0.5290 -0.2717 -0.3342
 7588SOL    HW134397   1.502   0.019   9.045 -0.8279  0.1489 -0.3157
 7588SOL    HW234398   1.386   4.714   9.126 -1.8026 -0.0789 -0.9136
 7589SOL     OW34399   3.630   2.644   4.133 -0.0015  0.6649 -0.0312
 7589SOL    HW134400   3.591   2.658   4.219 -0.4336  2.6523 -0.5466
 7589SOL    HW234401   3.689   2.717   4.115  0.1298  0.4042 -0.6455
 7590SOL     OW34402   1.754   1.024  10.428 -0.4094  0.1086 -0.4420
 7590SOL    HW134403   1.777   0.948  10.375  1.7762  0.5252 -0.0909
 7590SOL    HW234404   1.760   1.096  10.365 -1.1215  0.6545  0.1162
 7591SOL     OW34405   0.940   2.503   8.376  0.6344 -0.1095 -0.3087
 7591SOL    HW134406   0.880   2.440   8.416 -2.1413  2.0227 -1.0745
 7591SOL    HW234407   0.898   2.521   8.292  0.4421 -3.5993 -0.9773
 7592SOL     OW34408   0.393   1.335   2.170 -0.0706  0.2320  0.5686
 7592SOL    HW134409   0.302   1.309   2.185  0.1936 -0.9896  0.0855
 7592SOL    HW234410   0.435   1.251   2.190  0.9503  0.6685  0.2448
 7593SOL     OW34411   3.451   4.520   0.298 -0.3220  0.0293 -0.1621
 7593SOL    HW134412   3.531   4.554   0.259  1.0060 -0.2302  2.3711
 7593SOL    HW234413   3.477   4.432   0.325  0.7538 -0.4398 -2.7025
 7594SOL     OW34414   2.162   2.657  17.516  0.4694 -0.0845  0.4624
 7594SOL    HW134415   2.221   2.607  17.572  2.5495  0.3140 -1.3674
 7594SOL    HW234416   2.134   2.724  17.579  1.2325 -0.4609  1.2020
 7595SOL     OW34417   1.984   2.515   2.514 -0.1235  0.6484 -0.1719
 7595SOL    HW134418   2.056   2.565   2.477 -1.8518  0.3815 -3.8826
 7595SOL    HW234419   1.943   2.579   2.572 -1.4324 -0.4144  0.0747
 7596SOL     OW34420   4.165   2.979   1.902 -0.2033 -0.2342 -0.0022
 7596SOL    HW134421   4.083   2.930   1.907 -1.1744  1.3476 -0.3340
 7596SOL    HW234422   4.202   2.974   1.990 -0.4933  1.4068  0.2255
 7597SOL     OW34423   4.282   3.252  11.563  0.7133 -0.4659  0.3987
 7597SOL    HW134424   4.293   3.161  11.592  0.1593 -0.8840 -0.7017
 7597SOL    HW234425   4.220   3.277  11.632  3.1760  0.7343  2.1630
 7598SOL     OW34426   0.778   2.781  14.569  0.3850 -0.2911  0.3601
 7598SOL    HW134427   0.736   2.865  14.550  1.1901  0.1680  0.6278
 7598SOL    HW234428   0.720   2.726  14.517  1.9298 -2.0478  0.5140
 7599SOL     OW34429   1.217   2.242   8.427  0.1454  0.1533  0.5499
 7599SOL    HW134430   1.165   2.256   8.348 -1.2241 -3.4832  0.8378
 7599SOL    HW234431   1.294   2.201   8.389 -0.0568  0.7673 -0.5158
 7600SOL     OW34432   0.978   2.707  10.866 -0.4516 -0.9420 -0.7005
 7600SOL    HW134433   0.990   2.737  10.776 -2.2994  0.9305 -0.3434
 7600SOL    HW234434   1.024   2.780  10.908 -2.1285 -0.7005  0.7465
 7601SOL     OW34435   3.534   3.663   6.825 -0.2174  0.1345  0.0448
 7601SOL    HW134436   3.496   3.718   6.893  1.2097  2.0029 -0.6880
 7601SOL    HW234437   3.491   3.700   6.749  1.9189  1.8040 -0.3284
 7602SOL     OW34438   2.323   1.446  14.600 -0.3419 -0.1750  0.4437
 7602SOL    HW134439   2.257   1.444  14.531 -0.9654  2.0308  0.9827
 7602SOL    HW234440   2.317   1.531  14.643 -3.4838  0.5981 -1.5811
 7603SOL     OW34441   2.106   3.220   6.087 -0.4830  0.4462 -0.1305
 7603SOL    HW134442   2.092   3.312   6.066 -0.9781  0.4797  0.3615
 7603SOL    HW234443   2.123   3.242   6.178 -0.8750  1.4441 -0.2987
 7604SOL     OW34444   2.149   3.889   1.707  0.9553  0.1112 -0.6177
 7604SOL    HW134445   2.081   3.956   1.701 -0.1135 -0.8104  1.1264
 7604SOL    HW234446   2.123   3.848   1.790 -0.7962  0.0781 -1.1776
 7605SOL     OW34447   2.189   0.608   3.244 -0.0030  0.4804  0.1815
 7605SOL    HW134448   2.106   0.564   3.223  0.5272 -1.0029  1.1858
 7605SOL    HW234449   2.175   0.694   3.204  2.6254 -0.5320 -2.8707
 7606SOL     OW34450   0.188   1.682  15.557  0.3025 -0.0265 -0.1530
 7606SOL    HW134451   0.118   1.638  15.508  0.5084  0.2944 -0.7274
 7606SOL    HW234452   0.188   1.764  15.509 -0.9036  0.4648  0.6719
 7607SOL     OW34453   3.836   4.158   4.716 -0.1151  0.0650  0.9468
 7607SOL    HW134454   3.929   4.174   4.698  0.2459 -0.7778  2.0082
 7607SOL    HW234455   3.809   4.242   4.753  2.6760  1.6533 -0.5698
 7608SOL     OW34456   1.917   2.984  13.638 -0.2580 -0.0542 -0.4251
 7608SOL    HW134457   1.851   2.959  13.703  1.5918 -1.2523  1.0032
 7608SOL    HW234458   1.875   3.044  13.577  0.2209  2.0393  1.2918
 7609SOL     OW34459   0.462   3.965   2.109 -0.3847 -0.2233  0.2516
 7609SOL    HW134460   0.477   3.874   2.083 -3.0869 -1.1089  1.8120
 7609SOL    HW234461   0.406   3.960   2.187 -1.1497 -0.7425 -0.3275
 7610SOL     OW34462   0.014   3.861   9.443 -0.6067 -0.4582 -0.1007
 7610SOL    HW134463   4.729   3.942   9.486  1.2816 -0.3154  0.9028
 7610SOL    HW234464   4.673   3.820   9.425 -0.9838  0.2587  0.0761
 7611SOL     OW34465   2.960   1.433   7.431 -0.4464  1.0515  0.3676
 7611SOL    HW134466   3.008   1.399   7.355 -0.4608  1.1224  0.3261
 7611SOL    HW234467   2.927   1.349   7.462 -2.7819  0.9172 -2.4301
 7612SOL     OW34468   2.887   4.444   2.107  0.2939  0.1489 -0.0979
 7612SOL    HW134469   2.935   4.454   2.189 -1.0157  0.3564  0.6403
 7612SOL    HW234470   2.828   4.519   2.118  0.3139  0.3295 -1.2193
 7613SOL     OW34471   0.598   0.366   8.947 -0.4407  0.1840 -0.0902
 7613SOL    HW134472   0.684   0.371   8.988  0.4157  2.5068 -2.1817
 7613SOL    HW234473   0.555   0.322   9.020  0.1301 -0.4738 -0.1533
 7614SOL     OW34474   0.647   0.694   4.242 -0.2496 -0.0970 -0.1085
 7614SOL    HW134475   0.580   0.688   4.175 -0.5867  0.3273  0.1873
 7614SOL    HW234476   0.726   0.664   4.197  1.6196  0.1313  3.0390
 7615SOL     OW34477   4.009   2.532   3.054 -0.1817 -0.2778  0.0008
 7615SOL    HW134478   3.951   2.605   3.030  2.4099  1.4621 -0.9307
 7615SOL    HW234479   4.089   2.579   3.074 -0.4817  1.1840 -2.1378
 7616SOL     OW34480   2.511   1.443   2.224 -0.1612 -0.0335  0.4087
 7616SOL    HW134481   2.496   1.359   2.180  0.8763  0.4881 -0.9263
 7616SOL    HW234482   2.544   1.417   2.310  4.1394  1.1459 -0.9246
 7617SOL     OW34483   1.679   0.063   7.203  0.0940  0.0075  0.2259
 7617SOL    HW134484   1.589   0.052   7.234 -0.4894  2.6382 -0.5464
 7617SOL    HW234485   1.672   0.036   7.112  0.8157  0.4331  0.0524
 7618SOL     OW34486   2.536   3.797   4.800  0.0799 -0.9739 -0.0258
 7618SOL    HW134487   2.478   3.766   4.870  0.1546 -2.2966 -0.5533
 7618SOL    HW234488   2.560   3.888   4.817 -0.7714 -0.9916  1.2880
 7619SOL     OW34489   4.273   2.160   2.229 -0.3520  0.1808 -0.2779
 7619SOL    HW134490   4.316   2.245   2.240  3.8977 -1.6650 -2.3566
 7619SOL    HW234491   4.217   2.160   2.306 -0.4191  0.3755 -0.3254
 7620SOL     OW34492   4.395   3.205  14.049 -0.3817 -0.3241 -0.4533
 7620SOL    HW134493   4.487   3.223  14.032 -0.3002 -0.3691 -0.0607
 7620SOL    HW234494   4.352   3.291  14.050  2.1986  0.9322  1.5698
 7621SOL     OW34495   1.017   2.945   9.478 -0.2307 -0.4321  0.1657
 7621SOL    HW134496   1.007   2.945   9.383  1.8103  0.3200 -0.0417
 7621SOL    HW234497   1.100   2.899   9.490  1.1232  1.8090 -0.4630
 7622SOL     OW34498   2.475   1.185   2.099 -0.0818 -0.1460 -0.1731
 7622SOL    HW134499   2.417   1.124   2.052  1.1597 -1.5811  0.1750
 7622SOL    HW234500   2.538   1.199   2.028  0.9015 -3.2854  0.0893
 7623SOL     OW34501   0.670   2.348  11.951 -0.4391 -0.3903  0.2839
 7623SOL    HW134502   0.640   2.436  11.930  0.3124 -0.5114 -1.3641
 7623SOL    HW234503   0.657   2.341  12.045  0.0612 -0.1721  0.3674
 7624SOL     OW34504   3.779   1.631   6.743  0.1394  0.1824  0.0291
 7624SOL    HW134505   3.729   1.705   6.779 -1.8464 -0.9430 -0.4549
 7624SOL    HW234506   3.754   1.572   6.814 -1.7457  0.2162 -0.6166
 7625SOL     OW34507   4.141   3.629  15.774 -0.3110 -0.2932  0.3061
 7625SOL    HW134508   4.049   3.651  15.758  0.0106  0.0592 -1.0350
 7625SOL    HW234509   4.184   3.671  15.700  0.5968 -0.7331  0.5854
 7626SOL     OW34510   3.205   4.073   5.415 -0.0033 -0.7066 -0.5261
 7626SOL    HW134511   3.286   4.124   5.411  0.6410 -1.7137 -0.2419
 7626SOL    HW234512   3.206   4.044   5.506 -1.7940 -1.2045 -0.6723
 7627SOL     OW34513   1.231   3.870   7.020 -0.9125  0.1964 -0.0736
 7627SOL    HW134514   1.295   3.900   7.084 -2.0226 -2.0852  2.1244
 7627SOL    HW234515   1.260   3.779   7.010 -0.4226  0.1948  1.3689
 7628SOL     OW34516   0.660   3.152   8.144  0.4396  0.3409 -0.6887
 7628SOL    HW134517   0.680   3.058   8.145  0.3382  0.3414  1.0950
 7628SOL    HW234518   0.612   3.149   8.061  0.1541 -2.4694 -0.4364
 7629SOL     OW34519   1.228   0.053  13.146 -0.2994  0.2774  0.3497
 7629SOL    HW134520   1.147   0.010  13.174  0.1671 -0.6919  0.1881
 7629SOL    HW234521   1.293   4.735  13.178 -1.0211 -0.9982 -0.6030
 7630SOL     OW34522   0.160   3.767   5.173 -0.8605  0.4441  0.0948
 7630SOL    HW134523   0.150   3.772   5.077  0.6373  0.4525 -0.0559
 7630SOL    HW234524   0.174   3.857   5.202  0.9476  0.4331 -0.7253
 7631SOL     OW34525   1.345   4.292  16.069  0.1923  0.4723 -0.2816
 7631SOL    HW134526   1.318   4.224  16.131  3.7407 -1.2914 -0.6951
 7631SOL    HW234527   1.299   4.363  16.114  0.4370  1.6785 -1.9039
 7632SOL     OW34528   1.269   2.468   9.873  0.0673 -0.0195 -0.2544
 7632SOL    HW134529   1.286   2.485   9.781  1.7476  0.1138  0.0778
 7632SOL    HW234530   1.317   2.540   9.915  1.2574 -1.1034  0.2224
 7633SOL     OW34531   1.591   3.374   4.136 -0.0102 -0.1271 -0.2488
 7633SOL    HW134532   1.572   3.468   4.129 -0.4552 -0.3504 -2.0160
 7633SOL    HW234533   1.685   3.364   4.124 -0.0982  0.3623 -1.3774
 7634SOL     OW34534   4.078   1.515   0.667 -0.1414  0.2907 -0.0376
 7634SOL    HW134535   4.107   1.493   0.578  3.4858 -0.7117  1.3953
 7634SOL    HW234536   3.983   1.509   0.653  0.0058  1.2141 -1.4040
 7635SOL     OW34537   0.766   4.693  17.235 -0.0436 -0.0581 -0.0685
 7635SOL    HW134538   0.765   4.599  17.255  0.7501  0.1844  1.1557
 7635SOL    HW234539   0.691   4.701  17.177 -0.4063 -1.4774  0.2058
 7636SOL     OW34540   3.175   2.249  15.491  0.1622 -0.5530 -0.4811
 7636SOL    HW134541   3.101   2.279  15.437  1.3485  1.5952 -0.9208
 7636SOL    HW234542   3.148   2.168  15.535 -4.0478 -2.1178 -5.7906
 7637SOL     OW34543   2.754   2.180   2.877 -0.0398 -0.1611 -0.4894
 7637SOL    HW134544   2.665   2.200   2.847 -0.3864 -2.1028 -0.8113
 7637SOL    HW234545   2.768   2.093   2.838 -1.8181 -0.3834 -0.6543
 7638SOL     OW34546   1.669   3.270   2.996 -0.5539  0.3431  0.0176
 7638SOL    HW134547   1.628   3.304   2.917  0.1337 -0.2283 -0.5899
 7638SOL    HW234548   1.627   3.321   3.065  1.3406  2.2674 -0.2602
 7639SOL     OW34549   1.823   1.309   3.284  0.0672 -0.2499 -0.1186
 7639SOL    HW134550   1.790   1.224   3.315 -0.1410  0.0391  0.4555
 7639SOL    HW234551   1.915   1.302   3.310  0.6908  1.6583 -1.8042
 7640SOL     OW34552   1.106   4.284   0.748 -0.4051  0.1020  0.5753
 7640SOL    HW134553   1.038   4.351   0.754  1.0359  1.7503 -1.4679
 7640SOL    HW234554   1.178   4.344   0.764  1.4964 -1.9361 -0.3731
 7641SOL     OW34555   2.776   4.365   4.295 -0.4417  0.0132 -0.1070
 7641SOL    HW134556   2.849   4.397   4.349 -0.5977 -1.5103  0.9862
 7641SOL    HW234557   2.772   4.275   4.325  1.4053 -0.2458 -0.6142
 7642SOL     OW34558   0.539   2.514   7.152  0.0215 -0.2104  0.1475
 7642SOL    HW134559   0.561   2.585   7.091 -2.2131 -0.4091 -0.9082
 7642SOL    HW234560   0.621   2.465   7.151  2.5147  3.9203  2.1509
 7643SOL     OW34561   1.452   0.021   1.719  0.7044 -0.5320  0.1032
 7643SOL    HW134562   1.508   4.696   1.683  0.7448 -0.1905 -0.4745
 7643SOL    HW234563   1.363   4.728   1.714  1.0581 -1.7798  2.7128
 7644SOL     OW34564   1.057   4.294   9.446  0.2369 -0.0272 -0.7615
 7644SOL    HW134565   1.093   4.382   9.458 -0.8297  0.0853  1.5482
 7644SOL    HW234566   1.114   4.260   9.378  0.9018  0.3488 -0.3956
 7645SOL     OW34567   0.585   2.918   2.517  0.3088  0.5941 -0.0986
 7645SOL    HW134568   0.556   2.880   2.434  0.7670 -2.8268  1.3050
 7645SOL    HW234569   0.514   2.890   2.574  1.5767 -3.3443 -0.4332
 7646SOL     OW34570   0.764   2.308  13.471  0.0796 -0.2625  0.0401
 7646SOL    HW134571   0.687   2.254  13.491 -0.5773  0.7938  0.3890
 7646SOL    HW234572   0.833   2.245  13.449 -1.0981 -2.2054  1.8433
 7647SOL     OW34573   0.426   3.710  14.992  0.1571  0.3761  0.1814
 7647SOL    HW134574   0.373   3.633  15.014 -0.9066  0.4664 -1.9788
 7647SOL    HW234575   0.354   3.773  14.982 -1.1979 -1.4996 -1.9829
 7648SOL     OW34576   3.810   4.473   7.769  0.1338 -0.1901 -0.2041
 7648SOL    HW134577   3.801   4.514   7.856  1.6899  0.4685 -0.3538
 7648SOL    HW234578   3.876   4.407   7.784  0.5444  0.4836  0.9837
 7649SOL     OW34579   1.603   2.797  11.590 -0.6515  0.0912 -0.0492
 7649SOL    HW134580   1.568   2.811  11.678 -1.0430  0.0284 -0.1949
 7649SOL    HW234581   1.532   2.828  11.535 -0.8605 -0.6935 -0.2294
 7650SOL     OW34582   0.105   3.141   0.062 -0.2130 -0.0346  0.5042
 7650SOL    HW134583   0.090   3.047   0.049 -1.4792  0.2823 -0.3079
 7650SOL    HW234584   0.021   3.174   0.092 -0.7837 -0.9046 -0.1447
 7651SOL     OW34585   1.517   4.372   3.252  0.0705  0.2614 -0.5652
 7651SOL    HW134586   1.555   4.294   3.211  1.6648  0.2907  0.8540
 7651SOL    HW234587   1.534   4.433   3.181  0.5128  2.7174  1.6663
 7652SOL     OW34588   0.415   1.410  12.449 -0.2308  0.3626 -0.5396
 7652SOL    HW134589   0.394   1.367  12.366  1.7481 -2.1385  0.2564
 7652SOL    HW234590   0.336   1.380  12.494  2.3461 -0.5852  3.3220
 7653SOL     OW34591   0.033   3.288   7.631 -0.0064  0.1995  0.7784
 7653SOL    HW134592   4.740   3.316   7.547  0.9869 -2.0456 -0.3774
 7653SOL    HW234593   0.124   3.270   7.608 -0.1594 -0.2204  0.5052
 7654SOL     OW34594   0.820   0.624   6.632  0.1793  0.6173 -0.5110
 7654SOL    HW134595   0.766   0.573   6.694 -0.2399  1.4174 -0.2218
 7654SOL    HW234596   0.810   0.560   6.561  0.5367  1.1120 -1.0031
 7655SOL     OW34597   3.056   2.639  11.045 -0.2680 -0.1810 -0.0874
 7655SOL    HW134598   3.008   2.720  11.066 -0.6393 -1.2506  3.0939
 7655SOL    HW234599   3.091   2.672  10.962 -0.3806 -1.5007 -0.6623
 7656SOL     OW34600   2.628   1.016   0.940  0.1975  0.0861  0.2433
 7656SOL    HW134601   2.601   1.039   1.029 -0.9627  0.5622 -0.2376
 7656SOL    HW234602   2.579   0.934   0.940  3.1245 -1.6818 -0.9836
 7657SOL     OW34603   3.055   4.722   3.336 -0.4405  0.3161 -0.3112
 7657SOL    HW134604   3.139   0.018   3.313 -0.2031  1.1859  2.1466
 7657SOL    HW234605   3.064   4.635   3.296  1.2445 -0.5501  1.9831
 7658SOL     OW34606   2.018   2.234  12.623  0.0675  0.8998  0.7987
 7658SOL    HW134607   2.110   2.251  12.646  0.7022  0.1241 -1.1462
 7658SOL    HW234608   1.996   2.257  12.713 -1.3193  1.0618  0.4134
 7659SOL     OW34609   2.768   2.687   4.354  0.2483  0.2508 -0.3502
 7659SOL    HW134610   2.706   2.760   4.353 -1.7160 -1.4121 -1.2510
 7659SOL    HW234611   2.820   2.702   4.433 -0.4245  3.5518 -0.5745
 7660SOL     OW34612   3.831   4.523   8.965 -0.5883 -0.2668  0.3337
 7660SOL    HW134613   3.817   4.466   9.040  2.5247 -1.6796 -0.1893
 7660SOL    HW234614   3.741   4.521   8.931 -0.6344 -0.9649  0.5024
 7661SOL     OW34615   1.502   0.831   2.295  0.0822  0.1824 -0.4695
 7661SOL    HW134616   1.482   0.753   2.346  0.1419 -0.9716 -2.2244
 7661SOL    HW234617   1.595   0.854   2.300  0.1286 -0.4047  1.2631
 7662SOL     OW34618   4.558   1.302   0.952  0.3976  0.4810  0.7928
 7662SOL    HW134619   4.595   1.334   1.034 -3.7362  0.0590  2.8346
 7662SOL    HW234620   4.586   1.211   0.963  1.3140  0.7843  0.8853
 7663SOL     OW34621   4.733   2.942   4.906 -0.0421 -0.1043  0.5098
 7663SOL    HW134622   0.081   2.965   4.919 -0.6427  2.2183  0.5213
 7663SOL    HW234623   4.711   2.968   4.817  3.1381 -2.5625 -1.0072
 7664SOL     OW34624   0.194   0.787  11.542 -0.2033 -0.2694  0.0553
 7664SOL    HW134625   0.263   0.786  11.476  1.7056 -2.3049  2.0922
 7664SOL    HW234626   0.156   0.872  11.521  2.3015  0.6230 -0.7995
 7665SOL     OW34627   3.676   0.526   0.366  0.2758  0.4862  0.1754
 7665SOL    HW134628   3.703   0.440   0.398  0.3355  0.9114  1.2633
 7665SOL    HW234629   3.618   0.499   0.295  0.0629  0.6435  0.2885
 7666SOL     OW34630   3.572   0.102   1.337 -0.0083  0.2388 -0.9733
 7666SOL    HW134631   3.614   0.167   1.281 -1.0419  0.9564 -0.9162
 7666SOL    HW234632   3.588   0.026   1.281 -3.0659 -0.5156 -0.8380
 7667SOL     OW34633   2.089   2.357   1.896 -0.0193 -0.1599  0.0992
 7667SOL    HW134634   2.004   2.401   1.895  0.5085  0.9219  1.9488
 7667SOL    HW234635   2.085   2.314   1.982 -2.1575  0.1480  0.1674
 7668SOL     OW34636   3.435   0.639   9.692  0.1214  0.1060  0.7227
 7668SOL    HW134637   3.438   0.696   9.769 -2.1182  0.9910  0.1653
 7668SOL    HW234638   3.379   0.696   9.639  1.0032 -0.8218 -1.2029
 7669SOL     OW34639   1.980   3.166   8.800  0.0184  0.4564 -0.1704
 7669SOL    HW134640   1.934   3.246   8.778 -0.7102 -0.4072 -1.8142
 7669SOL    HW234641   2.020   3.205   8.878 -0.1343 -0.6609  0.4672
 7670SOL     OW34642   4.628   2.966  13.902  0.1901  0.0492 -0.6709
 7670SOL    HW134643   4.554   2.906  13.890  2.3081 -2.4168 -1.4180
 7670SOL    HW234644   4.685   2.921  13.966 -0.5217 -0.9739 -0.7542
 7671SOL     OW34645   3.836   0.607   5.812  0.5864 -0.1325  0.0971
 7671SOL    HW134646   3.872   0.690   5.845 -0.3434  0.7642 -1.1376
 7671SOL    HW234647   3.812   0.552   5.887  0.4375  1.4353  1.2022
 7672SOL     OW34648   1.300   4.170   3.404  0.3295 -0.1347 -0.0440
 7672SOL    HW134649   1.211   4.172   3.439  0.0524 -1.7090 -0.6565
 7672SOL    HW234650   1.335   4.258   3.421  0.6783 -0.4414  0.8135
 7673SOL     OW34651   2.301   1.195   7.139 -0.1175  0.1147 -0.4921
 7673SOL    HW134652   2.336   1.215   7.053 -0.0927  0.7196 -0.3457
 7673SOL    HW234653   2.295   1.287   7.166 -0.5241 -0.5393  1.7238
 7674SOL     OW34654   1.953   2.290  12.884  0.0669  0.4184  0.7627
 7674SOL    HW134655   1.915   2.212  12.923  0.0167  0.0855  0.0416
 7674SOL    HW234656   2.019   2.306  12.952  0.4567  0.7564  0.3005
 7675SOL     OW34657   2.761   0.490   2.037 -0.0211  0.2290 -0.1497
 7675SOL    HW134658   2.723   0.508   2.122 -3.6950 -0.9109 -1.5528
 7675SOL    HW234659   2.696   0.518   1.973  0.0229  0.2068 -0.2043
 7676SOL     OW34660   0.119   2.372   9.001  0.6334 -0.1400 -0.0080
 7676SOL    HW134661   0.170   2.335   9.073  1.0947  1.3280  0.4307
 7676SOL    HW234662   0.133   2.464   9.024  0.7321 -0.0854 -0.2901
 7677SOL     OW34663   0.371   3.673   8.808 -0.0670 -0.0222  0.0387
 7677SOL    HW134664   0.378   3.603   8.743 -0.5031  0.8186 -0.9057
 7677SOL    HW234665   0.325   3.747   8.768  0.6529 -0.3698 -1.4206
 7678SOL     OW34666   1.671   0.484   9.163 -0.4415  0.3641  0.2801
 7678SOL    HW134667   1.728   0.550   9.124  0.6369 -0.7075  0.0031
 7678SOL    HW234668   1.645   0.528   9.244  2.3428 -0.7763  1.8301
 7679SOL     OW34669   0.438   0.875   2.687 -0.1543 -0.0188 -0.8533
 7679SOL    HW134670   0.531   0.855   2.692  0.1898  2.2849  1.8827
 7679SOL    HW234671   0.435   0.960   2.731 -0.4721 -0.4701  0.0026
 7680SOL     OW34672   3.792   1.107   2.221  0.5280  0.1249 -0.6204
 7680SOL    HW134673   3.829   1.188   2.258  0.2912  0.0731 -0.2718
 7680SOL    HW234674   3.731   1.079   2.289  0.5133  2.8861  0.5221
 7681SOL     OW34675   0.668   2.574   6.039  0.0574 -0.0659  0.5803
 7681SOL    HW134676   0.669   2.521   6.118 -0.4075  0.7856  1.1490
 7681SOL    HW234677   0.636   2.658   6.071  1.1589 -0.1387  1.8670
 7682SOL     OW34678   3.818   4.587  17.177 -0.4956  0.5625  0.1912
 7682SOL    HW134679   3.827   4.544  17.262  3.8965 -0.3226 -0.6756
 7682SOL    HW234680   3.774   4.670  17.192 -2.3410 -0.4575  0.3172
 7683SOL     OW34681   3.239   1.217  10.855  0.9484 -0.7428 -0.3071
 7683SOL    HW134682   3.144   1.227  10.851  1.0205 -0.1471 -0.4578
 7683SOL    HW234683   3.259   1.250  10.943  0.3087 -0.3777 -0.2982
 7684SOL     OW34684   4.345   2.488   6.087  0.8897 -0.1126  0.0054
 7684SOL    HW134685   4.397   2.566   6.108 -0.6831  0.9553 -0.0427
 7684SOL    HW234686   4.379   2.428   6.152  1.2635 -1.8059 -1.7509
 7685SOL     OW34687   4.173   1.439  12.791 -0.6255  0.6770 -0.0775
 7685SOL    HW134688   4.145   1.351  12.766 -1.8784  0.5613  1.7143
 7685SOL    HW234689   4.127   1.496  12.730  1.1610  1.3831 -0.7571
 7686SOL     OW34690   0.941   2.955  17.625 -0.0531  0.1146  0.4920
 7686SOL    HW134691   1.020   2.977  17.575 -0.4094 -1.1181 -0.6193
 7686SOL    HW234692   0.967   2.979  17.714  2.0487  1.0024 -0.3672
 7687SOL     OW34693   0.166   3.985  16.293 -0.0050 -0.1410 -0.1167
 7687SOL    HW134694   0.173   3.891  16.307  0.1419  0.1735  1.8606
 7687SOL    HW234695   0.144   4.000  16.385 -0.9209  0.6314 -0.4557
 7688SOL     OW34696   1.900   3.357   5.831  0.0292 -0.2499  0.0645
 7688SOL    HW134697   1.923   3.330   5.742 -2.6709 -1.0940 -0.3592
 7688SOL    HW234698   1.951   3.295   5.884  0.1401  0.5167  0.8583
 7689SOL     OW34699   0.242   4.301   1.955 -0.0174  0.7396  0.1731
 7689SOL    HW134700   0.234   4.284   1.861  0.9936  3.2436 -0.3542
 7689SOL    HW234701   0.183   4.235   1.992  1.9084 -0.0332  1.8574
 7690SOL     OW34702   0.091   1.045   1.168 -0.3888  0.3978 -0.2316
 7690SOL    HW134703   0.111   0.954   1.145 -1.4405  0.0532  0.2319
 7690SOL    HW234704   0.161   1.063   1.232 -0.8286 -0.6383  0.5440
 7691SOL     OW34705   4.257   2.973   2.653  0.0256 -0.2438 -0.1337
 7691SOL    HW134706   4.189   3.039   2.641  0.7677  0.7564  1.0673
 7691SOL    HW234707   4.319   3.035   2.692 -0.6314  0.6565 -0.5488
 7692SOL     OW34708   1.915   4.653   9.543  0.1026 -0.5420 -0.4357
 7692SOL    HW134709   1.843   4.709   9.513 -0.6881 -0.7970  1.0123
 7692SOL    HW234710   1.868   4.572   9.526  0.5624 -0.2039 -3.2956
 7693SOL     OW34711   1.958   3.325   1.582 -0.0566 -0.2195  0.2129
 7693SOL    HW134712   2.002   3.398   1.627  1.3931 -1.5037  0.8728
 7693SOL    HW234713   2.023   3.256   1.592 -0.1036 -0.1297  1.1301
 7694SOL     OW34714   2.238   1.089   6.730 -0.1332 -0.8950  0.1912
 7694SOL    HW134715   2.244   1.164   6.789 -0.3122  1.2027 -2.4966
 7694SOL    HW234716   2.322   1.046   6.748  0.4084 -0.4521 -1.2749
 7695SOL     OW34717   3.328   4.363   9.744 -0.3542 -0.1433 -0.3101
 7695SOL    HW134718   3.336   4.272   9.773  0.1309 -0.3282 -1.0302
 7695SOL    HW234719   3.397   4.365   9.677 -0.5184 -2.2538 -0.5426
 7696SOL     OW34720   3.874   2.993   6.151 -1.0037 -0.0974  0.1271
 7696SOL    HW134721   3.965   3.015   6.136 -1.2369  0.8101  0.0598
 7696SOL    HW234722   3.830   3.075   6.176  1.5502  0.8758  1.3852
 7697SOL     OW34723   4.552   2.230   8.612  0.0918  0.2434 -0.2564
 7697SOL    HW134724   4.585   2.209   8.699 -0.2190 -1.9416 -0.6517
 7697SOL    HW234725   4.630   2.260   8.566 -0.0688 -0.3598 -0.9205
 7698SOL     OW34726   4.698   0.005   3.061 -0.2070 -0.1861 -0.5688
 7698SOL    HW134727   4.622   0.030   3.113  1.4729  0.8165  1.4008
 7698SOL    HW234728   4.662   4.727   2.975 -1.7959 -0.8398  0.2541
 7699SOL     OW34729   4.618   4.291   7.243 -0.6526 -0.1160 -0.2978
 7699SOL    HW134730   4.624   4.271   7.336  0.3577  0.3281 -0.2778
 7699SOL    HW234731   4.529   4.259   7.226 -0.1957 -0.3074 -2.3979
 7700SOL     OW34732   2.698   4.665   2.171 -0.4797 -0.2208  0.1580
 7700SOL    HW134733   2.722   0.014   2.179 -0.8018 -0.0454 -0.8538
 7700SOL    HW234734   2.638   4.678   2.098  0.1551 -0.0995 -0.3415
 7701SOL     OW34735   1.392   0.323   5.467  0.1600  0.0906 -0.3548
 7701SOL    HW134736   1.323   0.362   5.413  0.6959  0.3469 -0.8560
 7701SOL    HW234737   1.348   0.297   5.547  1.1334  0.3942  0.2749
 7702SOL     OW34738   1.595   2.382   5.300 -0.7102  0.6254  0.3269
 7702SOL    HW134739   1.516   2.399   5.352 -0.0910 -0.7571  1.7215
 7702SOL    HW234740   1.569   2.293   5.276 -0.5104  0.9554 -1.1092
 7703SOL     OW34741   1.792   0.648   7.805  0.1047 -0.0317  0.5128
 7703SOL    HW134742   1.815   0.741   7.804  0.2508 -0.0843 -1.0644
 7703SOL    HW234743   1.884   0.622   7.806 -0.3851 -1.7074  0.7607
 7704SOL     OW34744   1.178   3.409   5.410 -0.0467 -0.2541 -0.6662
 7704SOL    HW134745   1.098   3.418   5.359  0.7849 -0.7973 -2.0750
 7704SOL    HW234746   1.154   3.423   5.502 -0.7445  0.0724 -0.9005
 7705SOL     OW34747   2.498   4.154   6.977 -0.1031 -0.5496  0.4350
 7705SOL    HW134748   2.543   4.157   7.061 -1.4263  3.3518  1.0286
 7705SOL    HW234749   2.495   4.061   6.956 -0.5916 -0.5309  0.4337
 7706SOL     OW34750   1.226   0.636   5.481 -0.3490 -0.3309  0.0491
 7706SOL    HW134751   1.205   0.547   5.452 -0.5752 -0.8646  1.8431
 7706SOL    HW234752   1.252   0.678   5.399 -0.4721  0.3196  0.3466
 7707SOL     OW34753   2.296   1.487   5.000  0.5160 -0.3930 -0.2960
 7707SOL    HW134754   2.356   1.449   5.065 -0.7256 -1.6713  0.1054
 7707SOL    HW234755   2.337   1.480   4.914  0.9649  1.6722 -0.2427
 7708SOL     OW34756   0.606   0.115   4.851  0.2569 -0.1619  1.0042
 7708SOL    HW134757   0.639   0.033   4.886 -0.1061 -0.5338  0.4796
 7708SOL    HW234758   0.521   0.088   4.816 -0.0537  0.0907  1.5530
 7709SOL     OW34759   1.997   0.766  14.466 -0.3223 -0.0755  0.0115
 7709SOL    HW134760   1.966   0.758  14.376  2.8852 -3.2834 -0.8310
 7709SOL    HW234761   1.917   0.807  14.499 -0.8110 -0.0155 -1.2434
 7710SOL     OW34762   2.854   0.620   5.715  0.0803 -0.4385  0.5666
 7710SOL    HW134763   2.802   0.540   5.712 -0.8999  0.1252  2.6297
 7710SOL    HW234764   2.847   0.662   5.629  3.4737 -1.1240 -0.0232
 7711SOL     OW34765   1.999   0.375   0.784  0.6428  0.1054  0.3357
 7711SOL    HW134766   2.007   0.348   0.693  0.7381 -0.9280  0.6593
 7711SOL    HW234767   2.061   0.448   0.784  1.8701 -0.9589 -0.0389
 7712SOL     OW34768   0.285   2.364   1.849 -0.2040  0.1127  0.0055
 7712SOL    HW134769   0.361   2.359   1.908 -2.5850  0.4009  3.1005
 7712SOL    HW234770   0.306   2.292   1.791  0.1512 -0.5093  0.9007
 7713SOL     OW34771   0.840   3.816   4.636  0.1231 -0.2590  0.3860
 7713SOL    HW134772   0.878   3.904   4.645  0.8010 -0.4758 -0.4328
 7713SOL    HW234773   0.747   3.833   4.621 -0.2596 -0.1034  2.8287
 7714SOL     OW34774   3.842   1.543   5.676  0.2241  0.0160 -0.0846
 7714SOL    HW134775   3.899   1.607   5.719 -1.2520 -0.4657  2.5926
 7714SOL    HW234776   3.795   1.513   5.754 -0.0252 -0.0059 -0.2435
 7715SOL     OW34777   3.422   2.380   1.552 -0.9164  0.2693  0.3273
 7715SOL    HW134778   3.387   2.341   1.632 -0.1340  1.2174  1.1387
 7715SOL    HW234779   3.369   2.460   1.548  0.1208  0.8363 -2.2929
 7716SOL     OW34780   1.117   0.837   3.969 -0.8042 -0.2095  0.7944
 7716SOL    HW134781   1.123   0.816   4.062  3.4793 -0.1987  0.5340
 7716SOL    HW234782   1.027   0.833   3.936 -0.9606  0.7370  1.1225
 7717SOL     OW34783   3.020   3.395   2.399 -0.0126 -0.1227 -0.2337
 7717SOL    HW134784   3.025   3.391   2.304 -0.7463 -1.1106 -0.2320
 7717SOL    HW234785   2.941   3.341   2.405 -0.7935  1.1307  0.8566
 7718SOL     OW34786   0.102   3.555   6.536 -0.5075 -0.4243 -0.3440
 7718SOL    HW134787   0.018   3.581   6.573 -0.2131  1.3539 -0.9403
 7718SOL    HW234788   0.081   3.546   6.443 -0.1727 -1.5571 -0.3094
 7719SOL     OW34789   2.554   2.814  16.894  0.1774 -0.5144 -0.4810
 7719SOL    HW134790   2.585   2.803  16.804 -0.3721  1.2252 -0.9023
 7719SOL    HW234791   2.478   2.756  16.902 -0.1752  0.0871  0.5323
 7720SOL     OW34792   3.592   2.828   7.421  0.4373 -0.1990  0.0989
 7720SOL    HW134793   3.541   2.764   7.470 -1.6409  0.0613 -1.7680
 7720SOL    HW234794   3.665   2.821   7.483  0.7253  0.3372 -0.1759
 7721SOL     OW34795   4.584   0.321  11.423  0.1368  0.3160 -0.0008
 7721SOL    HW134796   4.613   0.305  11.513 -0.0698  0.1030  0.0286
 7721SOL    HW234797   4.529   0.250  11.389  0.6793 -0.6291  1.1017
 7722SOL     OW34798   1.114   2.439  15.212 -0.4313  0.0359  0.1415
 7722SOL    HW134799   1.138   2.528  15.238  0.3634 -0.6608  1.7360
 7722SOL    HW234800   1.185   2.394  15.256  0.7168 -0.5230 -2.2617
 7723SOL     OW34801   0.767   4.289   6.076  0.0063 -0.0106  0.3307
 7723SOL    HW134802   0.747   4.254   6.162  1.0672 -0.7073  0.2909
 7723SOL    HW234803   0.836   4.351   6.098  0.5714  0.1668 -1.9095
 7724SOL     OW34804   0.716   2.374   2.520  0.0763 -0.6015 -0.1434
 7724SOL    HW134805   0.720   2.342   2.611  1.0337 -0.1415 -0.0290
 7724SOL    HW234806   0.636   2.334   2.484  0.7311  0.3120 -2.6045
 7725SOL     OW34807   4.644   1.042   7.065  0.6336 -0.1581  0.1831
 7725SOL    HW134808   4.617   1.016   7.153  1.2501 -0.2611  0.3360
 7725SOL    HW234809   4.593   0.976   7.017  3.1846 -2.1069  0.2099
 7726SOL     OW34810   3.580   1.546   8.093 -0.1157 -0.1350 -0.1430
 7726SOL    HW134811   3.508   1.576   8.148  0.8315 -0.7896  1.4493
 7726SOL    HW234812   3.547   1.558   8.004  0.2706  1.0522 -0.1209
 7727SOL     OW34813   1.071   1.249  13.475  0.1278  0.3115  0.4449
 7727SOL    HW134814   1.132   1.192  13.427  0.4211  0.2254  0.9242
 7727SOL    HW234815   1.074   1.217  13.565 -0.3873 -2.5669 -0.5586
 7728SOL     OW34816   4.137   1.072  11.272 -0.0241  0.1031 -0.7350
 7728SOL    HW134817   4.187   1.149  11.300 -0.9604  1.3228 -2.3325
 7728SOL    HW234818   4.212   1.023  11.238  0.1904 -0.5012  0.6086
 7729SOL     OW34819   1.940   3.095   6.740  0.1271 -0.0651  0.0729
 7729SOL    HW134820   1.960   3.188   6.735 -0.2826  0.0577  0.6967
 7729SOL    HW234821   2.025   3.052   6.728 -0.0353 -0.0751 -1.0198
 7730SOL     OW34822   1.716   4.362   8.046  0.5743 -0.1930 -0.4843
 7730SOL    HW134823   1.721   4.345   8.140 -0.2523  1.0873 -0.2052
 7730SOL    HW234824   1.810   4.365   8.028  0.4897  0.4893 -0.8030
 7731SOL     OW34825   2.804   0.542   2.505  0.4079 -0.0585 -0.2523
 7731SOL    HW134826   2.893   0.572   2.522  0.3590 -0.7045  1.1254
 7731SOL    HW234827   2.784   0.518   2.595 -0.1706  3.0911  0.4683
 7732SOL     OW34828   0.223   0.395  11.122 -0.2793 -0.2191 -0.0982
 7732SOL    HW134829   0.133   0.427  11.121  0.2798  1.3813  1.5053
 7732SOL    HW234830   0.264   0.442  11.050  1.3522 -2.0423 -0.3602
 7733SOL     OW34831   1.397   1.757   2.740 -0.0297 -0.0332 -0.3667
 7733SOL    HW134832   1.421   1.670   2.770  0.2473  0.9144  2.0931
 7733SOL    HW234833   1.467   1.807   2.781  1.5086 -0.7697 -2.1070
 7734SOL     OW34834   4.562   3.462   1.988  0.1050 -0.0378  0.1598
 7734SOL    HW134835   4.472   3.491   1.968  0.1688 -0.3948 -0.6267
 7734SOL    HW234836   4.575   3.470   2.083 -0.5486  1.6259  0.1309
 7735SOL     OW34837   0.344   2.600  10.145  0.1260 -0.1975 -0.2105
 7735SOL    HW134838   0.415   2.611  10.209  0.8337  1.4788 -1.2983
 7735SOL    HW234839   0.368   2.664  10.078 -2.2797  2.1396  1.1821
 7736SOL     OW34840   2.069   0.777   3.948 -0.4148 -0.9424  0.7861
 7736SOL    HW134841   2.117   0.844   3.900  0.3575 -0.8914  1.6189
 7736SOL    HW234842   2.009   0.728   3.892  2.0141 -3.8255  0.6813
 7737SOL     OW34843   0.887   3.371   3.257  0.2983  0.9172  0.2513
 7737SOL    HW134844   0.904   3.285   3.219 -1.5000  0.5709  0.2460
 7737SOL    HW234845   0.965   3.389   3.309  1.8384  0.7590 -1.9757
 7738SOL     OW34846   2.084   1.592   4.361  0.5012 -0.4027  0.2849
 7738SOL    HW134847   2.095   1.500   4.387  1.6433 -0.0938  0.8625
 7738SOL    HW234848   2.059   1.625   4.447  1.7506 -0.1710  0.5489
 7739SOL     OW34849   3.769   1.989   5.385  0.0008  0.1267 -0.3985
 7739SOL    HW134850   3.803   2.063   5.435  0.8187  0.5456 -1.5855
 7739SOL    HW234851   3.790   2.018   5.296  0.1324 -0.4480 -0.5536
 7740SOL     OW34852   2.988   2.759   3.231 -0.5289  0.0417 -0.2426
 7740SOL    HW134853   2.998   2.816   3.307 -2.2935 -0.5484  0.4267
 7740SOL    HW234854   3.076   2.762   3.194  0.1119  0.0377  1.2974
 7741SOL     OW34855   1.337   0.154   9.512  0.0568 -0.2702  0.0095
 7741SOL    HW134856   1.418   0.144   9.561  0.4346  0.6302 -0.4295
 7741SOL    HW234857   1.291   0.090   9.565 -1.8632  2.1711  1.3055
 7742SOL     OW34858   1.150   2.739   6.739  0.7686  0.1202  0.5439
 7742SOL    HW134859   1.185   2.828   6.726 -0.3371  0.6233  1.0181
 7742SOL    HW234860   1.227   2.689   6.764  1.1555 -0.1983 -1.3014
 7743SOL     OW34861   2.862   1.368  17.525  0.1562 -0.4396  0.1624
 7743SOL    HW134862   2.948   1.392  17.560 -0.5043 -0.9755  2.2009
 7743SOL    HW234863   2.807   1.364  17.603  0.5170  0.8456  0.4950
 7744SOL     OW34864   0.224   0.089   4.129 -0.1727  0.3242  0.0825
 7744SOL    HW134865   0.280   0.088   4.051 -0.7072  0.2626 -0.3002
 7744SOL    HW234866   0.198   0.181   4.125 -2.2476 -0.3775 -2.6394
 7745SOL     OW34867   4.543   0.147  16.524  0.3402 -0.2778  0.1566
 7745SOL    HW134868   4.590   0.143  16.608  2.3007 -0.4268 -0.9381
 7745SOL    HW234869   4.579   0.071  16.478  0.7190  0.1495 -0.2471
 7746SOL     OW34870   1.394   2.107   4.223  0.5724 -0.0259 -0.2950
 7746SOL    HW134871   1.337   2.039   4.186  1.6430 -1.1541  0.1060
 7746SOL    HW234872   1.323   2.164   4.253 -0.7135 -1.2122 -1.0919
 7747SOL     OW34873   2.354   2.005   6.372  0.1021 -0.4007 -0.2759
 7747SOL    HW134874   2.320   1.986   6.285 -2.0588 -1.9164  0.8834
 7747SOL    HW234875   2.277   1.985   6.426 -0.2386 -0.6321 -0.8495
 7748SOL     OW34876   0.858   0.822   3.887 -0.0882 -0.4152  0.1895
 7748SOL    HW134877   0.859   0.771   3.806 -0.9891 -0.6202  0.3042
 7748SOL    HW234878   0.776   0.871   3.880  1.6453  2.5664  0.9843
 7749SOL     OW34879   2.172   0.680   5.775 -0.1830  0.5523  0.6965
 7749SOL    HW134880   2.087   0.660   5.816  1.1588 -2.0366  2.1849
 7749SOL    HW234881   2.211   0.595   5.793  0.0748  0.2549 -1.2300
 7750SOL     OW34882   2.841   3.833   7.889 -0.3948  0.4435 -0.0863
 7750SOL    HW134883   2.797   3.899   7.837  2.1918  1.2832 -1.2346
 7750SOL    HW234884   2.830   3.757   7.831  3.3022 -0.8409  0.8847
 7751SOL     OW34885   4.008   2.246   1.924  0.2747 -0.4207  0.0966
 7751SOL    HW134886   4.014   2.154   1.952  0.9320 -0.8346 -1.3794
 7751SOL    HW234887   4.095   2.281   1.942  1.2611 -1.9604 -1.6286
 7752SOL     OW34888   2.696   3.579  12.189 -0.0290 -0.5944 -0.4498
 7752SOL    HW134889   2.636   3.633  12.242  1.1885  0.7912 -0.4832
 7752SOL    HW234890   2.729   3.647  12.130  0.0108  0.0859  0.3521
 7753SOL     OW34891   1.418   4.097   9.333 -0.2196  0.5433 -0.4667
 7753SOL    HW134892   1.385   4.057   9.252 -2.1418 -0.7273  0.9469
 7753SOL    HW234893   1.400   4.028   9.396 -1.3783  1.6025  0.3677
 7754SOL     OW34894   3.527   4.350   2.551 -0.5938 -0.4379  0.0637
 7754SOL    HW134895   3.508   4.442   2.535 -0.3123 -0.4670 -0.4428
 7754SOL    HW234896   3.454   4.326   2.607 -0.9011  1.5959  0.5215
 7755SOL     OW34897   3.334   4.218   3.866  0.0639 -0.4390  0.2612
 7755SOL    HW134898   3.312   4.133   3.906  0.9000 -0.3531  0.9103
 7755SOL    HW234899   3.391   4.259   3.930  0.1707 -1.9287  1.1329
 7756SOL     OW34900   3.476   3.627   7.629  0.1700 -0.2998  0.2974
 7756SOL    HW134901   3.492   3.716   7.598 -0.7972 -0.0474  0.5012
 7756SOL    HW234902   3.423   3.652   7.705  0.1886 -1.0595  0.5658
 7757SOL     OW34903   1.681   0.388   1.613 -0.9309 -0.4638 -0.0456
 7757SOL    HW134904   1.587   0.375   1.601 -0.7893 -1.0449 -0.5099
 7757SOL    HW234905   1.704   0.332   1.687  2.3632  1.5940  0.4934
 7758SOL     OW34906   0.679   4.576   8.010 -0.1981 -0.1181  0.3679
 7758SOL    HW134907   0.761   4.546   7.970  0.4291  0.6823  1.0441
 7758SOL    HW234908   0.697   4.670   8.007 -0.5298 -0.0852 -0.5901
 7759SOL     OW34909   0.989   2.433  14.197  0.2884 -0.0704 -0.0502
 7759SOL    HW134910   1.056   2.405  14.260  0.6493 -0.9686 -0.8460
 7759SOL    HW234911   1.038   2.506  14.161  1.7875 -1.0157  0.0638
 7760SOL     OW34912   1.963   1.180   6.673 -1.1084 -0.0478 -0.3484
 7760SOL    HW134913   1.930   1.090   6.669  0.0740 -0.4585 -0.8636
 7760SOL    HW234914   2.051   1.154   6.699 -0.8174 -0.5535 -1.8486
 7761SOL     OW34915   1.014   3.849   0.582 -0.1530 -0.1659  0.3102
 7761SOL    HW134916   0.983   3.940   0.582 -0.5773 -0.3124  0.2983
 7761SOL    HW234917   1.108   3.863   0.597  0.0226 -1.8261  0.7339
 7762SOL     OW34918   4.604   1.211   4.130 -0.3663  0.2664  0.1246
 7762SOL    HW134919   4.530   1.149   4.135 -0.2328 -0.3402 -4.6873
 7762SOL    HW234920   4.661   1.197   4.206 -0.9213  2.2638  0.8971
 7763SOL     OW34921   1.766   3.500   7.359  0.0472 -0.0261 -0.4739
 7763SOL    HW134922   1.723   3.439   7.419  1.1072 -0.5606 -0.2548
 7763SOL    HW234923   1.830   3.448   7.311  1.3711  1.2711 -0.1059
 7764SOL     OW34924   3.214   3.836   2.300 -0.0990  0.0298  0.0556
 7764SOL    HW134925   3.204   3.888   2.220 -2.0829  0.2604  0.4364
 7764SOL    HW234926   3.237   3.904   2.364 -2.3525 -0.5600  1.5013
 7765SOL     OW34927   4.663   3.097   2.400  0.3586 -0.2098 -0.6453
 7765SOL    HW134928   4.668   3.134   2.312 -0.6805 -0.3485 -0.7672
 7765SOL    HW234929   4.607   3.022   2.378  0.9284 -0.6008 -0.7842
 7766SOL     OW34930   0.612   1.256   0.442  0.0216  0.3165  0.1154
 7766SOL    HW134931   0.693   1.205   0.435  0.8968  1.6354  0.8313
 7766SOL    HW234932   0.642   1.306   0.517 -1.4791 -0.6925  1.3836
 7767SOL     OW34933   1.457   3.033   9.106 -0.6797  0.3888 -0.7233
 7767SOL    HW134934   1.367   3.018   9.080 -0.9845 -0.4337  0.8406
 7767SOL    HW234935   1.445   3.037   9.200 -0.5088 -3.5855 -0.5671
 7768SOL     OW34936   0.688   1.059  11.149 -0.3788 -0.1718  0.2735
 7768SOL    HW134937   0.641   1.060  11.232  2.4894 -0.1775  1.8794
 7768SOL    HW234938   0.617   1.095  11.096  0.9140  0.7499 -0.8143
 7769SOL     OW34939   0.739   3.527   2.520 -0.0363 -0.1042 -0.0764
 7769SOL    HW134940   0.671   3.583   2.481 -0.0836  0.6138  1.0400
 7769SOL    HW234941   0.789   3.597   2.562 -0.4398  0.5024 -0.5960
 7770SOL     OW34942   4.239   1.057   2.550  0.4972 -0.2994 -0.3386
 7770SOL    HW134943   4.227   1.034   2.642  0.8148 -0.4668 -0.3385
 7770SOL    HW234944   4.153   1.040   2.513 -0.2815  0.5254  1.0806
 7771SOL     OW34945   2.045   0.340   3.484  0.3943  0.1676 -0.4897
 7771SOL    HW134946   2.002   0.281   3.547 -1.3664  2.9309  0.8978
 7771SOL    HW234947   2.123   0.293   3.455  0.2948 -0.8049  0.7796
 7772SOL     OW34948   3.364   2.006   3.857 -0.6144 -0.1382  0.2290
 7772SOL    HW134949   3.396   1.970   3.940 -0.1463 -0.2658 -0.0014
 7772SOL    HW234950   3.413   2.088   3.858 -0.2309 -0.4222  2.7387
 7773SOL     OW34951   0.670   4.338   5.280 -0.1574 -0.1910 -0.1910
 7773SOL    HW134952   0.672   4.433   5.290 -1.0160 -0.3342  1.3860
 7773SOL    HW234953   0.610   4.306   5.347 -0.7179  0.6639 -0.2821
 7774SOL     OW34954   0.517   1.698  13.453  0.4088 -0.4312 -0.4536
 7774SOL    HW134955   0.492   1.749  13.376 -0.2966  1.3791  0.9941
 7774SOL    HW234956   0.594   1.745  13.485 -2.5556  2.3489  2.4908
 7775SOL     OW34957   1.763   3.019   3.760 -0.0517  0.5519 -0.7223
 7775SOL    HW134958   1.719   3.032   3.844  0.8825  2.1067 -0.4761
 7775SOL    HW234959   1.721   2.937   3.735  0.2856  0.4370 -0.9150
 7776SOL     OW34960   2.836   1.760   9.359  0.0099 -0.4525 -0.0157
 7776SOL    HW134961   2.742   1.738   9.361  0.4783 -2.2542  1.5978
 7776SOL    HW234962   2.844   1.790   9.449  1.7928  0.0924 -0.3679
 7777SOL     OW34963   4.581   2.659   7.601 -0.0659  0.0533  0.1528
 7777SOL    HW134964   4.519   2.731   7.589 -0.7068  0.0019  3.2348
 7777SOL    HW234965   4.552   2.585   7.547  0.3175  1.0314 -1.4085
 7778SOL     OW34966   0.945   2.898  12.221 -0.0138 -0.2202  0.1989
 7778SOL    HW134967   0.949   2.883  12.316 -1.8574  0.6093  0.3881
 7778SOL    HW234968   1.000   2.976  12.228 -0.1156 -0.0351 -1.0532
 7779SOL     OW34969   1.679   2.598   1.643 -0.3503  0.6061 -0.6764
 7779SOL    HW134970   1.641   2.669   1.593 -1.8240 -0.8854 -1.6736
 7779SOL    HW234971   1.637   2.525   1.597  0.9314 -0.1321 -0.6912
 7780SOL     OW34972   0.026   1.515  16.907 -0.0829 -0.5674 -0.4648
 7780SOL    HW134973   4.692   1.475  16.869 -1.1302  0.2367  0.8309
 7780SOL    HW234974   0.093   1.464  16.860  0.2734  0.3999 -0.9980
 7781SOL     OW34975   4.001   4.658   7.105 -0.2665  0.1348  0.2048
 7781SOL    HW134976   3.995   4.697   7.192  0.4588 -2.5942  1.4792
 7781SOL    HW234977   4.026   4.571   7.136  0.4353  0.0721 -0.5231
 7782SOL     OW34978   2.775   1.654   1.311 -0.5428  0.5980 -0.2414
 7782SOL    HW134979   2.819   1.736   1.288 -0.5210  1.1263  1.6566
 7782SOL    HW234980   2.848   1.617   1.360 -0.7015  0.4012 -0.1531
 7783SOL     OW34981   3.265   1.447   6.299 -0.3585  0.0430  0.4933
 7783SOL    HW134982   3.190   1.506   6.313 -0.6000 -0.0917 -0.2336
 7783SOL    HW234983   3.266   1.397   6.380  1.1678 -1.0669 -0.2231
 7784SOL     OW34984   3.017   1.276  15.131 -0.0338 -0.0640  0.2673
 7784SOL    HW134985   3.060   1.254  15.213  1.8552 -1.8414 -1.1877
 7784SOL    HW234986   3.088   1.294  15.069  0.1629 -2.8563 -0.3288
 7785SOL     OW34987   1.897   0.378  10.879 -0.6485 -0.1293  0.0813
 7785SOL    HW134988   1.968   0.375  10.944  0.0333 -0.4655 -0.6878
 7785SOL    HW234989   1.904   0.456  10.825 -1.9820 -0.4659 -0.5742
 7786SOL     OW34990   0.956   2.057   9.028 -0.5539  0.1347 -0.0747
 7786SOL    HW134991   0.969   1.963   9.033  1.2281  0.3254 -0.9179
 7786SOL    HW234992   1.046   2.090   9.023 -0.5105  0.0276 -0.0010
 7787SOL     OW34993   0.603   3.990  15.571 -0.1053  0.0420 -0.4804
 7787SOL    HW134994   0.685   4.039  15.571  0.1650 -0.4043 -0.4389
 7787SOL    HW234995   0.542   4.063  15.566  1.3794  1.2209 -1.2886
 7788SOL     OW34996   3.995   2.414   3.823 -0.3407 -0.0539  0.2386
 7788SOL    HW134997   3.980   2.508   3.815  3.2452  0.5115  0.2622
 7788SOL    HW234998   3.908   2.390   3.856  0.7691 -2.5701  1.3130
 7789SOL     OW34999   0.092   1.369   4.525 -0.3542  0.1281 -0.0263
 7789SOL    HW135000   0.127   1.352   4.612  0.6729 -1.2433 -0.7075
 7789SOL    HW235001   0.147   1.439   4.490  1.0335  0.2529  2.4724
 7790SOL     OW35002   0.147   0.907  15.553 -0.2604  0.2597  0.5436
 7790SOL    HW135003   0.100   0.853  15.616  0.8785 -0.6253  0.6405
 7790SOL    HW235004   0.158   0.981  15.613 -1.6479  1.5990 -0.8685
 7791SOL     OW35005   3.532   0.747  10.589  0.1540 -0.5137 -0.4186
 7791SOL    HW135006   3.488   0.718  10.669  1.7229 -0.3373  0.5047
 7791SOL    HW235007   3.615   0.776  10.627 -1.3986  1.5223  1.4027
 7792SOL     OW35008   3.688   3.035   2.490 -0.0864  0.3039 -0.9173
 7792SOL    HW135009   3.671   3.112   2.545 -0.8436 -0.5417  0.0291
 7792SOL    HW235010   3.751   3.082   2.435  0.2481 -0.4522 -1.1816
 7793SOL     OW35011   0.532   0.657   4.671 -0.3505 -0.5119  0.6436
 7793SOL    HW135012   0.595   0.631   4.603 -0.4755 -0.6726  0.5881
 7793SOL    HW235013   0.552   0.748   4.691 -0.1439 -0.5699  0.6986
 7794SOL     OW35014   2.147   1.435   7.782  0.5877 -0.1509 -0.0377
 7794SOL    HW135015   2.115   1.359   7.732  3.2180 -0.6912 -0.9208
 7794SOL    HW235016   2.120   1.515   7.738  2.2557  0.8927  0.8456
 7795SOL     OW35017   4.474   4.687   5.642  0.2649  0.1844 -0.5255
 7795SOL    HW135018   4.385   4.723   5.648 -0.0834 -0.5761 -1.1299
 7795SOL    HW235019   4.467   4.593   5.655 -0.5476  0.4756  1.1999
 7796SOL     OW35020   1.711   1.878   1.738  0.3492 -0.4608 -0.0628
 7796SOL    HW135021   1.717   1.886   1.642  0.6642  0.3589  0.0195
 7796SOL    HW235022   1.773   1.808   1.758  1.7610  0.3056 -1.6906
 7797SOL     OW35023   2.319   3.010   8.020 -0.1780 -0.1033 -0.3131
 7797SOL    HW135024   2.410   3.009   7.991 -0.1336 -1.0634 -0.1337
 7797SOL    HW235025   2.285   2.929   7.981  0.0013 -0.0602 -0.5525
 7798SOL     OW35026   0.335   0.189   8.400  0.1718  0.6390  0.0410
 7798SOL    HW135027   0.334   0.243   8.479 -2.0080  3.4813 -1.8945
 7798SOL    HW235028   0.360   0.102   8.429 -0.7946  0.0924 -0.7812
 7799SOL     OW35029   4.468   1.719   8.390 -0.1556 -0.2103  0.3099
 7799SOL    HW135030   4.388   1.753   8.351  0.8344  2.7965  0.8545
 7799SOL    HW235031   4.451   1.627   8.406  0.1814 -0.7505 -2.5658
 7800SOL     OW35032   3.432   3.804   7.076  0.3596 -0.5949 -0.3425
 7800SOL    HW135033   3.388   3.746   7.137 -0.0239 -0.9763 -0.9826
 7800SOL    HW235034   3.518   3.802   7.119  0.1360  0.4937  0.1330
 7801SOL     OW35035   0.619   3.092  12.970  0.3377  0.1850  0.4080
 7801SOL    HW135036   0.580   3.059  13.051  0.0043  1.3215  0.7094
 7801SOL    HW235037   0.564   3.170  12.957  0.7042  0.1478 -1.3863
 7802SOL     OW35038   2.492   2.556   3.401 -0.4472  0.6204  0.3850
 7802SOL    HW135039   2.407   2.560   3.357  0.0267  1.5777 -0.4423
 7802SOL    HW235040   2.485   2.479   3.457  0.0541 -0.0845 -0.5285
 7803SOL     OW35041   0.451   2.450   8.843 -0.0850 -0.2013 -0.2685
 7803SOL    HW135042   0.507   2.479   8.771  0.0979 -0.6362 -0.2989
 7803SOL    HW235043   0.439   2.534   8.887  0.0993  0.3571 -1.2853
 7804SOL     OW35044   1.035   0.440  16.687 -0.0408  0.1231  0.0292
 7804SOL    HW135045   0.966   0.380  16.661 -1.4615  0.1141  3.8600
 7804SOL    HW235046   1.096   0.378  16.726 -0.0510 -0.0701 -0.2631
 7805SOL     OW35047   2.676   2.368   8.135  0.4336 -0.0851  0.0100
 7805SOL    HW135048   2.659   2.418   8.215  1.6822  0.4754 -0.0687
 7805SOL    HW235049   2.645   2.281   8.161  0.6114 -0.5021 -1.1674
 7806SOL     OW35050   1.327   0.599   1.784  0.3311 -0.1923  0.8970
 7806SOL    HW135051   1.272   0.677   1.783  1.2264  0.4488  1.5876
 7806SOL    HW235052   1.256   0.534   1.780 -0.0336  0.3124 -0.8161
 7807SOL     OW35053   1.649   1.046  16.346  0.4104 -0.3208  0.0396
 7807SOL    HW135054   1.582   0.987  16.313 -0.3060  0.2678  0.4602
 7807SOL    HW235055   1.657   1.105  16.271 -2.4677  0.2043  0.1521
 7808SOL     OW35056   4.424   3.019   4.661  0.3341 -0.1855  0.0210
 7808SOL    HW135057   4.335   3.040   4.632 -0.0665  1.7904  2.6776
 7808SOL    HW235058   4.400   2.957   4.730  1.2927 -0.2075  0.3327
 7809SOL     OW35059   1.618   3.350  14.178 -0.4053 -0.4218  0.2935
 7809SOL    HW135060   1.564   3.297  14.236 -0.1582 -0.5235  0.4312
 7809SOL    HW235061   1.627   3.293  14.102  1.6943 -0.6849  0.7364
 7810SOL     OW35062   3.001   1.638  15.833 -0.0599 -0.0519 -0.0259
 7810SOL    HW135063   3.017   1.705  15.899 -0.5408 -0.8902  0.9238
 7810SOL    HW235064   2.910   1.610  15.829 -1.0115  3.3860 -2.2375
 7811SOL     OW35065   0.895   2.469   9.327 -0.1236  0.3359 -0.1263
 7811SOL    HW135066   0.826   2.485   9.391  2.0784  1.7759  1.8710
 7811SOL    HW235067   0.846   2.490   9.247  1.6542 -1.4931 -1.7092
 7812SOL     OW35068   1.584   2.223   9.122  0.5264  0.5472  0.3789
 7812SOL    HW135069   1.563   2.312   9.149 -0.5826  0.3401  0.2154
 7812SOL    HW235070   1.678   2.223   9.139  0.5344  3.0819  0.2437
 7813SOL     OW35071   0.986   2.088   8.412  0.1781 -0.7494  0.0637
 7813SOL    HW135072   1.064   2.134   8.381 -1.4456  0.4508 -2.2790
 7813SOL    HW235073   0.993   2.109   8.505  0.3792 -1.0451  0.1139
 7814SOL     OW35074   2.002   1.734  10.215  0.6224 -0.4907 -0.7031
 7814SOL    HW135075   2.066   1.738  10.286 -0.2797  0.3238  0.0676
 7814SOL    HW235076   1.950   1.813  10.231  1.6970  0.4822 -1.9768
 7815SOL     OW35077   4.034   2.242   3.556 -0.6811  0.2354  0.1199
 7815SOL    HW135078   4.026   2.325   3.602 -0.8514  1.7102 -2.5503
 7815SOL    HW235079   4.056   2.264   3.466  1.9644  1.5601  1.0897
 7816SOL     OW35080   3.273   0.115   7.123 -0.5175 -0.3300 -0.1191
 7816SOL    HW135081   3.290   0.027   7.088 -0.0533 -0.3980  0.2810
 7816SOL    HW235082   3.178   0.128   7.116 -0.6438 -0.5372  1.1307
 7817SOL     OW35083   3.936   0.847  11.137  0.0793  0.1405  0.2794
 7817SOL    HW135084   3.996   0.792  11.086 -0.6469  0.2840 -0.7374
 7817SOL    HW235085   3.980   0.930  11.122  2.4760 -0.9373  1.2565
 7818SOL     OW35086   2.203   1.006   9.254  0.0513 -0.2975 -0.3619
 7818SOL    HW135087   2.283   0.964   9.221  0.3210 -0.0658 -0.0063
 7818SOL    HW235088   2.196   0.986   9.347  0.4317 -0.2856 -0.3309
 7819SOL     OW35089   0.293   3.284   6.923 -0.1654  0.1681  0.1719
 7819SOL    HW135090   0.288   3.359   6.863  0.5861  1.7998  2.1551
 7819SOL    HW235091   0.203   3.256   6.940 -0.0116  0.0887  0.8622
 7820SOL     OW35092   1.976   3.000   5.987 -0.2180  0.6631  0.3764
 7820SOL    HW135093   2.046   3.005   5.922 -0.8067 -0.3192 -0.3367
 7820SOL    HW235094   2.011   3.069   6.043 -0.3943  0.0234  1.2742
 7821SOL     OW35095   0.963   4.566   8.776  0.3653 -0.3776 -0.1977
 7821SOL    HW135096   0.894   4.617   8.732  1.4007  1.6719  0.5647
 7821SOL    HW235097   0.929   4.568   8.865 -0.2048  3.4984 -0.5069
 7822SOL     OW35098   2.149   3.675   8.867  0.1482  0.1303 -0.1646
 7822SOL    HW135099   2.068   3.702   8.911 -0.0793 -0.7294 -0.0637
 7822SOL    HW235100   2.215   3.712   8.926  0.0201 -0.5066  0.3691
 7823SOL     OW35101   3.382   0.784   9.969 -0.0981  0.2146  0.1056
 7823SOL    HW135102   3.343   0.774  10.055  1.6211  1.4861  1.0384
 7823SOL    HW235103   3.339   0.866   9.944 -0.1621  0.4015  0.8339
 7824SOL     OW35104   0.102   2.070   2.718 -0.1534 -0.1338 -0.1009
 7824SOL    HW135105   0.026   2.117   2.685  0.2588  0.0368 -0.7926
 7824SOL    HW235106   0.116   2.114   2.803  1.2471 -1.7512  0.5156
 7825SOL     OW35107   1.082   3.134   5.653 -0.0449  0.0474 -0.0345
 7825SOL    HW135108   1.144   3.112   5.583  0.2825 -2.8130  1.1630
 7825SOL    HW235109   1.112   3.222   5.675 -0.5101  0.4938 -1.1506
 7826SOL     OW35110   3.660   0.932  15.785 -0.4963 -0.1586  0.0485
 7826SOL    HW135111   3.676   0.866  15.853  0.9220  2.5023  2.2887
 7826SOL    HW235112   3.741   0.983  15.791 -0.0514 -0.7641 -0.7149
 7827SOL     OW35113   1.030   1.382   1.722  0.7548 -0.3838  0.5323
 7827SOL    HW135114   1.044   1.305   1.777  1.2479  0.4724  1.5895
 7827SOL    HW235115   1.013   1.439   1.797 -1.8861 -0.4805  0.0019
 7828SOL     OW35116   2.552   1.044  16.738  0.4415  0.3426 -0.6566
 7828SOL    HW135117   2.580   1.002  16.819  0.1125 -0.7657 -1.1138
 7828SOL    HW235118   2.485   1.103  16.770  0.4405  0.9613 -1.7978
 7829SOL     OW35119   2.199   2.194   4.434  0.1504 -0.3367  0.2611
 7829SOL    HW135120   2.128   2.258   4.442  0.1455 -0.2244 -0.7478
 7829SOL    HW235121   2.239   2.192   4.521  1.8035 -1.0459 -0.5229
 7830SOL     OW35122   2.256   1.691  16.303  0.4614 -0.1724 -0.3686
 7830SOL    HW135123   2.240   1.598  16.289  0.9172 -0.3550  0.3140
 7830SOL    HW235124   2.254   1.704  16.398 -0.0243 -0.6308 -0.3162
 7831SOL     OW35125   2.593   1.745  15.562  0.1631 -0.7735 -0.3133
 7831SOL    HW135126   2.513   1.793  15.539 -0.1527  0.1831  2.7925
 7831SOL    HW235127   2.564   1.654  15.559  0.3038 -0.8830  1.3167
 7832SOL     OW35128   3.578   3.391  15.642  0.6005  0.4754  0.3151
 7832SOL    HW135129   3.584   3.335  15.719  3.0377 -0.3616 -0.4858
 7832SOL    HW235130   3.598   3.336  15.566 -0.1107 -0.2139  0.6277
 7833SOL     OW35131   1.208   1.374   6.368  0.1152 -0.1691 -1.0838
 7833SOL    HW135132   1.259   1.367   6.287 -1.2201 -3.5033 -1.6416
 7833SOL    HW235133   1.174   1.287   6.389 -2.7572  1.4215  0.8883
 7834SOL     OW35134   3.948   0.071  16.037 -0.7335  0.0883  0.1096
 7834SOL    HW135135   3.976   0.148  16.085  0.1896  0.3596 -0.8603
 7834SOL    HW235136   3.950   0.108  15.949  4.1282 -1.0537 -0.3033
 7835SOL     OW35137   1.247   1.495  10.455 -0.0858  0.5407 -0.4591
 7835SOL    HW135138   1.272   1.460  10.370 -3.1911  3.0667 -2.4009
 7835SOL    HW235139   1.256   1.590  10.446 -0.5424  0.7356  1.0884
 7836SOL     OW35140   3.264   2.207   6.285 -0.1952  0.0735  0.3599
 7836SOL    HW135141   3.246   2.127   6.335 -2.0449  0.7550  0.8193
 7836SOL    HW235142   3.358   2.212   6.302  0.0412  1.3130 -1.3455
 7837SOL     OW35143   3.833   3.022   7.915  0.2075 -0.4850  0.1575
 7837SOL    HW135144   3.749   3.029   7.870  0.0540 -1.1499  0.3448
 7837SOL    HW235145   3.891   3.020   7.839  0.7479 -0.5285  0.5671
 7838SOL     OW35146   4.268   3.557   8.869 -0.6768 -0.1135 -0.9865
 7838SOL    HW135147   4.283   3.599   8.954  1.6252 -0.2441 -1.3510
 7838SOL    HW235148   4.292   3.627   8.809  0.4191  1.2406  1.0258
 7839SOL     OW35149   3.477   4.392   5.831  0.3628 -0.4292  0.0010
 7839SOL    HW135150   3.512   4.318   5.782 -2.0859  0.1967 -2.6904
 7839SOL    HW235151   3.553   4.440   5.865 -0.5858  1.5070 -0.5899
 7840SOL     OW35152   0.758   0.598   3.391 -0.5735  0.6401  0.0779
 7840SOL    HW135153   0.745   0.662   3.321  2.7634  0.2854 -0.8516
 7840SOL    HW235154   0.672   0.607   3.432 -1.0841 -1.8005 -0.4307
 7841SOL     OW35155   4.117   0.528   1.103 -0.0472  0.4011  0.2999
 7841SOL    HW135156   4.054   0.511   1.173 -0.2916  0.3145  0.0550
 7841SOL    HW235157   4.121   0.624   1.101  0.0930  0.4521  2.5169
 7842SOL     OW35158   0.827   1.517   1.929  0.3941 -0.7426 -0.4630
 7842SOL    HW135159   0.747   1.509   1.878 -0.1252  0.0218  0.2393
 7842SOL    HW235160   0.857   1.594   1.880  0.5956 -0.0400  0.7677
 7843SOL     OW35161   3.935   2.475   1.713 -0.3441  0.4091 -0.0118
 7843SOL    HW135162   3.931   2.447   1.621 -1.4588 -1.4797  0.6190
 7843SOL    HW235163   3.848   2.460   1.749 -1.2457  2.3339 -1.3589
 7844SOL     OW35164   0.024   3.999   3.271  0.3195 -0.4244  0.1835
 7844SOL    HW135165   4.687   3.996   3.221 -0.5014 -0.6534  1.5267
 7844SOL    HW235166   0.002   4.067   3.335 -1.2734 -0.7315 -0.0520
 7845SOL     OW35167   0.215   3.465   8.597  0.0871 -0.0726 -0.6481
 7845SOL    HW135168   0.148   3.403   8.567  0.7338 -1.9464  1.8284
 7845SOL    HW235169   0.158   3.534   8.633  0.4431 -0.7252  1.1752
 7846SOL     OW35170   0.506   2.063  17.171 -0.2062 -0.4240 -0.0298
 7846SOL    HW135171   0.454   1.985  17.148  0.3819 -0.9435  0.3989
 7846SOL    HW235172   0.445   2.129  17.137  1.4700  1.4418  0.6430
 7847SOL     OW35173   4.116   0.861   0.012 -0.1891  0.3988 -0.4717
 7847SOL    HW135174   4.145   0.824  17.700  0.8253  2.7900 -1.1710
 7847SOL    HW235175   4.022   0.852  17.769 -0.1596  0.9818 -1.0040
 7848SOL     OW35176   2.982   0.222   5.482 -0.4262  0.4729  0.5644
 7848SOL    HW135177   3.074   0.240   5.505  0.2199 -0.5784 -1.2331
 7848SOL    HW235178   2.966   0.285   5.412 -0.2089 -0.4049 -0.2679
 7849SOL     OW35179   1.716   3.719   8.676 -0.0496 -0.5997  0.2411
 7849SOL    HW135180   1.628   3.684   8.668 -0.0394 -0.6450  0.3224
 7849SOL    HW235181   1.735   3.670   8.757 -1.9621 -1.5722  0.0801
 7850SOL     OW35182   4.410   2.214   3.516  0.7251 -0.4911 -0.2291
 7850SOL    HW135183   4.393   2.203   3.422 -1.4279 -0.4566  0.1402
 7850SOL    HW235184   4.467   2.291   3.516  0.7562 -0.5151  1.3574
 7851SOL     OW35185   2.288   2.408   8.086  0.0540 -0.0878 -0.0324
 7851SOL    HW135186   2.329   2.343   8.143 -0.9698 -0.4000  0.3600
 7851SOL    HW235187   2.318   2.487   8.130 -0.9396  1.0356 -1.3765
 7852SOL     OW35188   4.428   0.040  15.715  0.2722  0.1202  0.1892
 7852SOL    HW135189   4.481   0.053  15.793  1.3674 -1.0007 -0.3833
 7852SOL    HW235190   4.349   0.007  15.757 -0.6510  0.0785 -1.5790
 7853SOL     OW35191   3.858   0.337   6.335 -0.3287  0.7344 -0.4677
 7853SOL    HW135192   3.817   0.344   6.249  0.3100  0.2523 -0.8183
 7853SOL    HW235193   3.883   0.245   6.341  1.4952  1.0830 -2.7658
 7854SOL     OW35194   4.605   4.592   8.585  0.3238  0.1099 -0.1683
 7854SOL    HW135195   4.696   4.569   8.603  0.0775  0.0600  1.0320
 7854SOL    HW235196   4.570   4.506   8.560  1.3125 -0.4072  0.2565
 7855SOL     OW35197   4.663   1.785   7.899 -0.2399 -0.3336 -0.1956
 7855SOL    HW135198   4.730   1.748   7.842  0.2558 -1.1543  0.8962
 7855SOL    HW235199   4.654   1.871   7.859 -1.7283  0.0716  1.0059
 7856SOL     OW35200   4.539   0.338   4.738  0.4992  0.4566 -0.1612
 7856SOL    HW135201   4.574   0.332   4.827 -0.8749 -3.1589  0.1360
 7856SOL    HW235202   4.587   0.262   4.705 -0.1714 -0.7448  1.6189
 7857SOL     OW35203   1.759   3.539   3.775 -0.2944  0.0221  0.2844
 7857SOL    HW135204   1.799   3.572   3.695 -0.6466 -1.0083 -0.3213
 7857SOL    HW235205   1.814   3.462   3.784  2.4244  2.0262  0.9308
 7858SOL     OW35206   2.006   3.429  16.366  0.1240 -0.4887  0.3959
 7858SOL    HW135207   1.986   3.517  16.397 -1.4968 -1.5829  2.4107
 7858SOL    HW235208   2.079   3.445  16.305 -1.4541  2.0184 -0.8266
 7859SOL     OW35209   1.195   3.342   2.115  0.4183 -0.1818 -0.1420
 7859SOL    HW135210   1.172   3.420   2.064  0.0140 -0.5686 -0.5375
 7859SOL    HW235211   1.242   3.385   2.187 -0.9019  1.0450 -0.0099
 7860SOL     OW35212   0.020   3.658   8.661  0.8210  0.4682  0.0988
 7860SOL    HW135213   4.684   3.619   8.626  1.2808 -0.4485  0.0703
 7860SOL    HW235214   0.019   3.747   8.627 -0.0637 -0.0186 -1.1504
 7861SOL     OW35215   2.804   4.728  15.923  0.6378 -0.1434 -0.3182
 7861SOL    HW135216   2.719   0.027  15.930  0.4778 -0.4463 -0.4205
 7861SOL    HW235217   2.861   0.056  15.950  0.4081  0.4455 -1.3886
 7862SOL     OW35218   1.892   0.420   5.474  0.0691  0.2924 -0.0994
 7862SOL    HW135219   1.922   0.356   5.538 -0.7741  1.0779  1.0855
 7862SOL    HW235220   1.810   0.459   5.504 -0.0887  0.2705 -0.4970
 7863SOL     OW35221   4.685   4.016   1.701  0.2856 -0.3985 -0.6844
 7863SOL    HW135222   0.030   3.982   1.711  0.3467 -0.2180 -0.6176
 7863SOL    HW235223   4.649   3.938   1.660 -0.7742  0.6500 -1.7505
 7864SOL     OW35224   4.354   4.391   3.881 -0.4235 -0.2089  0.2647
 7864SOL    HW135225   4.377   4.314   3.932 -0.2319 -0.2267  0.1502
 7864SOL    HW235226   4.441   4.433   3.883 -0.3705 -0.3186  0.2362
 7865SOL     OW35227   1.942   2.580   7.726 -0.4716  0.2152 -0.2655
 7865SOL    HW135228   1.963   2.662   7.682 -2.3083 -0.3448 -2.1489
 7865SOL    HW235229   1.999   2.575   7.803 -0.0808 -2.1490 -0.6902
 7866SOL     OW35230   3.280   0.494  11.031  0.0716  0.2146 -0.0200
 7866SOL    HW135231   3.335   0.556  11.080 -0.5605  1.3498 -0.7573
 7866SOL    HW235232   3.300   0.410  11.073 -3.3549  0.3465  1.8974
 7867SOL     OW35233   4.361   4.380   7.294  0.5015 -0.0237 -0.3584
 7867SOL    HW135234   4.335   4.472   7.295 -1.0718 -0.4745  0.1497
 7867SOL    HW235235   4.442   4.382   7.345 -0.4064 -0.3574  1.0851
 7868SOL     OW35236   3.339   2.639  16.705 -0.0024 -0.9586  0.0555
 7868SOL    HW135237   3.416   2.658  16.758  0.6250 -1.2555 -0.7554
 7868SOL    HW235238   3.340   2.720  16.654 -1.3760  0.0663  1.6365
 7869SOL     OW35239   0.586   0.548   2.576 -0.3169 -0.1520 -0.1735
 7869SOL    HW135240   0.666   0.500   2.597 -0.7384 -1.7357 -2.2590
 7869SOL    HW235241   0.619   0.638   2.568 -0.4158 -0.1751 -0.8183
 7870SOL     OW35242   1.772   4.415   3.456  0.4969  0.2000 -0.4906
 7870SOL    HW135243   1.699   4.477   3.447 -0.2866 -0.9325 -1.8420
 7870SOL    HW235244   1.757   4.340   3.400  0.5036 -1.7256  2.0699
 7871SOL     OW35245   3.955   3.592  16.350 -0.8979 -0.0422 -0.7113
 7871SOL    HW135246   3.901   3.634  16.416 -1.9238 -1.2809 -0.7811
 7871SOL    HW235247   4.029   3.561  16.403 -1.7338  0.8395  0.9712
 7872SOL     OW35248   3.936   3.397  17.102  0.1286  0.3567 -0.4870
 7872SOL    HW135249   3.902   3.308  17.112 -0.4073  0.5407 -0.6637
 7872SOL    HW235250   4.026   3.396  17.070  0.2958 -3.1872  0.1573
 7873SOL     OW35251   0.137   4.660   2.215 -0.1723 -0.3445  0.0020
 7873SOL    HW135252   0.190   4.726   2.169  2.0351  0.0488  3.0700
 7873SOL    HW235253   0.185   4.582   2.187 -0.0847  0.2517 -1.5224
 7874SOL     OW35254   3.305   2.301   1.776 -0.0118  0.6862 -0.0572
 7874SOL    HW135255   3.376   2.327   1.834  1.7669  0.3490 -2.0889
 7874SOL    HW235256   3.228   2.348   1.810 -0.9895 -1.4232  0.6291
 7875SOL     OW35257   1.845   2.194   8.430 -0.0828  0.1233 -0.6834
 7875SOL    HW135258   1.911   2.124   8.430  0.6702  0.8403  0.6925
 7875SOL    HW235259   1.772   2.149   8.471  1.0750 -1.6835 -0.6152
 7876SOL     OW35260   4.218   3.397  17.101 -0.8305  0.7459 -0.4644
 7876SOL    HW135261   4.271   3.468  17.064 -2.5645  1.3413 -1.7813
 7876SOL    HW235262   4.292   3.342  17.126  0.1193  2.1776 -0.1148
 7877SOL     OW35263   4.494   2.055  10.420 -0.1932 -0.0255  0.1401
 7877SOL    HW135264   4.491   2.006  10.337 -3.1287 -1.1320  0.8886
 7877SOL    HW235265   4.587   2.058  10.442 -0.2627  0.8677  0.2842
 7878SOL     OW35266   4.736   4.183   5.893  0.0327 -0.4946  0.8422
 7878SOL    HW135267   0.039   4.141   5.966 -0.3862 -0.6067  1.0499
 7878SOL    HW235268   4.734   4.101   5.844 -1.9440  0.8472 -1.3071
 7879SOL     OW35269   1.700   2.618   5.318  0.6577  0.0161 -0.4378
 7879SOL    HW135270   1.677   2.527   5.298 -0.4556  0.1759  0.0980
 7879SOL    HW235271   1.660   2.619   5.405 -0.5854 -1.2150 -0.9885
 7880SOL     OW35272   0.978   2.164  11.611  0.0784 -0.8491  0.1286
 7880SOL    HW135273   0.890   2.165  11.649  0.5676  0.3471  1.2228
 7880SOL    HW235274   0.980   2.236  11.547 -0.5647 -0.8846  0.0709
 7881SOL     OW35275   4.077   2.901   3.694  0.5074 -0.0773  0.5001
 7881SOL    HW135276   4.113   2.853   3.768 -0.6520  0.7228  1.5738
 7881SOL    HW235277   4.150   2.932   3.641 -1.4188 -0.7435 -2.5463
 7882SOL     OW35278   1.284   1.986  16.713 -0.5469 -0.7081 -0.0679
 7882SOL    HW135279   1.356   2.041  16.745 -1.2886  0.0635  0.2779
 7882SOL    HW235280   1.330   1.903  16.698 -0.4769 -0.9650  1.5441
 7883SOL     OW35281   4.001   3.737   8.051 -0.2392 -0.5900 -0.1081
 7883SOL    HW135282   4.015   3.643   8.064 -2.0042 -0.6394  1.5279
 7883SOL    HW235283   4.081   3.758   8.098  0.0398 -1.0960 -0.3514
 7884SOL     OW35284   4.702   1.382   9.302 -0.6918  0.1314  0.0661
 7884SOL    HW135285   4.715   1.301   9.351  1.1562 -0.2657 -1.0847
 7884SOL    HW235286   4.607   1.388   9.311 -0.6862  0.6969 -0.2328
 7885SOL     OW35287   0.006   0.893   9.728  0.1097 -0.5141 -0.0822
 7885SOL    HW135288   4.663   0.865   9.698  0.5071 -1.3127 -0.4771
 7885SOL    HW235289   0.000   0.870   9.820 -0.8055 -0.2332 -0.0659
 7886SOL     OW35290   0.816   0.852   6.479  0.8437 -0.3593  0.6346
 7886SOL    HW135291   0.828   0.807   6.563 -2.3588 -0.4321  1.0320
 7886SOL    HW235292   0.788   0.941   6.502 -2.6620 -1.6192  1.2374
 7887SOL     OW35293   3.276   4.582   4.377  0.1682  0.0979 -0.7198
 7887SOL    HW135294   3.221   4.644   4.424 -1.5425 -2.3452  0.4890
 7887SOL    HW235295   3.343   4.568   4.443  0.3170 -3.2827 -1.5546
 7888SOL     OW35296   2.124   3.020   5.343 -0.5790 -0.4620 -0.2357
 7888SOL    HW135297   2.031   2.995   5.343 -0.4310 -0.9988  0.1607
 7888SOL    HW235298   2.157   2.946   5.393 -1.2693 -1.1374 -0.7670
 7889SOL     OW35299   2.338   1.750  11.297  0.2377 -0.7346 -0.4313
 7889SOL    HW135300   2.300   1.700  11.369 -0.1637  0.2304  0.0195
 7889SOL    HW235301   2.422   1.784  11.328  0.9909 -2.8388 -0.1783
 7890SOL     OW35302   4.695   3.630   3.904  0.4240 -0.3202  0.1000
 7890SOL    HW135303   0.047   3.634   3.904  0.4483 -0.9786 -0.4745
 7890SOL    HW235304   4.676   3.692   3.834 -1.9907 -0.3597  0.7208
 7891SOL     OW35305   3.102   2.131   3.282 -0.1897 -0.4580 -0.5070
 7891SOL    HW135306   3.133   2.142   3.371 -0.9605  1.8813 -0.5359
 7891SOL    HW235307   3.096   2.223   3.258 -1.4114 -0.2343  0.6123
 7892SOL     OW35308   3.546   2.538   8.139 -0.4803 -0.7312 -0.6751
 7892SOL    HW135309   3.607   2.469   8.114  1.1820  0.0781  1.1516
 7892SOL    HW235310   3.602   2.584   8.202 -1.7831 -0.1043  0.0364
 7893SOL     OW35311   1.243   3.396   9.756 -0.1853 -0.5052  0.5540
 7893SOL    HW135312   1.216   3.483   9.784  1.0018 -0.1232  0.5337
 7893SOL    HW235313   1.251   3.403   9.661 -1.0706  0.6425  0.5637
 7894SOL     OW35314   2.070   0.731   2.624  0.4340  0.1332  0.0143
 7894SOL    HW135315   2.011   0.800   2.656  2.2013  1.4652  0.4037
 7894SOL    HW235316   2.156   0.771   2.638  1.0240 -1.9760  2.4463
 7895SOL     OW35317   3.787   2.069   3.163  0.3321  0.4167 -0.0712
 7895SOL    HW135318   3.882   2.081   3.155  0.4396 -0.5516 -0.2353
 7895SOL    HW235319   3.782   1.975   3.178  2.6500 -0.0811 -2.3872
 7896SOL     OW35320   2.194   3.070   3.402  0.5420  0.1374 -0.2944
 7896SOL    HW135321   2.221   3.028   3.320  0.1663 -2.2894  0.8245
 7896SOL    HW235322   2.174   3.160   3.376 -0.1024 -0.1689 -0.8705
 7897SOL     OW35323   0.332   1.923   5.338  0.1546 -0.0863  0.1302
 7897SOL    HW135324   0.239   1.925   5.359  0.0289 -0.3592 -0.3768
 7897SOL    HW235325   0.348   1.829   5.345  1.2676  0.2569  2.0122
 7898SOL     OW35326   4.639   1.943  13.470 -0.2426  0.7787  0.0686
 7898SOL    HW135327   4.548   1.970  13.453 -0.9720 -0.8982  1.3039
 7898SOL    HW235328   4.687   2.024  13.456  1.3593 -0.4304 -1.5583
 7899SOL     OW35329   1.613   4.430   1.227 -0.0282  0.2720  0.0511
 7899SOL    HW135330   1.530   4.401   1.189  1.1993 -1.4613 -1.2865
 7899SOL    HW235331   1.640   4.482   1.152 -0.0247  0.3951  0.1378
 7900SOL     OW35332   4.230   3.132   9.542  0.5590 -0.0367 -0.5155
 7900SOL    HW135333   4.314   3.109   9.502  0.6178 -0.7469  0.0199
 7900SOL    HW235334   4.195   3.043   9.539 -0.5411  0.3764  0.0016
 7901SOL     OW35335   3.671   1.568   3.919 -0.1818  0.2735 -0.1123
 7901SOL    HW135336   3.636   1.611   3.996 -0.6835 -0.5620  0.1253
 7901SOL    HW235337   3.761   1.595   3.935  0.6101 -2.1148 -0.4302
 7902SOL     OW35338   2.730   2.374  15.611  0.4381  0.0423  0.5477
 7902SOL    HW135339   2.745   2.282  15.631  0.7907  0.4271  2.0561
 7902SOL    HW235340   2.743   2.366  15.517  1.0794 -2.4870  0.8445
 7903SOL     OW35341   0.652   4.053   9.269  0.4737 -0.4819 -0.6839
 7903SOL    HW135342   0.719   4.098   9.218 -2.1972  1.9935 -2.0423
 7903SOL    HW235343   0.594   4.029   9.197 -0.5555  0.5292 -0.2098
 7904SOL     OW35344   1.764   1.102   4.046 -0.4816 -0.1190  0.4999
 7904SOL    HW135345   1.822   1.027   4.055 -0.1422  0.0275 -0.4558
 7904SOL    HW235346   1.823   1.156   3.994 -0.3817 -1.9290 -1.2408
 7905SOL     OW35347   4.046   2.395   2.827  0.5243 -0.4289 -0.4264
 7905SOL    HW135348   4.130   2.430   2.796  0.8647 -2.2598 -1.5718
 7905SOL    HW235349   4.035   2.437   2.913  2.8088 -1.8647  0.5821
 7906SOL     OW35350   3.407   1.660   5.228  0.1914  0.9072  0.1445
 7906SOL    HW135351   3.453   1.743   5.217  0.4723  0.8381  0.7447
 7906SOL    HW235352   3.347   1.652   5.154 -0.1716  1.8557  0.3413
 7907SOL     OW35353   1.802   1.881   6.652  0.8081  0.2124  0.1434
 7907SOL    HW135354   1.878   1.822   6.655  0.9590  0.5173  2.4234
 7907SOL    HW235355   1.783   1.880   6.746 -0.7625  0.9139 -0.1766
 7908SOL     OW35356   3.274   0.536   5.580 -0.2700  0.0800  0.5386
 7908SOL    HW135357   3.357   0.581   5.561  0.7708 -2.4594 -1.0527
 7908SOL    HW235358   3.220   0.555   5.503 -0.4088 -0.3162  0.5410
 7909SOL     OW35359   0.500   3.345   1.336  0.3927  0.1916 -0.0493
 7909SOL    HW135360   0.451   3.265   1.354  0.3750 -0.4010 -2.7626
 7909SOL    HW235361   0.460   3.389   1.261 -0.3422  0.8188  0.7209
 7910SOL     OW35362   1.001   4.019   5.119 -0.1568 -0.1924  0.1023
 7910SOL    HW135363   1.024   3.980   5.035 -1.0139 -0.1688 -0.1380
 7910SOL    HW235364   0.934   4.086   5.105 -1.1840 -1.3271 -0.3328
 7911SOL     OW35365   2.440   1.969  15.157 -0.1112  0.1003 -0.2605
 7911SOL    HW135366   2.433   1.881  15.193  0.6657  0.6845  1.2858
 7911SOL    HW235367   2.380   2.013  15.217 -1.3448  0.4069 -1.7107
 7912SOL     OW35368   3.219   2.905   0.036  0.6458  0.5221  0.0399
 7912SOL    HW135369   3.186   2.942   0.118  2.5506  2.0454  0.1292
 7912SOL    HW235370   3.297   2.861   0.069 -1.3719 -1.9658  1.4851
 7913SOL     OW35371   0.879   4.285   8.161 -0.5461  0.0405  0.4709
 7913SOL    HW135372   0.937   4.212   8.139  1.9574  1.1603  3.3635
 7913SOL    HW235373   0.812   4.281   8.093 -0.9901  1.9045  0.7874
 7914SOL     OW35374   4.142   2.925   6.035 -0.1672  0.2690 -0.2367
 7914SOL    HW135375   4.225   2.939   6.081 -0.3182  1.4916 -0.3282
 7914SOL    HW235376   4.164   2.875   5.957  2.0711 -0.2175  0.6953
 7915SOL     OW35377   2.992   0.128  15.058 -0.0162  0.5399  0.0303
 7915SOL    HW135378   2.966   0.109  14.968  1.2238  0.7112 -0.3649
 7915SOL    HW235379   2.919   0.182  15.089 -2.1679 -1.8258 -0.8791
 7916SOL     OW35380   2.468   1.938   9.176 -0.1699  0.0689  0.6338
 7916SOL    HW135381   2.555   1.913   9.146 -0.4797  0.3617 -0.5251
 7916SOL    HW235382   2.475   1.904   9.265  1.7407 -2.0938 -0.3487
 7917SOL     OW35383   3.575   1.767   2.350 -0.2746  0.1421 -0.8675
 7917SOL    HW135384   3.504   1.802   2.404  0.6744 -0.7992  1.0011
 7917SOL    HW235385   3.651   1.818   2.379 -1.7342  0.0091  3.2640
 7918SOL     OW35386   3.879   2.931   1.593  0.1809  0.4385 -0.7686
 7918SOL    HW135387   3.845   2.842   1.588  1.3353  0.0552 -1.7261
 7918SOL    HW235388   3.865   2.963   1.504 -2.3340  4.1882  0.9697
 7919SOL     OW35389   1.036   1.811  14.408  0.1666 -0.1911  0.0505
 7919SOL    HW135390   0.981   1.840  14.335  0.6730  0.0605 -0.2312
 7919SOL    HW235391   1.050   1.718  14.389  0.6375 -0.1159  0.0449
 7920SOL     OW35392   4.547   0.649   3.752 -0.4836 -0.2889 -0.0847
 7920SOL    HW135393   4.504   0.673   3.670  1.4006  0.7900 -0.7637
 7920SOL    HW235394   4.628   0.699   3.744 -0.8410  0.3224  0.0476
 7921SOL     OW35395   1.879   1.722   4.108  0.1585 -0.1134 -0.3238
 7921SOL    HW135396   1.866   1.814   4.131 -0.8303 -0.7024  1.5563
 7921SOL    HW235397   1.870   1.729   4.013 -0.3688  1.2662 -0.1671
 7922SOL     OW35398   0.329   4.358   4.431  0.5467  0.2035  0.6073
 7922SOL    HW135399   0.375   4.427   4.382 -2.8432 -0.7898 -4.0214
 7922SOL    HW235400   0.401   4.297   4.445 -0.7890 -1.6474 -0.4875
 7923SOL     OW35401   3.448   4.433   8.591 -0.5306 -0.2271 -0.1245
 7923SOL    HW135402   3.384   4.362   8.585 -0.8395  0.1810 -1.6729
 7923SOL    HW235403   3.499   4.405   8.667 -1.8332 -1.8199  0.1554
 7924SOL     OW35404   2.088   1.993   3.539 -0.3249 -0.2111 -0.3559
 7924SOL    HW135405   2.150   1.941   3.590 -4.1608 -3.5242  0.9383
 7924SOL    HW235406   2.067   2.072   3.588 -0.2680 -0.1772 -0.3856
 7925SOL     OW35407   2.627   4.005   5.071  0.0533 -0.5114 -0.2589
 7925SOL    HW135408   2.538   3.971   5.079  0.2790 -1.0217  0.0371
 7925SOL    HW235409   2.627   4.039   4.981 -2.8945  0.2918  0.0390
 7926SOL     OW35410   0.035   1.681   2.223 -0.0432  0.2663  0.5115
 7926SOL    HW135411   4.688   1.694   2.196  0.0112 -0.1301  0.1420
 7926SOL    HW235412   0.083   1.665   2.142 -1.1414 -1.1765  0.1326
 7927SOL     OW35413   2.266   2.906   0.219  0.0927 -0.3811 -0.0420
 7927SOL    HW135414   2.201   2.915   0.288 -0.4643 -0.8182 -0.5058
 7927SOL    HW235415   2.283   2.812   0.215  1.1783 -0.1302 -1.7265
 7928SOL     OW35416   3.582   0.944   9.830  0.3351 -0.5470  0.3797
 7928SOL    HW135417   3.560   0.868   9.884  1.1279 -0.9283  0.1498
 7928SOL    HW235418   3.664   0.968   9.872  0.6287  0.8052 -0.9431
 7929SOL     OW35419   2.254   1.490   6.435  0.0364 -0.2142  0.0616
 7929SOL    HW135420   2.187   1.426   6.411  0.6404  0.0431 -2.4028
 7929SOL    HW235421   2.256   1.529   6.347  2.2823  0.3375  0.3567
 7930SOL     OW35422   0.666   4.575   6.122 -0.0413 -0.3813  0.3957
 7930SOL    HW135423   0.728   4.543   6.056  1.6198 -0.6026  2.0659
 7930SOL    HW235424   0.628   4.651   6.078  0.1808 -0.5491 -0.0937
 7931SOL     OW35425   3.129   2.870   4.930  0.3690 -0.1944 -0.4574
 7931SOL    HW135426   3.140   2.867   5.025 -1.2319 -2.2651 -0.3390
 7931SOL    HW235427   3.172   2.789   4.900  0.8908 -0.5007  1.0988
 7932SOL     OW35428   0.384   4.145  11.657  0.2836  0.0088  0.2470
 7932SOL    HW135429   0.390   4.138  11.561 -0.9557  1.1345  0.0954
 7932SOL    HW235430   0.361   4.237  11.671  0.1529  0.3316 -2.0118
 7933SOL     OW35431   0.485   3.365   3.462  0.1816 -0.0441 -0.4830
 7933SOL    HW135432   0.527   3.394   3.381 -1.6259 -1.3098 -1.8961
 7933SOL    HW235433   0.440   3.445   3.491  1.7587 -0.2203  2.4109
 7934SOL     OW35434   4.645   0.681   5.736  0.3774  0.6760 -0.3392
 7934SOL    HW135435   4.681   0.599   5.770 -2.2906 -0.6877 -0.7981
 7934SOL    HW235436   4.591   0.707   5.810  0.0142  0.3167 -0.4759
 7935SOL     OW35437   2.681   4.505   2.989 -0.2859  0.0293 -0.8509
 7935SOL    HW135438   2.603   4.543   2.949 -0.5693 -0.2574 -0.5761
 7935SOL    HW235439   2.638   4.456   3.059  0.7392  0.9900  0.4428
 7936SOL     OW35440   3.944   0.165   4.474 -0.2886 -0.4249 -0.4530
 7936SOL    HW135441   4.026   0.136   4.433 -0.6061  0.2599 -1.5696
 7936SOL    HW235442   3.924   0.088   4.527 -0.7166 -1.9123 -2.7800
 7937SOL     OW35443   2.422   1.088  17.076  0.0027 -0.0426 -0.7617
 7937SOL    HW135444   2.330   1.066  17.087 -0.0677  0.7825  0.3135
 7937SOL    HW235445   2.421   1.139  16.995 -2.0216  0.4622 -0.4046
 7938SOL     OW35446   1.681   3.452  12.755  0.5732 -0.4739 -0.2350
 7938SOL    HW135447   1.698   3.490  12.841  0.1919 -0.1181 -0.3197
 7938SOL    HW235448   1.658   3.365  12.789 -2.8667  0.9324  0.9349
 7939SOL     OW35449   3.825   4.157   6.854  0.0567 -0.0847 -0.3958
 7939SOL    HW135450   3.792   4.067   6.852 -0.4690  0.0798  0.9181
 7939SOL    HW235451   3.763   4.201   6.913  0.9917  1.4754 -0.5697
 7940SOL     OW35452   2.663   1.929   4.382 -1.3142  0.3298 -0.1852
 7940SOL    HW135453   2.601   1.863   4.348 -2.0351  0.2517  1.2601
 7940SOL    HW235454   2.731   1.869   4.411  0.0224  2.1714  0.4652
 7941SOL     OW35455   2.680   1.133  16.516  0.5835  0.3643 -0.0215
 7941SOL    HW135456   2.767   1.104  16.541  0.5569  0.2223 -0.0968
 7941SOL    HW235457   2.630   1.110  16.594  2.2209 -0.9729  0.6367
 7942SOL     OW35458   2.090   4.669   2.411  0.2097 -0.3303 -0.3580
 7942SOL    HW135459   2.138   4.620   2.478  0.3647  1.6745  1.0038
 7942SOL    HW235460   2.132   0.011   2.421  0.0405 -0.4649  1.5693
 7943SOL     OW35461   2.368   1.598   2.644 -0.3044  0.1951  0.2600
 7943SOL    HW135462   2.300   1.653   2.683  0.7581  2.0874 -0.5680
 7943SOL    HW235463   2.359   1.609   2.549 -2.0428 -0.3231  0.3665
 7944SOL     OW35464   0.525   0.253   1.353  0.1555 -0.1431  0.0131
 7944SOL    HW135465   0.506   0.234   1.261 -0.7074 -1.0228  0.3754
 7944SOL    HW235466   0.446   0.222   1.397  1.5102 -1.8393  1.3017
 7945SOL     OW35467   4.058   3.160  17.527 -0.3718  0.1483  0.0251
 7945SOL    HW135468   4.131   3.172  17.588 -0.4548  0.8625 -0.0152
 7945SOL    HW235469   4.076   3.241  17.479  1.3972  0.1783  0.7502
 7946SOL     OW35470   3.688   3.445   6.825  0.5384  0.3183 -0.2305
 7946SOL    HW135471   3.643   3.530   6.821 -1.3991 -0.5767  2.1751
 7946SOL    HW235472   3.685   3.428   6.919 -1.9580 -0.3727 -0.4387
 7947SOL     OW35473   3.405   4.167  15.041  0.1248 -0.1879  0.1268
 7947SOL    HW135474   3.427   4.074  15.046  0.2676 -0.1329  0.5169
 7947SOL    HW235475   3.310   4.164  15.026  0.0779  0.6047  0.2950
 7948SOL     OW35476   3.396   1.614   2.690  0.3079 -0.0238 -0.6380
 7948SOL    HW135477   3.321   1.656   2.733  1.6295  0.6730  0.9693
 7948SOL    HW235478   3.370   1.522   2.682 -0.8342  0.3328 -1.0429
 7949SOL     OW35479   1.349   2.295  15.321 -0.3668 -0.6980  0.1133
 7949SOL    HW135480   1.405   2.262  15.391  2.0325 -1.7938 -2.3328
 7949SOL    HW235481   1.360   2.241  15.243  3.2020  0.0639  0.0701
 7950SOL     OW35482   3.907   0.070   9.163  0.3507  0.1275  0.7247
 7950SOL    HW135483   3.816   0.041   9.164  0.3125  0.2783  1.3204
 7950SOL    HW235484   3.933   0.032   9.079 -0.4213  0.3801  0.3721
 7951SOL     OW35485   0.272   2.301   9.222 -0.2397  0.1842  0.5144
 7951SOL    HW135486   0.293   2.239   9.291  2.2783  0.1330 -0.3098
 7951SOL    HW235487   0.330   2.374   9.243 -1.3029  0.9988  0.5762
 7952SOL     OW35488   2.212   2.080   4.001  0.4295  0.7034  0.5340
 7952SOL    HW135489   2.287   2.089   4.059  0.6768 -1.8506  0.6154
 7952SOL    HW235490   2.151   2.065   4.073 -0.0268 -3.9964 -0.8499
 7953SOL     OW35491   4.640   4.063   9.614  0.0720 -0.0059  0.1519
 7953SOL    HW135492   4.576   4.017   9.669 -0.6004  0.4863 -0.2279
 7953SOL    HW235493   4.660   4.132   9.678  0.4908  0.9510 -1.0162
 7954SOL     OW35494   1.202   3.466   6.647  0.1525  0.1381  0.0304
 7954SOL    HW135495   1.128   3.501   6.697  1.4543  1.2073  1.2101
 7954SOL    HW235496   1.250   3.433   6.723 -1.3273  1.0875  1.4044
 7955SOL     OW35497   2.833   1.307   8.828 -0.2012  0.7122  0.4637
 7955SOL    HW135498   2.859   1.263   8.746  2.4153  0.0661  1.6209
 7955SOL    HW235499   2.918   1.344   8.850 -0.6296  1.2797  1.1218
 7956SOL     OW35500   2.572   4.094   1.894 -0.1547  0.1417  0.2026
 7956SOL    HW135501   2.566   3.999   1.905 -2.4350  0.3224  0.5829
 7956SOL    HW235502   2.568   4.122   1.986  0.4790  0.3697  0.1559
 7957SOL     OW35503   1.807   1.265   0.947 -0.4249 -0.3518  0.0989
 7957SOL    HW135504   1.731   1.225   0.905 -1.3935  1.9969 -0.3427
 7957SOL    HW235505   1.762   1.315   1.015 -1.3152  0.4467 -1.1016
 7958SOL     OW35506   3.406   3.115   6.294 -0.1601  0.2603 -0.7691
 7958SOL    HW135507   3.347   3.071   6.232  0.0832 -1.5780  0.3125
 7958SOL    HW235508   3.477   3.133   6.232  0.7204  1.7751  0.6923
 7959SOL     OW35509   4.425   4.687   6.275 -0.0158  0.2031 -0.2096
 7959SOL    HW135510   4.464   4.719   6.356  2.3028  0.3946 -1.4091
 7959SOL    HW235511   4.363   0.013   6.254 -0.3339  0.2266  0.8079
 7960SOL     OW35512   1.344   3.444   4.775  0.4032  0.7579  0.3312
 7960SOL    HW135513   1.294   3.521   4.750  0.9083  1.0475  0.2197
 7960SOL    HW235514   1.359   3.390   4.697  1.4856  0.0436  1.0269
 7961SOL     OW35515   2.242   0.519   4.935  0.5564 -0.2251  0.5672
 7961SOL    HW135516   2.307   0.449   4.940  1.2176  0.3141 -0.6144
 7961SOL    HW235517   2.168   0.473   4.896 -0.8323  1.4937  1.1412
 7962SOL     OW35518   2.563   3.888   3.625  0.0613 -0.3782 -0.1605
 7962SOL    HW135519   2.536   3.922   3.539  0.1901  2.5333  0.9398
 7962SOL    HW235520   2.483   3.877   3.677  0.0837  1.6663  0.3236
 7963SOL     OW35521   1.166   1.434   6.832  0.4590  0.0379 -0.2709
 7963SOL    HW135522   1.227   1.505   6.811  0.6162 -0.6877 -2.2368
 7963SOL    HW235523   1.089   1.481   6.864  1.0168  0.4428  0.4854
 7964SOL     OW35524   3.481   1.615  15.345  0.4145 -0.3165  0.2608
 7964SOL    HW135525   3.390   1.590  15.332 -0.0497  2.0804 -1.0783
 7964SOL    HW235526   3.517   1.533  15.379 -0.1921  0.3366  2.5087
 7965SOL     OW35527   0.825   1.386  15.028  0.6083 -0.3293  0.6905
 7965SOL    HW135528   0.762   1.381  15.099  0.2212 -2.4788  0.2177
 7965SOL    HW235529   0.904   1.344  15.062  0.6937  1.0159  2.1564
 7966SOL     OW35530   0.973   1.936   7.979  0.5391  0.0097 -0.6278
 7966SOL    HW135531   0.967   1.841   7.971 -1.4131  0.4460 -4.4026
 7966SOL    HW235532   0.909   1.950   8.048 -0.6942  1.0933 -1.9895
 7967SOL     OW35533   1.063   2.225   4.767 -0.4173 -0.2696  0.2114
 7967SOL    HW135534   1.049   2.155   4.831  0.8966 -2.2282 -1.6598
 7967SOL    HW235535   0.986   2.282   4.774 -0.1309  0.1115  0.2410
 7968SOL     OW35536   0.339   3.463   6.156 -0.6563 -0.0462 -0.2058
 7968SOL    HW135537   0.416   3.447   6.102 -0.2341  2.3558 -0.3189
 7968SOL    HW235538   0.266   3.468   6.093 -1.6732 -0.6397  0.9194
 7969SOL     OW35539   4.727   1.756  17.233 -0.0949  0.5616 -0.6122
 7969SOL    HW135540   4.649   1.790  17.190  1.1794  3.2636 -0.8163
 7969SOL    HW235541   4.707   1.666  17.257  2.2397 -0.0756 -1.0411
 7970SOL     OW35542   3.691   1.737   5.230  0.4607 -0.1585 -0.0645
 7970SOL    HW135543   3.655   1.733   5.319 -0.9246  1.5798 -0.5514
 7970SOL    HW235544   3.778   1.766   5.256 -0.0790  2.4784 -1.1906
 7971SOL     OW35545   1.807   1.002   5.131  0.0333  0.0232 -0.1954
 7971SOL    HW135546   1.819   1.029   5.222  1.0190 -0.9373 -0.0392
 7971SOL    HW235547   1.718   0.967   5.133 -1.2567  3.3443  1.3488
 7972SOL     OW35548   3.258   0.913   5.109  0.0774 -0.1685  0.9407
 7972SOL    HW135549   3.266   1.000   5.147  2.7677 -0.8438  1.8869
 7972SOL    HW235550   3.337   0.905   5.056  0.9245 -1.6840  2.4456
 7973SOL     OW35551   2.622   3.887  16.483  0.2438  0.0242 -0.3552
 7973SOL    HW135552   2.533   3.922  16.476  0.6862  1.7348  2.6963
 7973SOL    HW235553   2.662   3.938  16.553  2.3382 -2.0888  0.0118
 7974SOL     OW35554   3.526   3.641   5.790  0.1141 -0.3652 -0.6661
 7974SOL    HW135555   3.440   3.601   5.778  0.2304 -0.7018 -0.3958
 7974SOL    HW235556   3.571   3.581   5.850  0.3381  3.1728  2.6425
 7975SOL     OW35557   3.256   2.497   2.029 -0.2208  0.2014 -0.4620
 7975SOL    HW135558   3.346   2.480   2.001 -0.6491  0.5133 -2.0228
 7975SOL    HW235559   3.243   2.450   2.111 -0.9394  1.2221  0.0002
 7976SOL     OW35560   2.672   2.280  15.336  0.3738  0.2035 -0.4682
 7976SOL    HW135561   2.577   2.288  15.339  0.4987  2.3159 -2.6163
 7976SOL    HW235562   2.675   2.204  15.276  2.2331 -0.2938  0.2423
 7977SOL     OW35563   0.202   2.991  16.257 -0.3007 -0.5860 -0.2294
 7977SOL    HW135564   0.297   2.996  16.271 -0.5089  4.8072 -0.8385
 7977SOL    HW235565   0.183   3.076  16.216 -2.8389 -1.5179 -0.9931
 7978SOL     OW35566   4.173   0.153   7.220  0.1450  0.1206 -0.0003
 7978SOL    HW135567   4.228   0.224   7.187 -1.5510  1.4947  0.1449
 7978SOL    HW235568   4.121   0.208   7.279  1.4966  0.8739  0.4974
 7979SOL     OW35569   3.645   1.978   5.027  0.1072 -0.4778  0.7263
 7979SOL    HW135570   3.657   2.051   5.088 -0.8657  1.0049 -0.8895
 7979SOL    HW235571   3.622   1.919   5.099 -0.5853 -0.0710  0.8338
 7980SOL     OW35572   1.338   3.596   1.626 -0.6440  0.1881 -0.2200
 7980SOL    HW135573   1.408   3.636   1.575  0.6516 -3.3014 -1.1201
 7980SOL    HW235574   1.260   3.611   1.572 -2.1445  0.4379  1.9860
 7981SOL     OW35575   4.696   1.312   5.326 -0.1450  0.2152 -0.1584
 7981SOL    HW135576   4.672   1.374   5.258  0.4056  1.3852  0.7186
 7981SOL    HW235577   4.619   1.258   5.341 -0.9219  1.6989  1.1116
 7982SOL     OW35578   1.204   2.991   4.801 -0.7638  0.3101  0.9026
 7982SOL    HW135579   1.142   2.951   4.862  0.4522 -1.4324  1.0085
 7982SOL    HW235580   1.262   3.036   4.863  1.2999 -0.4251 -0.4871
 7983SOL     OW35581   1.930   3.292   5.562  0.2571  0.0073 -0.1996
 7983SOL    HW135582   1.854   3.311   5.507 -0.6303 -0.3883  0.8842
 7983SOL    HW235583   2.000   3.347   5.529 -1.4346  2.4029  0.2403
 7984SOL     OW35584   0.126   1.877   1.840  0.1348  0.4293 -0.4484
 7984SOL    HW135585   0.205   1.909   1.885  0.0703 -1.9538  1.3735
 7984SOL    HW235586   0.138   1.782   1.840  0.8150  0.5195 -0.8955
 7985SOL     OW35587   0.102   2.657   7.387 -0.0457 -0.3001  0.2325
 7985SOL    HW135588   0.157   2.712   7.443 -0.8067  0.5773  0.1113
 7985SOL    HW235589   0.166   2.594   7.354  3.7316  2.7502  1.7564
 7986SOL     OW35590   3.969   4.236  12.125 -0.0534  0.3985  0.1391
 7986SOL    HW135591   3.923   4.298  12.069  2.6916  1.3572 -1.0436
 7986SOL    HW235592   3.955   4.274  12.212 -1.2671 -0.9874  0.5599
 7987SOL     OW35593   1.396   4.105   7.964 -0.7549 -0.3493  0.2551
 7987SOL    HW135594   1.363   4.027   7.918  0.5334 -1.1046  0.6117
 7987SOL    HW235595   1.396   4.060   8.049  1.8940  0.3944  0.6282
 7988SOL     OW35596   2.661   4.157   8.008  0.2998 -0.2647  0.4195
 7988SOL    HW135597   2.574   4.143   8.046  0.9730 -3.0644  0.9176
 7988SOL    HW235598   2.645   4.248   7.982  0.4981  0.1177  1.6002
 7989SOL     OW35599   4.099   1.906  17.500  0.9858  0.6623 -0.2243
 7989SOL    HW135600   4.108   1.908  17.405  1.4163 -1.2508 -0.2200
 7989SOL    HW235601   4.120   1.996  17.527  2.7421  0.9067 -2.3453
 7990SOL     OW35602   2.562   0.429   9.139  0.3376 -0.1074 -0.5727
 7990SOL    HW135603   2.520   0.345   9.156 -0.2151  0.3555  0.3258
 7990SOL    HW235604   2.503   0.489   9.185 -2.1582 -0.9080 -2.7125
 7991SOL     OW35605   2.580   0.481   5.052  0.3802  0.2653  0.3535
 7991SOL    HW135606   2.587   0.410   5.117 -1.2945  2.1247  2.5839
 7991SOL    HW235607   2.506   0.443   5.004 -0.8089  1.9875  0.8095
 7992SOL     OW35608   1.072   3.141   4.420  0.0896  0.0126  0.2897
 7992SOL    HW135609   1.013   3.069   4.399 -1.4644  2.1011 -2.5214
 7992SOL    HW235610   1.065   3.194   4.341 -0.8984 -1.3227 -0.5150
 7993SOL     OW35611   4.509   0.990   9.313 -0.9501  0.5829  0.1341
 7993SOL    HW135612   4.557   1.011   9.234 -2.7761  2.4986 -0.4472
 7993SOL    HW235613   4.447   1.060   9.334 -0.4085  1.3131 -0.7219
 7994SOL     OW35614   4.648   1.454   3.989  0.2993 -0.3297  0.3599
 7994SOL    HW135615   4.644   1.378   4.047 -1.6277 -2.4913 -2.5545
 7994SOL    HW235616   4.626   1.526   4.049  0.1221  1.5062 -1.8874
 7995SOL     OW35617   2.612   3.692   2.901 -0.9206  0.3417  0.0548
 7995SOL    HW135618   2.576   3.641   2.829 -1.3106  0.0092  0.4919
 7995SOL    HW235619   2.624   3.779   2.862  2.0733 -1.0944 -2.1757
 7996SOL     OW35620   0.284   2.110   5.153 -0.1983  0.4261  0.3736
 7996SOL    HW135621   0.218   2.154   5.205 -1.8921 -0.0310 -1.3867
 7996SOL    HW235622   0.310   2.032   5.201  0.0381  0.6651  0.6307
 7997SOL     OW35623   0.834   3.555   5.785  0.0945  0.2862 -0.6076
 7997SOL    HW135624   0.852   3.647   5.764 -1.4615 -0.2160 -4.1946
 7997SOL    HW235625   0.852   3.535   5.693  0.9841 -1.2529 -0.0781
 7998SOL     OW35626   2.002   0.050   5.958  0.4226 -0.2007 -0.2364
 7998SOL    HW135627   2.029   4.721   6.014 -0.9665 -0.7689 -0.3271
 7998SOL    HW235628   2.078   0.069   5.903  0.3661 -2.5015 -1.0900
 7999SOL     OW35629   1.024   3.956   7.827  0.5267  0.0968  0.5845
 7999SOL    HW135630   1.062   4.009   7.758 -0.2151 -0.1486 -0.0159
 7999SOL    HW235631   1.099   3.903   7.852 -1.2409 -0.9509  3.7121
 8000SOL     OW35632   2.514   0.288   7.820  0.3410 -0.4529 -0.0879
 8000SOL    HW135633   2.452   0.215   7.830 -0.6352  0.5113  0.8906
 8000SOL    HW235634   2.562   0.270   7.901  3.6602  0.0515 -1.9662
 8001SOL     OW35635   1.088   1.863   6.948  0.6932  0.3440 -0.4681
 8001SOL    HW135636   1.116   1.788   7.000  2.3605  1.9294  0.8662
 8001SOL    HW235637   1.027   1.824   6.884 -0.0110  1.8411 -0.6953
 8002SOL     OW35638   0.574   1.796   2.176 -0.1366 -0.2925 -0.1413
 8002SOL    HW135639   0.663   1.785   2.208 -0.4057 -0.0869  0.6775
 8002SOL    HW235640   0.551   1.706   2.156  2.5998 -1.1350  0.5857
 8003SOL     OW35641   2.622   1.782  11.393  0.1039  0.3362 -0.1218
 8003SOL    HW135642   2.630   1.695  11.434  0.1198  0.1921 -0.4272
 8003SOL    HW235643   2.627   1.835  11.472  1.8872  1.5731 -1.0682
 8004SOL     OW35644   1.574   0.714   3.678  0.6985 -0.3226 -0.4399
 8004SOL    HW135645   1.646   0.770   3.707  0.7852 -0.5188 -0.2784
 8004SOL    HW235646   1.492   0.762   3.690  0.8872  0.4425 -2.1756
 8005SOL     OW35647   1.731   4.512  10.063  0.0185 -0.1851  0.6602
 8005SOL    HW135648   1.785   4.455  10.008 -0.7214  1.4439 -1.7602
 8005SOL    HW235649   1.721   4.464  10.145  1.0988 -0.7696  0.4498
 8006SOL     OW35650   2.536   0.119  10.603  0.3725 -0.1944 -0.0328
 8006SOL    HW135651   2.566   0.210  10.602  1.6942 -0.6287  0.4404
 8006SOL    HW235652   2.582   0.079  10.530  0.2059  0.3553 -0.4440
 8007SOL     OW35653   2.010   3.326  13.522  0.0714 -0.2574  0.3708
 8007SOL    HW135654   1.936   3.287  13.475  0.4546 -1.1873  0.5388
 8007SOL    HW235655   1.971   3.401  13.568 -1.3989 -0.1081 -1.1380
 8008SOL     OW35656   0.361   0.673   5.011  0.8828 -0.7369  0.2549
 8008SOL    HW135657   0.413   0.747   4.980  0.2866 -0.7043 -0.6882
 8008SOL    HW235658   0.276   0.709   4.986 -0.5561 -3.4285  1.2496
 8009SOL     OW35659   3.739   4.653  16.133 -0.1834 -0.2681 -0.0340
 8009SOL    HW135660   3.700   4.621  16.052 -2.1760  1.5001  0.2139
 8009SOL    HW235661   3.814   4.697  16.093  0.2725 -0.5939  0.4739
 8010SOL     OW35662   0.498   4.595  12.252 -0.0642  0.2396  0.3798
 8010SOL    HW135663   0.505   4.541  12.173  1.0670 -0.4482  0.9421
 8010SOL    HW235664   0.589   4.594  12.282 -0.2841 -1.4745  0.9926
 8011SOL     OW35665   0.598   1.468   6.076  0.1519 -0.0155 -0.6215
 8011SOL    HW135666   0.663   1.453   6.144  1.7131  2.1127 -1.6588
 8011SOL    HW235667   0.558   1.549   6.107  0.7227 -0.1694  0.4949
 8012SOL     OW35668   4.744   3.288   1.836 -0.2088 -0.3483  0.0574
 8012SOL    HW135669   4.668   3.236   1.810  0.0351 -0.5637 -0.2165
 8012SOL    HW235670   4.697   3.338   1.903  1.4869  1.8839 -0.4091
 8013SOL     OW35671   1.329   1.111   2.493 -0.0476 -0.3067  0.2386
 8013SOL    HW135672   1.402   1.120   2.432  1.5430 -1.0323  2.0301
 8013SOL    HW235673   1.367   1.163   2.564 -0.8617  0.4140  0.1385
 8014SOL     OW35674   2.722   2.561  17.388  0.0993 -0.2636  0.0610
 8014SOL    HW135675   2.710   2.467  17.379 -0.2480 -0.2515  0.3805
 8014SOL    HW235676   2.795   2.575  17.328  0.5769 -0.0961  0.6845
 8015SOL     OW35677   4.130   4.555  11.538  0.4989  0.2393  0.2409
 8015SOL    HW135678   4.175   4.487  11.488  1.4443  1.5169 -0.6458
 8015SOL    HW235679   4.185   4.630  11.519  0.6942  0.3343  1.1821
 8016SOL     OW35680   3.455   1.084   2.673 -0.1195 -0.2824 -0.3947
 8016SOL    HW135681   3.385   1.020   2.658  0.5469 -1.0207 -0.3445
 8016SOL    HW235682   3.408   1.167   2.662 -0.4198 -0.8674 -3.6046
 8017SOL     OW35683   3.061   1.885   3.475  0.3531  0.3773 -0.1177
 8017SOL    HW135684   3.133   1.866   3.536  1.5450 -0.4580 -1.8136
 8017SOL    HW235685   3.096   1.843   3.397  0.0350  1.1290 -0.6595
 8018SOL     OW35686   2.725   1.687  14.533 -0.5039 -0.0215  0.2467
 8018SOL    HW135687   2.636   1.707  14.504 -0.6906  2.2437  2.3674
 8018SOL    HW235688   2.709   1.638  14.614 -1.6583  0.3941  0.2690
 8019SOL     OW35689   0.235   0.000   7.307 -0.1131 -0.1123  0.4365
 8019SOL    HW135690   0.143   0.002   7.333  0.3872  1.5176  2.1228
 8019SOL    HW235691   0.267   4.707   7.390 -2.6528 -0.5996  1.1908
 8020SOL     OW35692   2.526   3.300   7.186 -0.2505  0.0528  0.1903
 8020SOL    HW135693   2.435   3.328   7.174 -0.2605  0.6119  1.6255
 8020SOL    HW235694   2.560   3.330   7.102  0.8643 -4.5787 -1.0232
 8021SOL     OW35695   1.617   3.211  12.884  0.0347  0.1538 -0.8779
 8021SOL    HW135696   1.534   3.220  12.931 -0.7581 -0.1378 -2.2236
 8021SOL    HW235697   1.611   3.123  12.847  1.1419 -0.0708 -0.5271
 8022SOL     OW35698   0.248   3.668   1.240 -0.3828  0.0234  0.6537
 8022SOL    HW135699   0.250   3.606   1.167 -0.0629 -0.5842  1.1726
 8022SOL    HW235700   0.305   3.623   1.303  0.9272  1.0276  0.1885
 8023SOL     OW35701   3.308   2.277   2.567  0.2367 -0.0975  0.5932
 8023SOL    HW135702   3.228   2.317   2.602  1.2299  2.1939  0.2830
 8023SOL    HW235703   3.278   2.186   2.562  1.7261 -0.5163 -0.5670
 8024SOL     OW35704   4.569   2.006   2.407 -0.1303  0.0469  0.0459
 8024SOL    HW135705   4.608   1.968   2.485  0.1625  1.2310  0.4776
 8024SOL    HW235706   4.491   1.951   2.401  0.4002 -0.6176 -0.6135
 8025SOL     OW35707   4.235   3.837   2.983 -0.3758 -0.7012 -0.2768
 8025SOL    HW135708   4.253   3.930   2.970 -3.0079 -0.2958 -1.0812
 8025SOL    HW235709   4.266   3.802   2.900 -1.4889  3.1316 -2.3346
 8026SOL     OW35710   0.343   2.881   8.786  0.5613  0.6686 -0.0759
 8026SOL    HW135711   0.285   2.810   8.811  0.0764  0.9201 -0.4852
 8026SOL    HW235712   0.278   2.951   8.789 -0.1508 -0.0420  0.7783
 8027SOL     OW35713   4.140   3.378   3.126 -0.2285  0.1281 -0.1698
 8027SOL    HW135714   4.212   3.362   3.065 -0.1600  0.7268 -0.2481
 8027SOL    HW235715   4.123   3.468   3.098 -1.7359  0.1013  0.6297
 8028SOL     OW35716   2.108   0.248   2.699  0.1573  1.0713  0.7508
 8028SOL    HW135717   2.129   0.300   2.621  1.6642 -0.7510 -0.0587
 8028SOL    HW235718   2.112   0.319   2.763  1.0030  0.1076  1.7618
 8029SOL     OW35719   3.373   1.715   8.786  0.2143 -0.0717 -0.4441
 8029SOL    HW135720   3.403   1.803   8.763  1.0050 -0.5181 -1.1089
 8029SOL    HW235721   3.278   1.729   8.779  0.8144  2.8760 -2.5966
 8030SOL     OW35722   3.055   2.072   8.659 -0.0201 -0.5765 -0.4071
 8030SOL    HW135723   3.015   2.158   8.673 -0.1995 -0.4328 -1.7526
 8030SOL    HW235724   3.040   2.032   8.744  0.9834  0.4293  0.2312
 8031SOL     OW35725   1.781   3.077   2.792 -0.6138 -0.0463 -0.9640
 8031SOL    HW135726   1.754   3.128   2.868  2.7532  0.5804 -0.1840
 8031SOL    HW235727   1.757   3.124   2.712 -1.0304  1.2365 -0.0800
 8032SOL     OW35728   1.937   3.992   5.085  0.1664 -0.1387  0.2649
 8032SOL    HW135729   1.911   4.031   5.168  1.4855 -0.4781  0.8371
 8032SOL    HW235730   1.915   4.073   5.038  3.9474  0.5318 -0.4009
 8033SOL     OW35731   2.269   3.229   8.697  0.1275  0.0022  0.1554
 8033SOL    HW135732   2.304   3.298   8.754 -0.3929  0.2865  0.1334
 8033SOL    HW235733   2.175   3.245   8.699 -0.6424 -4.4474 -0.5907
 8034SOL     OW35734   1.358   3.946   2.560  0.8322  0.3710 -0.1106
 8034SOL    HW135735   1.357   3.949   2.464  0.6798  0.0517 -0.1199
 8034SOL    HW235736   1.355   4.040   2.576 -2.0715  0.3621 -0.5463
 8035SOL     OW35737   0.300   4.470   6.948  0.3488  0.0680  0.1467
 8035SOL    HW135738   0.302   4.504   7.038  1.6937  2.1766 -0.6909
 8035SOL    HW235739   0.312   4.378   6.973 -0.8877 -0.0844  0.1635
 8036SOL     OW35740   1.019   3.187   1.250  0.4133 -0.2340 -0.2237
 8036SOL    HW135741   1.051   3.226   1.169 -0.5031  2.1163  0.5568
 8036SOL    HW235742   1.025   3.096   1.221 -1.2439 -0.2472 -0.5067
 8037SOL     OW35743   0.869   3.374   2.883  0.0705  0.3093  0.1161
 8037SOL    HW135744   0.928   3.449   2.891 -0.3558  0.6352  0.2114
 8037SOL    HW235745   0.891   3.325   2.961 -0.7109 -3.1407 -1.8477
 8038SOL     OW35746   3.719   1.297   5.183 -0.3059  0.4704  0.5750
 8038SOL    HW135747   3.625   1.295   5.201 -0.0320  0.2004  1.9935
 8038SOL    HW235748   3.763   1.252   5.255  1.1727  1.7145  0.4571
 8039SOL     OW35749   2.799   4.043   7.108  0.1678 -0.7986  0.1762
 8039SOL    HW135750   2.846   4.000   7.179 -1.1328 -1.2731  0.7543
 8039SOL    HW235751   2.730   4.091   7.154  0.4510  1.2259 -1.4930
 8040SOL     OW35752   1.110   1.436   7.762  0.0574 -0.3336 -0.0263
 8040SOL    HW135753   1.072   1.441   7.675 -2.4283  1.5119  1.1510
 8040SOL    HW235754   1.065   1.502   7.816 -2.7166 -0.4906 -2.1380
 8041SOL     OW35755   2.517   3.478   8.051 -0.0750  0.1919  0.3284
 8041SOL    HW135756   2.588   3.498   8.111  1.2391 -1.1630 -0.7565
 8041SOL    HW235757   2.458   3.438   8.114 -1.7866 -0.4772 -1.6717
 8042SOL     OW35758   0.302   4.603   6.711 -0.3557 -0.3142 -0.0146
 8042SOL    HW135759   0.304   4.543   6.786 -0.1088  2.1968  1.9698
 8042SOL    HW235760   0.221   4.654   6.715  1.4687  2.4172  1.4678
 8043SOL     OW35761   0.489   3.854  12.654 -0.1503  0.0553  0.0834
 8043SOL    HW135762   0.433   3.921  12.693  0.3381  0.7930 -0.4906
 8043SOL    HW235763   0.428   3.822  12.589 -0.4605 -0.1707  0.4871
 8044SOL     OW35764   4.124   2.357  13.304 -0.6762 -0.2255  0.1117
 8044SOL    HW135765   4.102   2.448  13.325  1.6143 -0.2898  2.8058
 8044SOL    HW235766   4.209   2.348  13.347 -0.2165  0.6776 -0.6006
 8045SOL     OW35767   3.408   1.888   2.556  0.2244 -0.0034 -0.3310
 8045SOL    HW135768   3.316   1.912   2.550 -0.0034 -0.5853  0.7494
 8045SOL    HW235769   3.400   1.808   2.608 -0.5550 -0.0520 -0.5355
 8046SOL     OW35770   1.708   4.230   4.595 -0.6291 -0.0743 -0.4549
 8046SOL    HW135771   1.795   4.237   4.634 -0.3996 -0.8002 -0.8409
 8046SOL    HW235772   1.709   4.264   4.506  1.1871  1.4007  0.1242
 8047SOL     OW35773   4.734   3.441  13.759 -0.1447  0.2771  0.2969
 8047SOL    HW135774   4.650   3.453  13.715 -1.0916  1.8807  2.5935
 8047SOL    HW235775   4.718   3.374  13.825 -2.0103 -1.5025 -1.9513
 8048SOL     OW35776   3.341   2.279   8.402 -0.5561 -0.0318  0.2636
 8048SOL    HW135777   3.359   2.360   8.450 -0.4127  1.7581 -2.7998
 8048SOL    HW235778   3.336   2.220   8.477  1.2450 -2.7749 -1.7738
 8049SOL     OW35779   4.630   3.191  10.438 -0.2489  0.1572  0.3663
 8049SOL    HW135780   4.715   3.188  10.392 -0.5736  0.0380 -0.2260
 8049SOL    HW235781   4.567   3.213  10.369 -0.8161 -1.7973  0.2747
 8050SOL     OW35782   3.334   4.503   6.259 -0.5261  0.0898 -0.4763
 8050SOL    HW135783   3.392   4.512   6.184  0.8576 -0.4774  0.5223
 8050SOL    HW235784   3.246   4.522   6.225 -0.7688  0.3853  0.3166
 8051SOL     OW35785   3.407   0.394   2.341  0.4382  0.1555 -0.0525
 8051SOL    HW135786   3.314   0.412   2.354 -0.0826 -2.1295 -0.6383
 8051SOL    HW235787   3.448   0.464   2.391 -0.2616  1.8699 -1.8951
 8052SOL     OW35788   2.577   0.739  12.344 -0.2190 -0.1569  0.3058
 8052SOL    HW135789   2.500   0.710  12.392  0.6401 -1.3694  0.9478
 8052SOL    HW235790   2.603   0.810  12.403  0.7057  0.0745 -0.3734
 8053SOL     OW35791   0.997   3.967  17.329 -0.2356 -0.0599 -0.2605
 8053SOL    HW135792   1.002   4.001  17.418  0.6677  0.9793 -0.7068
 8053SOL    HW235793   1.058   4.027  17.285  0.9440  0.3599  1.9292
 8054SOL     OW35794   1.759   4.103  12.264 -0.6065  0.9048  0.0678
 8054SOL    HW135795   1.775   4.084  12.171 -4.1594 -0.0220 -0.3588
 8054SOL    HW235796   1.698   4.176  12.275 -1.7852 -0.3434  1.8462
 8055SOL     OW35797   1.983   2.470  17.638 -0.1193  1.2977 -0.2034
 8055SOL    HW135798   2.004   2.555  17.598  0.2209  0.6904 -1.3079
 8055SOL    HW235799   1.939   2.495  17.720 -1.3339 -1.4586 -0.0125
 8056SOL     OW35800   0.808   3.893   9.459  0.1772  0.4450  0.2379
 8056SOL    HW135801   0.762   3.945   9.393 -1.4699 -0.6390  0.5304
 8056SOL    HW235802   0.865   3.956   9.503 -0.9900  1.4435  0.3287
 8057SOL     OW35803   3.852   4.430  17.392  0.1535 -0.7492 -0.5146
 8057SOL    HW135804   3.946   4.421  17.403 -0.0007 -1.8492 -0.1190
 8057SOL    HW235805   3.823   4.339  17.383  0.4191 -0.9753  0.9468
 8058SOL     OW35806   3.624   0.102   5.615 -0.0574 -0.0673 -0.0510
 8058SOL    HW135807   3.706   0.130   5.655 -0.1481 -1.2358  0.9545
 8058SOL    HW235808   3.609   0.174   5.554  2.8609  0.2902 -0.3239
 8059SOL     OW35809   2.365   0.558   1.511  0.0213  0.2333  0.0387
 8059SOL    HW135810   2.275   0.590   1.504  0.6534  1.7677 -1.0524
 8059SOL    HW235811   2.401   0.630   1.564  2.2103 -0.6042 -0.3253
 8060SOL     OW35812   0.506   4.581  16.825 -0.1810 -0.1089  0.0261
 8060SOL    HW135813   0.430   4.527  16.846 -0.5851 -0.0895 -1.4081
 8060SOL    HW235814   0.494   4.652  16.888 -3.3343 -3.1845  2.9178
 8061SOL     OW35815   4.430   4.150   6.986  0.6619  0.3757  0.1074
 8061SOL    HW135816   4.397   4.107   7.065  1.0559  2.1226  1.2263
 8061SOL    HW235817   4.457   4.065   6.952  0.6020  0.3566  0.1071
 8062SOL     OW35818   1.834   0.300  16.178 -0.0853 -0.8497 -0.8297
 8062SOL    HW135819   1.908   0.351  16.210 -2.3352  1.0640  1.3635
 8062SOL    HW235820   1.780   0.361  16.126  1.5293  2.2363  1.0737
 8063SOL     OW35821   3.283   0.329   5.153  0.0019  0.3732  0.1049
 8063SOL    HW135822   3.307   0.238   5.170  0.4184  0.2059 -1.4625
 8063SOL    HW235823   3.371   0.357   5.128 -0.0756  1.3620  0.9531
 8064SOL     OW35824   3.674   2.962   5.654 -0.0984 -0.0131  0.0576
 8064SOL    HW135825   3.659   2.952   5.748 -0.6923  0.0262 -0.0334
 8064SOL    HW235826   3.680   2.870   5.628 -1.5421  0.6290 -2.6447
 8065SOL     OW35827   2.881   2.846   3.686  0.5305 -0.2594  0.0624
 8065SOL    HW135828   2.835   2.778   3.637  0.9711 -0.1546 -0.4954
 8065SOL    HW235829   2.827   2.855   3.764  0.0327 -0.0275 -0.3142
 8066SOL     OW35830   3.021   1.479  14.487  0.1990 -0.5709 -0.2633
 8066SOL    HW135831   3.002   1.542  14.417  1.6107 -1.8089 -1.7606
 8066SOL    HW235832   3.110   1.467  14.453  0.5336 -3.0847  1.4668
 8067SOL     OW35833   1.060   2.717  10.280 -0.2684 -0.2541  0.5376
 8067SOL    HW135834   1.113   2.639  10.264  0.2332 -0.1789  1.7982
 8067SOL    HW235835   1.081   2.741  10.370 -1.7327 -0.4639  0.9302
 8068SOL     OW35836   2.281   0.721  17.167 -0.3895 -0.7188  0.0988
 8068SOL    HW135837   2.216   0.650  17.173 -0.5481 -0.7127 -1.5193
 8068SOL    HW235838   2.241   0.798  17.127 -1.3419 -0.0706  2.2843
 8069SOL     OW35839   2.988   2.619  11.596  0.6820 -0.5065 -0.5402
 8069SOL    HW135840   3.055   2.667  11.548  2.5092 -0.6723  1.8119
 8069SOL    HW235841   2.939   2.580  11.524 -2.9750 -1.0933  2.2655
 8070SOL     OW35842   1.251   1.787  12.863  0.2036 -0.5305 -0.3708
 8070SOL    HW135843   1.291   1.818  12.782  1.1032  1.4573  0.8221
 8070SOL    HW235844   1.263   1.693  12.858  0.0050 -0.6300  1.1066
 8071SOL     OW35845   1.708   2.506   4.812 -0.3121  0.2628 -0.3035
 8071SOL    HW135846   1.775   2.438   4.805  0.7496  1.4080 -1.2865
 8071SOL    HW235847   1.709   2.543   4.724  1.9324 -0.6933 -0.6795
 8072SOL     OW35848   1.125   3.440   5.660 -0.3651  0.2365  0.3078
 8072SOL    HW135849   1.131   3.535   5.671 -0.0285  0.6301 -3.2229
 8072SOL    HW235850   1.090   3.425   5.748 -1.9292  0.2210 -0.3233
 8073SOL     OW35851   0.030   2.113   4.663 -0.2693 -0.3343 -0.0063
 8073SOL    HW135852   0.117   2.087   4.693 -0.5205 -0.1811  0.8396
 8073SOL    HW235853   0.012   2.062   4.584 -1.5549 -0.0169  0.0947
 8074SOL     OW35854   1.382   1.606   0.779 -0.7630  0.1450  0.0036
 8074SOL    HW135855   1.300   1.624   0.734 -0.8524  0.2672  0.2158
 8074SOL    HW235856   1.358   1.541   0.846 -0.9681 -0.6008 -0.7921
 8075SOL     OW35857   3.899   0.228   8.145  0.1522  0.7701  0.0896
 8075SOL    HW135858   3.902   0.151   8.202  0.6161  1.7858  1.4423
 8075SOL    HW235859   3.980   0.218   8.096 -0.1535 -1.4980  0.0495
 8076SOL     OW35860   4.690   1.012   9.104 -0.3063 -0.2455 -0.1123
 8076SOL    HW135861   4.728   0.924   9.099 -1.2978 -0.6857 -0.0280
 8076SOL    HW235862   4.718   1.053   9.022  1.7649 -1.1238  0.1643
 8077SOL     OW35863   0.370   1.349   1.375 -0.3549 -0.2134  0.4122
 8077SOL    HW135864   0.354   1.254   1.379 -2.2076  0.0680 -0.2994
 8077SOL    HW235865   0.465   1.346   1.369 -0.3764  2.0971 -0.9895
 8078SOL     OW35866   1.834   1.464   8.995 -0.0081  0.0048 -0.5503
 8078SOL    HW135867   1.820   1.506   8.910  2.0777 -1.3005 -1.5596
 8078SOL    HW235868   1.929   1.450   8.983 -0.1897 -1.7156  0.0112
 8079SOL     OW35869   0.824   0.945   3.523  0.0404 -0.6225 -0.3609
 8079SOL    HW135870   0.867   1.030   3.535 -0.9645 -0.2244  0.3884
 8079SOL    HW235871   0.742   0.969   3.481  0.3440  0.2045 -0.4789
 8080SOL     OW35872   2.138   2.783   6.800 -0.3108  0.2178  0.5727
 8080SOL    HW135873   2.116   2.697   6.762  1.8209  0.1067 -0.4526
 8080SOL    HW235874   2.082   2.786   6.877  0.9635 -1.4756  1.5688
 8081SOL     OW35875   2.820   4.286   6.503  0.0937 -0.0502 -0.0080
 8081SOL    HW135876   2.901   4.310   6.548 -0.4692 -1.1069  1.5785
 8081SOL    HW235877   2.839   4.308   6.412 -2.5407 -0.1177 -0.5695
 8082SOL     OW35878   0.983   3.944  11.230  0.2546  0.0958 -0.3923
 8082SOL    HW135879   0.969   3.865  11.282  1.7875 -0.3031 -0.5964
 8082SOL    HW235880   0.893   3.977  11.232  0.0680 -0.4566  0.0650
 8083SOL     OW35881   2.236   4.348   9.036  0.0277  0.4323  0.4313
 8083SOL    HW135882   2.317   4.373   8.992 -1.8968  2.2187 -2.0469
 8083SOL    HW235883   2.222   4.422   9.095 -0.8577 -1.2646  2.3453
 8084SOL     OW35884   3.858   1.975   1.595  0.0496 -0.1329 -0.4563
 8084SOL    HW135885   3.921   1.909   1.622 -0.4648 -0.2932  0.3248
 8084SOL    HW235886   3.911   2.053   1.612  1.3100 -1.0473 -0.1975
 8085SOL     OW35887   2.925   2.418   3.824 -0.2857  0.4179 -0.5851
 8085SOL    HW135888   2.991   2.384   3.764 -0.4520  0.2603 -0.6770
 8085SOL    HW235889   2.953   2.507   3.847  0.0300  0.1956 -0.0990
 8086SOL     OW35890   0.516   3.955   8.441  0.1940  0.2646 -0.3939
 8086SOL    HW135891   0.605   3.920   8.433  0.0773 -0.2707  0.6283
 8086SOL    HW235892   0.478   3.926   8.358 -1.0581  0.9680 -0.0694
 8087SOL     OW35893   3.160   3.373   7.075  0.1750  0.4495  0.0674
 8087SOL    HW135894   3.199   3.289   7.098 -0.1484  0.0869 -0.7244
 8087SOL    HW235895   3.091   3.345   7.015  0.1824 -1.2585  0.8596
 8088SOL     OW35896   1.678   1.587   8.497 -0.2495 -0.0116 -0.1064
 8088SOL    HW135897   1.584   1.599   8.480  0.1279 -0.9727 -2.8549
 8088SOL    HW235898   1.726   1.598   8.415  2.5557 -0.6625  1.4556
 8089SOL     OW35899   2.079   0.185  15.772 -0.9270  0.0273 -0.3095
 8089SOL    HW135900   2.078   0.165  15.866 -0.0996  0.8450 -0.1289
 8089SOL    HW235901   2.031   0.266  15.787 -0.7299 -0.6259  4.0925
 8090SOL     OW35902   2.870   3.880  14.268  0.5612 -0.0406 -0.2390
 8090SOL    HW135903   2.852   3.879  14.174  2.0452 -1.5499 -0.5162
 8090SOL    HW235904   2.799   3.941  14.286  1.4350  1.3113 -1.3547
 8091SOL     OW35905   4.353   3.743   6.906 -0.0934  0.3853 -0.4817
 8091SOL    HW135906   4.398   3.817   6.867  0.6541 -0.1560 -0.6442
 8091SOL    HW235907   4.297   3.794   6.965 -1.6884 -1.8706 -0.0228
 8092SOL     OW35908   1.199   4.494  11.651 -0.2077  0.4244 -0.1645
 8092SOL    HW135909   1.246   4.497  11.568  1.7753  0.6880  0.9666
 8092SOL    HW235910   1.255   4.546  11.709  0.2776 -0.5041  0.2077
 8093SOL     OW35911   1.461   2.195  17.076 -0.3427 -0.4127 -0.2774
 8093SOL    HW135912   1.485   2.287  17.076  0.9627 -0.7535  0.1599
 8093SOL    HW235913   1.429   2.187  17.167 -0.3631  1.5085 -0.1240
 8094SOL     OW35914   4.357   2.884   0.674 -0.5248 -0.5530 -0.0372
 8094SOL    HW135915   4.349   2.789   0.668 -0.9597 -0.5697  0.8114
 8094SOL    HW235916   4.338   2.897   0.766 -0.7304  1.9088 -0.4201
 8095SOL     OW35917   3.829   2.762   0.890  0.1539  0.0490 -0.3665
 8095SOL    HW135918   3.919   2.732   0.904 -0.3575 -1.6303 -0.6098
 8095SOL    HW235919   3.818   2.779   0.797 -1.0664 -1.5327 -0.5193
 8096SOL     OW35920   1.353   2.865   6.134 -0.4083 -0.4116 -0.3779
 8096SOL    HW135921   1.425   2.802   6.130  0.7640  0.9199  0.1171
 8096SOL    HW235922   1.298   2.809   6.190  1.5846 -0.9974  0.9823
 8097SOL     OW35923   2.817   0.236   9.437  0.0982  0.8115 -0.0709
 8097SOL    HW135924   2.742   0.176   9.432 -1.5800  2.7611  1.6229
 8097SOL    HW235925   2.884   0.184   9.481  0.5851  0.2896 -1.4189
 8098SOL     OW35926   2.706   3.186  14.535 -0.0151 -0.2748  0.4170
 8098SOL    HW135927   2.724   3.232  14.617  1.0268 -0.6525  0.4009
 8098SOL    HW235928   2.624   3.227  14.508  0.7593  1.6403  0.9402
 8099SOL     OW35929   0.036   4.336  12.599 -0.1349  0.3314 -0.2554
 8099SOL    HW135930   0.119   4.366  12.562 -0.1571 -0.7599 -1.1756
 8099SOL    HW235931   0.067   4.330  12.690 -0.4504 -0.4937 -0.2021
 8100SOL     OW35932   0.803   2.843   5.387  0.1339  0.2725  0.0397
 8100SOL    HW135933   0.787   2.909   5.455  1.6021 -0.0802  0.7409
 8100SOL    HW235934   0.876   2.876   5.334  0.4356  1.7801  1.3853
 8101SOL     OW35935   2.236   1.361  13.145 -0.8449  0.5305 -0.3650
 8101SOL    HW135936   2.250   1.283  13.199 -1.5296  1.0576  0.5829
 8101SOL    HW235937   2.181   1.317  13.080  0.9636 -0.4910 -1.1747
 8102SOL     OW35938   4.019   4.482   4.584 -0.4842  0.7821 -0.3995
 8102SOL    HW135939   4.088   4.444   4.530  0.6629 -0.2633  1.7784
 8102SOL    HW235940   4.050   4.464   4.673 -0.1196  1.1288 -0.4556
 8103SOL     OW35941   1.884   0.607   1.542 -0.4247 -0.3314  0.5582
 8103SOL    HW135942   1.807   0.551   1.556  1.6920 -3.0922  1.0598
 8103SOL    HW235943   1.846   0.692   1.562  1.4570  0.4203  0.8988
 8104SOL     OW35944   1.177   4.209   2.898 -0.2083 -0.0909  0.3817
 8104SOL    HW135945   1.213   4.179   2.982 -0.9427 -0.4954  0.5525
 8104SOL    HW235946   1.156   4.302   2.909 -2.3062 -0.3809 -1.2865
 8105SOL     OW35947   1.240   3.923   0.375 -0.2558  0.0024  0.1579
 8105SOL    HW135948   1.264   4.008   0.414 -0.6638 -0.2401  0.9452
 8105SOL    HW235949   1.170   3.952   0.316  0.0070 -0.4330 -0.3609
 8106SOL     OW35950   3.189   0.850  10.208 -0.7309 -0.2714  0.2642
 8106SOL    HW135951   3.256   0.906  10.247  1.8054 -2.8221 -0.4503
 8106SOL    HW235952   3.115   0.853  10.269 -1.0117 -2.2854  0.0187
 8107SOL     OW35953   4.232   0.260   9.341  0.1247  0.9886  0.1381
 8107SOL    HW135954   4.286   0.331   9.305  1.8269  0.4697  1.6844
 8107SOL    HW235955   4.276   0.263   9.425 -1.6018 -0.8287  1.1045
 8108SOL     OW35956   2.202   0.206   2.422 -0.4393 -0.5141  0.3558
 8108SOL    HW135957   2.198   0.301   2.429 -1.1037 -0.3822 -1.7193
 8108SOL    HW235958   2.294   0.184   2.437 -0.5129 -0.9926  0.1203
 8109SOL     OW35959   3.799   1.062   1.947  0.1240  0.3014 -0.3276
 8109SOL    HW135960   3.705   1.071   1.931 -0.1418 -0.5389  0.7105
 8109SOL    HW235961   3.813   1.086   2.039  1.6781 -0.3001 -0.4133
 8110SOL     OW35962   1.415   2.536  13.999 -0.3683  0.4688 -0.0860
 8110SOL    HW135963   1.356   2.542  14.074 -1.0628 -0.6945 -0.5358
 8110SOL    HW235964   1.350   2.509  13.934 -3.4158 -0.1857  3.2749
 8111SOL     OW35965   0.592   0.810   9.165 -0.0314 -0.1200 -0.3565
 8111SOL    HW135966   0.524   0.746   9.142  1.6486 -1.2049 -2.3445
 8111SOL    HW235967   0.672   0.758   9.155 -0.7296 -1.4837  1.2333
 8112SOL     OW35968   4.683   0.585   5.459 -0.3057  0.1103  0.0474
 8112SOL    HW135969   0.021   0.534   5.460  0.4474  1.3391  0.3402
 8112SOL    HW235970   4.665   0.594   5.552 -0.7516  0.1748 -0.0471
 8113SOL     OW35971   1.619   1.697   0.746 -0.4417  0.5595  0.6397
 8113SOL    HW135972   1.536   1.656   0.768  1.2617 -2.5096  1.2811
 8113SOL    HW235973   1.650   1.731   0.830 -0.1209 -1.0006  1.1419
 8114SOL     OW35974   4.387   3.554   3.653  0.2083 -0.1240 -0.6324
 8114SOL    HW135975   4.396   3.527   3.744 -1.2819  0.4175 -0.3342
 8114SOL    HW235976   4.422   3.476   3.611 -0.9603 -0.7550 -0.4260
 8115SOL     OW35977   0.196   0.815   6.715 -0.5651  0.4960  0.1566
 8115SOL    HW135978   0.176   0.743   6.655  3.0340 -0.6548  0.3288
 8115SOL    HW235979   0.282   0.792   6.750 -0.9564 -0.3156  0.6098
 8116SOL     OW35980   3.156   3.099   4.037 -0.1225 -0.4273  0.4075
 8116SOL    HW135981   3.138   3.139   3.952 -0.1514 -1.4499 -0.0670
 8116SOL    HW235982   3.087   3.034   4.046  2.3535 -3.6082 -3.8293
 8117SOL     OW35983   4.347   1.265   3.124 -0.7031  0.3062 -0.3697
 8117SOL    HW135984   4.400   1.231   3.053  1.5803 -0.1169  1.5238
 8117SOL    HW235985   4.377   1.356   3.121  1.7907 -0.5689 -2.2544
 8118SOL     OW35986   3.592   3.776   7.939  0.1070 -0.0235 -0.2579
 8118SOL    HW135987   3.514   3.740   7.898  0.6231  1.3161 -2.4503
 8118SOL    HW235988   3.578   3.870   7.953  0.1574  0.0453 -0.6646
 8119SOL     OW35989   2.450   2.931  13.786 -0.7991 -0.2553 -0.2962
 8119SOL    HW135990   2.531   2.902  13.743 -0.1343  0.4776  0.4699
 8119SOL    HW235991   2.418   2.842  13.800  0.0857 -0.5592 -0.1898
 8120SOL     OW35992   0.870   2.939  14.785  0.1862  0.2791 -0.1526
 8120SOL    HW135993   0.957   2.905  14.807  0.4773  0.7515 -0.5827
 8120SOL    HW235994   0.839   2.861  14.738  1.6912 -0.0310 -0.6094
 8121SOL     OW35995   2.588   1.516   7.333  0.0762 -0.2113 -0.3202
 8121SOL    HW135996   2.521   1.577   7.364  1.7424  1.4506  0.0084
 8121SOL    HW235997   2.655   1.568   7.288  0.2802  0.0589  0.2977
 8122SOL     OW35998   2.008   2.118  14.292  0.1496  0.2300 -0.3858
 8122SOL    HW135999   1.940   2.173  14.253  0.4806  1.2642  0.5169
 8122SOL    HW236000   2.090   2.157  14.262 -1.1221  3.2717  0.1226
 8123SOL     OW36001   1.533   0.730   1.218 -0.2104  0.3670 -0.0321
 8123SOL    HW136002   1.610   0.682   1.187  0.3365  0.8827  0.5312
 8123SOL    HW236003   1.500   0.658   1.271 -0.6900  1.1664  0.7448
 8124SOL     OW36004   2.749   3.301   2.072 -0.0245 -0.1694  0.3150
 8124SOL    HW136005   2.703   3.257   2.144 -3.0591 -1.0895 -2.1804
 8124SOL    HW236006   2.747   3.237   2.000  1.6331  2.7126 -2.2934
 8125SOL     OW36007   3.761   2.442   3.053 -0.0686  0.4705  0.3793
 8125SOL    HW136008   3.742   2.429   3.146  3.4607 -1.3030  0.8360
 8125SOL    HW236009   3.854   2.465   3.054 -0.2438  1.1332  1.1535
 8126SOL     OW36010   1.393   1.385   5.202  0.5606 -0.0935 -0.2318
 8126SOL    HW136011   1.475   1.388   5.251 -0.3328  1.2369  1.1821
 8126SOL    HW236012   1.414   1.314   5.142 -1.2272 -0.7149 -0.1165
 8127SOL     OW36013   3.937   2.737   5.914  0.4269 -0.4674 -0.0359
 8127SOL    HW136014   4.002   2.796   5.952  2.6076 -1.8184 -1.6911
 8127SOL    HW236015   3.973   2.650   5.935  0.5828 -0.5739 -0.7463
 8128SOL     OW36016   0.066   2.661   9.120 -0.4964  0.1025  0.9485
 8128SOL    HW136017   0.150   2.651   9.165 -0.5887 -0.8853  0.9108
 8128SOL    HW236018   0.090   2.656   9.028 -0.3833 -0.2504  0.9985
 8129SOL     OW36019   2.884   0.584   7.237  0.2851 -0.3963  0.0736
 8129SOL    HW136020   2.794   0.591   7.270  0.5022 -0.3599  0.6684
 8129SOL    HW236021   2.926   0.499   7.256 -0.3214 -0.4289  1.2753
 8130SOL     OW36022   3.692   0.507  13.770  0.5509 -0.7694  0.9989
 8130SOL    HW136023   3.754   0.555  13.824  0.7145 -0.2802  0.3797
 8130SOL    HW236024   3.619   0.474  13.822 -1.7033  0.6214 -1.3252
 8131SOL     OW36025   2.076   1.320   2.893  0.7719  0.0277 -0.4407
 8131SOL    HW136026   1.994   1.339   2.938 -0.0961 -3.9293 -0.3168
 8131SOL    HW236027   2.045   1.328   2.802  0.2887  0.2963 -0.2514
 8132SOL     OW36028   0.535   4.347   4.855  0.4116 -0.0527  0.1787
 8132SOL    HW136029   0.504   4.427   4.815  0.8584  1.2454  2.4008
 8132SOL    HW236030   0.453   4.318   4.896  0.3495  0.4503  0.4133
 8133SOL     OW36031   3.919   0.536   2.233 -0.3995 -0.9035 -0.1326
 8133SOL    HW136032   3.978   0.490   2.173  0.3271  0.4732 -0.4723
 8133SOL    HW236033   3.960   0.520   2.318 -1.1777 -0.1989  0.3681
 8134SOL     OW36034   2.639   0.129   1.421 -0.1915  0.5372 -0.1920
 8134SOL    HW136035   2.603   0.200   1.474 -0.4810  0.2580 -0.0181
 8134SOL    HW236036   2.616   0.056   1.478  1.4163 -0.3041 -0.6246
 8135SOL     OW36037   0.074   3.363  11.091 -0.2985  0.1574  0.5523
 8135SOL    HW136038   0.124   3.288  11.059 -0.2272 -0.2155  1.5469
 8135SOL    HW236039   4.732   3.352  11.049 -0.2554  0.4280  0.3937
 8136SOL     OW36040   1.119   0.829  13.397 -0.0221 -0.1465  0.2708
 8136SOL    HW136041   1.146   0.921  13.396  2.9693 -1.0386  2.8044
 8136SOL    HW236042   1.198   0.791  13.358  0.9026  2.5481 -0.4591
 8137SOL     OW36043   0.556   1.719   7.032 -0.1411  0.4296 -0.0698
 8137SOL    HW136044   0.472   1.729   6.988 -1.6176 -0.7889  2.4608
 8137SOL    HW236045   0.575   1.629   7.008 -0.2795  0.5081 -0.4602
 8138SOL     OW36046   1.835   3.098  15.502 -0.1084  0.5865  0.0115
 8138SOL    HW136047   1.773   3.150  15.554  1.8469  0.8560  2.0779
 8138SOL    HW236048   1.911   3.154  15.520  0.3088 -0.1159  0.4043
 8139SOL     OW36049   4.588   2.317   2.900  0.6479 -0.2961 -0.0236
 8139SOL    HW136050   4.620   2.288   2.815  4.8215  0.3980  1.2722
 8139SOL    HW236051   4.614   2.409   2.893  0.8784 -0.3830 -0.2834
 8140SOL     OW36052   2.769   3.806   5.173  0.2033 -0.5284 -0.3020
 8140SOL    HW136053   2.689   3.858   5.162 -0.0636 -0.9651 -0.4309
 8140SOL    HW236054   2.826   3.873   5.137  3.2491 -3.1606 -0.3246
 8141SOL     OW36055   0.070   2.580   6.358  0.4923  0.4305 -0.0166
 8141SOL    HW136056   0.110   2.644   6.417 -0.2783 -1.7025  2.8656
 8141SOL    HW236057   0.107   2.497   6.387 -0.4671  1.9239  5.5665
 8142SOL     OW36058   1.338   0.739   8.711 -0.0175 -0.7424 -0.1949
 8142SOL    HW136059   1.380   0.700   8.788 -1.1258 -0.8025  0.3747
 8142SOL    HW236060   1.290   0.817   8.738  1.1521 -0.1475  0.1790
 8143SOL     OW36061   0.118   1.754   6.539  0.6037 -0.4043 -0.0749
 8143SOL    HW136062   0.185   1.815   6.508  1.1917 -0.7378  0.5356
 8143SOL    HW236063   0.171   1.681   6.572  1.2598 -0.0351 -0.3043
 8144SOL     OW36064   3.248   3.010  15.141 -0.1645  0.6900  0.2299
 8144SOL    HW136065   3.305   2.942  15.103 -1.1361 -0.1141  0.2097
 8144SOL    HW236066   3.201   2.954  15.203 -1.8773  1.2264 -0.5882
 8145SOL     OW36067   2.431   0.799   3.028  0.3042  0.2949 -0.0624
 8145SOL    HW136068   2.437   0.798   3.124  0.5369 -0.4631 -0.0831
 8145SOL    HW236069   2.340   0.826   3.016 -0.0655 -0.6937  0.4692
 8146SOL     OW36070   1.842   2.242   5.298  0.5757  0.1982  0.2812
 8146SOL    HW136071   1.785   2.318   5.287 -1.0352 -1.3530 -2.0782
 8146SOL    HW236072   1.787   2.193   5.359  1.0330 -2.1885 -1.2029
 8147SOL     OW36073   2.360   4.525   4.883 -0.7288 -0.6539  0.3755
 8147SOL    HW136074   2.292   4.474   4.838 -0.3842 -0.6637 -0.1215
 8147SOL    HW236075   2.437   4.491   4.838 -0.0911  0.5837  0.5323
 8148SOL     OW36076   0.375   2.312  11.751  0.3900 -0.5366  0.3184
 8148SOL    HW136077   0.415   2.395  11.778 -0.5910  1.1851 -3.5295
 8148SOL    HW236078   0.321   2.284  11.825 -1.7713  1.0912 -0.6295
 8149SOL     OW36079   1.073   3.511  17.726  0.1693  0.1584 -0.4167
 8149SOL    HW136080   1.158   3.540  17.759  0.7556 -0.8712 -1.0218
 8149SOL    HW236081   1.090   3.534  17.634 -0.1587  0.5021 -0.3960
 8150SOL     OW36082   0.329   3.840  13.963 -0.3492 -0.2032 -0.2011
 8150SOL    HW136083   0.383   3.766  13.935 -1.6014 -0.5930 -1.6211
 8150SOL    HW236084   0.241   3.805  13.971 -0.3458  0.2964  1.9067
 8151SOL     OW36085   0.251   0.501   0.666  0.5856  0.0735  0.3142
 8151SOL    HW136086   0.338   0.536   0.684  0.2898 -0.4390  2.7240
 8151SOL    HW236087   0.242   0.548   0.583  0.7376 -1.0627 -0.3458
 8152SOL     OW36088   4.074   0.229  15.858 -0.0586  0.1013 -0.0191
 8152SOL    HW136089   4.019   0.306  15.874  1.9689  1.4161  0.6723
 8152SOL    HW236090   4.111   0.253  15.773  0.3542 -2.3086 -0.5199
 8153SOL     OW36091   3.451   4.261   9.371  0.0247 -0.5848 -0.1446
 8153SOL    HW136092   3.527   4.307   9.336 -0.6188  1.0022  0.5240
 8153SOL    HW236093   3.469   4.262   9.465 -1.8387 -0.3295  0.2140
 8154SOL     OW36094   1.637   4.628   4.934  0.4986  0.5687  0.0176
 8154SOL    HW136095   1.714   4.669   4.972  0.2904  0.6319  0.3707
 8154SOL    HW236096   1.655   4.535   4.919  1.1815  0.6730  0.1975
 8155SOL     OW36097   1.967   3.655   3.491  0.6482 -0.5477  0.0970
 8155SOL    HW136098   1.894   3.683   3.436  0.2351 -3.8072 -0.9771
 8155SOL    HW236099   1.952   3.561   3.492  3.3419 -0.9584  1.8414
 8156SOL     OW36100   1.218   1.021   3.668 -0.2603 -0.6585  0.0803
 8156SOL    HW136101   1.312   1.028   3.649 -0.0545 -0.8916  1.0184
 8156SOL    HW236102   1.211   0.929   3.692 -0.6777 -0.6059  0.1565
 8157SOL     OW36103   1.662   2.582   6.472  0.1388 -0.0665 -0.0862
 8157SOL    HW136104   1.728   2.603   6.406  1.1037 -0.9134  0.6143
 8157SOL    HW236105   1.612   2.515   6.425 -2.7448  2.0293 -0.0183
 8158SOL     OW36106   0.607   3.173  12.671  0.6570 -0.1117 -0.1821
 8158SOL    HW136107   0.590   3.214  12.756 -0.6204  0.7038 -0.8424
 8158SOL    HW236108   0.670   3.105  12.695  0.3223 -0.0394  0.9106
 8159SOL     OW36109   3.581   0.076   4.510  0.0022  0.2745 -0.4997
 8159SOL    HW136110   3.560   0.169   4.500 -0.0025  0.4430  1.0829
 8159SOL    HW236111   3.569   0.040   4.422  3.0334  0.3275 -0.9042
 8160SOL     OW36112   3.699   0.686   8.345  0.1803 -0.2673 -0.2345
 8160SOL    HW136113   3.745   0.604   8.327 -0.0484 -0.0726 -1.7206
 8160SOL    HW236114   3.616   0.674   8.299 -1.3557  0.6955  2.3087
 8161SOL     OW36115   4.285   2.340   8.385  0.2553  0.3355 -0.3715
 8161SOL    HW136116   4.279   2.413   8.324  2.0391  1.3742  0.6953
 8161SOL    HW236117   4.334   2.380   8.457 -0.7837  0.2404  0.3793
 8162SOL     OW36118   1.319   4.197  13.799  0.2655 -0.1837 -0.4875
 8162SOL    HW136119   1.256   4.133  13.832 -0.7888  0.9039 -0.3915
 8162SOL    HW236120   1.364   4.233  13.876  0.1431  0.4460 -0.7155
 8163SOL     OW36121   3.621   4.187   7.440 -0.5404 -0.0301  0.1027
 8163SOL    HW136122   3.657   4.172   7.353 -0.3370 -2.2300  0.5601
 8163SOL    HW236123   3.546   4.243   7.421 -0.1577  0.4426  0.0065
 8164SOL     OW36124   1.667   0.084   6.905  0.0803 -0.0425  0.2851
 8164SOL    HW136125   1.662   0.113   6.813  1.9451  0.4923  0.3571
 8164SOL    HW236126   1.576   0.082   6.933 -0.2859 -2.7296 -1.1040
 8165SOL     OW36127   2.921   3.811   3.111  0.1257  0.0941 -0.6819
 8165SOL    HW136128   2.878   3.791   3.195 -0.0105 -1.9320 -1.2374
 8165SOL    HW236129   2.957   3.726   3.085  0.7889 -0.1555  1.0675
 8166SOL     OW36130   0.603   2.392   4.183 -0.1668  0.7350  0.0884
 8166SOL    HW136131   0.634   2.481   4.200 -0.3717  1.1257 -1.5885
 8166SOL    HW236132   0.683   2.343   4.161 -1.2843 -1.6647  1.4163
 8167SOL     OW36133   4.371   3.258   2.117  0.0459  0.2140 -0.1650
 8167SOL    HW136134   4.308   3.326   2.139  2.4702  3.1761 -2.5121
 8167SOL    HW236135   4.322   3.178   2.139  1.9605 -1.2430 -1.1710
 8168SOL     OW36136   2.889   0.129  16.882 -0.4059  0.0945  0.1875
 8168SOL    HW136137   2.846   0.070  16.944 -1.5919 -0.1803 -0.9067
 8168SOL    HW236138   2.977   0.090  16.885 -0.6529 -0.4089  0.9804
 8169SOL     OW36139   1.016   3.067  12.684  0.0179 -0.2063 -0.6711
 8169SOL    HW136140   1.061   3.045  12.765 -0.0620  0.7621 -0.3674
 8169SOL    HW236141   0.931   3.099  12.713  1.2419  1.9817  0.4958
 8170SOL     OW36142   3.951   3.423  16.579 -0.1017 -0.1014  0.7339
 8170SOL    HW136143   3.878   3.433  16.518 -0.9869 -0.2692  1.7769
 8170SOL    HW236144   3.942   3.502  16.632 -0.2965 -1.3604  2.5822
 8171SOL     OW36145   1.803   3.244  10.156  0.3149  0.4360  0.5379
 8171SOL    HW136146   1.814   3.202  10.241  1.2010 -1.9442 -0.7740
 8171SOL    HW236147   1.824   3.333  10.186  1.3192 -0.2077  1.7150
 8172SOL     OW36148   2.418   0.339   5.526  0.1328 -0.5504  0.0487
 8172SOL    HW136149   2.349   0.350   5.461 -1.3072 -0.7887  1.5101
 8172SOL    HW236150   2.449   0.251   5.503  0.8905 -0.5101  0.8849
 8173SOL     OW36151   0.742   2.914  15.340 -0.3634  0.4551 -0.2980
 8173SOL    HW136152   0.746   3.007  15.364  2.1616 -0.2117  1.8286
 8173SOL    HW236153   0.719   2.867  15.420  0.8126  1.0645  0.3891
 8174SOL     OW36154   3.956   0.526   0.253 -0.5681  0.1334 -0.2497
 8174SOL    HW136155   3.873   0.501   0.294 -1.3031  1.8165 -0.7296
 8174SOL    HW236156   3.928   0.553   0.166 -2.0871  3.3314  1.2562
 8175SOL     OW36157   2.475   4.437   8.889  0.7222 -0.2534 -0.0815
 8175SOL    HW136158   2.500   4.360   8.839 -0.5005  0.6437 -2.0815
 8175SOL    HW236159   2.479   4.500   8.817 -3.7302  0.6197  0.4023
 8176SOL     OW36160   3.649   1.378  14.356 -0.0724  0.0413  0.5402
 8176SOL    HW136161   3.592   1.419  14.421 -0.4367 -0.3409  0.4615
 8176SOL    HW236162   3.592   1.303  14.341 -1.7018  1.1428  1.1557
 8177SOL     OW36163   3.529   2.639   3.119  0.0822  0.3658  0.3924
 8177SOL    HW136164   3.470   2.601   3.053  1.6933 -1.0112 -0.2432
 8177SOL    HW236165   3.592   2.569   3.132  1.2273  1.5262  1.0808
 8178SOL     OW36166   1.834   1.954   7.154 -0.1721 -0.1036  0.0544
 8178SOL    HW136167   1.907   2.015   7.141  0.0001 -0.1911  0.6268
 8178SOL    HW236168   1.862   1.895   7.224  1.3383 -0.8248 -1.1744
 8179SOL     OW36169   3.443   4.467   6.532  0.0950  0.7063 -0.2059
 8179SOL    HW136170   3.403   4.489   6.448 -1.3866  1.6573  0.7483
 8179SOL    HW236171   3.517   4.526   6.518  1.4326 -0.9250  0.0720
 8180SOL     OW36172   4.675   0.115   4.122  0.3323  0.2261 -0.0900
 8180SOL    HW136173   4.658   0.041   4.063  1.4031  2.7610 -3.6275
 8180SOL    HW236174   4.701   0.188   4.066 -0.7176  1.7597  1.4026
 8181SOL     OW36175   4.419   3.071  15.493 -0.1295 -0.5115  0.3293
 8181SOL    HW136176   4.354   3.129  15.454  0.8386  0.8176  0.7126
 8181SOL    HW236177   4.473   3.140  15.531  0.8336 -0.8725 -0.3811
 8182SOL     OW36178   2.566   3.224   4.896  0.2392  0.2595 -0.0685
 8182SOL    HW136179   2.488   3.222   4.950  0.4708  1.5135  0.3189
 8182SOL    HW236180   2.562   3.318   4.875 -1.1979 -0.0842 -1.3145
 8183SOL     OW36181   2.525   2.770   4.061 -0.0014 -0.0397 -0.2660
 8183SOL    HW136182   2.488   2.707   3.999 -0.3098  1.3565 -1.5282
 8183SOL    HW236183   2.457   2.785   4.127  0.6506 -0.6333  0.5261
 8184SOL     OW36184   1.895   4.717   8.703 -0.2889  0.1643  0.3956
 8184SOL    HW136185   1.849   0.049   8.739 -0.4326 -0.2660  1.1176
 8184SOL    HW236186   1.865   4.652   8.766  0.4221  1.7101  2.3484
 8185SOL     OW36187   2.000   2.153   7.226 -0.1268 -0.0638 -0.3707
 8185SOL    HW136188   1.964   2.159   7.314  1.5905 -1.0486  0.4063
 8185SOL    HW236189   2.036   2.241   7.212 -0.8306  0.4219  0.9024
 8186SOL     OW36190   4.492   2.824  15.428 -0.3320 -0.2783 -0.0856
 8186SOL    HW136191   4.475   2.906  15.474 -2.6280 -1.9094  2.0242
 8186SOL    HW236192   4.440   2.841  15.350 -0.5795 -0.8233 -0.0394
 8187SOL     OW36193   2.655   2.460   5.036  0.3053  0.0820  0.5471
 8187SOL    HW136194   2.699   2.381   5.004  1.5111  0.5578  1.0367
 8187SOL    HW236195   2.618   2.439   5.122 -0.4321  0.2101  0.2687
 8188SOL     OW36196   3.110   3.423  14.160 -0.6932  0.1880 -0.2357
 8188SOL    HW136197   3.043   3.404  14.226 -0.0895  2.4288  1.0300
 8188SOL    HW236198   3.152   3.337  14.159  1.3353  1.1449  1.7168
 8189SOL     OW36199   4.660   4.183   9.369  0.1001 -0.0317  0.0520
 8189SOL    HW136200   4.638   4.127   9.444  1.9176 -1.6270 -0.6196
 8189SOL    HW236201   4.609   4.257   9.402 -1.3824 -0.4260 -1.3481
 8190SOL     OW36202   3.062   2.857  10.380  0.1212  0.1248 -0.3053
 8190SOL    HW136203   3.001   2.784  10.392  0.8043 -0.2830  0.6880
 8190SOL    HW236204   3.030   2.889  10.295 -2.8650  0.0646  0.7791
 8191SOL     OW36205   0.971   1.606  13.787 -0.1357 -0.3872  0.4150
 8191SOL    HW136206   0.947   1.671  13.854  1.6028  0.1753  0.4936
 8191SOL    HW236207   1.066   1.608  13.798 -0.1864  1.9886  0.5900
 8192SOL     OW36208   0.619   3.257   8.416 -0.7002  0.1264  0.1595
 8192SOL    HW136209   0.640   3.229   8.326 -3.3908  1.0239 -0.7372
 8192SOL    HW236210   0.535   3.298   8.396  0.0044  0.6781 -1.6933
 8193SOL     OW36211   4.731   3.207  10.751 -0.5368  0.2190  0.1516
 8193SOL    HW136212   4.651   3.257  10.769 -0.1067  0.5529  1.1390
 8193SOL    HW236213   4.704   3.170  10.668  0.5482 -0.4470  0.0907
 8194SOL     OW36214   4.713   2.172   9.719  0.5443  0.4927 -0.1987
 8194SOL    HW136215   4.619   2.156   9.732  0.7819 -0.2763  0.6333
 8194SOL    HW236216   4.721   2.209   9.631 -0.4054  1.7190  0.2309
 8195SOL     OW36217   4.350   0.367   3.647  0.4468 -0.0105  0.0905
 8195SOL    HW136218   4.263   0.325   3.647  0.7565 -0.6523  0.4065
 8195SOL    HW236219   4.329   0.458   3.625  1.8637  0.6651  1.5661
 8196SOL     OW36220   3.228   0.717   4.555 -0.1520 -0.2673 -0.5761
 8196SOL    HW136221   3.165   0.741   4.622 -0.4748  0.3701 -1.1142
 8196SOL    HW236222   3.292   0.671   4.610  0.3630 -0.1870 -1.1076
 8197SOL     OW36223   2.240   0.254   0.208  0.0509  0.1029 -0.1446
 8197SOL    HW136224   2.303   0.192   0.244 -0.2956  0.9257  1.8456
 8197SOL    HW236225   2.262   0.252   0.114  2.8336 -0.4615  0.5189
 8198SOL     OW36226   3.347   2.666   2.892 -0.4288 -0.3446 -0.3615
 8198SOL    HW136227   3.390   2.608   2.829 -1.6524 -1.5707 -0.0757
 8198SOL    HW236228   3.252   2.658   2.878 -0.8609 -1.9925  3.5273
 8199SOL     OW36229   0.067   4.209   3.963 -0.0203 -0.0034 -0.0324
 8199SOL    HW136230   0.097   4.267   4.034  0.9890  0.2944 -0.7167
 8199SOL    HW236231   0.054   4.131   4.016  1.0478  0.1767  0.4799
 8200SOL     OW36232   1.154   4.070   5.916  0.3976 -0.0156 -0.4538
 8200SOL    HW136233   1.077   4.088   5.971  0.4221 -2.1364  0.2521
 8200SOL    HW236234   1.132   4.002   5.853  2.2798 -1.2778  0.2570
 8201SOL     OW36235   3.575   4.149   7.734 -0.1503  0.0721  0.8269
 8201SOL    HW136236   3.562   4.149   7.639 -0.7241  0.4236  0.8994
 8201SOL    HW236237   3.669   4.153   7.746 -0.2667  3.8479  0.5409
 8202SOL     OW36238   0.725   4.560   0.960  0.6690 -0.1539 -0.5320
 8202SOL    HW136239   0.635   4.530   0.966  0.3585  1.1062  1.0127
 8202SOL    HW236240   0.724   4.649   0.995  2.1060 -0.0288 -0.8001
 8203SOL     OW36241   1.380   0.834   5.615  1.0468 -0.1707 -0.4305
 8203SOL    HW136242   1.327   0.774   5.563  0.8960  0.5796 -1.1436
 8203SOL    HW236243   1.350   0.920   5.586 -0.0228  0.1287  1.4971
 8204SOL     OW36244   2.520   4.264   7.720 -0.2216  0.0943  0.4395
 8204SOL    HW136245   2.458   4.204   7.761 -2.0530  1.3103 -0.5660
 8204SOL    HW236246   2.469   4.345   7.723  0.4479  0.5857 -1.2191
 8205SOL     OW36247   3.630   4.101   4.503 -0.4278  0.2686 -0.0398
 8205SOL    HW136248   3.704   4.092   4.562  0.6979  2.3168 -1.1267
 8205SOL    HW236249   3.582   4.032   4.549 -0.0242  0.7513  1.1048
 8206SOL     OW36250   3.950   3.173   3.259 -0.0005  0.1965 -0.2374
 8206SOL    HW136251   3.861   3.206   3.277 -0.1407  0.1011 -0.7749
 8206SOL    HW236252   3.982   3.222   3.184  1.5762 -2.5292 -1.3221
 8207SOL     OW36253   3.019   3.666   8.233 -0.4421 -0.1935  0.1464
 8207SOL    HW136254   3.004   3.613   8.154 -2.9374 -0.7627  1.0272
 8207SOL    HW236255   2.952   3.733   8.217  0.1225  0.5062  0.7197
 8208SOL     OW36256   2.118   1.028   7.649 -0.1962  0.0061 -0.0524
 8208SOL    HW136257   2.103   1.122   7.658  0.1585  0.1756 -1.2618
 8208SOL    HW236258   2.155   1.021   7.561  0.2437  0.1342  0.1197
 8209SOL     OW36259   3.474   1.695   6.537  0.2578 -0.7950  0.0708
 8209SOL    HW136260   3.440   1.607   6.520 -0.0555 -0.4208 -1.2349
 8209SOL    HW236261   3.451   1.737   6.455  0.1527 -2.6796 -0.8843
 8210SOL     OW36262   3.910   0.351   9.180  0.3095  0.2849  0.3414
 8210SOL    HW136263   3.986   0.390   9.136 -0.3795  2.3643  0.9929
 8210SOL    HW236264   3.913   0.256   9.178  3.0357  0.3781 -0.1502
 8211SOL     OW36265   2.800   2.798  15.772 -0.1682  0.3688 -0.0434
 8211SOL    HW136266   2.807   2.880  15.723  0.9474  0.5833  0.4878
 8211SOL    HW236267   2.856   2.741  15.719 -0.1817 -0.3776  0.7586
 8212SOL     OW36268   3.818   3.108  17.649  0.2972  0.4879  0.4161
 8212SOL    HW136269   3.893   3.140  17.599  0.0351 -2.8086 -2.0869
 8212SOL    HW236270   3.825   3.013  17.653  0.6184  0.4913 -0.0667
 8213SOL     OW36271   1.220   3.670   9.859  0.0627  0.7294 -0.3068
 8213SOL    HW136272   1.132   3.708   9.865 -0.5419 -1.0355  2.1637
 8213SOL    HW236273   1.248   3.667   9.951 -2.5933  1.3132  0.5206
 8214SOL     OW36274   1.476   1.663  14.913 -0.5808 -0.0493 -0.3906
 8214SOL    HW136275   1.428   1.745  14.925 -0.4218  0.1437 -1.0877
 8214SOL    HW236276   1.534   1.681  14.839 -1.2570  0.4453 -0.7981
 8215SOL     OW36277   2.560   1.150   4.552  0.1678  0.6803 -0.1347
 8215SOL    HW136278   2.521   1.081   4.605  1.9976  1.6193  2.4446
 8215SOL    HW236279   2.651   1.164   4.580  0.4372 -1.9713  0.2941
 8216SOL     OW36280   2.019   4.577  10.369  0.3317  0.2892 -0.2088
 8216SOL    HW136281   1.981   4.663  10.350 -1.9264 -0.8898 -1.1423
 8216SOL    HW236282   1.971   4.518  10.310 -0.7451 -1.1247  2.0669
 8217SOL     OW36283   4.712   3.254   3.386 -0.3441 -0.3289 -0.2269
 8217SOL    HW136284   0.008   3.324   3.333 -1.3205 -0.4895 -1.1774
 8217SOL    HW236285   0.051   3.248   3.434 -0.8962 -0.3321  0.7100
 8218SOL     OW36286   4.143   4.556   3.758  0.6111 -0.3055 -0.0296
 8218SOL    HW136287   4.190   4.518   3.832  0.7953 -0.9766 -0.4831
 8218SOL    HW236288   4.208   4.614   3.718  0.3522 -0.6004 -0.8984
 8219SOL     OW36289   0.375   1.040   9.332  0.3051  0.2110 -0.1075
 8219SOL    HW136290   0.315   1.036   9.257 -2.9499  1.5033  2.4006
 8219SOL    HW236291   0.314   1.018   9.403  2.1231  1.7192  1.9091
 8220SOL     OW36292   0.701   1.100   4.364 -0.0317  0.2200  0.0187
 8220SOL    HW136293   0.644   1.162   4.409 -0.9849  0.0336 -0.9359
 8220SOL    HW236294   0.708   1.139   4.277  0.7797 -1.9573 -0.8878
 8221SOL     OW36295   0.790   3.334   1.192  0.3059  0.4411 -0.7183
 8221SOL    HW136296   0.851   3.389   1.142  1.0639  0.9092  0.7375
 8221SOL    HW236297   0.857   3.271   1.219 -1.5537 -1.1878  0.1507
 8222SOL     OW36298   2.133   4.419   7.448 -0.0716 -0.0796  0.4864
 8222SOL    HW136299   2.125   4.345   7.509  1.2930 -0.5894  0.0650
 8222SOL    HW236300   2.080   4.487   7.490  2.5613  2.0018  0.4236
 8223SOL     OW36301   4.060   1.609   2.381  0.1039 -0.4106 -0.2862
 8223SOL    HW136302   4.086   1.665   2.454 -1.3031  0.7776 -0.6991
 8223SOL    HW236303   4.097   1.524   2.404  1.2998  0.5248  1.3113
 8224SOL     OW36304   4.343   1.076  13.328  0.0348 -0.0565 -0.1431
 8224SOL    HW136305   4.379   1.165  13.327  1.0407 -0.4643 -0.3744
 8224SOL    HW236306   4.382   1.045  13.247  0.5408  1.3149 -0.4201
 8225SOL     OW36307   0.457   1.705  12.354  0.0821  0.0646  0.6110
 8225SOL    HW136308   0.478   1.621  12.395 -0.0580 -0.7053 -0.8755
 8225SOL    HW236309   0.481   1.763  12.426 -0.6072  1.5829 -0.3762
 8226SOL     OW36310   2.411   0.256   4.929  0.2104 -0.0638 -0.5668
 8226SOL    HW136311   2.492   0.207   4.918 -0.7331 -1.9184  0.8877
 8226SOL    HW236312   2.348   0.185   4.938  0.2674  0.0470  0.6703
 8227SOL     OW36313   0.357   4.205  11.088 -0.0907 -0.0319  0.5184
 8227SOL    HW136314   0.312   4.166  11.012  0.6896  1.2378 -0.6021
 8227SOL    HW236315   0.356   4.296  11.058 -3.6527 -0.5626 -1.0267
 8228SOL     OW36316   0.751   1.343   0.666  0.0531  0.1244 -0.5972
 8228SOL    HW136317   0.760   1.427   0.711 -2.9205  0.0937  0.0075
 8228SOL    HW236318   0.833   1.295   0.678 -0.1798 -0.2327 -0.4526
 8229SOL     OW36319   4.459   0.648   7.765 -0.1636  0.0035 -0.2694
 8229SOL    HW136320   4.381   0.694   7.797  1.6678  1.4508  2.1840
 8229SOL    HW236321   4.449   0.655   7.670 -1.1912 -1.6007 -0.2734
 8230SOL     OW36322   4.603   2.636  17.399  0.0264  0.2100 -0.0101
 8230SOL    HW136323   4.656   2.556  17.398  1.5158  1.2015 -1.7089
 8230SOL    HW236324   4.525   2.606  17.351  1.5030 -0.5205 -1.9639
 8231SOL     OW36325   1.244   3.492   3.917  0.0471  0.1708 -0.3707
 8231SOL    HW136326   1.304   3.435   3.964 -0.5410  1.3036  1.7562
 8231SOL    HW236327   1.156   3.459   3.937  0.1349  1.9165  2.8785
 8232SOL     OW36328   0.979   3.082   3.834 -0.2925  0.2056  0.0677
 8232SOL    HW136329   1.014   3.054   3.750 -0.0644  2.7582 -0.6888
 8232SOL    HW236330   1.048   3.052   3.892  0.9192  0.0939 -1.4281
 8233SOL     OW36331   1.891   2.878   5.419  0.6893  0.3707 -0.2925
 8233SOL    HW136332   1.799   2.875   5.445  1.0845 -3.2259  0.7690
 8233SOL    HW236333   1.936   2.859   5.502 -1.2157  0.7544  0.8245
 8234SOL     OW36334   3.649   2.347   4.610 -0.5101  0.2250  0.3790
 8234SOL    HW136335   3.579   2.410   4.628 -0.6466 -0.0892  0.9239
 8234SOL    HW236336   3.613   2.262   4.634 -1.6507 -0.1463 -2.6012
 8235SOL     OW36337   0.448   0.050   3.944  0.0590  0.1510  0.1391
 8235SOL    HW136338   0.422   0.140   3.965 -1.7379 -0.7514  1.8629
 8235SOL    HW236339   0.462   0.057   3.850 -2.5996  0.4390 -0.2265
 8236SOL     OW36340   1.784   0.732   9.075 -0.0239 -0.2120 -0.2320
 8236SOL    HW136341   1.869   0.772   9.096  0.2068 -0.4441 -0.7042
 8236SOL    HW236342   1.727   0.784   9.131  0.3667  0.2174 -0.2296
 8237SOL     OW36343   4.012   4.108   7.069 -0.4160  0.5534 -0.1582
 8237SOL    HW136344   4.050   4.195   7.074 -0.2093  0.3861  1.3336
 8237SOL    HW236345   3.948   4.131   7.001 -1.3575  0.4936  0.6978
 8238SOL     OW36346   0.433   4.125   4.181  0.2962 -0.0880 -0.4529
 8238SOL    HW136347   0.470   4.133   4.269  0.4561  0.0454 -0.5300
 8238SOL    HW236348   0.435   4.218   4.159  2.1603 -0.0346 -0.0852
 8239SOL     OW36349   1.195   3.701   5.691  0.1827  0.4326  0.1374
 8239SOL    HW136350   1.249   3.759   5.745  0.6364  1.5967 -1.5817
 8239SOL    HW236351   1.248   3.710   5.611 -0.4920  0.8816 -0.2558
 8240SOL     OW36352   4.572   3.814   3.695 -0.1514 -0.6030  0.2783
 8240SOL    HW136353   4.515   3.852   3.760  0.8095 -0.8573  1.2678
 8240SOL    HW236354   4.528   3.737   3.659  2.1698 -0.9556 -1.8361
 8241SOL     OW36355   3.486   1.283   7.761 -0.2777  0.6709  0.3360
 8241SOL    HW136356   3.524   1.273   7.673 -0.6074  0.0548  0.2631
 8241SOL    HW236357   3.412   1.222   7.760 -0.9864  1.5393  0.1309
 8242SOL     OW36358   4.043   0.418   3.355 -0.4478  1.1082  0.5859
 8242SOL    HW136359   3.950   0.407   3.334 -0.3084 -0.2565  0.6983
 8242SOL    HW236360   4.079   0.330   3.343  1.9413  1.7913  2.6790
 8243SOL     OW36361   4.020   1.180   0.496  0.0087  0.5498 -0.2412
 8243SOL    HW136362   4.071   1.143   0.568  1.5710  0.0230 -1.6248
 8243SOL    HW236363   4.095   1.202   0.440 -1.8841  1.0938 -2.5725
 8244SOL     OW36364   4.445   3.933   9.755 -0.2906 -0.0151  0.2153
 8244SOL    HW136365   4.446   3.885   9.838 -1.2302  2.5075  1.6851
 8244SOL    HW236366   4.363   3.980   9.768 -1.1996 -1.4445 -0.3580
 8245SOL     OW36367   4.226   4.218   7.485 -0.0071  0.2838 -0.1633
 8245SOL    HW136368   4.241   4.272   7.562  2.0351 -0.1323 -0.2708
 8245SOL    HW236369   4.270   4.271   7.418  0.4725  0.8309  0.5931
 8246SOL     OW36370   3.166   1.517  17.684  0.6829  0.0443 -0.3039
 8246SOL    HW136371   3.187   1.552  17.598 -2.1505  1.9346 -0.2196
 8246SOL    HW236372   3.250   1.516  17.731  0.4049 -2.3542  0.1858
 8247SOL     OW36373   3.596   4.641   8.171 -0.2524 -0.6161  0.4602
 8247SOL    HW136374   3.575   4.573   8.235 -1.3671 -1.0650 -0.3760
 8247SOL    HW236375   3.586   4.718   8.227  1.1264  0.5415 -0.8682
 8248SOL     OW36376   4.215   3.245  15.400 -0.2328 -0.2064  0.2124
 8248SOL    HW136377   4.177   3.303  15.466 -2.4415 -1.9223  0.4670
 8248SOL    HW236378   4.143   3.226  15.341  0.5376 -1.0700 -0.4553
 8249SOL     OW36379   1.548   0.166   2.912  0.2517 -0.7193 -0.2324
 8249SOL    HW136380   1.602   0.245   2.920 -1.1493  0.0946  1.2634
 8249SOL    HW236381   1.622   0.106   2.904 -0.9927 -2.4219  1.0468
 8250SOL     OW36382   0.780   2.108   2.066 -0.3846  0.2636 -0.7685
 8250SOL    HW136383   0.761   2.171   1.996  1.2865  0.0142 -1.4435
 8250SOL    HW236384   0.697   2.101   2.113  0.3215  0.4855  0.5060
 8251SOL     OW36385   0.827   1.842  13.069  0.2638  0.1837 -0.3762
 8251SOL    HW136386   0.839   1.805  13.156  1.5890  1.9732  0.1816
 8251SOL    HW236387   0.870   1.775  13.015  0.5164  0.3536 -0.3820
 8252SOL     OW36388   0.230   3.249   7.418  0.0955 -0.5362  0.3236
 8252SOL    HW136389   0.296   3.224   7.353 -0.0586 -1.9073  0.7057
 8252SOL    HW236390   0.210   3.342   7.401  1.2115 -0.1688  1.0310
 8253SOL     OW36391   2.014   1.238   7.191  0.3137 -0.2596 -0.1428
 8253SOL    HW136392   2.075   1.193   7.132  0.6600 -0.4435  0.3614
 8253SOL    HW236393   1.932   1.191   7.175 -0.6476  0.5639  2.5459
 8254SOL     OW36394   1.827   3.132  13.124  0.1785 -0.8165  0.2313
 8254SOL    HW136395   1.805   3.045  13.090  0.8717 -1.9515  2.6303
 8254SOL    HW236396   1.757   3.187  13.089 -0.0878 -0.1336  1.8395
 8255SOL     OW36397   3.251   4.711  16.122 -0.2824 -0.1863  0.0372
 8255SOL    HW136398   3.324   0.021  16.154  0.4383 -0.5440 -1.0348
 8255SOL    HW236399   3.303   4.664  16.057  0.9474  3.1085 -1.3566
 8256SOL     OW36400   2.826   3.207   2.471  0.3102  0.2208 -0.1440
 8256SOL    HW136401   2.803   3.129   2.420 -1.4887  1.5172 -1.3015
 8256SOL    HW236402   2.746   3.259   2.463  0.6031  0.6415 -0.3195
 8257SOL     OW36403   1.356   4.727   4.204  0.4051  0.3049  0.1111
 8257SOL    HW136404   1.422   0.048   4.229  0.7086  0.9445 -2.3246
 8257SOL    HW236405   1.322   4.714   4.292 -1.2936 -0.5199 -0.6641
 8258SOL     OW36406   1.136   0.505   1.429 -0.4123 -0.3576 -0.5704
 8258SOL    HW136407   1.152   0.457   1.510  0.5292  1.1342  0.1289
 8258SOL    HW236408   1.149   0.597   1.454  0.3630 -1.4966  3.1942
 8259SOL     OW36409   3.225   4.156  13.107  0.2215 -0.4235 -0.3363
 8259SOL    HW136410   3.173   4.076  13.102  0.9441 -1.0237  1.8667
 8259SOL    HW236411   3.167   4.212  13.159  1.1744 -1.5491  1.9413
 8260SOL     OW36412   4.282   4.224   1.023 -0.4344  0.3307 -0.5168
 8260SOL    HW136413   4.205   4.275   0.999 -1.1942 -0.6757 -0.2110
 8260SOL    HW236414   4.264   4.143   0.976 -0.1049 -0.1458  0.1978
 8261SOL     OW36415   2.383   4.598   6.601  0.2223  0.1077 -0.5659
 8261SOL    HW136416   2.389   4.672   6.540 -1.2459  1.2272  0.6653
 8261SOL    HW236417   2.461   4.546   6.579  0.3972  0.5330 -0.9493
 8262SOL     OW36418   3.866   1.941   4.427  0.1155 -0.1515 -0.3515
 8262SOL    HW136419   3.947   1.903   4.459  0.5726  0.2694 -1.0018
 8262SOL    HW236420   3.853   2.010   4.492 -2.6898 -0.7442 -0.2685
 8263SOL     OW36421   4.282   3.481   7.202 -0.2961 -0.4127  0.1612
 8263SOL    HW136422   4.209   3.498   7.261 -0.8058 -1.2689 -0.2270
 8263SOL    HW236423   4.245   3.491   7.115 -0.4054 -1.0013  0.1393
 8264SOL     OW36424   1.332   1.348   2.759  0.0413 -0.7632  0.1767
 8264SOL    HW136425   1.277   1.389   2.693  1.5783 -1.9471 -1.8444
 8264SOL    HW236426   1.394   1.418   2.780 -2.1527  0.8910  1.0745
 8265SOL     OW36427   0.501   0.716   3.510  0.0556 -0.1270  0.1416
 8265SOL    HW136428   0.488   0.777   3.438  1.2058  1.3658  1.2162
 8265SOL    HW236429   0.481   0.765   3.590 -0.7580 -0.0941 -0.0847
 8266SOL     OW36430   4.601   0.054  15.953 -0.2606  0.0712 -0.7307
 8266SOL    HW136431   4.655   0.089  16.024 -0.3508 -0.9264 -0.1856
 8266SOL    HW236432   4.630   4.707  15.963 -3.0331 -0.3327  3.1912
 8267SOL     OW36433   1.860   0.876  15.693  0.2943  0.1817  0.5662
 8267SOL    HW136434   1.832   0.967  15.679 -0.9230 -0.7476 -2.8025
 8267SOL    HW236435   1.954   0.888  15.703  0.3094  1.0354 -0.6974
 8268SOL     OW36436   4.276   2.522   4.290  0.0035  0.3097  0.3641
 8268SOL    HW136437   4.261   2.518   4.384  0.2615  0.2028  0.3989
 8268SOL    HW236438   4.351   2.581   4.292  0.7276 -0.6086 -0.2874
 8269SOL     OW36439   1.245   1.514   6.002 -0.0876  0.0771 -0.3944
 8269SOL    HW136440   1.233   1.430   5.959 -0.4482  0.2327 -0.5952
 8269SOL    HW236441   1.187   1.519   6.078  1.9813  0.9308  1.1310
 8270SOL     OW36442   1.973   0.439   7.234  0.5822 -0.3445  0.2067
 8270SOL    HW136443   1.941   0.529   7.239 -2.7781 -1.5037 -0.4937
 8270SOL    HW236444   1.905   0.397   7.182  0.9270  0.4986 -0.9178
 8271SOL     OW36445   3.258   1.391  11.480  0.1615  0.1581  0.1595
 8271SOL    HW136446   3.197   1.432  11.419 -0.2930 -1.3325 -0.3968
 8271SOL    HW236447   3.197   1.359  11.546  0.2793  0.1332  0.2568
 8272SOL     OW36448   0.314   4.066   7.727  0.4568 -0.1388  0.1437
 8272SOL    HW136449   0.330   3.978   7.692 -1.0079 -0.9458  1.5043
 8272SOL    HW236450   0.381   4.069   7.795  1.1457  1.5281 -0.6089
 8273SOL     OW36451   4.257   0.721   2.344 -0.5216  0.4015  0.1711
 8273SOL    HW136452   4.200   0.653   2.380  0.2232 -1.1476 -1.5847
 8273SOL    HW236453   4.305   0.742   2.424  0.6873  0.5196 -0.5948
 8274SOL     OW36454   3.205   1.913   7.877 -0.2200 -0.2606  0.2990
 8274SOL    HW136455   3.217   2.008   7.883 -0.4121 -0.1800 -0.5849
 8274SOL    HW236456   3.120   1.894   7.838 -0.8496  1.3627  0.8555
 8275SOL     OW36457   4.127   2.729  12.718 -0.4203  0.3140  0.5196
 8275SOL    HW136458   4.128   2.641  12.757  1.9585  0.8749  1.7434
 8275SOL    HW236459   4.041   2.752  12.752 -0.0249  0.4787  1.4235
 8276SOL     OW36460   3.097   1.370  17.218 -0.2189 -0.2465  0.0175
 8276SOL    HW136461   3.124   1.420  17.141 -0.2049 -0.3804 -0.0659
 8276SOL    HW236462   3.068   1.295  17.165 -1.1390 -1.0544  1.6527
 8277SOL     OW36463   4.651   0.895   1.449 -0.2402 -0.4095 -0.0461
 8277SOL    HW136464   4.633   0.979   1.406 -0.5182 -0.3998  0.0942
 8277SOL    HW236465   4.650   0.833   1.376  1.5736 -1.7549  1.0680
 8278SOL     OW36466   2.516   1.786   6.837  0.9010  0.2755 -0.4524
 8278SOL    HW136467   2.449   1.834   6.885 -0.3768 -0.1447 -1.8220
 8278SOL    HW236468   2.510   1.831   6.752 -0.0726  0.3956 -0.3156
 8279SOL     OW36469   4.099   2.502   9.784  0.8878  0.3710  0.0698
 8279SOL    HW136470   4.078   2.590   9.816  0.5598  0.3500 -0.0887
 8279SOL    HW236471   4.110   2.465   9.871 -0.2658 -0.8134 -0.2887
 8280SOL     OW36472   4.194   1.873  11.375  0.1173  0.1611  0.6548
 8280SOL    HW136473   4.117   1.893  11.427  1.0788 -0.1075  2.1750
 8280SOL    HW236474   4.210   1.784  11.405 -0.0232 -0.2278 -0.4090
 8281SOL     OW36475   3.048   0.763   2.790  0.0667 -0.5342 -0.5349
 8281SOL    HW136476   3.054   0.697   2.720  0.9404 -1.7115  0.6423
 8281SOL    HW236477   2.973   0.720   2.830 -0.4452  0.8231 -0.0587
 8282SOL     OW36478   3.369   0.281   2.082  0.1303  0.0729  0.3685
 8282SOL    HW136479   3.383   0.305   2.173  3.8702 -0.2367 -0.1276
 8282SOL    HW236480   3.403   0.192   2.075  0.1262  0.2408 -1.7053
 8283SOL     OW36481   4.262   1.075   9.453 -0.9546 -0.0666  0.0499
 8283SOL    HW136482   4.301   1.157   9.425  0.7811 -2.0019 -3.2127
 8283SOL    HW236483   4.291   1.079   9.544  1.1886  1.5592 -0.7064
 8284SOL     OW36484   4.357   1.498   4.794 -0.3098 -0.1005  0.0654
 8284SOL    HW136485   4.311   1.431   4.845  0.4530 -1.3505 -0.8934
 8284SOL    HW236486   4.371   1.566   4.860  0.2624 -1.8628  1.7595
 8285SOL     OW36487   4.297   4.496   5.810 -0.9735  0.8537 -0.8416
 8285SOL    HW136488   4.291   4.522   5.902 -2.0265 -1.6195 -0.2185
 8285SOL    HW236489   4.275   4.573   5.758 -0.1502  1.7552  0.1459
 8286SOL     OW36490   4.358   2.380   8.673  0.6890  0.3240 -0.5803
 8286SOL    HW136491   4.421   2.311   8.652 -2.1622 -2.9447  1.6278
 8286SOL    HW236492   4.304   2.328   8.733 -1.0994  2.1131 -0.6575
 8287SOL     OW36493   0.902   1.728   2.194  0.2150  0.0102 -0.0583
 8287SOL    HW136494   0.886   1.791   2.125  1.2216  1.4627  1.0382
 8287SOL    HW236495   0.962   1.777   2.249  0.2208  1.0672 -1.0188
 8288SOL     OW36496   1.061   2.959   2.566  0.3615  0.2565  0.0764
 8288SOL    HW136497   1.104   2.927   2.644  1.0332 -1.2703 -0.9104
 8288SOL    HW236498   0.972   2.983   2.593  1.0804 -0.7935  3.2948
 8289SOL     OW36499   4.585   1.318   4.583 -0.0460  0.4253  0.3849
 8289SOL    HW136500   4.676   1.331   4.556 -0.9820  0.5230 -2.6924
 8289SOL    HW236501   4.591   1.320   4.678  1.2176  0.4016  0.3066
 8290SOL     OW36502   2.703   2.659  10.824  0.0095 -0.1375  0.1396
 8290SOL    HW136503   2.750   2.602  10.884  0.7053  0.4192  0.1150
 8290SOL    HW236504   2.752   2.634  10.746 -0.1174 -0.2472  0.0955
 8291SOL     OW36505   1.345   1.630   6.841  0.5391  0.2343  0.2355
 8291SOL    HW136506   1.322   1.684   6.916 -1.2955 -1.8991  1.2331
 8291SOL    HW236507   1.430   1.601   6.873  0.2998 -1.4760 -0.6680
 8292SOL     OW36508   2.960   4.689  11.868 -0.2631 -0.5282  0.1077
 8292SOL    HW136509   2.931   0.019  11.814 -1.9871 -1.0763  0.3014
 8292SOL    HW236510   2.973   4.733  11.952  0.3692 -1.1611  0.3459
 8293SOL     OW36511   2.355   1.303   1.817 -0.4476  0.4949  0.5379
 8293SOL    HW136512   2.342   1.387   1.862  2.9264  1.3614 -0.1545
 8293SOL    HW236513   2.448   1.287   1.832 -0.2663 -0.3344 -1.4786
 8294SOL     OW36514   2.786   3.039  10.449 -0.2229  0.0958  0.0960
 8294SOL    HW136515   2.785   2.947  10.472 -0.8523 -0.2697 -1.4056
 8294SOL    HW236516   2.870   3.064  10.487  0.2816 -1.6938  0.1359
 8295SOL     OW36517   3.879   2.951   7.454 -0.0003 -0.1241  0.2242
 8295SOL    HW136518   3.930   2.875   7.427  0.7295  0.8292 -1.0752
 8295SOL    HW236519   3.864   2.924   7.545  0.8182 -1.4255 -0.0316
 8296SOL     OW36520   2.667   3.538   1.807 -0.2547  0.1446 -0.3406
 8296SOL    HW136521   2.759   3.563   1.814 -0.7377  2.1762 -1.0017
 8296SOL    HW236522   2.633   3.577   1.887  0.9926  1.3906 -0.4276
 8297SOL     OW36523   3.627   0.762  11.851 -0.4038  0.3531 -0.3192
 8297SOL    HW136524   3.700   0.823  11.845 -2.7299  3.2113  0.4409
 8297SOL    HW236525   3.622   0.717  11.767  0.0040  0.1529 -0.2375
 8298SOL     OW36526   0.295   3.425   6.655  0.5178 -0.0014  0.0489
 8298SOL    HW136527   0.354   3.497   6.631 -0.6830  2.0156  3.2096
 8298SOL    HW236528   0.207   3.450   6.628  0.1931  0.9533  1.9793
 8299SOL     OW36529   4.383   2.611   1.110 -0.3066 -0.2709 -0.0624
 8299SOL    HW136530   4.314   2.550   1.138  1.2388 -0.6664  2.8919
 8299SOL    HW236531   4.465   2.570   1.137 -0.5105  0.5062  1.7834
 8300SOL     OW36532   0.432   3.632   4.971 -0.5008 -0.0304 -0.4820
 8300SOL    HW136533   0.407   3.552   4.923 -0.2348  0.3801 -1.3096
 8300SOL    HW236534   0.356   3.683   4.944 -1.7888 -0.8404  1.6049
 8301SOL     OW36535   1.748   1.764   7.884  0.2543 -0.2296 -0.2995
 8301SOL    HW136536   1.819   1.712   7.921  1.8685  2.1033 -0.0971
 8301SOL    HW236537   1.731   1.832   7.949  2.0445 -1.4438  1.3924
 8302SOL     OW36538   1.189   1.891   2.798 -0.1827 -0.4041  0.3430
 8302SOL    HW136539   1.186   1.974   2.750 -0.5693  0.3170  1.6293
 8302SOL    HW236540   1.264   1.851   2.755  1.3778  2.0453  0.8112
 8303SOL     OW36541   2.011   4.141  16.233  0.4323 -0.3770  0.5283
 8303SOL    HW136542   2.003   4.236  16.240  1.9002 -0.3872  2.5558
 8303SOL    HW236543   1.981   4.120  16.145  1.7626  0.0753 -0.0400
 8304SOL     OW36544   2.828   3.126   3.409  0.3638 -0.1431 -0.0595
 8304SOL    HW136545   2.905   3.170   3.447 -0.8896 -0.6960  3.0756
 8304SOL    HW236546   2.824   3.165   3.322  1.4899  1.5309  0.6224
 8305SOL     OW36547   3.514   4.735   3.274  0.0628  0.5131  0.5073
 8305SOL    HW136548   3.499   4.722   3.181 -1.7170  1.0277  0.7210
 8305SOL    HW236549   3.551   4.649   3.292 -1.1743 -0.5948 -2.3545
 8306SOL     OW36550   1.985   0.018   6.352  0.5323  0.8073  0.0778
 8306SOL    HW136551   1.985   0.008   6.447  0.8981  1.5315  0.1511
 8306SOL    HW236552   2.078   0.017   6.331  0.4338 -1.5146 -0.1875
 8307SOL     OW36553   4.600   3.145   5.237  1.0332 -0.3880 -0.9026
 8307SOL    HW136554   4.570   3.126   5.326  2.1895  1.8703 -0.0269
 8307SOL    HW236555   4.544   3.222   5.228  1.3827  0.0364  0.4549
 8308SOL     OW36556   1.109   0.901   7.228  0.1414 -0.3309  0.5683
 8308SOL    HW136557   1.107   0.884   7.133  0.3572 -0.4083  0.5752
 8308SOL    HW236558   1.154   0.824   7.263  0.7010 -0.5829 -0.6608
 8309SOL     OW36559   2.584   4.584   5.138 -0.8984 -0.3490  0.4034
 8309SOL    HW136560   2.528   4.649   5.096  0.7942  1.5573  1.1029
 8309SOL    HW236561   2.520   4.517   5.164 -0.0457 -1.4582 -0.3590
 8310SOL     OW36562   3.404   3.410   3.375  0.1832 -0.0028 -0.8209
 8310SOL    HW136563   3.445   3.496   3.369  0.6344 -0.1664 -0.1295
 8310SOL    HW236564   3.471   3.366   3.427  0.7842  0.9841 -0.7793
 8311SOL     OW36565   3.303   4.144  13.978 -0.2300 -0.6270  0.7020
 8311SOL    HW136566   3.373   4.206  13.956 -0.4801 -0.6735 -0.2375
 8311SOL    HW236567   3.300   4.152  14.073  0.2950  1.6824  0.5219
 8312SOL     OW36568   0.172   3.349  17.665 -0.5736  0.4017 -0.0755
 8312SOL    HW136569   0.242   3.414  17.657 -0.0195 -0.4851 -2.6546
 8312SOL    HW236570   0.198   3.285  17.731  1.0024  1.3333  0.1852
 8313SOL     OW36571   3.904   4.169   5.149  0.1490  0.2115 -0.4384
 8313SOL    HW136572   3.978   4.124   5.190 -0.6513  0.7932  1.6431
 8313SOL    HW236573   3.941   4.217   5.076  0.2153  1.7432  0.6050
 8314SOL     OW36574   3.529   3.417  14.764  0.3813  0.2068 -0.1386
 8314SOL    HW136575   3.586   3.340  14.768  2.8130  2.0267 -0.3016
 8314SOL    HW236576   3.449   3.376  14.799 -0.0851  2.8638  1.9054
 8315SOL     OW36577   2.019   2.314   8.148 -0.2350  0.8985  0.3978
 8315SOL    HW136578   1.980   2.384   8.202 -0.4732  1.1075 -0.0422
 8315SOL    HW236579   2.094   2.361   8.113 -0.5244 -0.4166 -1.9728
 8316SOL     OW36580   0.066   2.701  12.526 -0.5429  0.3130 -0.4319
 8316SOL    HW136581   0.026   2.614  12.522 -0.1892 -0.0065  3.1432
 8316SOL    HW236582   0.024   2.732  12.606  0.9222  1.8597 -0.2797
 8317SOL     OW36583   3.044   3.405   2.822 -0.1146 -0.3699 -0.7409
 8317SOL    HW136584   3.131   3.366   2.829  1.4598  3.4354  1.3624
 8317SOL    HW236585   3.007   3.324   2.787  0.3203  0.4462 -3.0851
 8318SOL     OW36586   4.427   0.695   5.941  0.1027  0.1060  0.5315
 8318SOL    HW136587   4.359   0.757   5.915 -0.6627 -1.1423 -0.4706
 8318SOL    HW236588   4.397   0.615   5.897  2.5148 -1.5164  1.8141
 8319SOL     OW36589   2.457   4.526   4.391  0.3019  0.2569  0.7853
 8319SOL    HW136590   2.362   4.510   4.389 -0.3698  4.6693 -1.7104
 8319SOL    HW236591   2.491   4.493   4.474 -1.1181  0.9292  1.6524
 8320SOL     OW36592   3.117   3.152  15.572 -0.3150 -0.2391  0.2580
 8320SOL    HW136593   3.135   3.185  15.660 -0.7837  0.7487 -0.0088
 8320SOL    HW236594   3.175   3.214  15.528 -0.2414 -2.0198 -2.1735
 8321SOL     OW36595   4.208   1.377   2.464  0.1613 -0.1572 -0.6370
 8321SOL    HW136596   4.133   1.320   2.485  0.6519 -0.4312  0.3569
 8321SOL    HW236597   4.250   1.313   2.406  1.9616 -0.4060  0.9640
 8322SOL     OW36598   3.611   1.135   8.825 -0.2727 -0.2837  0.0920
 8322SOL    HW136599   3.614   1.070   8.755  0.7734  0.2055 -0.3161
 8322SOL    HW236600   3.551   1.088   8.883 -1.1372 -1.0197 -1.4058
 8323SOL     OW36601   4.292   4.006   5.875 -0.2066 -0.1262  0.3779
 8323SOL    HW136602   4.215   4.001   5.818  1.7664  0.5910 -2.3440
 8323SOL    HW236603   4.334   3.921   5.866  0.2506  0.2605 -1.0305
 8324SOL     OW36604   1.769   2.240  13.339 -0.0021 -0.6129 -0.3911
 8324SOL    HW136605   1.838   2.292  13.299  0.5330 -2.5721 -2.0572
 8324SOL    HW236606   1.693   2.240  13.280  0.5177 -0.0846 -1.0464
 8325SOL     OW36607   1.900   0.028   7.341  0.0529 -0.0878 -0.2956
 8325SOL    HW136608   1.950   0.104   7.372 -1.1423 -0.0191  1.4549
 8325SOL    HW236609   1.841   0.069   7.278 -0.4580  0.2526  0.4173
 8326SOL     OW36610   3.676   3.843   7.567  0.2679  0.7469 -0.3968
 8326SOL    HW136611   3.686   3.935   7.594  1.2765  0.1441  1.2619
 8326SOL    HW236612   3.614   3.848   7.494 -0.2105 -2.3608 -0.2052
 8327SOL     OW36613   1.382   3.353   5.957 -0.0824  0.0136 -0.5401
 8327SOL    HW136614   1.373   3.352   5.862  1.3506 -0.7532 -0.6664
 8327SOL    HW236615   1.404   3.262   5.979 -0.2041  0.1701  0.2126
 8328SOL     OW36616   4.579   3.633   3.430  0.2764  0.2564 -0.3822
 8328SOL    HW136617   4.524   3.701   3.391 -1.1278  0.1553  1.3804
 8328SOL    HW236618   4.541   3.548   3.410  0.8049  0.5141 -2.4218
 8329SOL     OW36619   1.922   4.543   4.585  0.4159 -0.3989 -0.6554
 8329SOL    HW136620   1.888   4.541   4.495 -2.8260 -0.5473  0.5783
 8329SOL    HW236621   1.919   4.454   4.619 -1.5608  0.1324  0.5807
 8330SOL     OW36622   1.695   2.060   6.237  0.0839 -0.1504 -0.8620
 8330SOL    HW136623   1.616   2.051   6.290  1.2911 -1.3170  0.7502
 8330SOL    HW236624   1.733   1.985   6.283  0.1512 -0.1008 -0.8374
 8331SOL     OW36625   1.242   0.727  10.117  0.6062  0.5277 -0.1866
 8331SOL    HW136626   1.155   0.757  10.092  0.0910  0.6894  1.7712
 8331SOL    HW236627   1.232   0.637  10.087  1.7408  0.5331 -0.5833
 8332SOL     OW36628   1.949   4.071   3.527  0.4579  0.3554 -0.7131
 8332SOL    HW136629   1.890   4.037   3.459 -2.3304 -0.5388  2.1924
 8332SOL    HW236630   2.012   4.120   3.475  1.1895  1.4576  1.2574
 8333SOL     OW36631   2.214   3.669   1.461 -0.1822  0.6185  0.0321
 8333SOL    HW136632   2.308   3.664   1.441 -0.1085 -0.4880  0.6261
 8333SOL    HW236633   2.169   3.626   1.389  1.2338 -1.0127  0.1166
 8334SOL     OW36634   1.389   0.392   7.346 -0.3414 -0.1382 -1.0316
 8334SOL    HW136635   1.357   0.446   7.417 -2.3904 -0.6513 -1.5773
 8334SOL    HW236636   1.309   0.341   7.333 -0.2577 -0.1387 -1.5634
 8335SOL     OW36637   3.955   4.532   8.559 -0.0652 -0.3448 -0.5129
 8335SOL    HW136638   3.889   4.465   8.577 -0.9403  0.7275  0.2567
 8335SOL    HW236639   3.913   4.592   8.498 -1.0162 -1.2452 -0.7387
 8336SOL     OW36640   0.017   1.045   4.666 -0.5107  0.3298 -0.2824
 8336SOL    HW136641   4.711   0.964   4.653 -0.1619 -0.0835  1.0410
 8336SOL    HW236642   4.701   1.094   4.722  0.2618  0.1160  0.7264
 8337SOL     OW36643   3.857   3.325   6.225  0.0753 -0.3712  0.4586
 8337SOL    HW136644   3.934   3.318   6.170 -0.1958  0.6924 -0.0639
 8337SOL    HW236645   3.897   3.305   6.310 -0.5235 -0.1830  0.7916
 8338SOL     OW36646   0.381   4.336   3.037 -0.1908  0.3843 -0.4873
 8338SOL    HW136647   0.392   4.261   3.096 -1.7857  0.4468 -0.1131
 8338SOL    HW236648   0.318   4.389   3.085  1.9979  0.0805  2.7046
 8339SOL     OW36649   1.926   3.815   8.933  0.2688  0.0183  0.3616
 8339SOL    HW136650   1.843   3.768   8.938 -0.7660  1.7274 -0.7659
 8339SOL    HW236651   1.894   3.900   8.903  0.1494 -0.4081 -0.7074
 8340SOL     OW36652   1.682   3.936   6.283  0.3130  0.3739 -0.6215
 8340SOL    HW136653   1.667   3.846   6.311  0.3336 -0.0859 -2.0905
 8340SOL    HW236654   1.746   3.929   6.211 -0.5992 -3.4409 -1.0641
 8341SOL     OW36655   3.178   4.353   4.713 -0.1992 -0.3618  0.4553
 8341SOL    HW136656   3.261   4.317   4.681 -1.7055 -2.8593 -0.5852
 8341SOL    HW236657   3.158   4.313   4.797  1.9517 -1.6368  0.3657
 8342SOL     OW36658   4.347   4.643  15.439  0.3662  0.6735  0.1032
 8342SOL    HW136659   4.261   4.618  15.471  0.2765  1.0427  0.1526
 8342SOL    HW236660   4.376   4.682  15.522 -1.1807 -1.0811  1.4622
 8343SOL     OW36661   4.498   2.590   8.359 -0.0405 -0.1012 -0.5565
 8343SOL    HW136662   4.560   2.625   8.295 -0.2002  1.0068 -0.1177
 8343SOL    HW236663   4.561   2.549   8.420  2.1667  1.4751 -1.7662
 8344SOL     OW36664   2.496   0.896   4.658  0.1789  0.1710  0.2492
 8344SOL    HW136665   2.542   0.813   4.639  0.5859  0.7945 -1.5538
 8344SOL    HW236666   2.427   0.860   4.713 -0.0440  2.4008  1.3978
 8345SOL     OW36667   2.854   0.008   6.696  0.3528 -0.1818  0.0272
 8345SOL    HW136668   2.822   4.668   6.731  2.1404 -1.5001 -1.5116
 8345SOL    HW236669   2.915   4.732   6.625 -2.1142 -0.9038 -1.9127
 8346SOL     OW36670   4.206   3.644   6.689  0.6914 -0.1361 -0.3743
 8346SOL    HW136671   4.260   3.668   6.765 -0.0083 -0.0998  0.1120
 8346SOL    HW236672   4.183   3.730   6.652 -1.3644 -0.3323  0.4508
 8347SOL     OW36673   3.927   1.962   7.514 -0.0093 -0.5210 -0.0562
 8347SOL    HW136674   3.873   2.038   7.538  0.9019 -0.0118  0.4363
 8347SOL    HW236675   3.988   2.002   7.452  0.6078 -0.0852  0.8195
 8348SOL     OW36676   0.939   1.274   5.844  0.0282 -0.5122  0.0997
 8348SOL    HW136677   0.914   1.182   5.832 -1.2175 -0.2825  0.9039
 8348SOL    HW236678   0.952   1.283   5.939 -0.0006  1.0294 -0.0410
 8349SOL     OW36679   3.303   0.049   4.174 -0.0635  0.0140  0.3117
 8349SOL    HW136680   3.259   0.054   4.259 -0.8592 -0.6510 -0.0617
 8349SOL    HW236681   3.272   4.708   4.144 -0.2755  0.7795 -1.6228
 8350SOL     OW36682   4.592   0.688   7.465  0.5158 -0.0244 -0.4577
 8350SOL    HW136683   4.637   0.767   7.435  1.7450 -0.8932 -0.9271
 8350SOL    HW236684   4.511   0.685   7.414  0.3090 -1.3788 -0.0603
 8351SOL     OW36685   0.470   0.187   1.070  0.1950  0.1749  0.0025
 8351SOL    HW136686   0.378   0.203   1.052  0.6487  0.9229 -1.6236
 8351SOL    HW236687   0.512   0.247   1.009 -0.2426 -0.3265 -0.7880
 8352SOL     OW36688   1.529   3.664   4.120  0.1761  0.4363  0.2671
 8352SOL    HW136689   1.620   3.652   4.147 -0.4437  0.9164  2.5464
 8352SOL    HW236690   1.545   3.699   4.032 -1.1767  1.1351  0.3030
 8353SOL     OW36691   3.429   2.278   3.839 -0.4219 -0.1219  0.6573
 8353SOL    HW136692   3.407   2.349   3.779 -0.8401  0.5010  1.5475
 8353SOL    HW236693   3.378   2.298   3.917 -0.5159  0.8590  0.3397
 8354SOL     OW36694   1.234   4.411   6.601 -0.1563  0.7134 -0.3063
 8354SOL    HW136695   1.187   4.477   6.652 -1.0591  1.3788 -1.9844
 8354SOL    HW236696   1.168   4.342   6.611  0.5734  0.1983  0.9553
 8355SOL     OW36697   2.865   3.409   6.383 -0.0602  0.3394  0.0980
 8355SOL    HW136698   2.923   3.360   6.326 -2.6856 -1.8638 -0.6822
 8355SOL    HW236699   2.790   3.440   6.332  0.0811 -0.0634 -0.3568
 8356SOL     OW36700   1.603   1.248   7.366 -0.1701 -0.3640  0.4505
 8356SOL    HW136701   1.560   1.297   7.296  0.0383 -0.5049  0.2232
 8356SOL    HW236702   1.690   1.229   7.330  0.3793  2.3179  0.3814
 8357SOL     OW36703   1.008   1.254   5.487  0.0564 -0.1266 -0.1086
 8357SOL    HW136704   0.996   1.335   5.537  0.1104 -1.6587  2.3633
 8357SOL    HW236705   1.078   1.285   5.430 -2.1488  1.3226 -2.0271
 8358SOL     OW36706   0.919   0.119  17.079  0.7596 -0.3808 -0.1324
 8358SOL    HW136707   0.857   0.191  17.086 -0.3103 -1.4291  1.1418
 8358SOL    HW236708   0.875   0.045  17.120  1.5520 -1.9136 -2.0124
 8359SOL     OW36709   2.810   1.103  15.285  0.0951 -0.4855 -0.9163
 8359SOL    HW136710   2.813   1.049  15.363 -1.1626  2.4854  1.1643
 8359SOL    HW236711   2.784   1.036  15.222  0.0307 -0.7453 -0.6081
 8360SOL     OW36712   2.846   2.976   2.084 -0.1387 -0.5281  0.2131
 8360SOL    HW136713   2.773   2.978   2.145  0.5347  1.7450  0.9541
 8360SOL    HW236714   2.907   2.999   2.154 -0.5372  0.9374  0.0915
 8361SOL     OW36715   2.886   2.411  15.372  0.0534  0.1629  0.4437
 8361SOL    HW136716   2.926   2.364  15.298 -0.4826 -0.6689  0.6759
 8361SOL    HW236717   2.796   2.382  15.359 -0.6393  2.5215  0.0506
 8362SOL     OW36718   3.674   1.769  13.485  0.1002 -0.1428  0.1788
 8362SOL    HW136719   3.697   1.680  13.459 -2.2392 -0.7446  0.1690
 8362SOL    HW236720   3.725   1.825  13.426 -2.9092  1.7134 -0.6755
 8363SOL     OW36721   1.034   4.308   5.263  0.0021 -0.0584  0.7955
 8363SOL    HW136722   0.984   4.278   5.187 -0.4087 -0.7772  1.3510
 8363SOL    HW236723   0.997   4.255   5.334 -2.3486 -0.5167 -0.7640
 8364SOL     OW36724   2.018   0.586  15.617 -0.1340  0.5542  0.1491
 8364SOL    HW136725   1.994   0.678  15.609  1.7190  1.0596  0.5944
 8364SOL    HW236726   2.029   0.576  15.711  0.0480  0.6990  0.1420
 8365SOL     OW36727   1.624   0.237  15.903  0.5311  0.0800  0.0488
 8365SOL    HW136728   1.542   0.226  15.855  0.5827 -3.6776  0.8708
 8365SOL    HW236729   1.625   0.328  15.935  0.2975  0.2069 -0.3053
 8366SOL     OW36730   1.997   3.802  13.419  0.2508 -0.0203 -0.0189
 8366SOL    HW136731   2.090   3.781  13.404 -0.1984 -1.7095 -0.3725
 8366SOL    HW236732   1.972   3.833  13.332 -1.0634 -0.5542  0.1780
 8367SOL     OW36733   1.983   4.292   8.817  0.3556 -0.4924 -1.0732
 8367SOL    HW136734   1.938   4.375   8.829  1.7145  0.2293 -1.0165
 8367SOL    HW236735   2.050   4.301   8.884  1.1367  1.0680 -2.0812
 8368SOL     OW36736   4.182   0.758  17.549  0.0858 -0.0139  0.0140
 8368SOL    HW136737   4.217   0.788  17.465  0.1364 -1.1925 -0.3823
 8368SOL    HW236738   4.102   0.716  17.518 -0.4958  2.2679 -1.5774
 8369SOL     OW36739   0.711   1.994   8.900  0.4280 -0.3746 -0.0816
 8369SOL    HW136740   0.701   1.899   8.909 -1.4287 -0.4092 -2.4993
 8369SOL    HW236741   0.773   2.017   8.970  1.0599 -0.8936 -0.4690
 8370SOL     OW36742   3.612   4.138  15.253  0.0392 -0.0300  0.4647
 8370SOL    HW136743   3.581   4.068  15.196 -0.7322 -0.8617  1.9177
 8370SOL    HW236744   3.660   4.193  15.191 -3.0660  2.6288  0.4498
 8371SOL     OW36745   0.579   2.811   4.575 -0.6866  0.5344 -0.1942
 8371SOL    HW136746   0.492   2.770   4.574 -1.1958  1.6212 -0.7166
 8371SOL    HW236747   0.552   2.902   4.572 -3.4538 -0.3347 -1.5298
 8372SOL     OW36748   2.385   3.729   1.693  0.0139  0.0999  0.0807
 8372SOL    HW136749   2.306   3.732   1.639  1.1674  2.6626 -1.4376
 8372SOL    HW236750   2.436   3.687   1.624  1.0626  2.9438 -0.8712
 8373SOL     OW36751   2.427   4.130   9.791  0.3580 -0.5708  0.3109
 8373SOL    HW136752   2.490   4.194   9.757 -1.7367  1.0946 -0.4967
 8373SOL    HW236753   2.352   4.190   9.786  1.2950  0.6643  1.0436
 8374SOL     OW36754   4.670   2.464   4.682 -0.4649 -0.0301  0.7042
 8374SOL    HW136755   4.661   2.529   4.613 -0.3871  1.1154  1.7698
 8374SOL    HW236756   4.728   2.401   4.639 -2.1348  0.0522 -1.6546
 8375SOL     OW36757   3.155   1.474  16.551 -0.6168  0.0461 -0.5439
 8375SOL    HW136758   3.153   1.569  16.552 -2.5999  0.0043  0.4016
 8375SOL    HW236759   3.083   1.449  16.609 -1.3124 -0.7799 -1.7487
 8376SOL     OW36760   3.069   2.143   5.462  0.0043  0.4467  0.4975
 8376SOL    HW136761   3.032   2.159   5.549  0.2419 -1.7905  0.9981
 8376SOL    HW236762   3.163   2.157   5.473  0.0649  1.4442 -1.3683
 8377SOL     OW36763   3.139   0.890  15.199 -0.2540  0.7315 -0.2723
 8377SOL    HW136764   3.218   0.856  15.240 -0.5460  1.7516  1.1582
 8377SOL    HW236765   3.096   0.925  15.277  2.4507  1.8043  0.7276
 8378SOL     OW36766   0.612   3.583   5.932  0.6705 -0.5824 -0.0924
 8378SOL    HW136767   0.681   3.580   5.866  0.5924 -2.2285 -0.0973
 8378SOL    HW236768   0.644   3.532   6.006 -1.0593 -2.3367 -0.5598
 8379SOL     OW36769   1.521   2.947  10.311  0.2481 -0.1413 -0.1324
 8379SOL    HW136770   1.531   2.946  10.215  0.1408 -0.8531 -0.1294
 8379SOL    HW236771   1.575   2.872  10.334  0.1112  0.0413  0.7928
 8380SOL     OW36772   0.533   2.183   5.619  0.3220  0.4142  0.1424
 8380SOL    HW136773   0.550   2.261   5.567  1.6978 -1.0263 -1.5618
 8380SOL    HW236774   0.622   2.150   5.608  0.2103  0.1328  0.0972
 8381SOL     OW36775   1.906   2.384   9.780 -0.8338  0.7026 -0.1211
 8381SOL    HW136776   1.922   2.426   9.695  2.3850 -0.2175  0.0269
 8381SOL    HW236777   1.885   2.460   9.834  0.0887  0.8443  0.0415
 8382SOL     OW36778   0.436   2.738  12.570  0.2720  0.7430  0.1567
 8382SOL    HW136779   0.410   2.797  12.641  1.4710  2.3720 -0.7632
 8382SOL    HW236780   0.465   2.803  12.505 -2.2038 -0.0354 -1.7234
 8383SOL     OW36781   1.377   1.611  11.747 -0.5227 -0.0916  0.1065
 8383SOL    HW136782   1.360   1.683  11.809  1.8930 -0.8493  1.6671
 8383SOL    HW236783   1.303   1.552  11.761 -0.3990 -0.4015 -0.5651
 8384SOL     OW36784   3.719   0.420   9.724  0.1178 -0.0188  0.1700
 8384SOL    HW136785   3.746   0.393   9.812  0.8428  0.8171  0.2014
 8384SOL    HW236786   3.786   0.488   9.716 -2.5667  2.6940  1.1338
 8385SOL     OW36787   3.213   0.954   2.488 -0.1577 -0.3752  0.4394
 8385SOL    HW136788   3.142   1.013   2.514 -0.2984 -0.4667  0.2634
 8385SOL    HW236789   3.234   0.921   2.576  3.4642  2.0658  0.4991
 8386SOL     OW36790   3.582   1.929   4.519  0.5402  0.0658 -0.3182
 8386SOL    HW136791   3.496   1.902   4.550  0.8599  0.3565  0.8196
 8386SOL    HW236792   3.620   1.860   4.465  0.5690 -0.5734  0.5149
 8387SOL     OW36793   2.769   0.610   3.978 -0.9062 -0.3858  0.0867
 8387SOL    HW136794   2.722   0.627   3.896  0.6641 -1.6466 -1.0915
 8387SOL    HW236795   2.719   0.668   4.034 -1.6241 -0.2471 -0.6872
 8388SOL     OW36796   2.481   4.598   2.377  0.6038 -0.1945 -0.0848
 8388SOL    HW136797   2.550   4.576   2.315 -1.1877 -1.1821 -1.7377
 8388SOL    HW236798   2.410   4.545   2.340  0.4861  0.3512 -0.6520
 8389SOL     OW36799   1.755   2.232   5.733  0.1424  0.3791  0.1369
 8389SOL    HW136800   1.770   2.142   5.764 -0.8048  0.2104  0.1206
 8389SOL    HW236801   1.831   2.279   5.767 -1.1393  2.0574  0.6538
 8390SOL     OW36802   0.462   3.237   6.045  0.5246  0.2399 -0.3025
 8390SOL    HW136803   0.440   3.160   5.993  0.4691 -0.8841  1.3908
 8390SOL    HW236804   0.385   3.237   6.101  3.3350  0.4052  3.5787
 8391SOL     OW36805   1.482   4.395   5.568  0.1579  0.4537 -0.1387
 8391SOL    HW136806   1.469   4.362   5.657  0.7942 -1.1527 -0.6451
 8391SOL    HW236807   1.432   4.477   5.564 -1.6204 -0.6143  0.8300
 8392SOL     OW36808   2.828   3.730   2.559 -0.0286  0.1809  0.0940
 8392SOL    HW136809   2.883   3.729   2.480  2.6134  0.9453  1.9314
 8392SOL    HW236810   2.744   3.721   2.514  0.8906 -0.4950 -1.4916
 8393SOL     OW36811   2.824   2.030   3.241  1.0449 -0.1584 -0.2002
 8393SOL    HW136812   2.850   2.114   3.204 -1.1860  0.4398 -0.4171
 8393SOL    HW236813   2.908   1.984   3.245  1.7548  1.1806  0.3079
 8394SOL     OW36814   0.054   0.843  17.674 -0.0894  0.4416  0.2008
 8394SOL    HW136815   0.117   0.874  17.610 -0.5466 -1.4326 -1.1441
 8394SOL    HW236816   0.077   0.752  17.657  3.1344  1.1683  0.6657
 8395SOL     OW36817   1.817   1.802   0.584 -0.3495 -0.2955 -0.1333
 8395SOL    HW136818   1.755   1.745   0.630  0.3936 -0.6167  0.4602
 8395SOL    HW236819   1.868   1.825   0.661 -1.6096 -0.9359  0.8845
 8396SOL     OW36820   4.245   3.496   6.151  0.3402  0.0702 -0.1606
 8396SOL    HW136821   4.276   3.485   6.060  2.5625 -0.9970  0.7130
 8396SOL    HW236822   4.220   3.409   6.179 -0.0449  0.4150  0.5655
 8397SOL     OW36823   4.040   2.445   8.886  0.2734  0.4580  0.6816
 8397SOL    HW136824   4.048   2.413   8.796  0.1872  1.2694  0.3872
 8397SOL    HW236825   3.956   2.411   8.918  0.4534  0.9461  1.6641
 8398SOL     OW36826   1.858   1.399   4.688  0.6212 -0.3469  0.3295
 8398SOL    HW136827   1.915   1.406   4.764 -0.0299  0.3792  0.7432
 8398SOL    HW236828   1.908   1.433   4.614  0.2233  2.4859  1.3645
 8399SOL     OW36829   0.460   3.280  12.897  0.3019 -0.4785  0.0130
 8399SOL    HW136830   0.403   3.284  12.974 -0.0030 -2.3850 -0.0931
 8399SOL    HW236831   0.408   3.334  12.838  0.3888 -0.5422 -0.1208
 8400SOL     OW36832   3.582   2.636   5.589  0.7239 -0.3574 -0.4862
 8400SOL    HW136833   3.627   2.600   5.665 -0.6018  2.5655  1.6540
 8400SOL    HW236834   3.651   2.644   5.522 -0.9329 -0.2544 -2.1590
 8401SOL     OW36835   0.687   3.529   3.298 -0.2897 -0.6741  0.8733
 8401SOL    HW136836   0.749   3.460   3.276 -3.1653 -1.8953 -3.4683
 8401SOL    HW236837   0.740   3.576   3.362 -0.7685 -1.2749  1.7105
 8402SOL     OW36838   1.797   0.640  15.249  0.7669 -0.1999  0.0705
 8402SOL    HW136839   1.844   0.578  15.192  2.3335  0.0986  1.0309
 8402SOL    HW236840   1.755   0.695  15.183  1.6803  2.2183  1.5084
 8403SOL     OW36841   0.273   0.898  16.155 -0.5522 -0.2315 -0.5857
 8403SOL    HW136842   0.196   0.854  16.119 -0.5730  0.3588 -1.2591
 8403SOL    HW236843   0.312   0.912  16.068  0.5240  0.9910  0.0927
 8404SOL     OW36844   1.909   0.700   7.268 -0.6101 -0.3802 -0.8224
 8404SOL    HW136845   1.879   0.773   7.214 -1.7570  0.6795  1.2450
 8404SOL    HW236846   1.861   0.716   7.349 -2.6105 -1.8716 -1.7059
 8405SOL     OW36847   1.008   1.641   8.440  0.2174 -0.4966 -0.1442
 8405SOL    HW136848   1.053   1.621   8.522 -1.5330  1.4293  1.2940
 8405SOL    HW236849   1.014   1.553   8.402 -2.6316 -0.5758 -0.4556
 8406SOL     OW36850   3.276   0.510  14.630 -0.8035 -0.8209 -0.4508
 8406SOL    HW136851   3.323   0.462  14.562  3.0181  0.6128  1.1279
 8406SOL    HW236852   3.207   0.451  14.659 -0.3043 -1.0278  0.3272
 8407SOL     OW36853   3.655   0.362  15.295 -0.1012  0.5673 -0.0775
 8407SOL    HW136854   3.741   0.323  15.312  1.8340  3.8264 -2.4358
 8407SOL    HW236855   3.600   0.295  15.254 -0.3643  0.9860 -0.4028
 8408SOL     OW36856   1.170   0.209   7.309 -0.0750 -0.4668  0.0244
 8408SOL    HW136857   1.109   0.162   7.252 -3.9742  0.9317  3.0474
 8408SOL    HW236858   1.138   0.212   7.400 -0.2572 -0.8810 -0.0242
 8409SOL     OW36859   4.101   4.701   6.241 -0.2148 -0.4548 -0.0147
 8409SOL    HW136860   4.083   0.020   6.172  0.1781 -1.7432 -1.3005
 8409SOL    HW236861   4.037   4.732   6.305 -0.3243 -2.4964  0.8717
 8410SOL     OW36862   2.143   4.274   3.768 -0.0801 -0.3517  0.0656
 8410SOL    HW136863   2.113   4.353   3.814 -0.5387 -1.9786  2.5480
 8410SOL    HW236864   2.123   4.209   3.835 -0.2093  0.3830  0.7468
 8411SOL     OW36865   1.344   0.285  10.487  0.4666 -0.0498 -0.0407
 8411SOL    HW136866   1.364   0.232  10.564  2.1478  0.7633  0.0950
 8411SOL    HW236867   1.279   0.223  10.456  1.5588 -1.3134  0.2256
 8412SOL     OW36868   1.018   2.370   7.450  0.1881  0.2083  0.4346
 8412SOL    HW136869   0.997   2.287   7.405 -0.1752  1.3939 -1.5796
 8412SOL    HW236870   0.940   2.379   7.503 -2.6915 -0.8134 -3.5978
 8413SOL     OW36871   2.696   4.336  10.292 -0.1742  0.1521  0.8083
 8413SOL    HW136872   2.652   4.321  10.207 -0.3361 -1.4287  1.1570
 8413SOL    HW236873   2.788   4.323  10.269 -0.2778 -0.0600  0.4942
 8414SOL     OW36874   1.057   1.297  10.907 -0.0932  0.1430 -0.1718
 8414SOL    HW136875   1.087   1.254  10.827 -3.3728 -1.7281 -0.4222
 8414SOL    HW236876   1.003   1.224  10.939  1.2138 -0.2658  1.0750
 8415SOL     OW36877   0.767   2.602   2.372 -0.8760  0.5416 -0.5429
 8415SOL    HW136878   0.748   2.510   2.390 -2.4519  0.8789 -0.4736
 8415SOL    HW236879   0.766   2.639   2.460 -0.8681 -0.3785 -0.1572
 8416SOL     OW36880   0.056   1.169   8.894 -0.4620 -0.1313  0.0838
 8416SOL    HW136881   4.721   1.222   8.879 -0.8782 -0.6676  0.3232
 8416SOL    HW236882   0.111   1.205   8.825  0.6456  0.4964  1.2963
 8417SOL     OW36883   0.508   0.839   0.401  0.0198  0.7680  0.0262
 8417SOL    HW136884   0.564   0.761   0.402  0.9402  1.4262 -0.6379
 8417SOL    HW236885   0.423   0.796   0.387 -0.3043  2.0736 -2.0525
 8418SOL     OW36886   0.733   3.249   1.824 -0.1455 -0.0159  0.1514
 8418SOL    HW136887   0.791   3.291   1.888  1.1680 -2.1560  0.3637
 8418SOL    HW236888   0.728   3.317   1.756  0.5042 -0.0246  0.0919
 8419SOL     OW36889   2.942   3.963   2.019  0.3281 -0.2422  0.0799
 8419SOL    HW136890   3.034   3.941   2.010  0.5850  1.2008 -0.8247
 8419SOL    HW236891   2.919   4.016   1.942  0.8180  0.7780  0.6362
 8420SOL     OW36892   2.562   2.774  14.967  0.3459 -0.3087  0.0210
 8420SOL    HW136893   2.488   2.741  14.916 -1.4917 -0.0002  2.4613
 8420SOL    HW236894   2.568   2.706  15.034  2.0891  0.1015  0.2576
 8421SOL     OW36895   3.878   4.210   7.485 -0.0259  0.0056 -0.1084
 8421SOL    HW136896   3.897   4.195   7.578 -0.7765 -0.1538  0.0206
 8421SOL    HW236897   3.785   4.236   7.487  0.1610  0.5946  1.6907
 8422SOL     OW36898   1.157   4.513   7.180  0.6962  0.8234 -0.1995
 8422SOL    HW136899   1.227   4.461   7.218  1.1340  3.1292  2.1595
 8422SOL    HW236900   1.207   4.578   7.131  0.6034 -1.4041 -3.2253
 8423SOL     OW36901   0.755   2.349  12.800 -0.5704  0.6429 -0.3330
 8423SOL    HW136902   0.717   2.358  12.888  0.5406  1.0897  0.0981
 8423SOL    HW236903   0.770   2.255  12.791  0.7630  0.8534 -0.3907
 8424SOL     OW36904   4.498   1.913  17.130  0.2254  0.0495  0.3699
 8424SOL    HW136905   4.426   1.961  17.090  0.5159 -0.3403 -0.6178
 8424SOL    HW236906   4.517   1.845  17.066 -0.6012 -0.9662  1.2111
 8425SOL     OW36907   0.748   3.198  16.720  0.1110  0.3005 -0.0715
 8425SOL    HW136908   0.836   3.162  16.710  0.1327  0.3138  0.0713
 8425SOL    HW236909   0.772   3.274  16.772  2.3264  0.6035 -1.5012
 8426SOL     OW36910   3.866   1.862   9.945  0.6320  0.0403  0.5923
 8426SOL    HW136911   3.801   1.811   9.993 -0.9603 -1.2403 -2.9956
 8426SOL    HW236912   3.901   1.922  10.012 -0.6483 -2.4404  3.4562
 8427SOL     OW36913   1.827   2.494   7.481  0.2211  0.0438 -0.8410
 8427SOL    HW136914   1.857   2.500   7.572 -2.3564 -1.9370  0.1238
 8427SOL    HW236915   1.876   2.573   7.461  0.9442 -0.0141  0.6408
 8428SOL     OW36916   4.265   1.832   0.710  0.4208  0.2392 -0.0733
 8428SOL    HW136917   4.271   1.840   0.805 -2.4367 -1.8374  0.2849
 8428SOL    HW236918   4.323   1.903   0.681  0.8679 -0.2104 -0.2767
 8429SOL     OW36919   2.758   1.781   3.865 -0.3342 -0.8787 -0.8892
 8429SOL    HW136920   2.783   1.873   3.855  0.2272 -1.1024 -1.5598
 8429SOL    HW236921   2.796   1.749   3.783 -0.4513 -1.3659 -0.7520
 8430SOL     OW36922   2.400   3.890   7.532  0.2424  0.7053 -0.1679
 8430SOL    HW136923   2.366   3.802   7.547  0.3232  0.5915 -0.6345
 8430SOL    HW236924   2.485   3.873   7.571  0.3961 -2.6548 -1.9111
 8431SOL     OW36925   3.443   0.094   6.300  0.3765  0.7114 -0.2149
 8431SOL    HW136926   3.469   0.186   6.308  1.5526  0.3239  0.3801
 8431SOL    HW236927   3.438   0.062   6.390 -1.4279  0.7386 -0.2966
 8432SOL     OW36928   0.200   3.606  10.076 -0.1289 -0.6713  0.3147
 8432SOL    HW136929   0.284   3.609  10.122  0.6540 -1.0975 -1.0934
 8432SOL    HW236930   0.140   3.615  10.149  0.7499  0.7995  0.8505
 8433SOL     OW36931   0.260   3.062   0.942  0.2449  0.2974  0.0147
 8433SOL    HW136932   0.236   3.018   0.860 -1.2896 -0.1641  0.7010
 8433SOL    HW236933   0.196   3.133   0.933  1.0855  0.9949 -0.4213
 8434SOL     OW36934   2.099   0.218   5.632  0.3550  0.0085  0.1784
 8434SOL    HW136935   2.014   0.177   5.651  1.3209 -0.9930  2.3790
 8434SOL    HW236936   2.119   0.180   5.546  1.0311  1.9981 -0.5354
 8435SOL     OW36937   2.513   0.421  17.718 -0.4563  0.0360 -0.2907
 8435SOL    HW136938   2.479   0.334  17.738 -0.9695  0.1399 -0.7361
 8435SOL    HW236939   2.458   0.482  17.766  2.0021  3.2301 -1.5259
 8436SOL     OW36940   3.141   4.514   8.913 -0.7054 -0.5244 -0.2068
 8436SOL    HW136941   3.170   4.557   8.832  0.2762  1.8379  1.3722
 8436SOL    HW236942   3.079   4.452   8.876  0.0497 -0.8791 -0.8973
 8437SOL     OW36943   2.758   3.797   1.657 -0.2320 -0.8623  0.2842
 8437SOL    HW136944   2.744   3.720   1.603 -0.8096 -0.5057 -0.0683
 8437SOL    HW236945   2.845   3.833   1.641 -1.2120  2.0948  1.6176
 8438SOL     OW36946   2.972   2.041  13.215  0.2157 -0.0413 -0.6296
 8438SOL    HW136947   2.915   1.965  13.206  1.9354 -1.1489 -2.2177
 8438SOL    HW236948   3.056   2.001  13.237 -0.1879 -0.9000 -0.6711
 8439SOL     OW36949   3.208   3.888   2.004 -0.0819  0.2054  0.0076
 8439SOL    HW136950   3.239   3.798   1.994 -2.3293 -0.6774  0.9883
 8439SOL    HW236951   3.284   3.944   1.988  1.0471 -1.6543 -0.9902
 8440SOL     OW36952   4.203   3.799   4.413 -0.1271  0.0282  0.1829
 8440SOL    HW136953   4.137   3.850   4.366 -0.7975  0.3171  1.4566
 8440SOL    HW236954   4.177   3.806   4.505  1.1055  1.3699  0.4286
 8441SOL     OW36955   1.994   4.273   4.591 -1.0660 -0.4140  0.1389
 8441SOL    HW136956   2.017   4.219   4.515  0.1283  3.7216 -2.4343
 8441SOL    HW236957   2.072   4.255   4.644 -0.7578 -1.4805 -0.6809
 8442SOL     OW36958   2.588   1.166   3.227  0.0221 -0.1062  0.0410
 8442SOL    HW136959   2.537   1.175   3.147 -0.9658  2.0208  0.9241
 8442SOL    HW236960   2.572   1.252   3.266 -0.7202 -0.2600  0.0625
 8443SOL     OW36961   3.787   2.247   6.761 -0.4453  0.0882 -0.0793
 8443SOL    HW136962   3.732   2.170   6.749 -1.6023  0.6410  1.5952
 8443SOL    HW236963   3.732   2.310   6.713 -1.0333  0.0912  0.5944
 8444SOL     OW36964   4.474   4.143  13.970  0.7352 -0.3623 -0.2201
 8444SOL    HW136965   4.551   4.197  13.991  0.5870 -0.7956  1.4029
 8444SOL    HW236966   4.482   4.115  13.878  1.2564  1.3196 -0.6838
 8445SOL     OW36967   0.112   1.781  11.997 -0.0940  0.5808 -0.1153
 8445SOL    HW136968   0.189   1.753  12.045 -0.7165 -1.5833 -0.3738
 8445SOL    HW236969   0.038   1.774  12.058 -0.7924 -0.8125 -1.1033
 8446SOL     OW36970   1.454   3.863   6.631  0.9120 -0.3426 -0.6031
 8446SOL    HW136971   1.393   3.864   6.557 -2.1652  1.6726  1.9649
 8446SOL    HW236972   1.453   3.769   6.646 -1.7116 -0.3278 -0.8488
 8447SOL     OW36973   0.832   1.053  12.201 -0.1975  0.3913  0.3626
 8447SOL    HW136974   0.781   1.130  12.177 -0.5404 -0.3713 -1.3822
 8447SOL    HW236975   0.849   1.068  12.294 -0.0561 -0.3112  0.4503
 8448SOL     OW36976   4.341   1.952   0.947 -0.0781  0.1670 -0.2255
 8448SOL    HW136977   4.391   1.984   1.022  0.0899  1.3579 -0.8449
 8448SOL    HW236978   4.319   2.038   0.910 -0.4938  0.6516  1.1253
 8449SOL     OW36979   2.666   3.987   2.939 -0.0833 -0.3129  0.0694
 8449SOL    HW136980   2.686   4.002   3.031  1.6780  0.2336 -0.4033
 8449SOL    HW236981   2.706   4.063   2.896  1.1657 -2.6711 -2.9295
 8450SOL     OW36982   3.482   4.410   5.244 -0.1972 -0.0178  0.0714
 8450SOL    HW136983   3.443   4.362   5.317  0.2138 -0.5607 -0.0566
 8450SOL    HW236984   3.416   4.415   5.175 -2.0125 -1.4743  1.7071
 8451SOL     OW36985   4.205   3.087   6.413 -0.1774 -0.3003 -0.4780
 8451SOL    HW136986   4.209   2.997   6.445 -3.3787  0.1014  1.0706
 8451SOL    HW236987   4.297   3.107   6.429 -0.5980  1.2609  0.0323
 8452SOL     OW36988   4.654   0.374  16.134  0.3480  0.0981 -0.2551
 8452SOL    HW136989   4.680   0.283  16.146 -2.2869 -0.5752  0.3170
 8452SOL    HW236990   4.574   0.380  16.187  1.2226  2.0420  0.8476
 8453SOL     OW36991   4.626   0.955   3.224  0.7381 -0.4597 -0.4228
 8453SOL    HW136992   4.602   1.010   3.299 -2.3157  1.0495 -2.5175
 8453SOL    HW236993   4.647   0.872   3.268 -1.0454 -0.7705 -0.1281
 8454SOL     OW36994   2.964   1.194   1.459  0.1890 -0.1329  0.2993
 8454SOL    HW136995   3.016   1.120   1.427 -0.3187  0.0744 -1.0162
 8454SOL    HW236996   2.880   1.189   1.413  1.5853 -1.6770 -2.0635
 8455SOL     OW36997   1.083   0.164   1.806  0.0778  0.2616 -0.2661
 8455SOL    HW136998   1.110   0.178   1.898 -0.4057 -3.6341  0.4652
 8455SOL    HW236999   1.031   0.085   1.818 -0.8340  0.8579 -0.3579
 8456SOL     OW37000   3.247   4.467   7.052 -0.1939 -0.3042  0.0545
 8456SOL    HW137001   3.228   4.520   6.974  1.1519  1.9357  1.2331
 8456SOL    HW237002   3.167   4.487   7.100  1.2591  1.0607  1.9250
 8457SOL     OW37003   2.363   0.198  17.736 -0.3210  0.0906 -0.5000
 8457SOL    HW137004   2.288   0.159  17.692  0.0969 -1.1137 -0.1471
 8457SOL    HW237005   2.424   0.125  17.742  0.4354  0.7724  0.2648
 8458SOL     OW37006   0.385   4.076  14.353  0.1895 -0.0721 -0.7966
 8458SOL    HW137007   0.480   4.090  14.355  0.2790 -0.7227 -0.2756
 8458SOL    HW237008   0.364   4.077  14.260  0.1300 -1.0222 -0.8015
 8459SOL     OW37009   3.283   1.250  16.469  0.0669 -0.2624  0.3259
 8459SOL    HW137010   3.242   1.335  16.487  0.8180  0.7089 -2.4726
 8459SOL    HW237011   3.330   1.283  16.392  0.6376 -1.7181  0.0656
 8460SOL     OW37012   0.380   3.122   1.449 -0.3836  0.3378  0.0795
 8460SOL    HW137013   0.331   3.059   1.502 -1.9531  0.0158 -1.7379
 8460SOL    HW237014   0.372   3.098   1.357 -0.9466 -2.7347  0.9470
 8461SOL     OW37015   0.508   2.221  13.521 -0.0954  0.3841  0.5639
 8461SOL    HW137016   0.473   2.192  13.604 -1.5814 -1.7634 -0.8256
 8461SOL    HW237017   0.463   2.305  13.518  1.3781  1.2078  1.6813
 8462SOL     OW37018   1.108   3.702   8.966  0.1005  0.3136  0.1769
 8462SOL    HW137019   1.159   3.778   8.938  1.9663 -1.4374 -1.2185
 8462SOL    HW237020   1.065   3.677   8.884 -0.2965  1.6632 -0.0160
 8463SOL     OW37021   4.385   2.042   1.838  0.3882  0.1530 -0.2030
 8463SOL    HW137022   4.463   1.988   1.823  0.5125  0.2914 -0.0439
 8463SOL    HW237023   4.366   2.080   1.752 -1.4324  0.7081  0.4420
 8464SOL     OW37024   1.813   2.851   8.239 -0.2295  0.0989 -0.8721
 8464SOL    HW137025   1.823   2.826   8.331 -1.0588 -0.1748 -0.8623
 8464SOL    HW237026   1.760   2.778   8.207  0.8110 -1.4097  0.8670
 8465SOL     OW37027   1.764   1.151  10.160 -0.0672 -0.1069  0.3587
 8465SOL    HW137028   1.767   1.243  10.186  2.4844 -0.6610  2.0400
 8465SOL    HW237029   1.680   1.139  10.115  0.0602 -2.3524  0.7263
 8466SOL     OW37030   1.173   3.185   2.829  0.9321 -0.4733 -0.3302
 8466SOL    HW137031   1.197   3.271   2.794 -0.6842  0.2883  0.4215
 8466SOL    HW237032   1.161   3.212   2.920  3.6276  0.6962 -0.3325
 8467SOL     OW37033   1.414   4.453   3.483 -0.3697 -0.1612 -0.0529
 8467SOL    HW137034   1.465   4.415   3.412 -1.2462 -0.6825 -0.4049
 8467SOL    HW237035   1.341   4.501   3.445  0.2905  0.5939 -0.3691
 8468SOL     OW37036   4.377   1.444   6.620  0.1223 -0.1588 -0.7840
 8468SOL    HW137037   4.332   1.406   6.695 -1.9936  0.3675 -1.7940
 8468SOL    HW237038   4.442   1.503   6.658  0.6230  0.1996 -2.2051
 8469SOL     OW37039   3.327   1.302  17.420 -0.2933 -0.1856 -0.6960
 8469SOL    HW137040   3.314   1.393  17.447 -1.8054  0.0274 -2.1469
 8469SOL    HW237041   3.270   1.288  17.344  0.4194  1.0636 -1.4597
 8470SOL     OW37042   3.031   1.991  15.542 -0.0092  0.0248  0.9208
 8470SOL    HW137043   3.066   1.988  15.631 -1.6101 -1.2768  1.5119
 8470SOL    HW237044   2.984   1.908  15.541  0.3559 -0.1381 -3.1230
 8471SOL     OW37045   0.541   1.162   6.933 -0.0903  0.1647 -0.6262
 8471SOL    HW137046   0.492   1.124   6.860  0.4339 -0.3403 -0.7108
 8471SOL    HW237047   0.583   1.087   6.975  0.8729  1.1360  0.1317
 8472SOL     OW37048   3.934   2.817   2.972  0.0450  0.2086 -0.4407
 8472SOL    HW137049   3.922   2.791   2.881  0.2472 -1.3105 -0.0297
 8472SOL    HW237050   3.869   2.887   2.983 -1.8639 -2.1572  3.1070
 8473SOL     OW37051   1.026   3.646   8.516 -0.2816  0.5426  0.0384
 8473SOL    HW137052   1.052   3.554   8.519 -1.2235  0.2923  0.3774
 8473SOL    HW237053   0.948   3.645   8.571 -1.3063  1.3298 -1.4176
 8474SOL     OW37054   1.946   0.385   1.105  0.1622 -0.1819 -0.2337
 8474SOL    HW137055   1.997   0.381   1.024  2.0043  0.0481  0.9182
 8474SOL    HW237056   2.014   0.389   1.172  0.6490  0.2569 -0.7648
 8475SOL     OW37057   4.581   3.230   2.922  0.2433  0.2856 -0.1629
 8475SOL    HW137058   4.558   3.147   2.881 -0.1932  1.4221 -2.2502
 8475SOL    HW237059   4.667   3.205   2.954  0.6551  1.5979 -0.2437
 8476SOL     OW37060   3.979   0.326   9.599 -0.1304  0.3527  0.0804
 8476SOL    HW137061   4.004   0.287   9.683  1.2597  2.0384  0.4445
 8476SOL    HW237062   4.002   0.258   9.536  1.4617  1.2083 -0.2485
 8477SOL     OW37063   2.425   4.284   1.725  0.2841  0.2754  0.1494
 8477SOL    HW137064   2.439   4.355   1.788 -0.5917 -0.6653  1.3972
 8477SOL    HW237065   2.447   4.214   1.785 -1.4574  0.6643  1.2480
 8478SOL     OW37066   3.559   3.756   6.550  0.3453  0.0751 -0.0985
 8478SOL    HW137067   3.517   3.837   6.523 -2.2710 -2.1546 -2.6449
 8478SOL    HW237068   3.643   3.771   6.507  0.3115 -0.2834 -0.2869
 8479SOL     OW37069   3.946   2.372   8.354 -0.4446 -0.0919 -0.4615
 8479SOL    HW137070   4.035   2.339   8.357 -0.6391 -0.6221 -0.6259
 8479SOL    HW237071   3.903   2.290   8.378 -3.0497  0.4994 -3.1086
 8480SOL     OW37072   3.404   4.401  15.194  0.3554 -0.1030  0.1327
 8480SOL    HW137073   3.427   4.312  15.167  0.3317  0.4339 -1.7068
 8480SOL    HW237074   3.328   4.423  15.139  0.4903  1.0183  0.3917
 8481SOL     OW37075   2.321   3.904  14.971  0.0342  0.1176 -0.0289
 8481SOL    HW137076   2.329   3.985  15.021  2.0881  0.2158 -0.5250
 8481SOL    HW237077   2.226   3.900  14.958  0.4026 -1.7521 -2.0923
 8482SOL     OW37078   0.572   2.985   9.334  0.1068 -0.1904  0.0495
 8482SOL    HW137079   0.541   3.063   9.288  1.5077  0.6216  0.5110
 8482SOL    HW237080   0.625   3.022   9.404  0.4838  2.3433 -1.5988
 8483SOL     OW37081   4.437   0.608   8.973 -0.6354 -1.0325  0.0346
 8483SOL    HW137082   4.350   0.645   8.967  0.1507  0.6662 -0.7614
 8483SOL    HW237083   4.479   0.648   9.050 -0.4030  2.1121 -1.7589
 8484SOL     OW37084   3.530   3.888   2.231  0.4230 -0.3637 -0.5149
 8484SOL    HW137085   3.500   3.840   2.309 -2.7671 -0.7986 -2.0035
 8484SOL    HW237086   3.585   3.951   2.277 -0.7178  1.4619 -1.6447
 8485SOL     OW37087   1.156   1.234   3.190 -0.5371 -0.5536  0.3128
 8485SOL    HW137088   1.214   1.221   3.266  0.0060 -0.5417 -0.0989
 8485SOL    HW237089   1.096   1.161   3.207  1.1324 -1.9562  0.2146
 8486SOL     OW37090   1.122   4.561   5.323 -0.0266 -0.3364 -0.1627
 8486SOL    HW137091   1.098   4.469   5.312  0.3875 -0.6623  1.7419
 8486SOL    HW237092   1.045   4.580   5.377 -0.1644 -2.2558  0.3347
 8487SOL     OW37093   3.883   4.299   5.643 -0.0887 -0.1791  0.6248
 8487SOL    HW137094   3.892   4.218   5.694 -0.7142 -1.8721 -1.9426
 8487SOL    HW237095   3.915   4.367   5.702  3.7537  1.1478 -2.9961
 8488SOL     OW37096   2.766   1.945   0.005 -0.2636  0.7593  0.0649
 8488SOL    HW137097   2.780   1.942  17.682 -2.9513  0.3357 -0.3443
 8488SOL    HW237098   2.768   2.036   0.035 -1.6786  0.2429  1.7577
 8489SOL     OW37099   2.186   0.473   2.459  0.1324 -0.2345 -0.4839
 8489SOL    HW137100   2.127   0.520   2.517  1.0539 -0.4764  0.6380
 8489SOL    HW237101   2.166   0.510   2.373 -1.5164 -0.5790 -0.2417
 8490SOL     OW37102   3.279   2.259  11.243 -0.5553 -0.2253  0.3759
 8490SOL    HW137103   3.345   2.328  11.250  1.3089 -1.9236 -0.3412
 8490SOL    HW237104   3.201   2.296  11.203 -1.0298 -1.3346  0.2772
 8491SOL     OW37105   3.156   0.595  11.931 -0.5056  0.6019  0.5089
 8491SOL    HW137106   3.238   0.638  11.955  0.7620 -1.4018 -0.1624
 8491SOL    HW237107   3.162   0.519  11.990 -1.1211 -0.6411 -1.0429
 8492SOL     OW37108   0.304   2.084  13.086  0.5156  0.9008  0.2058
 8492SOL    HW137109   0.340   2.169  13.061  1.1465  0.6960  0.4089
 8492SOL    HW237110   0.373   2.064  13.150  1.2574 -1.4785 -1.3529
 8493SOL     OW37111   3.499   0.579   2.084 -0.3857 -0.0619 -0.3055
 8493SOL    HW137112   3.526   0.567   2.175  0.6677  3.2272 -0.1843
 8493SOL    HW237113   3.461   0.494   2.060 -1.6677  1.3406 -3.2710
 8494SOL     OW37114   3.564   2.273   5.228 -0.1948 -0.2455 -0.2767
 8494SOL    HW137115   3.517   2.282   5.311 -0.6345  0.1659 -0.5709
 8494SOL    HW237116   3.648   2.235   5.253  0.9486  0.5606 -2.8182
 8495SOL     OW37117   0.205   3.404  10.704 -0.0174 -0.3507  0.0771
 8495SOL    HW137118   0.131   3.356  10.667  0.7961 -1.9528  0.5091
 8495SOL    HW237119   0.270   3.372  10.641  0.7018  0.4492  0.4056
 8496SOL     OW37120   3.188   1.350   0.707  0.2980 -0.3644  0.6469
 8496SOL    HW137121   3.118   1.303   0.662  1.4177 -0.4698 -1.0009
 8496SOL    HW237122   3.228   1.277   0.754  0.6891  0.2222  1.2178
 8497SOL     OW37123   1.112   4.286   5.574 -0.0266  0.6253  0.5052
 8497SOL    HW137124   1.050   4.219   5.547 -0.9001  0.6409  2.4853
 8497SOL    HW237125   1.052   4.355   5.600 -0.8337  0.1515 -0.1001
 8498SOL     OW37126   3.399   2.376   6.576 -0.2390  0.4330 -0.1121
 8498SOL    HW137127   3.346   2.373   6.656 -3.1195  0.0981 -1.9932
 8498SOL    HW237128   3.445   2.292   6.583 -0.9038  0.0369 -0.4424
 8499SOL     OW37129   4.030   2.302   4.386  0.1671  0.4097  0.3614
 8499SOL    HW137130   4.119   2.276   4.407  0.9681  1.2319 -2.0380
 8499SOL    HW237131   4.039   2.327   4.294  0.9913  0.1615  0.3799
 8500SOL     OW37132   0.588   0.402  11.784 -0.5208 -0.1328 -0.1575
 8500SOL    HW137133   0.512   0.438  11.738  0.7956 -0.8447 -2.8849
 8500SOL    HW237134   0.587   0.314  11.747  1.2790 -1.6742  3.4365
 8501SOL     OW37135   4.675   3.515  17.693  0.9188  0.3571 -0.0652
 8501SOL    HW137136   0.002   3.452  17.703  0.9007  0.1326 -1.3106
 8501SOL    HW237137   4.604   3.472  17.645 -0.3134  1.7423  0.5007
 8502SOL     OW37138   0.453   3.331   9.693  0.1126 -0.2031  0.0125
 8502SOL    HW137139   0.370   3.303   9.654  0.5134 -0.2676 -0.8099
 8502SOL    HW237140   0.422   3.389   9.763 -0.8983 -1.6647  0.7734
 8503SOL     OW37141   0.082   0.185   2.738 -0.1138  0.0748 -0.2004
 8503SOL    HW137142   0.135   0.105   2.737 -2.4633 -1.4606 -3.0369
 8503SOL    HW237143   0.145   0.239   2.786  0.1634  0.6850 -1.2443
 8504SOL     OW37144   1.695   3.490   5.679  0.0503 -0.2457 -0.0710
 8504SOL    HW137145   1.761   3.434   5.721 -0.9168 -0.5533  1.0522
 8504SOL    HW237146   1.630   3.422   5.660  0.3400 -0.0196 -1.8018
 8505SOL     OW37147   1.435   0.663  10.709  0.2935  0.5663 -0.4257
 8505SOL    HW137148   1.453   0.614  10.790  1.4038 -0.6719 -1.4114
 8505SOL    HW237149   1.403   0.742  10.752  0.2795  0.5780 -0.4579
 8506SOL     OW37150   0.040   3.000   6.141 -0.3304  0.5697  0.5065
 8506SOL    HW137151   4.717   2.991   6.209 -0.8295 -1.6315 -0.2602
 8506SOL    HW237152   0.034   2.911   6.104  2.0695  0.1960  0.9975
 8507SOL     OW37153   0.724   1.270   8.672  0.1395  0.3163 -0.0820
 8507SOL    HW137154   0.688   1.274   8.760  2.7086 -0.1686  0.9816
 8507SOL    HW237155   0.719   1.176   8.652 -1.8523  0.3714  0.1810
 8508SOL     OW37156   1.333   3.074  16.803 -0.1219  0.1615 -0.0818
 8508SOL    HW137157   1.264   3.055  16.867 -0.9804  1.5391 -0.6010
 8508SOL    HW237158   1.285   3.134  16.747 -1.4735 -1.2339 -0.3995
 8509SOL     OW37159   2.340   1.848  12.644 -0.7122  0.0788  0.2944
 8509SOL    HW137160   2.260   1.852  12.591  0.4445  0.5432 -1.4169
 8509SOL    HW237161   2.337   1.924  12.701  0.1709 -0.0549  0.5186
 8510SOL     OW37162   1.095   0.148   7.576 -0.3571 -0.0832 -0.6869
 8510SOL    HW137163   1.127   0.156   7.666  0.7650 -0.2030 -1.0725
 8510SOL    HW237164   1.134   0.064   7.550  1.4571 -0.2707  2.6201
 8511SOL     OW37165   1.924   1.929   5.596  0.3740  0.2375  0.3019
 8511SOL    HW137166   2.018   1.920   5.608  0.4266  1.0036  0.4755
 8511SOL    HW237167   1.894   1.974   5.675  0.3679  1.4051 -0.3595
 8512SOL     OW37168   1.212   2.991   5.448  0.6539  0.0928  0.0189
 8512SOL    HW137169   1.271   2.916   5.449 -0.6096 -0.9090 -0.6375
 8512SOL    HW237170   1.145   2.966   5.385  1.6490 -0.6187 -0.7583
 8513SOL     OW37171   0.650   2.494  11.156 -0.5705  0.8169 -0.1940
 8513SOL    HW137172   0.684   2.556  11.092  0.0924  0.3354 -0.3000
 8513SOL    HW237173   0.634   2.420  11.098 -0.7118  1.3780 -0.8689
 8514SOL     OW37174   4.343   3.374   2.954  0.1511  0.5603 -0.7441
 8514SOL    HW137175   4.318   3.450   2.901 -0.1232  0.7411 -0.3537
 8514SOL    HW237176   4.421   3.401   3.002  0.9080 -0.8792 -1.1756
 8515SOL     OW37177   4.258   1.132   3.593  0.2075 -0.4436 -0.0361
 8515SOL    HW137178   4.342   1.086   3.601  1.4692  1.7006 -0.8938
 8515SOL    HW237179   4.271   1.205   3.653  0.9466 -2.0014  1.6791
 8516SOL     OW37180   3.433   1.409   6.806 -0.8642 -0.5363 -0.2207
 8516SOL    HW137181   3.447   1.486   6.861 -2.1561 -2.3036  2.6122
 8516SOL    HW237182   3.360   1.374   6.857 -1.5936 -0.1407 -0.9930
 8517SOL     OW37183   1.649   1.510   6.169  0.2302  0.9280 -0.0513
 8517SOL    HW137184   1.720   1.488   6.229 -0.3103 -1.0037 -0.1084
 8517SOL    HW237185   1.686   1.458   6.098 -2.5639 -0.3226 -0.6147
 8518SOL     OW37186   4.490   0.148  12.086  0.0168  0.0492 -0.4999
 8518SOL    HW137187   4.551   0.120  12.018  1.6201 -0.1560  1.0273
 8518SOL    HW237188   4.485   0.242  12.068 -0.6409 -0.0907 -1.0282
 8519SOL     OW37189   1.520   2.671   7.053  0.0590  0.4828  0.2777
 8519SOL    HW137190   1.448   2.626   7.098  0.7072 -0.6318  0.1947
 8519SOL    HW237191   1.490   2.654   6.964  2.8589  1.2708 -0.7994
 8520SOL     OW37192   2.830   0.965  17.714 -0.3109 -0.0728 -0.0662
 8520SOL    HW137193   2.807   1.004  17.630 -2.4778  0.5349  0.7935
 8520SOL    HW237194   2.892   1.025  17.755  0.7734 -0.9343 -0.4694
 8521SOL     OW37195   0.492   0.881   4.877 -0.3516  0.5408  0.6904
 8521SOL    HW137196   0.559   0.932   4.924  1.1535 -0.0953 -0.7669
 8521SOL    HW237197   0.421   0.942   4.858 -0.3138  0.4371  0.2287
 8522SOL     OW37198   0.584   0.839   9.474  0.0761 -0.6139  0.1876
 8522SOL    HW137199   0.580   0.818   9.380 -2.1975  1.3930 -0.1805
 8522SOL    HW237200   0.616   0.930   9.469  0.0120 -0.6947 -1.9273
 8523SOL     OW37201   1.875   0.280   9.524  0.3269 -0.4641  0.3663
 8523SOL    HW137202   1.902   0.316   9.609 -0.2064 -0.4052  0.5090
 8523SOL    HW237203   1.874   0.369   9.489 -0.4806  0.0072  1.5805
 8524SOL     OW37204   1.813   3.598   7.914  0.0447  0.2996  0.3858
 8524SOL    HW137205   1.827   3.604   7.820  2.0467 -2.2298  0.5358
 8524SOL    HW237206   1.723   3.567   7.916  0.2029 -0.1613  0.2412
 8525SOL     OW37207   0.113   0.872  12.499 -0.1832  0.1027  0.9014
 8525SOL    HW137208   0.137   0.948  12.446 -2.3086 -1.8402 -2.8252
 8525SOL    HW237209   0.088   0.824  12.421  1.9416  1.3807 -0.5915
 8526SOL     OW37210   0.089   1.501  15.766  0.1303 -0.1518 -0.4525
 8526SOL    HW137211   0.110   1.449  15.688  0.6813  2.3586 -1.9686
 8526SOL    HW237212   0.096   1.582  15.716 -1.4974  0.0916 -0.2622
 8527SOL     OW37213   1.748   1.371   7.941 -0.5577  0.4269 -0.2285
 8527SOL    HW137214   1.659   1.406   7.933 -0.1040  1.3143 -1.2282
 8527SOL    HW237215   1.730   1.305   8.008  2.5052 -0.5475 -0.3526
 8528SOL     OW37216   3.820   3.642   3.478  0.0173  0.5084  0.4644
 8528SOL    HW137217   3.890   3.581   3.503  0.1556  0.4633 -0.0133
 8528SOL    HW237218   3.841   3.657   3.385  4.1134 -3.7481  0.6799
 8529SOL     OW37219   4.195   2.346   5.652 -0.0267  0.1066 -0.1949
 8529SOL    HW137220   4.274   2.313   5.610 -0.1705  1.6469 -1.6509
 8529SOL    HW237221   4.220   2.432   5.683  3.0557 -0.9131  0.1514
 8530SOL     OW37222   4.148   4.253   2.160  0.1104  0.1202 -0.0073
 8530SOL    HW137223   4.178   4.187   2.223 -0.9736  0.0933  0.4714
 8530SOL    HW237224   4.193   4.225   2.080 -1.4681 -0.6315 -0.6111
 8531SOL     OW37225   1.441   2.148   2.790 -0.3235  0.1057  0.2352
 8531SOL    HW137226   1.514   2.088   2.804  1.4010  1.6181 -2.0975
 8531SOL    HW237227   1.421   2.115   2.702  0.0056  0.8787 -0.1357
 8532SOL     OW37228   0.970   0.473   3.808 -0.4895 -0.6516  0.2647
 8532SOL    HW137229   0.922   0.405   3.761 -1.2253 -1.1321  1.7273
 8532SOL    HW237230   0.935   0.551   3.766 -0.7978 -1.0049 -0.1355
 8533SOL     OW37231   4.251   4.129   5.490  0.2598  0.6971 -0.8206
 8533SOL    HW137232   4.285   4.173   5.568  1.0200 -1.2687 -0.0528
 8533SOL    HW237233   4.210   4.053   5.531  0.8925  0.1820 -1.1527
 8534SOL     OW37234   3.313   2.710   5.970 -0.3957  0.5687  0.7252
 8534SOL    HW137235   3.287   2.643   5.907 -1.5300 -0.2499  2.0828
 8534SOL    HW237236   3.403   2.680   5.984  0.6483  2.1122 -2.6501
 8535SOL     OW37237   1.122   1.729   4.354 -0.0577 -0.1484  0.6518
 8535SOL    HW137238   1.033   1.749   4.326  0.1893 -2.6030 -1.8601
 8535SOL    HW237239   1.166   1.765   4.277  0.6132  1.8484  1.9823
 8536SOL     OW37240   4.073   1.067   3.843  0.1589  0.4066 -0.5767
 8536SOL    HW137241   4.080   1.005   3.770 -1.0590  0.2946 -0.6006
 8536SOL    HW237242   3.979   1.085   3.850  0.2272  1.3741 -2.0582
 8537SOL     OW37243   3.652   3.237   4.622  0.1943 -0.2392 -0.0728
 8537SOL    HW137244   3.580   3.178   4.647  0.6868 -0.6023  0.4945
 8537SOL    HW237245   3.629   3.250   4.530  0.4239  1.4336  0.1067
 8538SOL     OW37246   3.013   1.625   0.110  0.2143 -0.2322  0.2045
 8538SOL    HW137247   2.931   1.575   0.113 -0.2754  0.5795  0.5037
 8538SOL    HW237248   3.054   1.598   0.028 -0.2264  0.9117 -0.3814
 8539SOL     OW37249   3.700   3.871  14.830  0.9085 -0.2892  0.0191
 8539SOL    HW137250   3.680   3.821  14.751 -0.3646  0.7594 -0.3226
 8539SOL    HW237251   3.692   3.807  14.900  0.5338  1.0105  1.1555
 8540SOL     OW37252   3.315   3.559   3.042  0.0952  0.3244 -0.2935
 8540SOL    HW137253   3.339   3.608   3.120 -0.5904 -1.9196  1.3247
 8540SOL    HW237254   3.359   3.477   3.063  1.5921  1.6757  1.9183
 8541SOL     OW37255   1.847   2.589   9.954 -0.2684 -0.0630  0.1323
 8541SOL    HW137256   1.854   2.637   9.872  1.8901  0.0803  0.4232
 8541SOL    HW237257   1.937   2.598   9.985 -0.6199  0.4066  1.0279
 8542SOL     OW37258   3.457   2.028  12.716 -0.0544  0.3629  0.5737
 8542SOL    HW137259   3.385   2.087  12.736  0.2073  0.3186  1.6573
 8542SOL    HW237260   3.522   2.069  12.773  2.0490  2.0583 -3.0835
 8543SOL     OW37261   0.922   2.408  14.478 -0.4368 -0.0798  0.1838
 8543SOL    HW137262   0.859   2.447  14.417  0.9406 -1.2761 -2.0225
 8543SOL    HW237263   0.981   2.482  14.493  0.4448 -0.4317 -1.4943
 8544SOL     OW37264   1.245   1.874   5.278 -0.2419 -0.1390  0.1309
 8544SOL    HW137265   1.215   1.961   5.254  1.3222  0.0311 -1.1721
 8544SOL    HW237266   1.327   1.861   5.230 -0.3857 -1.7570  0.3047
 8545SOL     OW37267   1.959   1.899  11.266 -0.1829 -0.0419 -0.2132
 8545SOL    HW137268   1.889   1.858  11.216 -0.1368  0.1687 -0.4455
 8545SOL    HW237269   2.035   1.865  11.219 -0.0143  1.7011 -1.1735
 8546SOL     OW37270   4.349   3.699   5.189 -0.4761 -0.0921  0.3645
 8546SOL    HW137271   4.324   3.692   5.282 -2.2868 -1.2680 -0.2022
 8546SOL    HW237272   4.444   3.686   5.191 -0.1341  2.4574 -0.1453
 8547SOL     OW37273   4.179   4.222  11.243 -0.2050  0.0724  0.0405
 8547SOL    HW137274   4.200   4.221  11.336  0.9636 -2.0737 -0.2448
 8547SOL    HW237275   4.145   4.311  11.245 -2.4549 -0.7120 -3.6962
 8548SOL     OW37276   4.493   1.476   7.788 -0.4697  0.0542 -0.1117
 8548SOL    HW137277   4.490   1.567   7.817  0.5920 -0.2405  0.9790
 8548SOL    HW237278   4.503   1.482   7.693 -0.8520  1.2761 -0.0663
 8549SOL     OW37279   0.725   0.590   4.493  0.0655  0.2652 -0.2052
 8549SOL    HW137280   0.819   0.573   4.482 -0.1855 -1.0454 -0.3662
 8549SOL    HW237281   0.686   0.594   4.406  2.1316 -1.7609 -1.2524
 8550SOL     OW37282   1.395   1.331   9.717  0.1523  0.1291  0.2131
 8550SOL    HW137283   1.340   1.256   9.740  1.1020 -0.3591  0.8699
 8550SOL    HW237284   1.440   1.293   9.642  2.4127 -0.2429  1.7491
 8551SOL     OW37285   1.778   0.868   7.099 -0.0776 -0.0702  0.0661
 8551SOL    HW137286   1.804   0.791   7.049  0.4181  1.4051 -1.9583
 8551SOL    HW237287   1.695   0.876   7.051 -0.4359  1.4525  0.9625
 8552SOL     OW37288   4.274   0.638   5.110 -0.3486  0.2926 -0.0345
 8552SOL    HW137289   4.254   0.633   5.017  1.3547  1.5148 -0.4548
 8552SOL    HW237290   4.185   0.629   5.146 -0.8099  0.8443 -1.0428
 8553SOL     OW37291   1.832   1.577   8.741 -0.1037  0.6551 -0.0090
 8553SOL    HW137292   1.925   1.575   8.720 -0.3636 -0.9129 -1.0774
 8553SOL    HW237293   1.787   1.584   8.656  0.5053  1.2559 -0.2773
 8554SOL     OW37294   1.146   2.882   5.752 -0.1741 -0.1119 -0.3278
 8554SOL    HW137295   1.106   2.961   5.715  1.4613  0.5751 -0.5912
 8554SOL    HW237296   1.108   2.817   5.691  0.1438 -0.8065  0.2133
 8555SOL     OW37297   2.150   1.644   7.481 -0.3811 -0.1610  0.1531
 8555SOL    HW137298   2.107   1.694   7.412  0.6299  1.7403  0.9220
 8555SOL    HW237299   2.123   1.556   7.455 -0.1960 -0.0811 -0.3003
 8556SOL     OW37300   1.625   0.690   8.488  0.6363  0.4691 -0.0947
 8556SOL    HW137301   1.649   0.750   8.558  0.5871 -0.0421  0.3633
 8556SOL    HW237302   1.550   0.736   8.451  1.2384  0.9240 -0.7335
 8557SOL     OW37303   4.188   2.871   8.008 -0.1098  0.1853  0.2040
 8557SOL    HW137304   4.242   2.901   7.935 -0.6542 -2.9952 -1.4783
 8557SOL    HW237305   4.133   2.804   7.968  0.6021 -1.0281  1.2534
 8558SOL     OW37306   2.191   2.640   7.486  0.0144 -0.1075 -0.3252
 8558SOL    HW137307   2.229   2.596   7.563 -0.3843  0.7953  0.3965
 8558SOL    HW237308   2.268   2.656   7.432  0.4884 -1.5109 -0.0725
 8559SOL     OW37309   3.166   2.107   1.615  0.4053  0.2169  0.1504
 8559SOL    HW137310   3.200   2.159   1.542  0.2213  2.0490  1.3540
 8559SOL    HW237311   3.233   2.116   1.683 -1.2753  2.7692  1.4696
 8560SOL     OW37312   3.600   3.524   9.360  0.0889 -0.7430 -0.0371
 8560SOL    HW137313   3.521   3.575   9.342  1.1450 -0.2201 -3.1889
 8560SOL    HW237314   3.609   3.479   9.277  1.3800 -0.7299  0.0976
 8561SOL     OW37315   3.424   1.820   5.920 -0.4589 -0.1007 -0.0875
 8561SOL    HW137316   3.363   1.894   5.920 -0.7359 -0.3317  1.1379
 8561SOL    HW237317   3.372   1.758   5.972  0.1753 -0.8880 -0.4084
 8562SOL     OW37318   0.039   3.842   6.493 -0.1800  0.2396 -0.0169
 8562SOL    HW137319   0.056   3.936   6.496 -0.8694  0.3376  0.8686
 8562SOL    HW237320   0.116   3.801   6.530  0.3957  0.5735 -0.8445
 8563SOL     OW37321   0.810   4.471  12.505 -0.2027 -0.2971 -0.3463
 8563SOL    HW137322   0.774   4.448  12.591  1.0175  1.4730  0.6304
 8563SOL    HW237323   0.864   4.394  12.487  1.2107  0.5235  0.3965
 8564SOL     OW37324   2.231   3.351  13.336 -0.3410  0.3050 -0.0874
 8564SOL    HW137325   2.153   3.370  13.389 -2.3660 -0.6112 -2.7711
 8564SOL    HW237326   2.196   3.284  13.277  1.4425 -0.8043  0.1285
 8565SOL     OW37327   1.156   3.752  17.284 -0.0053 -0.8941  0.6007
 8565SOL    HW137328   1.094   3.819  17.315  2.3696  1.2249  0.7861
 8565SOL    HW237329   1.101   3.708  17.218  0.0682 -1.1084  0.6847
 8566SOL     OW37330   0.301   2.874   6.016 -0.1052 -0.1237 -0.3277
 8566SOL    HW137331   0.370   2.831   6.067 -0.7361  0.0762  0.6790
 8566SOL    HW237332   0.363   2.932   5.971  0.5471 -0.6809 -0.1531
 8567SOL     OW37333   1.636   2.188   4.174  0.0564  0.0455  1.3779
 8567SOL    HW137334   1.558   2.152   4.216 -0.1239 -2.8724 -1.4202
 8567SOL    HW237335   1.603   2.211   4.087  1.1961 -2.3169  0.3216
 8568SOL     OW37336   3.092   1.787   9.065  0.0714  0.1207  0.2408
 8568SOL    HW137337   3.070   1.695   9.080  1.6896 -0.4976 -1.1527
 8568SOL    HW237338   3.187   1.779   9.067  0.0517 -0.6238 -1.7007
 8569SOL     OW37339   0.894   4.676   4.611 -0.5256 -0.1549 -0.2384
 8569SOL    HW137340   0.919   0.004   4.670 -0.5767  0.5433 -1.0737
 8569SOL    HW237341   0.975   4.626   4.606 -1.6332 -2.2228  2.4269
 8570SOL     OW37342   0.997   1.504   4.804 -0.0490  0.1197 -0.1609
 8570SOL    HW137343   1.051   1.530   4.729 -0.4589  0.1021 -0.4681
 8570SOL    HW237344   1.022   1.413   4.819 -0.3782 -0.0576 -0.6760
 8571SOL     OW37345   4.214   3.594   1.710  0.1488  0.1647  0.3012
 8571SOL    HW137346   4.201   3.536   1.635  2.6739  0.0447 -0.0259
 8571SOL    HW237347   4.293   3.643   1.692 -0.5680  1.4742  0.7334
 8572SOL     OW37348   2.210   2.705   8.751  0.6009  0.3374 -0.1108
 8572SOL    HW137349   2.140   2.751   8.706  1.2481 -1.2564 -2.7590
 8572SOL    HW237350   2.252   2.779   8.794  0.0849 -0.6934  2.1568
 8573SOL     OW37351   0.734   3.992   1.612 -0.3831 -0.2804  0.4003
 8573SOL    HW137352   0.759   4.059   1.548  2.2906  0.0861  1.8557
 8573SOL    HW237353   0.698   3.922   1.556  0.5565 -0.3261 -0.1467
 8574SOL     OW37354   1.193   2.230   5.150  0.3998 -0.3320 -0.1301
 8574SOL    HW137355   1.203   2.323   5.174 -0.6135  0.0351 -1.1514
 8574SOL    HW237356   1.110   2.212   5.195 -0.6096  0.6402 -1.6227
 8575SOL     OW37357   2.076   4.415   4.225 -0.2757 -0.3260  0.0951
 8575SOL    HW137358   2.082   4.351   4.154 -0.3983 -1.3414  0.9952
 8575SOL    HW237359   1.994   4.451   4.191  0.4939 -0.4905 -1.9144
 8576SOL     OW37360   2.019   1.381   2.623 -0.2779  0.0705  0.2840
 8576SOL    HW137361   2.099   1.362   2.575  1.9874  1.4978  3.5444
 8576SOL    HW237362   2.001   1.468   2.587 -1.8683  0.1484  1.2229
 8577SOL     OW37363   3.706   3.049   8.556  0.0332  0.2367 -0.1607
 8577SOL    HW137364   3.752   3.089   8.630  0.2575 -0.2095 -0.0568
 8577SOL    HW237365   3.704   3.120   8.492 -0.3682 -0.2786 -0.7234
 8578SOL     OW37366   4.029   4.083   9.622  0.0700 -0.0758  0.7645
 8578SOL    HW137367   4.078   4.156   9.585 -0.4278 -0.0346  0.1901
 8578SOL    HW237368   3.945   4.109   9.583 -0.1786  0.8957  1.9445
 8579SOL     OW37369   3.313   3.433  13.678  0.2609  0.4852 -0.1840
 8579SOL    HW137370   3.235   3.427  13.732 -0.9266  0.2150 -1.9360
 8579SOL    HW237371   3.273   3.431  13.591  1.0613  2.3767 -0.5825
 8580SOL     OW37372   3.244   0.132  15.168 -0.0467  0.9228  0.8179
 8580SOL    HW137373   3.232   0.224  15.194  4.3082  1.6403  0.4040
 8580SOL    HW237374   3.163   0.118  15.120 -0.2376  0.4094  1.2858
 8581SOL     OW37375   0.584   4.294   9.897  0.1636 -0.1339 -0.0970
 8581SOL    HW137376   0.631   4.296   9.980 -0.3405 -1.1329  0.2037
 8581SOL    HW237377   0.517   4.363   9.899 -0.8067 -0.9933 -1.9974
 8582SOL     OW37378   0.876   4.395  13.135 -0.0343 -0.0636  0.3474
 8582SOL    HW137379   0.886   4.305  13.105 -1.5770 -0.3045  0.5359
 8582SOL    HW237380   0.787   4.413  13.103 -0.8847 -1.5951  1.8145
 8583SOL     OW37381   4.147   2.742   4.998 -0.0389 -0.3799 -0.1563
 8583SOL    HW137382   4.063   2.775   4.966  0.3062 -1.5067 -2.2483
 8583SOL    HW237383   4.187   2.811   5.051  0.8009 -1.1029  0.1653
 8584SOL     OW37384   2.306   2.402   9.318 -0.1271  0.4271 -0.2035
 8584SOL    HW137385   2.339   2.330   9.263  0.8708  0.2810  0.5670
 8584SOL    HW237386   2.235   2.360   9.367  1.1291 -0.1509  1.1339
 8585SOL     OW37387   2.807   1.655   7.220  0.0386 -1.2663  0.4480
 8585SOL    HW137388   2.808   1.712   7.143  1.6629 -0.7038  0.8855
 8585SOL    HW237389   2.843   1.575   7.183  0.2139 -0.6217 -0.7602
 8586SOL     OW37390   0.671   3.808   1.422 -0.0250  0.4267 -0.5729
 8586SOL    HW137391   0.715   3.767   1.348  1.0204 -0.1562  0.3821
 8586SOL    HW237392   0.625   3.735   1.464  1.1689 -0.0162 -0.0377
 8587SOL     OW37393   2.187   3.015   3.111 -0.4331 -0.0527 -0.1414
 8587SOL    HW137394   2.269   3.015   3.061 -1.5919 -1.9852 -2.0567
 8587SOL    HW237395   2.145   3.097   3.084  1.0257  1.7053  2.9462
 8588SOL     OW37396   1.263   0.848  15.401 -0.0173  0.7251 -0.3866
 8588SOL    HW137397   1.202   0.792  15.448 -0.1380  1.3033  0.1379
 8588SOL    HW237398   1.227   0.926  15.443 -0.6818 -0.2040  0.7651
 8589SOL     OW37399   3.711   1.755   4.300 -0.1133  0.2932  0.3263
 8589SOL    HW137400   3.737   1.680   4.353  0.3788  0.2339 -0.0037
 8589SOL    HW237401   3.775   1.820   4.329  0.8275  0.2791 -1.7225
 8590SOL     OW37402   2.997   3.455   4.857  0.4596  0.1583  0.3134
 8590SOL    HW137403   3.086   3.427   4.880  1.3584  2.1246 -0.8553
 8590SOL    HW237404   2.950   3.371   4.861  0.6102  0.0508 -0.2830
 8591SOL     OW37405   1.865   1.923   8.220 -0.3534 -0.2288 -0.2666
 8591SOL    HW137406   1.851   1.830   8.237  1.3321 -0.8652 -2.3139
 8591SOL    HW237407   1.913   1.957   8.295  0.3323 -1.3036 -0.2082
 8592SOL     OW37408   4.558   0.848  12.153  0.0399 -0.1881 -0.3381
 8592SOL    HW137409   4.479   0.816  12.197  0.7179 -0.0060  1.0171
 8592SOL    HW237410   4.547   0.942  12.141 -1.2713 -0.1565  1.1828
 8593SOL     OW37411   1.795   2.674   6.257 -0.8296  0.0008  0.5649
 8593SOL    HW137412   1.734   2.706   6.191 -2.2342 -1.1611  1.2974
 8593SOL    HW237413   1.869   2.734   6.249  0.0399 -1.0805  0.4475
 8594SOL     OW37414   3.946   0.368   2.743  0.0643 -0.3850  0.3072
 8594SOL    HW137415   3.990   0.292   2.705  1.9645  1.5097 -1.2524
 8594SOL    HW237416   3.863   0.378   2.697  0.6504 -1.7330 -1.0448
 8595SOL     OW37417   1.552   2.234   8.843 -0.6226  0.7008 -0.0745
 8595SOL    HW137418   1.546   2.199   8.932  0.8879 -0.0621 -0.2875
 8595SOL    HW237419   1.470   2.200   8.806 -0.2432 -0.6129  0.2885
 8596SOL     OW37420   1.673   2.861  10.095  0.2276 -0.0509 -0.1529
 8596SOL    HW137421   1.689   2.917  10.019 -0.1705 -1.3062 -1.1576
 8596SOL    HW237422   1.763   2.864  10.127 -0.2188 -0.0990  1.1025
 8597SOL     OW37423   1.347   0.048   1.332  0.6707 -0.3706  0.3273
 8597SOL    HW137424   1.271   0.106   1.321  0.6818 -0.4300 -0.0421
 8597SOL    HW237425   1.427   0.095   1.309  0.6430 -1.4565 -1.9812
 8598SOL     OW37426   0.862   1.502  10.991  0.5538 -0.0915 -0.5600
 8598SOL    HW137427   0.889   1.421  10.948  1.2189  0.3640 -0.9926
 8598SOL    HW237428   0.839   1.555  10.915 -1.0577 -1.2753 -0.9032
 8599SOL     OW37429   0.148   1.151   1.533 -0.5950  0.0552 -0.2691
 8599SOL    HW137430   0.199   1.126   1.456 -1.8727 -1.1979 -0.7159
 8599SOL    HW237431   0.063   1.165   1.490 -1.9315 -1.3268  1.9106
 8600SOL     OW37432   3.602   4.165   2.346 -0.2606  0.4802  0.6757
 8600SOL    HW137433   3.601   4.234   2.280  1.7090 -1.5427 -1.5242
 8600SOL    HW237434   3.560   4.213   2.417 -1.5989  0.2897  0.0169
 8601SOL     OW37435   1.161   2.378  11.231 -0.1444 -0.3180 -0.3144
 8601SOL    HW137436   1.122   2.349  11.314 -1.3356 -2.1735 -1.5145
 8601SOL    HW237437   1.250   2.374  11.268 -0.8317  2.2670  1.5661
 8602SOL     OW37438   2.951   2.233   5.679 -0.2292 -0.6861 -0.2867
 8602SOL    HW137439   2.959   2.182   5.759 -0.3838 -0.2545  0.0085
 8602SOL    HW237440   2.869   2.277   5.702  1.3435  0.0750  3.8074
 8603SOL     OW37441   4.219   1.304   4.919  0.4355 -0.0449  0.3604
 8603SOL    HW137442   4.211   1.217   4.879 -0.5141  0.3390 -0.2743
 8603SOL    HW237443   4.150   1.298   4.985  0.4896  0.8368  0.4911
 8604SOL     OW37444   0.473   2.426   6.405  0.3360  0.2905  1.0003
 8604SOL    HW137445   0.458   2.520   6.413 -1.0983  0.1243  0.2471
 8604SOL    HW237446   0.383   2.401   6.383 -0.4542  1.1127  3.3246
 8605SOL     OW37447   4.451   0.593   1.050  0.1532 -0.4054  0.7306
 8605SOL    HW137448   4.493   0.525   0.996 -0.2909  2.1127 -2.8105
 8605SOL    HW237449   4.450   0.546   1.133  1.8385  0.3302  1.1726
 8606SOL     OW37450   2.084   1.249   3.309  0.4527  0.4289 -0.7336
 8606SOL    HW137451   2.138   1.278   3.382 -0.2988  0.5849 -0.2529
 8606SOL    HW237452   2.087   1.154   3.318  0.8310  0.3077 -2.0977
 8607SOL     OW37453   4.306   2.967   3.982  0.5742 -0.0043  0.0542
 8607SOL    HW137454   4.263   2.884   3.962  0.2192  0.1674  0.1124
 8607SOL    HW237455   4.267   2.992   4.065  0.2370 -0.9607  0.1734
 8608SOL     OW37456   3.628   2.793   1.337  0.0334  0.4826  0.3562
 8608SOL    HW137457   3.641   2.755   1.424 -0.9816  0.5316  0.5243
 8608SOL    HW237458   3.714   2.835   1.338 -0.0417  0.6866 -2.4043
 8609SOL     OW37459   3.890   0.764  12.386  0.2924  0.0837  0.4144
 8609SOL    HW137460   3.893   0.735  12.295  0.6286 -1.1520  0.8105
 8609SOL    HW237461   3.932   0.850  12.382  3.0297 -1.2652 -0.3138
 8610SOL     OW37462   0.280   0.257  11.544 -0.7925 -0.1971 -0.4359
 8610SOL    HW137463   0.294   0.329  11.483 -0.5047 -1.4633 -1.8639
 8610SOL    HW237464   0.215   0.301  11.599 -0.1130 -0.8921  0.9194
 8611SOL     OW37465   1.644   1.341   1.884  0.2964  0.0991  0.1647
 8611SOL    HW137466   1.569   1.398   1.867 -0.6880 -1.2502 -0.0323
 8611SOL    HW237467   1.715   1.360   1.823 -0.6439  0.6956 -0.7426
 8612SOL     OW37468   3.498   3.416  15.314  0.1023 -0.0115  0.5597
 8612SOL    HW137469   3.464   3.334  15.279  0.1356 -0.8814  2.5433
 8612SOL    HW237470   3.420   3.470  15.298 -1.0751 -1.9783 -0.3026
 8613SOL     OW37471   1.262   3.597  10.915 -0.5063 -0.0112 -0.2851
 8613SOL    HW137472   1.193   3.590  10.981 -1.9091  1.1113 -1.6405
 8613SOL    HW237473   1.336   3.612  10.975 -0.8709  0.6094  0.0199
 8614SOL     OW37474   0.052   1.389   6.766  0.2564 -0.4196 -0.1887
 8614SOL    HW137475   0.074   1.338   6.845 -1.0893  0.9822  1.0978
 8614SOL    HW237476   0.140   1.395   6.729  1.0619  1.4315  2.0167
 8615SOL     OW37477   0.585   0.371   4.937 -0.0375 -0.3791 -0.2448
 8615SOL    HW137478   0.498   0.347   4.905  0.4594 -1.6841 -0.6030
 8615SOL    HW237479   0.620   0.282   4.939 -0.9280 -0.6124  4.6464
 8616SOL     OW37480   4.248   1.958   2.795 -0.0534 -0.6606  0.4755
 8616SOL    HW137481   4.155   1.961   2.817 -0.3218 -3.9255 -0.2188
 8616SOL    HW237482   4.278   2.036   2.842 -1.5419  0.2105 -0.0273
 8617SOL     OW37483   1.108   2.447  10.151 -0.4691  0.3438  0.0540
 8617SOL    HW137484   1.131   2.389  10.078  0.8938  0.4558  0.3939
 8617SOL    HW237485   1.195   2.475  10.181 -0.5128 -0.6729  1.1396
 8618SOL     OW37486   2.834   3.369   7.914 -0.3243 -0.1088  0.5985
 8618SOL    HW137487   2.838   3.304   7.984 -1.6429  1.3253  2.0064
 8618SOL    HW237488   2.749   3.342   7.877  0.4715 -3.1675  0.9971
 8619SOL     OW37489   0.194   2.737   2.473  0.1924 -0.3643  0.0328
 8619SOL    HW137490   0.248   2.687   2.411  0.4450  1.6622 -1.3620
 8619SOL    HW237491   0.202   2.822   2.431  0.4577 -0.4086 -0.0116
 8620SOL     OW37492   3.586   2.650   6.006 -0.5318  0.1542  0.6285
 8620SOL    HW137493   3.625   2.581   5.952  0.0020  1.4273 -0.5989
 8620SOL    HW237494   3.642   2.721   5.974 -2.3358 -0.1209 -3.1852
 8621SOL     OW37495   2.780   0.298   0.875 -0.3651  0.0719 -0.7158
 8621SOL    HW137496   2.803   0.300   0.782 -0.0038 -1.2487 -0.6450
 8621SOL    HW237497   2.713   0.366   0.878 -0.5916 -0.1636 -0.4200
 8622SOL     OW37498   3.687   2.684   8.328 -0.3840 -0.3262  0.4398
 8622SOL    HW137499   3.736   2.678   8.410 -0.1266 -0.1519  0.2975
 8622SOL    HW237500   3.726   2.762   8.289  0.8403 -1.5649 -0.8034
 8623SOL     OW37501   2.346   2.029  16.967 -0.0572 -0.4990 -0.0868
 8623SOL    HW137502   2.256   2.039  16.998  0.8500 -0.1068  2.4835
 8623SOL    HW237503   2.373   2.119  16.947 -1.0440  0.1847  1.5793
 8624SOL     OW37504   3.165   1.314   8.798 -0.2122  0.2602  0.4476
 8624SOL    HW137505   3.254   1.347   8.786  0.0009 -0.0199  1.2796
 8624SOL    HW237506   3.144   1.298   8.706  1.9796 -0.0845  0.0109
 8625SOL     OW37507   4.177   2.994   0.524 -0.1277 -0.1498 -0.0599
 8625SOL    HW137508   4.214   2.934   0.459 -0.1765 -0.2563  0.0115
 8625SOL    HW237509   4.243   2.979   0.592 -0.6643 -1.7596  0.0899
 8626SOL     OW37510   3.772   1.528   4.440 -0.2775 -0.2272  0.3229
 8626SOL    HW137511   3.758   1.539   4.534  2.9911 -1.3425  0.9299
 8626SOL    HW237512   3.827   1.451   4.427 -2.1493 -1.7313  1.3413
 8627SOL     OW37513   1.334   4.590   8.265 -0.4540 -0.2084 -0.0947
 8627SOL    HW137514   1.325   4.634   8.350  0.9169 -2.2282  1.0691
 8627SOL    HW237515   1.340   4.498   8.290  0.4445  0.0740  0.7468
 8628SOL     OW37516   0.449   2.682   6.443  0.5596  0.1071 -0.6235
 8628SOL    HW137517   0.377   2.739   6.417 -0.2705  1.0273  3.6074
 8628SOL    HW237518   0.506   2.739   6.494  2.0874 -2.5591  0.6549
 8629SOL     OW37519   2.697   0.488   5.931 -0.1023 -0.3015  0.1742
 8629SOL    HW137520   2.647   0.451   5.858 -2.0595  1.6174  0.5279
 8629SOL    HW237521   2.703   0.576   5.893 -2.2386 -0.1771  0.1134
 8630SOL     OW37522   0.815   2.719   2.646 -0.3472  0.9107  0.0021
 8630SOL    HW137523   0.765   2.718   2.728  0.1448  2.7903  0.3284
 8630SOL    HW237524   0.806   2.809   2.614  1.5221  0.4279 -1.8725
 8631SOL     OW37525   4.591   3.833   7.606  0.0095  0.1214  0.4665
 8631SOL    HW137526   4.654   3.884   7.555  1.1734 -0.0585  1.7531
 8631SOL    HW237527   4.528   3.898   7.638 -0.6012  1.1318 -2.6828
 8632SOL     OW37528   2.593   3.573   4.362  0.0067 -0.4637  0.2871
 8632SOL    HW137529   2.664   3.564   4.298 -0.8970  1.9920 -1.0541
 8632SOL    HW237530   2.623   3.517   4.434 -1.8408 -0.4845  1.0219
 8633SOL     OW37531   4.269   1.831   7.257  0.1807  0.0858 -0.7111
 8633SOL    HW137532   4.362   1.826   7.280  0.3484  1.4106 -1.1083
 8633SOL    HW237533   4.259   1.736   7.258 -2.1080  0.3539  0.5840
 8634SOL     OW37534   2.513   0.168   4.494 -0.2055  0.4270  0.5978
 8634SOL    HW137535   2.460   0.119   4.556  2.5852 -1.6393  1.3595
 8634SOL    HW237536   2.597   0.125   4.512  0.0670  1.2268  1.2175
 8635SOL     OW37537   3.855   1.414   8.943  0.2355  0.1391  0.3716
 8635SOL    HW137538   3.896   1.442   8.861 -1.1230  2.4086  0.4656
 8635SOL    HW237539   3.878   1.491   8.995  1.1251  0.5499 -0.6254
 8636SOL     OW37540   2.045   4.328  17.165 -0.5584 -0.7966  0.2073
 8636SOL    HW137541   2.106   4.255  17.149  0.7114  0.7875 -2.1896
 8636SOL    HW237542   2.005   4.298  17.246 -0.4440  2.2849  1.3818
 8637SOL     OW37543   2.511   3.074   2.515  0.0324 -0.0534 -0.2131
 8637SOL    HW137544   2.498   3.015   2.441 -1.4023 -0.0266  0.0210
 8637SOL    HW237545   2.568   3.143   2.480  0.4073 -1.2547 -2.0219
 8638SOL     OW37546   3.252   3.749   6.252  0.3509  0.1269 -1.4051
 8638SOL    HW137547   3.288   3.690   6.318 -2.1720 -0.9693 -0.9924
 8638SOL    HW237548   3.230   3.824   6.308 -2.4156 -1.6925 -0.0199
 8639SOL     OW37549   1.436   0.232   5.188 -0.1103 -0.5146 -0.0463
 8639SOL    HW137550   1.356   0.279   5.163  1.0653 -0.0876 -2.9374
 8639SOL    HW237551   1.401   0.171   5.253 -2.3988  0.6238 -0.1964
 8640SOL     OW37552   0.911   1.398   3.667  0.1515  0.0594  0.1331
 8640SOL    HW137553   0.880   1.307   3.663 -3.5484  1.3992 -0.7029
 8640SOL    HW237554   0.986   1.384   3.609  0.0159 -0.3132  0.0428
 8641SOL     OW37555   3.360   0.088   5.218  0.3710 -0.3385 -0.3294
 8641SOL    HW137556   3.446   0.051   5.197  1.1414  0.8047  0.7755
 8641SOL    HW237557   3.327   0.030   5.286 -2.3465  1.3122 -0.2313
 8642SOL     OW37558   0.914   1.318  11.798  0.0113 -0.4015  0.4249
 8642SOL    HW137559   0.985   1.266  11.836  0.2167 -1.8732 -1.9655
 8642SOL    HW237560   0.841   1.264  11.768 -0.9797  1.3287 -0.2864
 8643SOL     OW37561   2.729   2.704   3.235  0.2733  0.1428  0.2184
 8643SOL    HW137562   2.686   2.786   3.257 -0.3273 -0.2965  0.7103
 8643SOL    HW237563   2.821   2.727   3.240  0.1665  1.4235 -4.0255
 8644SOL     OW37564   1.889   2.659   3.948 -0.4810  0.2842  0.1159
 8644SOL    HW137565   1.974   2.625   3.974 -0.0947  2.5586  1.7821
 8644SOL    HW237566   1.912   2.671   3.856  4.4415 -0.1352  1.2794
 8645SOL     OW37567   0.550   0.508   6.463  0.2239  0.1141 -0.2709
 8645SOL    HW137568   0.481   0.459   6.418 -0.4031 -1.1345  2.0268
 8645SOL    HW237569   0.494   0.582   6.488 -0.3804 -0.3397 -0.2612
 8646SOL     OW37570   2.698   0.718  17.161 -0.3328 -0.5762  0.1292
 8646SOL    HW137571   2.720   0.709  17.253 -2.8028 -0.1900  0.7628
 8646SOL    HW237572   2.771   0.668  17.123  1.5824  0.7688  2.0827
 8647SOL     OW37573   1.359   3.196  17.285 -0.6865  0.3946  0.9033
 8647SOL    HW137574   1.316   3.248  17.218 -1.7004  1.8261  2.6704
 8647SOL    HW237575   1.442   3.243  17.291 -0.6012  0.0633  2.3313
 8648SOL     OW37576   0.545   3.341   2.160 -0.7546  0.7877 -0.2334
 8648SOL    HW137577   0.637   3.365   2.171 -0.5913  0.7854 -1.6402
 8648SOL    HW237578   0.563   3.252   2.130 -0.0845  0.3390  1.5073
 8649SOL     OW37579   0.259   1.737   5.760  0.3283  0.0542  0.4769
 8649SOL    HW137580   0.348   1.755   5.728  0.9831 -1.1309  1.6470
 8649SOL    HW237581   0.256   1.643   5.777 -0.9274  0.0350  0.1346
 8650SOL     OW37582   2.098   3.554   5.604  0.3109  0.0981 -0.0125
 8650SOL    HW137583   2.063   3.636   5.568  0.1569  0.7791  1.6818
 8650SOL    HW237584   2.066   3.564   5.694 -0.1234  0.1978 -0.1730
 8651SOL     OW37585   2.693   0.543  14.595 -0.4474  0.0481  0.0546
 8651SOL    HW137586   2.689   0.638  14.608  0.8697  0.0548  0.3571
 8651SOL    HW237587   2.655   0.545  14.507  0.9963 -0.4891 -0.5702
 8652SOL     OW37588   0.550   4.600  12.575  0.4202  0.0059  0.0361
 8652SOL    HW137589   0.643   4.598  12.553  0.3943  0.8136 -0.1346
 8652SOL    HW237590   0.540   4.693  12.593  1.7979  0.3873 -1.1670
 8653SOL     OW37591   0.639   2.341  12.210 -0.0923 -0.0362  0.1198
 8653SOL    HW137592   0.688   2.278  12.261  1.3329  0.2428 -0.8994
 8653SOL    HW237593   0.555   2.339  12.257 -0.9931 -1.6118 -1.5463
 8654SOL     OW37594   3.235   3.368  16.502 -0.5348  0.4048  0.3074
 8654SOL    HW137595   3.167   3.435  16.488  0.0507  1.1443  1.0183
 8654SOL    HW237596   3.286   3.414  16.568 -2.3869  0.9212  1.3749
 8655SOL     OW37597   4.562   0.537  15.618  0.2867 -0.2874 -0.3914
 8655SOL    HW137598   4.562   0.513  15.711 -1.4844 -0.2174 -0.3660
 8655SOL    HW237599   4.655   0.528  15.598  0.3588 -1.6530  0.5387
 8656SOL     OW37600   1.578   0.966   8.693 -0.5962  0.4152  0.0558
 8656SOL    HW137601   1.613   1.023   8.761 -1.8929  0.9293  0.2969
 8656SOL    HW237602   1.596   0.878   8.725 -0.5808  0.2160 -0.4972
 8657SOL     OW37603   0.443   1.478   5.240 -0.0452 -0.3818  0.0290
 8657SOL    HW137604   0.460   1.506   5.330 -0.0095  0.9987 -0.4052
 8657SOL    HW237605   0.529   1.480   5.198  0.9674  1.4384  2.1870
 8658SOL     OW37606   0.862   3.708   1.870 -0.3763  0.3154 -0.1390
 8658SOL    HW137607   0.891   3.791   1.909 -4.3277  1.3999  0.5219
 8658SOL    HW237608   0.771   3.708   1.900 -0.3711 -1.2211 -0.1199
 8659SOL     OW37609   1.337   0.446  12.513  0.5879  0.4622 -0.1843
 8659SOL    HW137610   1.422   0.489  12.504  1.0238 -0.1389  1.1354
 8659SOL    HW237611   1.349   0.391  12.590  1.0692  2.2833  1.0224
 8660SOL     OW37612   4.184   3.336  16.509 -0.0957  0.1256  0.7766
 8660SOL    HW137613   4.097   3.366  16.533  0.0277 -1.4824  3.2149
 8660SOL    HW237614   4.235   3.412  16.537 -0.9836  0.3989  1.6274
 8661SOL     OW37615   0.201   2.188   8.043 -0.1471  0.0319 -0.2443
 8661SOL    HW137616   0.265   2.255   8.018 -0.0704 -0.0697 -0.3199
 8661SOL    HW237617   0.125   2.211   7.990  1.0686  0.2914 -1.8823
 8662SOL     OW37618   0.972   1.190   5.185  0.0932  0.2507 -0.5714
 8662SOL    HW137619   0.881   1.203   5.210  0.2728 -1.2139  0.8616
 8662SOL    HW237620   1.009   1.273   5.217 -0.6025  0.0575  0.7316
 8663SOL     OW37621   2.077   2.324  13.128 -0.4111 -0.1616 -0.2091
 8663SOL    HW137622   2.074   2.412  13.166  0.2174 -0.2977  0.1614
 8663SOL    HW237623   2.143   2.284  13.185  0.2411 -0.3303 -1.0777
 8664SOL     OW37624   3.877   2.660   6.447  0.8564 -0.4173 -0.1395
 8664SOL    HW137625   3.915   2.682   6.362  0.3922 -0.2916 -0.3177
 8664SOL    HW237626   3.901   2.731   6.507 -0.8921  0.2237 -0.1722
 8665SOL     OW37627   2.369   4.628  16.798 -0.0157  0.2685 -0.2530
 8665SOL    HW137628   2.455   4.586  16.785  0.2966  0.6733  0.5027
 8665SOL    HW237629   2.395   4.694  16.861  1.4123  0.2714 -0.8334
 8666SOL     OW37630   0.781   1.802  11.180  0.2539 -0.6340  0.1145
 8666SOL    HW137631   0.837   1.856  11.125 -1.0061  0.6843  0.1172
 8666SOL    HW237632   0.747   1.875  11.233 -0.9722 -2.2258  1.5329
 8667SOL     OW37633   4.166   2.465   1.177 -0.8050 -0.3653  0.1593
 8667SOL    HW137634   4.114   2.415   1.115  0.2837  0.5547 -1.5237
 8667SOL    HW237635   4.090   2.494   1.227 -1.6073 -0.1288 -1.1930
 8668SOL     OW37636   2.069   2.521   6.713 -0.2231  0.3956  0.3874
 8668SOL    HW137637   2.103   2.459   6.649 -0.5781 -0.8715  1.4472
 8668SOL    HW237638   2.029   2.452   6.765 -0.2469 -0.0552 -0.2382
 8669SOL     OW37639   0.216   4.110   8.890 -0.1369 -0.0326 -0.3893
 8669SOL    HW137640   0.146   4.175   8.898  0.4060  0.3565  1.1737
 8669SOL    HW237641   0.297   4.160   8.878 -0.1294  0.4979  1.9875
 8670SOL     OW37642   2.214   1.950   6.598 -0.3837  0.6989  0.2361
 8670SOL    HW137643   2.257   1.983   6.677  1.6211 -1.6698  0.1052
 8670SOL    HW237644   2.145   1.892   6.629  0.9290 -0.5892  0.7157
 8671SOL     OW37645   0.237   1.299   5.279 -0.5209  0.1474  0.5834
 8671SOL    HW137646   0.144   1.277   5.276 -0.9382  2.1404 -0.5898
 8671SOL    HW237647   0.230   1.367   5.345 -0.4458  2.8202 -2.1885
 8672SOL     OW37648   1.706   3.886  12.989  0.6337 -0.6558 -0.1231
 8672SOL    HW137649   1.652   3.964  13.002  1.7627 -0.1764  1.7024
 8672SOL    HW237650   1.761   3.912  12.915 -0.2257 -0.6801 -0.7730
 8673SOL     OW37651   0.882   2.633   3.456 -0.6922  0.4321 -0.1252
 8673SOL    HW137652   0.851   2.597   3.374 -3.4115 -3.0430  2.4805
 8673SOL    HW237653   0.796   2.654   3.491 -0.3055  0.0602  1.0516
 8674SOL     OW37654   4.325   2.469   2.840 -0.2639 -0.1566 -0.2993
 8674SOL    HW137655   4.355   2.521   2.915  0.7615 -0.3740 -0.5501
 8674SOL    HW237656   4.372   2.516   2.770  1.5241 -0.2101  0.8554
 8675SOL     OW37657   3.334   3.937   3.971  0.3022  0.0974  0.3952
 8675SOL    HW137658   3.378   3.902   4.049  2.5457 -0.8658 -1.3074
 8675SOL    HW237659   3.394   3.892   3.911  1.7871  1.1544  1.1059
 8676SOL     OW37660   1.903   2.669   9.714 -0.1978  0.0040  0.4538
 8676SOL    HW137661   1.863   2.747   9.676  3.1820  1.1393 -0.7802
 8676SOL    HW237662   1.955   2.637   9.640  0.2007  1.0666  0.2840
 8677SOL     OW37663   1.590   4.283  12.394 -0.2387  0.0112  0.3786
 8677SOL    HW137664   1.664   4.280  12.456  0.6798  1.1343 -0.6603
 8677SOL    HW237665   1.580   4.374  12.366 -1.5651 -0.0888  0.5347
 8678SOL     OW37666   2.418   0.375   6.362 -0.6300 -0.0508  1.3672
 8678SOL    HW137667   2.326   0.352   6.380 -0.9688 -0.8344 -1.2772
 8678SOL    HW237668   2.439   0.424   6.441  0.0789  2.3795 -0.3259
 8679SOL     OW37669   2.167   3.194   7.892  0.0754 -0.4943  0.3582
 8679SOL    HW137670   2.220   3.147   7.956 -2.0956  0.5677  2.8986
 8679SOL    HW237671   2.157   3.124   7.828  0.0058 -0.9370  0.8572
 8680SOL     OW37672   4.348   0.900   3.193 -0.0167 -0.8023 -0.1085
 8680SOL    HW137673   4.382   0.831   3.135 -0.0451 -1.0631  0.1824
 8680SOL    HW237674   4.433   0.944   3.202 -0.0206 -1.0380  1.0640
 8681SOL     OW37675   3.705   4.152  15.885  0.0491 -0.1221 -0.4979
 8681SOL    HW137676   3.724   4.088  15.953 -2.9407 -2.4819 -1.8557
 8681SOL    HW237677   3.647   4.217  15.924  0.4858 -1.3141  2.1671
 8682SOL     OW37678   2.905   1.999  10.218 -0.0128 -0.5781 -0.7709
 8682SOL    HW137679   2.966   2.072  10.204 -0.8077 -0.1563 -1.9987
 8682SOL    HW237680   2.945   1.971  10.300 -1.4498 -1.4378 -0.3798
 8683SOL     OW37681   4.318   2.184   2.947 -0.1431  0.0123 -0.3327
 8683SOL    HW137682   4.407   2.199   2.978  0.6865  2.5632 -3.9459
 8683SOL    HW237683   4.299   2.266   2.901  0.0686  1.1774  1.6361
 8684SOL     OW37684   3.174   0.311  10.861 -0.0826 -0.5236  0.0233
 8684SOL    HW137685   3.124   0.245  10.910  0.0928 -0.7119 -0.0497
 8684SOL    HW237686   3.196   0.362  10.938  2.1343 -0.9477 -0.3362
 8685SOL     OW37687   2.337   4.482   7.167 -0.6461 -0.1310  0.1437
 8685SOL    HW137688   2.380   4.442   7.242  0.4485  0.9048  0.0651
 8685SOL    HW237689   2.260   4.521   7.208 -0.1025 -1.9983  2.9280
 8686SOL     OW37690   2.204   3.297   2.722  0.0627 -0.0612 -0.5331
 8686SOL    HW137691   2.230   3.289   2.630  3.1372  0.9643  0.2526
 8686SOL    HW237692   2.176   3.208   2.744 -0.2889  0.7383  2.2160
 8687SOL     OW37693   0.773   3.964   9.953 -0.9968  0.1074 -0.0399
 8687SOL    HW137694   0.858   3.959   9.997 -1.7166 -0.5939  1.2938
 8687SOL    HW237695   0.754   3.871   9.937 -0.6348  0.0139  0.0750
 8688SOL     OW37696   2.466   0.193   9.173  0.6663 -0.4780  0.2939
 8688SOL    HW137697   2.524   0.136   9.223 -0.1929  0.1571  2.0514
 8688SOL    HW237698   2.388   0.145   9.203 -1.0904  0.8428 -2.1682
 8689SOL     OW37699   1.431   3.772   8.361 -0.0502  0.4545  0.1293
 8689SOL    HW137700   1.513   3.761   8.313 -0.7413 -0.7781 -0.7809
 8689SOL    HW237701   1.410   3.861   8.334 -3.0176  0.4623  2.5124
 8690SOL     OW37702   2.082   1.018   3.816 -0.4680  0.1831  0.6406
 8690SOL    HW137703   2.039   0.986   3.736  0.2361 -1.3457  0.8609
 8690SOL    HW237704   2.031   1.087   3.857 -2.1693 -0.8785  0.3223
 8691SOL     OW37705   4.284   3.918   2.068 -0.1531 -0.2163  0.2125
 8691SOL    HW137706   4.353   3.954   2.013  2.4256 -2.5617  1.8860
 8691SOL    HW237707   4.324   3.891   2.150 -0.4250 -0.8477  0.1380
 8692SOL     OW37708   4.726   2.322   2.646  0.4889  0.3865 -0.2526
 8692SOL    HW137709   4.705   2.331   2.553  1.0766 -1.2173 -0.5388
 8692SOL    HW237710   0.074   2.346   2.638  1.6019 -3.8182 -0.0489
 8693SOL     OW37711   0.240   0.869   3.783 -0.2489 -0.1540  0.1427
 8693SOL    HW137712   0.328   0.877   3.749  0.4846 -2.2687  1.5300
 8693SOL    HW237713   0.256   0.834   3.871 -1.3321  2.1854  1.2702
 8694SOL     OW37714   2.308   4.122   4.641 -0.1573 -0.4621 -0.1193
 8694SOL    HW137715   2.296   4.028   4.633 -2.8292  0.0979 -2.5068
 8694SOL    HW237716   2.349   4.144   4.558 -0.5114 -0.0093 -0.1749
 8695SOL     OW37717   4.567   3.287  16.886  0.4220 -0.2097  0.2275
 8695SOL    HW137718   4.657   3.256  16.895  0.3949 -0.4100 -0.2321
 8695SOL    HW237719   4.528   3.206  16.855 -1.2672  0.5620  0.3359
 8696SOL     OW37720   2.098   1.363   4.506  0.6248  0.4145 -0.6835
 8696SOL    HW137721   2.186   1.367   4.541  0.3840  2.0080 -0.2593
 8696SOL    HW237722   2.090   1.268   4.494  1.2953  0.2746 -0.0293
 8697SOL     OW37723   0.156   4.707   1.813  0.0430  0.0717 -0.4444
 8697SOL    HW137724   0.091   0.033   1.819  0.1474  0.0625  0.7028
 8697SOL    HW237725   0.097   4.633   1.797 -0.4549  0.2110  0.7645
 8698SOL     OW37726   0.897   2.292   3.058  0.4416  0.1746  0.3710
 8698SOL    HW137727   0.893   2.236   3.136  2.0861 -0.3459  0.0862
 8698SOL    HW237728   0.993   2.288   3.057  0.4636  0.2957  1.7218
 8699SOL     OW37729   3.031   0.816   7.227  0.1175 -0.3516 -0.4697
 8699SOL    HW137730   3.049   0.745   7.289  1.7969 -0.7420 -1.4198
 8699SOL    HW237731   2.936   0.802   7.217  0.0665 -0.7052  0.4924
 8700SOL     OW37732   0.534   3.063   4.588 -0.0788 -0.2894 -0.4802
 8700SOL    HW137733   0.593   3.088   4.517  1.8761 -1.8356  0.6036
 8700SOL    HW237734   0.458   3.112   4.557 -0.5156  0.4765  1.7604
 8701SOL     OW37735   3.840   2.955   8.236  0.3718  0.3823 -0.1417
 8701SOL    HW137736   3.933   2.981   8.234  0.2733  0.7963  0.6738
 8701SOL    HW237737   3.799   3.022   8.182  2.1807  2.5742  1.1877
 8702SOL     OW37738   0.921   2.560  12.685  0.0599 -0.0057 -0.6871
 8702SOL    HW137739   0.976   2.494  12.643  1.2526  0.8408 -0.4444
 8702SOL    HW237740   0.863   2.500  12.733  0.0924  1.8993  1.7573
 8703SOL     OW37741   2.872   3.322   3.920 -0.7092 -0.2585  0.5695
 8703SOL    HW137742   2.829   3.237   3.930 -0.8486 -0.4212 -1.4952
 8703SOL    HW237743   2.944   3.299   3.862 -0.8444  2.6971 -0.7907
 8704SOL     OW37744   0.566   3.836  10.268  0.2205 -0.1983  0.4895
 8704SOL    HW137745   0.508   3.851  10.342  0.5821  0.8046  0.5674
 8704SOL    HW237746   0.569   3.925  10.232 -2.9375 -0.3687 -0.2447
 8705SOL     OW37747   3.446   3.363   5.502 -0.2478  0.2186  0.1017
 8705SOL    HW137748   3.519   3.377   5.441  0.9633  0.1192  1.5243
 8705SOL    HW237749   3.447   3.267   5.508  0.7183  0.2092 -0.1668
 8706SOL     OW37750   0.669   2.867  12.434  0.3344  0.5747  0.2540
 8706SOL    HW137751   0.717   2.947  12.453  0.4287  0.5142  0.2761
 8706SOL    HW237752   0.646   2.899  12.347 -2.1509  1.6105  1.3094
 8707SOL     OW37753   3.539   1.047   2.953  0.2823 -0.0927  0.0295
 8707SOL    HW137754   3.515   0.954   2.958  0.9550 -0.1205  2.7895
 8707SOL    HW237755   3.530   1.077   2.862  2.3271 -1.5019 -0.6421
 8708SOL     OW37756   3.401   3.026   4.186 -0.1556  0.0281  0.0349
 8708SOL    HW137757   3.346   3.076   4.126 -0.2937 -0.5634 -0.3262
 8708SOL    HW237758   3.479   3.040   4.132 -2.2924 -1.0176 -3.2826
 8709SOL     OW37759   0.325   2.322   6.905  0.0945 -0.2280 -0.7280
 8709SOL    HW137760   0.301   2.410   6.875  0.1521  1.0271  3.0040
 8709SOL    HW237761   0.295   2.332   6.995  1.1835 -0.6908 -0.3227
 8710SOL     OW37762   2.238   1.991   5.279 -0.2262 -0.5248  0.2498
 8710SOL    HW137763   2.152   1.959   5.252 -1.1955  0.7799  1.7751
 8710SOL    HW237764   2.213   2.080   5.304  2.9836  0.6745 -0.7206
 8711SOL     OW37765   4.544   1.983   8.111  0.3523  0.1075 -0.4736
 8711SOL    HW137766   4.620   2.003   8.165 -1.5246 -0.2430  2.3197
 8711SOL    HW237767   4.568   1.928   8.036 -1.2105  0.6471 -1.3555
 8712SOL     OW37768   0.222   2.788  17.323  0.4706  0.1044 -0.4482
 8712SOL    HW137769   0.308   2.757  17.295  1.5207  1.8039  0.9104
 8712SOL    HW237770   0.187   2.708  17.362 -0.1603  0.6852  0.1731
 8713SOL     OW37771   1.335   0.032  10.193  0.5820  0.4973  0.2592
 8713SOL    HW137772   1.332   4.743  10.283  1.5216 -1.1024 -0.2812
 8713SOL    HW237773   1.380   4.705  10.146 -3.2243 -0.0154 -2.6445
 8714SOL     OW37774   1.381   4.052   6.843 -0.2830 -0.6984  0.1210
 8714SOL    HW137775   1.317   3.995   6.885 -3.8447  0.9399 -3.0833
 8714SOL    HW237776   1.414   4.001   6.768 -1.6751 -1.0309 -0.2657
 8715SOL     OW37777   0.609   0.210   2.669 -0.0363  0.1261  0.1318
 8715SOL    HW137778   0.661   0.189   2.591 -1.7548  1.9223 -1.4916
 8715SOL    HW237779   0.681   0.203   2.732  1.9073 -1.1408 -2.2230
 8716SOL     OW37780   2.078   4.069   7.280 -0.0199  0.6914 -0.2570
 8716SOL    HW137781   2.159   4.114   7.302  0.7020 -1.2407  1.0685
 8716SOL    HW237782   2.084   4.045   7.188  0.0048 -1.0992  0.2107
 8717SOL     OW37783   2.869   3.594   6.583 -0.0660 -0.5361  0.0604
 8717SOL    HW137784   2.893   3.530   6.516 -2.5528 -0.9708 -0.4205
 8717SOL    HW237785   2.807   3.539   6.630 -0.3242  0.7671  1.2279
 8718SOL     OW37786   4.162   1.352   3.972  0.0915  0.0990  0.2948
 8718SOL    HW137787   4.179   1.263   3.942 -1.2646  0.2131 -0.8143
 8718SOL    HW237788   4.166   1.402   3.891  0.2539 -0.3843  0.0028
 8719SOL     OW37789   3.997   0.002   8.252  0.4737 -0.2441 -0.7431
 8719SOL    HW137790   4.078   4.697   8.263 -0.2337 -0.5991  2.6695
 8719SOL    HW237791   3.922   4.697   8.283  1.9678 -1.0463  1.5473
 8720SOL     OW37792   0.985   0.799   2.078  0.0808  0.0360  1.0958
 8720SOL    HW137793   1.079   0.789   2.093  0.1352 -0.9791  0.0880
 8720SOL    HW237794   0.950   0.764   2.159  1.8364  0.4254  2.0110
 8721SOL     OW37795   1.527   3.610   1.250  0.5302  0.7547  0.3128
 8721SOL    HW137796   1.471   3.533   1.243 -0.0587  0.9301  2.9336
 8721SOL    HW237797   1.591   3.577   1.313  1.8460 -0.7168 -1.7708
 8722SOL     OW37798   3.491   0.165   5.890 -0.1027 -0.2623 -0.2064
 8722SOL    HW137799   3.580   0.165   5.855  0.3696 -0.2419  0.9828
 8722SOL    HW237800   3.441   0.206   5.819  0.8707  0.3699 -0.5268
 8723SOL     OW37801   1.036   1.828  15.864  0.0003 -0.0591 -0.2338
 8723SOL    HW137802   1.030   1.732  15.862 -1.1853  0.0282 -1.0696
 8723SOL    HW237803   1.050   1.835  15.770 -0.8551 -1.3941 -0.4579
 8724SOL     OW37804   3.081   4.246   4.955  0.0887 -0.2380 -0.2298
 8724SOL    HW137805   3.091   4.153   4.976  1.3164  0.6622  3.2397
 8724SOL    HW237806   2.987   4.253   4.942  0.4611  2.1215 -1.6717
 8725SOL     OW37807   2.845   1.333   1.921 -0.0269 -0.0645 -0.1363
 8725SOL    HW137808   2.905   1.342   1.995 -0.3235 -0.0375  0.1023
 8725SOL    HW237809   2.895   1.352   1.842 -0.8929  1.0691 -0.4147
 8726SOL     OW37810   2.251   2.254  17.424  0.9018 -0.2839  0.1563
 8726SOL    HW137811   2.273   2.347  17.416  1.2927 -0.5006 -1.1738
 8726SOL    HW237812   2.223   2.258  17.516 -2.1319  1.1332 -0.8030
 8727SOL     OW37813   3.109   1.436   3.346 -0.5414  0.1710 -0.3356
 8727SOL    HW137814   3.150   1.434   3.432 -0.6243 -1.9938 -0.3585
 8727SOL    HW237815   3.166   1.384   3.289 -0.6814  1.1284 -1.3677
 8728SOL     OW37816   1.485   3.345  17.703  0.1271  0.1033 -0.0330
 8728SOL    HW137817   1.444   3.418  17.751  1.3022 -0.4907  1.8503
 8728SOL    HW237818   1.573   3.355  17.739 -0.2470 -1.7273  1.3633
 8729SOL     OW37819   0.633   2.209   1.206  0.1803 -0.2220 -0.1713
 8729SOL    HW137820   0.586   2.212   1.123 -0.2787 -0.3144  0.0859
 8729SOL    HW237821   0.582   2.140   1.248  0.2420 -1.4167 -2.1014
 8730SOL     OW37822   3.891   3.535   7.794 -0.1681 -0.0029  0.0720
 8730SOL    HW137823   3.986   3.519   7.791  0.0481  1.3824 -0.5816
 8730SOL    HW237824   3.860   3.474   7.861  0.1789  1.2050  1.3501
 8731SOL     OW37825   1.653   1.798   3.281 -0.3465 -0.3431 -0.0709
 8731SOL    HW137826   1.700   1.722   3.314 -0.4349  0.1048  1.0934
 8731SOL    HW237827   1.709   1.864   3.321 -1.6393  0.0255  1.1111
 8732SOL     OW37828   2.034   2.059   8.044 -0.0527  0.8618 -0.0143
 8732SOL    HW137829   2.018   2.143   8.087  0.7644  0.3337  1.3028
 8732SOL    HW237830   1.994   1.999   8.106 -1.2396  2.6862  0.9715
 8733SOL     OW37831   2.812   1.366   0.958 -0.3388  0.3594  0.2293
 8733SOL    HW137832   2.741   1.429   0.948  0.0582  0.7212 -0.3030
 8733SOL    HW237833   2.766   1.312   1.022  1.0719 -2.7909 -1.4201
 8734SOL     OW37834   1.870   2.634  11.030  0.5532 -0.0589  0.9683
 8734SOL    HW137835   1.794   2.598  11.076 -1.0339 -0.3945 -1.8827
 8734SOL    HW237836   1.942   2.599  11.083  0.9977 -2.1569 -1.0106
 8735SOL     OW37837   1.526   0.623   4.608  0.0461 -0.2473  0.0833
 8735SOL    HW137838   1.581   0.682   4.556  1.1584  0.8504  2.4994
 8735SOL    HW237839   1.488   0.688   4.667 -1.5043 -1.3502  0.3121
 8736SOL     OW37840   3.550   1.100   6.337  0.4846 -0.1577 -0.6430
 8736SOL    HW137841   3.625   1.100   6.396 -0.7446  1.9359  0.9629
 8736SOL    HW237842   3.481   1.127   6.398  1.4367  0.4072  0.1884
 8737SOL     OW37843   1.875   0.254   5.094  0.0977 -0.4810 -0.0675
 8737SOL    HW137844   1.827   0.278   5.173  2.2989 -2.0233  1.7337
 8737SOL    HW237845   1.804   0.251   5.030 -0.7434  2.0501  0.7551
 8738SOL     OW37846   4.141   4.199   4.030 -0.2931 -0.2548 -0.0975
 8738SOL    HW137847   4.232   4.186   4.057 -0.4900  0.3688  0.8524
 8738SOL    HW237848   4.118   4.108   4.015 -1.8082  0.2267 -0.7067
 8739SOL     OW37849   4.311   3.951   7.470 -0.3135 -0.1600 -0.2074
 8739SOL    HW137850   4.288   4.043   7.456  1.7680  0.2076 -1.2268
 8739SOL    HW237851   4.379   3.969   7.535  0.0125  0.1495 -0.6334
 8740SOL     OW37852   4.201   1.450   7.528  0.1669 -0.2081 -0.6492
 8740SOL    HW137853   4.132   1.403   7.575  0.2869 -0.5471 -0.8070
 8740SOL    HW237854   4.199   1.527   7.585  2.9368 -0.6792  0.1033
 8741SOL     OW37855   2.675   2.002   1.078  0.4871  0.3582 -0.2699
 8741SOL    HW137856   2.758   2.044   1.099  0.5165 -0.4211  1.2348
 8741SOL    HW237857   2.714   1.923   1.041  0.7038  0.6447 -0.6456
 8742SOL     OW37858   0.813   0.354   5.181  0.6526 -0.1823  0.0918
 8742SOL    HW137859   0.866   0.328   5.105  0.4303 -0.3736  0.0045
 8742SOL    HW237860   0.867   0.413   5.233  1.8357 -1.0015 -0.2001
 8743SOL     OW37861   3.731   2.041   9.011 -0.1411 -0.0690 -0.3325
 8743SOL    HW137862   3.669   2.069   9.078 -0.2604 -1.8339  0.2920
 8743SOL    HW237863   3.774   1.977   9.069  2.4345  1.1239 -0.9289
 8744SOL     OW37864   2.078   2.625  16.378 -0.5767 -0.0704  0.1826
 8744SOL    HW137865   2.132   2.678  16.436  1.3662 -0.6033 -1.1484
 8744SOL    HW237866   1.992   2.668  16.377 -0.1777  0.7412  1.4254
 8745SOL     OW37867   3.235   3.871  11.380  0.2584 -0.2817  0.6887
 8745SOL    HW137868   3.273   3.947  11.337  0.4542 -1.1952 -0.7659
 8745SOL    HW237869   3.202   3.832  11.299  1.3768 -0.4418  0.3084
 8746SOL     OW37870   4.166   1.111   4.634  0.4651 -0.2097  0.1348
 8746SOL    HW137871   4.119   1.090   4.715 -1.0542  0.6678 -0.5063
 8746SOL    HW237872   4.242   1.054   4.643  1.2619  0.4773 -2.1900
 8747SOL     OW37873   3.486   0.936  11.007  0.0712 -0.2385 -0.7413
 8747SOL    HW137874   3.487   1.012  11.066  0.5443 -0.9653  0.1879
 8747SOL    HW237875   3.392   0.917  11.000  0.0056 -0.4379  0.7957
 8748SOL     OW37876   2.121   2.478   9.581  0.7377 -0.0028  0.1593
 8748SOL    HW137877   2.195   2.537   9.595  0.2337  1.0215 -1.4818
 8748SOL    HW237878   2.159   2.390   9.572  0.0633 -0.3387  0.6306
 8749SOL     OW37879   1.947   1.554  10.937  0.4709  0.3188  0.5061
 8749SOL    HW137880   1.866   1.561  10.988 -1.1611 -0.2669 -1.9615
 8749SOL    HW237881   2.011   1.601  10.989  1.4321  0.5817 -0.9220
 8750SOL     OW37882   3.381   3.322  12.775 -0.4620  0.3794 -0.0022
 8750SOL    HW137883   3.424   3.237  12.762 -2.1507 -0.4089 -0.4242
 8750SOL    HW237884   3.297   3.323  12.729  0.5838 -0.0483 -1.9255
 8751SOL     OW37885   3.746   2.168   7.539  0.1174 -0.1485  0.1849
 8751SOL    HW137886   3.817   2.217   7.579  0.0764  1.2948 -1.5301
 8751SOL    HW237887   3.673   2.170   7.601  0.6622  1.8736  0.7503
 8752SOL     OW37888   1.667   2.258   2.216 -0.1973 -0.1737  0.0448
 8752SOL    HW137889   1.597   2.323   2.226 -0.3670 -0.4781  0.8172
 8752SOL    HW237890   1.700   2.249   2.306  0.5908  0.1873 -0.2038
 8753SOL     OW37891   3.859   4.112   2.074 -0.3481  0.2964 -0.3802
 8753SOL    HW137892   3.923   4.066   2.019 -1.7205 -1.3586 -0.5927
 8753SOL    HW237893   3.864   4.048   2.145 -0.8028  1.4091  0.6466
 8754SOL     OW37894   0.451   1.143  13.924 -0.7345  0.5824  0.3523
 8754SOL    HW137895   0.486   1.210  13.865 -0.7808 -1.5006 -2.0531
 8754SOL    HW237896   0.369   1.180  13.956 -1.0711  1.1046 -1.1262
 8755SOL     OW37897   0.350   1.265   1.861  0.1139  0.1083  0.2051
 8755SOL    HW137898   0.256   1.258   1.842 -0.4313 -0.3708  3.1092
 8755SOL    HW237899   0.363   1.201   1.930 -0.7638 -1.2307 -0.8649
 8756SOL     OW37900   1.705   4.563   9.116 -0.1497  0.4416  0.2246
 8756SOL    HW137901   1.692   4.656   9.097  0.6507  0.8422  1.6670
 8756SOL    HW237902   1.684   4.529   9.029 -2.7250 -0.0851  1.0536
 8757SOL     OW37903   2.294   0.680   8.129  0.3076  0.0124 -0.2541
 8757SOL    HW137904   2.309   0.608   8.191  0.9220 -0.4389 -0.9285
 8757SOL    HW237905   2.204   0.700   8.155  0.2650 -0.1818 -0.2517
 8758SOL     OW37906   0.248   2.977   4.263 -0.1566  0.4594  0.5362
 8758SOL    HW137907   0.276   3.032   4.190  0.1023 -0.8992 -0.3910
 8758SOL    HW237908   0.238   3.047   4.326  0.3810 -0.3471  1.5174
 8759SOL     OW37909   4.477   1.962   4.016  0.5264 -0.0250 -0.2054
 8759SOL    HW137910   4.454   1.943   4.107 -0.6695 -1.2445 -0.7724
 8759SOL    HW237911   4.411   2.017   3.974 -2.2173 -3.1189  0.1047
 8760SOL     OW37912   1.571   0.117   9.666  0.1701  0.0592 -0.6349
 8760SOL    HW137913   1.601   0.035   9.626 -0.2727 -0.4108 -0.0057
 8760SOL    HW237914   1.612   0.115   9.753 -1.5202 -2.0205  0.1034
 8761SOL     OW37915   3.116   0.529   3.307 -0.0635 -0.0542 -0.1994
 8761SOL    HW137916   3.087   0.536   3.398  3.3514  1.3740  0.7736
 8761SOL    HW237917   3.144   0.620   3.297 -0.2659 -0.0965 -1.0991
 8762SOL     OW37918   1.877   4.092   6.479  0.4979  0.1293 -0.2507
 8762SOL    HW137919   1.840   4.103   6.392  0.2495 -2.4155 -0.4653
 8762SOL    HW237920   1.946   4.158   6.471 -0.2136  0.9210  0.1133
 8763SOL     OW37921   1.757   2.592   8.041 -0.6294  0.4648 -0.1797
 8763SOL    HW137922   1.701   2.561   8.112 -0.1639 -0.8268 -0.3737
 8763SOL    HW237923   1.738   2.526   7.973 -0.1182 -0.1420  0.2707
 8764SOL     OW37924   3.923   2.036  10.604  0.0549 -0.2250 -0.5596
 8764SOL    HW137925   3.838   2.021  10.563 -0.1737 -1.2423  0.2756
 8764SOL    HW237926   3.900   2.024  10.696  0.1297 -2.1014 -0.7865
 8765SOL     OW37927   0.136   4.081   6.583  0.0066  0.5879 -0.2954
 8765SOL    HW137928   0.092   4.073   6.668  0.2068 -0.2195 -0.2645
 8765SOL    HW237929   0.177   4.167   6.590  1.6997 -0.3000  0.6104
 8766SOL     OW37930   2.681   2.716   2.719  0.4378 -0.1122  0.1273
 8766SOL    HW137931   2.744   2.655   2.759 -0.6298 -1.4319 -0.2150
 8766SOL    HW237932   2.744   2.758   2.660 -0.7281  0.4302 -0.7245
 8767SOL     OW37933   2.901   3.865  17.705  0.5050  0.4119  0.3575
 8767SOL    HW137934   2.906   3.775  17.738  0.6852 -0.5778 -2.3372
 8767SOL    HW237935   2.967   3.848  17.637  0.1509  0.8560 -0.0946
 8768SOL     OW37936   1.693   0.995  10.918 -0.2077  0.0129 -0.0860
 8768SOL    HW137937   1.777   1.041  10.922  1.3147 -2.6869 -0.7673
 8768SOL    HW237938   1.632   1.070  10.914 -0.2962 -0.0149  0.7379
 8769SOL     OW37939   2.758   1.497  17.771  0.0847 -0.5825  0.2553
 8769SOL    HW137940   2.679   1.491   0.053  0.3855 -1.4902  0.6108
 8769SOL    HW237941   2.723   1.552  17.701 -2.9729  0.2485  2.4119
 8770SOL     OW37942   1.477   1.618   9.279  0.5389  0.2520 -0.5363
 8770SOL    HW137943   1.504   1.547   9.221 -1.3799  0.1697 -1.3125
 8770SOL    HW237944   1.399   1.581   9.318  3.1712 -1.9055  2.7087
 8771SOL     OW37945   3.863   1.581   8.113 -0.4345  0.0346 -0.4441
 8771SOL    HW137946   3.849   1.628   8.195 -0.2199 -0.0933 -0.3342
 8771SOL    HW237947   3.773   1.551   8.099 -0.0151 -2.1731  1.6786
 8772SOL     OW37948   1.240   1.615  13.798  0.3040 -0.3209 -0.1355
 8772SOL    HW137949   1.314   1.608  13.738 -0.2615  0.3425 -0.9033
 8772SOL    HW237950   1.287   1.603  13.880 -0.9304  0.7590  0.7304
 8773SOL     OW37951   4.368   3.965   7.179 -0.3709  0.1839 -0.0585
 8773SOL    HW137952   4.358   3.959   7.274 -0.9208 -2.4847 -0.2877
 8773SOL    HW237953   4.298   3.908   7.145  0.3647 -2.5994  3.0636
 8774SOL     OW37954   3.059   0.003  12.147  0.0860 -0.2233  0.0067
 8774SOL    HW137955   3.078   0.044  12.232 -1.9569 -0.0052  0.3619
 8774SOL    HW237956   3.133   0.037  12.097  0.4327 -0.7413  0.1567
 8775SOL     OW37957   2.784   3.124   7.427  0.0129 -0.0919 -0.1625
 8775SOL    HW137958   2.757   3.090   7.512 -2.4085 -0.8666 -1.2365
 8775SOL    HW237959   2.856   3.069   7.396 -0.1898  0.2930 -1.3230
 8776SOL     OW37960   3.833   1.997  14.432  0.1924  0.2302  0.3982
 8776SOL    HW137961   3.926   2.016  14.414  0.0324  1.9380  1.3417
 8776SOL    HW237962   3.803   2.070  14.486  0.2060 -0.5983  1.5282
 8777SOL     OW37963   4.543   1.430   2.948  0.4634 -0.2201 -0.2045
 8777SOL    HW137964   4.621   1.481   2.970  0.9953 -0.5411 -1.3795
 8777SOL    HW237965   4.479   1.498   2.927  1.7640  0.5790 -1.4726
 8778SOL     OW37966   1.048   2.636   2.339 -0.0339 -0.2892  0.4889
 8778SOL    HW137967   0.955   2.615   2.327 -0.3167  1.5868 -0.5985
 8778SOL    HW237968   1.069   2.726   2.312  0.2842 -0.4944  0.0440
 8779SOL     OW37969   0.883   4.531  13.481 -0.6675 -0.2390 -0.4118
 8779SOL    HW137970   0.807   4.482  13.514 -1.3848  0.7856 -0.5272
 8779SOL    HW237971   0.921   4.571  13.558 -0.9938 -0.4407 -0.1436
 8780SOL     OW37972   3.363   4.547  15.898 -0.2294  0.3087  0.3170
 8780SOL    HW137973   3.336   4.563  15.808 -0.4859 -1.0455  0.1580
 8780SOL    HW237974   3.458   4.534  15.902 -0.6267 -2.8583 -0.1725
 8781SOL     OW37975   4.211   2.109   6.883  0.1961 -0.1894 -0.2558
 8781SOL    HW137976   4.179   2.148   6.802 -1.9370 -2.3788 -0.4940
 8781SOL    HW237977   4.302   2.100   6.855  1.4365 -1.0636  4.0318
 8782SOL     OW37978   3.209   1.242  13.288 -0.4304 -0.9047 -0.1601
 8782SOL    HW137979   3.195   1.247  13.194 -1.4466  0.4615  0.0575
 8782SOL    HW237980   3.285   1.188  13.312  0.4235 -0.4494 -1.8764
 8783SOL     OW37981   2.961   1.397   3.605 -0.0364 -0.1126  0.6016
 8783SOL    HW137982   2.950   1.416   3.698  2.5258  1.8232  0.5125
 8783SOL    HW237983   3.057   1.388   3.605 -0.0788 -0.5804 -0.1685
 8784SOL     OW37984   2.822   4.178  14.891 -0.2283 -0.2699  0.0917
 8784SOL    HW137985   2.807   4.234  14.814 -0.4885 -0.1856  0.2015
 8784SOL    HW237986   2.893   4.124  14.857 -0.2501  1.1139 -2.1684
 8785SOL     OW37987   0.453   4.593   4.700  0.2515  0.8474  0.7935
 8785SOL    HW137988   0.418   4.652   4.632  0.8322 -0.5813 -0.7380
 8785SOL    HW237989   0.542   4.573   4.673 -0.3551 -1.8413  0.8193
 8786SOL     OW37990   1.899   2.168  11.390  0.2713  0.3697  0.4897
 8786SOL    HW137991   1.984   2.198  11.355 -0.1772  1.8532  0.6589
 8786SOL    HW237992   1.866   2.253  11.418 -0.9194  0.0144  0.1358
 8787SOL     OW37993   2.873   4.259  15.475  0.1707  0.0794  0.0161
 8787SOL    HW137994   2.961   4.296  15.466  0.1557 -0.4848 -2.3814
 8787SOL    HW237995   2.854   4.231  15.386 -3.6739  1.5149  0.3629
 8788SOL     OW37996   0.177   0.376  11.772  0.4393 -0.5078 -0.3468
 8788SOL    HW137997   0.189   0.470  11.766  0.1317 -0.3643  1.3732
 8788SOL    HW237998   0.194   0.364  11.865 -3.8715 -0.1914  0.5009
 8789SOL     OW37999   0.136   0.951  10.222 -0.2278  0.1125 -0.3841
 8789SOL    HW138000   0.140   0.913  10.135 -4.0109 -1.6869  0.2446
 8789SOL    HW238001   0.169   1.040  10.205  2.6591 -1.4572 -2.9423
 8790SOL     OW38002   1.174   0.159   8.869  0.1527  0.0721  0.3527
 8790SOL    HW138003   1.168   0.150   8.964 -1.6616 -0.9709  0.1589
 8790SOL    HW238004   1.204   0.069   8.855 -0.7143 -0.0995 -0.4336
 8791SOL     OW38005   1.929   1.528   3.564 -0.0504  0.2324 -0.3236
 8791SOL    HW138006   2.011   1.515   3.610 -1.1426  0.8733  1.8257
 8791SOL    HW238007   1.966   1.587   3.499 -1.6427 -0.9773 -2.3611
 8792SOL     OW38008   1.980   1.752   6.203  0.2907 -0.1970  0.4515
 8792SOL    HW138009   1.948   1.817   6.266  0.1401 -1.2751  1.4668
 8792SOL    HW238010   1.957   1.672   6.248  2.4543  0.3420  2.5122
 8793SOL     OW38011   0.082   1.103   5.013  0.5140  0.4094  0.1389
 8793SOL    HW138012   0.026   1.179   4.997  0.3308  0.7315  2.2051
 8793SOL    HW238013   0.033   1.065   5.086  0.0220  1.6415  0.4500
 8794SOL     OW38014   2.223   4.283   9.704  0.7005  0.0371  0.1903
 8794SOL    HW138015   2.209   4.378   9.706  2.2021  0.3189 -2.0583
 8794SOL    HW238016   2.181   4.256   9.622 -1.8686  0.8791  1.2386
 8795SOL     OW38017   1.559   0.139   2.285 -0.1453 -0.9305 -0.0201
 8795SOL    HW138018   1.598   0.088   2.357 -0.2186  0.0799  0.7317
 8795SOL    HW238019   1.619   0.213   2.279 -0.6173 -0.4969  0.7249
 8796SOL     OW38020   4.248   2.191   0.840  0.1204 -0.0545  0.4639
 8796SOL    HW138021   4.161   2.168   0.809 -0.5975  1.2174  1.5286
 8796SOL    HW238022   4.264   2.265   0.781  2.0097 -1.4833 -0.8198
 8797SOL     OW38023   4.045   4.684   0.494 -0.4670 -0.2801 -0.0049
 8797SOL    HW138024   4.002   4.728   0.568 -1.0148 -0.2575 -0.3345
 8797SOL    HW238025   4.013   4.723   0.412 -0.1286 -1.1765 -0.5564
 8798SOL     OW38026   1.141   0.211   1.494 -0.4275 -0.0628  0.0886
 8798SOL    HW138027   1.123   0.198   1.587  3.4500  2.5716  1.2029
 8798SOL    HW238028   1.054   0.208   1.456 -0.0653 -0.2458 -0.7322
 8799SOL     OW38029   0.677   2.048   4.445  0.2527 -0.4159 -0.0853
 8799SOL    HW138030   0.664   2.133   4.486  0.1695 -0.7286  0.5321
 8799SOL    HW238031   0.593   2.022   4.407 -0.5602  2.1214  0.0041
 8800SOL     OW38032   4.253   2.500   8.121 -0.5310  0.0229 -0.0411
 8800SOL    HW138033   4.282   2.546   8.042 -1.0508 -2.5901 -1.7739
 8800SOL    HW238034   4.209   2.424   8.081  0.3825 -0.8222  0.5493
 8801SOL     OW38035   3.633   2.824  14.112 -0.6509  0.5641 -0.2318
 8801SOL    HW138036   3.552   2.831  14.162  1.4588 -0.4571  3.3265
 8801SOL    HW238037   3.697   2.833  14.182 -0.5968 -1.9439  0.0635
 8802SOL     OW38038   4.099   2.025   1.263 -0.1651  0.5923 -0.2101
 8802SOL    HW138039   4.017   1.978   1.277 -0.3897  0.7973 -0.8375
 8802SOL    HW238040   4.108   1.999   1.171  0.2066 -1.7628  0.4865
 8803SOL     OW38041   1.359   1.422  14.957  0.0927  0.1628 -0.2313
 8803SOL    HW138042   1.372   1.516  14.974 -0.8113 -0.0001  1.3437
 8803SOL    HW238043   1.360   1.427  14.861 -0.6149 -0.5339 -0.2733
 8804SOL     OW38044   0.906   1.623   6.552 -0.2025 -0.4476 -0.0619
 8804SOL    HW138045   0.992   1.666   6.550 -0.3714 -0.1102 -0.0817
 8804SOL    HW238046   0.931   1.532   6.537  0.7438  0.0398 -1.4130
 8805SOL     OW38047   3.328   0.589   6.613  0.1799 -0.1205  0.1927
 8805SOL    HW138048   3.303   0.535   6.538 -1.6171 -0.5608  1.1043
 8805SOL    HW238049   3.249   0.643   6.621 -1.0804 -1.5390 -2.8143
 8806SOL     OW38050   4.386   2.325  13.100  0.5389  0.2640 -0.1111
 8806SOL    HW138051   4.436   2.297  13.177  1.5648  0.2430 -0.7860
 8806SOL    HW238052   4.295   2.318  13.132  0.1677  0.1305 -1.2100
 8807SOL     OW38053   2.164   3.620   6.681 -0.4607 -0.3552  0.2233
 8807SOL    HW138054   2.178   3.712   6.657 -1.6059 -0.4990 -0.9789
 8807SOL    HW238055   2.173   3.579   6.595  2.1816 -0.1568  0.4026
 8808SOL     OW38056   3.286   2.445   2.324  0.3417  0.2581  0.1535
 8808SOL    HW138057   3.374   2.408   2.317  0.6366  0.9401  0.2087
 8808SOL    HW238058   3.234   2.367   2.342 -1.6940  1.8997  1.3486
 8809SOL     OW38059   2.232   3.137   3.644 -0.0793  0.0288 -0.4457
 8809SOL    HW138060   2.176   3.074   3.689 -0.6283  0.5855 -0.3329
 8809SOL    HW238061   2.244   3.087   3.563  0.3309  0.1964 -0.4898
 8810SOL     OW38062   0.266   4.150   8.134  0.0615  0.2557  0.2109
 8810SOL    HW138063   0.264   4.211   8.207 -1.1048  1.5890 -0.9443
 8810SOL    HW238064   0.324   4.078   8.159  0.7075  1.7116  2.8670
 8811SOL     OW38065   1.750   1.209  11.848 -0.3396  0.3025  0.1168
 8811SOL    HW138066   1.698   1.289  11.848 -1.3582 -0.3620 -2.8267
 8811SOL    HW238067   1.754   1.183  11.940 -2.8918  0.7556  0.3719
 8812SOL     OW38068   2.953   3.237  12.493  0.4051  0.1832  0.3641
 8812SOL    HW138069   2.959   3.148  12.458  0.9781 -0.1462  1.2893
 8812SOL    HW238070   2.925   3.286  12.416 -2.2613 -0.5132  0.9189
 8813SOL     OW38071   4.037   2.751   4.656  0.5026  0.3962 -0.1190
 8813SOL    HW138072   4.069   2.839   4.678 -2.3935  2.0989 -2.7108
 8813SOL    HW238073   3.960   2.744   4.712  0.6071  2.1447  0.2483
 8814SOL     OW38074   1.639   0.172   8.470 -0.2434  0.4196 -0.1346
 8814SOL    HW138075   1.677   0.259   8.488  1.0155 -0.3814  1.0790
 8814SOL    HW238076   1.547   0.192   8.454 -0.1241  2.9461  2.2653
 8815SOL     OW38077   2.699   1.293   7.503 -0.3545 -0.5102 -0.0442
 8815SOL    HW138078   2.682   1.375   7.456 -1.4571 -0.4354  0.4844
 8815SOL    HW238079   2.640   1.231   7.460  1.4742 -2.1348 -0.1846
 8816SOL     OW38080   1.125   4.042   0.882  0.0918  0.4233 -0.0298
 8816SOL    HW138081   1.195   3.999   0.833  1.7938  2.5458  0.5334
 8816SOL    HW238082   1.114   4.125   0.837 -1.4757  1.4891  2.2954
 8817SOL     OW38083   1.902   4.229   6.910  0.1360  0.1935 -0.2066
 8817SOL    HW138084   1.887   4.262   6.999 -0.8656 -0.6456 -0.0572
 8817SOL    HW238085   1.822   4.252   6.862  1.7110  1.5036 -2.1998
 8818SOL     OW38086   0.118   1.342  15.526  0.2679 -0.2302  0.5216
 8818SOL    HW138087   0.193   1.335  15.467 -1.7259 -3.9834 -1.6379
 8818SOL    HW238088   0.047   1.366  15.466 -0.5404  0.3721  1.7230
 8819SOL     OW38089   1.688   2.072  14.710  0.4434 -0.3167  0.1764
 8819SOL    HW138090   1.757   2.006  14.713  1.6613  1.0968  2.5584
 8819SOL    HW238091   1.724   2.158  14.689 -2.0146  1.1142  1.7606
 8820SOL     OW38092   2.550   4.111  16.963 -0.0949  0.2002  0.4993
 8820SOL    HW138093   2.467   4.156  16.983  0.0863  1.6138 -1.9775
 8820SOL    HW238094   2.598   4.121  17.046  2.2364 -1.4492 -0.6625
 8821SOL     OW38095   0.984   0.131   9.380  0.2375  0.0538 -0.4015
 8821SOL    HW138096   1.033   0.057   9.346  0.1454 -0.3365  0.3147
 8821SOL    HW238097   0.905   0.090   9.416 -0.1428  0.8859 -0.2921
 8822SOL     OW38098   4.202   1.265   5.502  0.2824 -0.0993  0.0130
 8822SOL    HW138099   4.143   1.336   5.476  1.0127  0.1793 -0.9231
 8822SOL    HW238100   4.183   1.253   5.595  1.0307 -2.1738 -0.0979
 8823SOL     OW38101   0.553   2.195   8.645  0.1663  0.6469  0.1363
 8823SOL    HW138102   0.509   2.131   8.589  0.0783  0.4792  0.3937
 8823SOL    HW238103   0.479   2.248   8.673 -0.5185  0.3548 -1.1478
 8824SOL     OW38104   3.562   4.122  11.948  0.3007 -0.0826  0.1581
 8824SOL    HW138105   3.496   4.174  11.993 -2.6144 -3.0868 -0.7134
 8824SOL    HW238106   3.642   4.175  11.957  0.1543 -0.2673  2.4144
 8825SOL     OW38107   1.126   0.231   4.620  0.1990  0.3721  0.4599
 8825SOL    HW138108   1.105   0.308   4.673  1.1569  1.7564 -1.1883
 8825SOL    HW238109   1.082   0.166   4.674 -0.6293 -0.4181 -1.1675
 8826SOL     OW38110   4.190   1.557   7.269  0.0720  0.5199  0.2466
 8826SOL    HW138111   4.107   1.514   7.252  0.2698  0.9952 -1.8832
 8826SOL    HW238112   4.221   1.503   7.343  1.2053  1.5109  0.5080
 8827SOL     OW38113   3.044   1.459   8.216  0.2942 -0.0968 -0.2238
 8827SOL    HW138114   2.996   1.478   8.136  0.6409  1.0788 -0.1531
 8827SOL    HW238115   3.098   1.383   8.196  1.5744  1.1712 -1.6549
 8828SOL     OW38116   1.868   0.752   3.202  0.0356 -0.7700 -0.0671
 8828SOL    HW138117   1.900   0.668   3.168  0.0712 -0.4121 -0.9035
 8828SOL    HW238118   1.879   0.742   3.297 -0.6504  2.1921  0.3107
 8829SOL     OW38119   3.561   2.121   3.312  0.0624  0.0116  0.4189
 8829SOL    HW138120   3.632   2.107   3.249 -1.4536  2.0711 -1.7643
 8829SOL    HW238121   3.619   2.162   3.377 -1.0121  1.2430  0.6019
 8830SOL     OW38122   4.351   2.851   0.956  0.4917  0.2499 -0.1098
 8830SOL    HW138123   4.376   2.936   0.992 -1.6787  1.3368 -1.1237
 8830SOL    HW238124   4.403   2.788   1.006  0.7871  0.1696 -0.5190
 8831SOL     OW38125   0.726   0.332   6.617 -0.0021  0.1791 -0.1255
 8831SOL    HW138126   0.672   0.388   6.561  0.2774 -0.7703 -1.3316
 8831SOL    HW238127   0.800   0.325   6.557 -1.9353 -0.8679 -2.3941
 8832SOL     OW38128   3.103   0.644  15.413 -0.3801 -0.3970  0.0535
 8832SOL    HW138129   3.113   0.564  15.362 -0.5706 -1.9286  2.4399
 8832SOL    HW238130   3.009   0.640  15.426 -0.1609 -1.2598  1.3694
 8833SOL     OW38131   4.513   3.784   9.404 -0.1487 -0.1790  0.3316
 8833SOL    HW138132   4.439   3.844   9.405  0.8179  1.0289 -0.3719
 8833SOL    HW238133   4.478   3.697   9.387 -0.1715  0.3901 -2.5468
 8834SOL     OW38134   3.196   4.026  11.031 -0.9476 -0.2317 -0.0491
 8834SOL    HW138135   3.121   4.071  10.992 -1.5065 -0.3278  0.9156
 8834SOL    HW238136   3.233   4.089  11.093 -2.9514 -2.8432  3.7960
 8835SOL     OW38137   0.521   2.173   6.508 -0.0582  0.3653 -0.0347
 8835SOL    HW138138   0.541   2.132   6.424 -3.6741 -0.7077 -0.3872
 8835SOL    HW238139   0.506   2.262   6.477 -2.5900 -0.1883 -0.3837
 8836SOL     OW38140   1.207   3.075  12.468 -0.4753 -0.2200  0.5067
 8836SOL    HW138141   1.140   3.094  12.533 -0.6054  1.7298 -0.1689
 8836SOL    HW238142   1.236   2.988  12.494 -3.1218 -1.3556 -0.4098
 8837SOL     OW38143   1.930   2.297   6.404  0.2342  0.0232  0.2262
 8837SOL    HW138144   2.000   2.279   6.342 -1.7208 -0.7035 -1.7414
 8837SOL    HW238145   1.988   2.350   6.459 -1.2926 -0.3345  2.1807
 8838SOL     OW38146   2.399   1.927  13.784 -0.6232  0.4260  0.4049
 8838SOL    HW138147   2.307   1.936  13.759 -0.6815  0.2805  0.5613
 8838SOL    HW238148   2.446   1.991  13.731  0.7277 -1.9749 -1.2713
 8839SOL     OW38149   4.036   1.004   4.867  0.8106  0.0219  0.0023
 8839SOL    HW138150   3.984   1.051   4.933 -0.6201  1.8495 -2.4345
 8839SOL    HW238151   4.003   0.915   4.879 -0.4936  0.3620 -1.0252
 8840SOL     OW38152   0.688   2.207   7.179  0.4510 -0.2021 -0.1659
 8840SOL    HW138153   0.657   2.221   7.090  0.9514 -2.4749 -0.6946
 8840SOL    HW238154   0.640   2.127   7.202 -1.2978  0.4452 -1.5480
 8841SOL     OW38155   3.361   1.176   8.550  0.9142  0.2995 -0.3104
 8841SOL    HW138156   3.361   1.142   8.460 -1.9350  1.1630 -0.6504
 8841SOL    HW238157   3.430   1.125   8.593  3.7390  1.7522 -3.1602
 8842SOL     OW38158   2.094   3.561   7.427  0.2768 -0.0194  0.8213
 8842SOL    HW138159   2.126   3.588   7.341 -3.2858  0.7922 -0.2337
 8842SOL    HW238160   2.013   3.611   7.428 -1.0904 -2.2020 -0.6660
 8843SOL     OW38161   4.274   4.085   3.319 -0.3857 -0.2519  0.2463
 8843SOL    HW138162   4.303   3.998   3.292  0.5659  0.2726 -0.3841
 8843SOL    HW238163   4.325   4.109   3.397 -1.4532 -1.8543  1.4355
 8844SOL     OW38164   1.082   3.833   3.134  0.7823  0.1021 -0.2343
 8844SOL    HW138165   1.018   3.885   3.182 -0.8583 -2.5599  0.4240
 8844SOL    HW238166   1.170   3.840   3.172  0.6299  0.9518 -0.0395
 8845SOL     OW38167   0.818   2.401   7.778  0.3265 -0.0709 -0.1533
 8845SOL    HW138168   0.766   2.337   7.730  2.0251 -1.8393  0.3706
 8845SOL    HW238169   0.759   2.475   7.787  1.1227  0.7804 -1.9083
 8846SOL     OW38170   2.502   1.989   6.057  0.3880  0.7267 -0.0129
 8846SOL    HW138171   2.423   1.948   6.094  1.4075  0.0013  1.3430
 8846SOL    HW238172   2.513   1.934   5.980  2.0348 -0.8063  1.3392
 8847SOL     OW38173   3.971   4.416   5.915  0.2712  0.1814  0.3088
 8847SOL    HW138174   4.059   4.453   5.917  0.4703 -0.2837  0.1348
 8847SOL    HW238175   3.967   4.369   5.999  0.0378  0.5836  0.5247
 8848SOL     OW38176   0.572   1.890   5.117 -0.0642  0.3789  0.2777
 8848SOL    HW138177   0.495   1.888   5.174 -0.3276  0.1577 -0.0810
 8848SOL    HW238178   0.636   1.925   5.178 -1.0385  1.6239  0.5930
 8849SOL     OW38179   4.062   0.036   7.645  0.2311  0.2139 -0.0505
 8849SOL    HW138180   4.047   0.127   7.621  1.8412  0.6312  0.5025
 8849SOL    HW238181   3.973   0.004   7.634 -0.0023  0.9594 -0.2977
 8850SOL     OW38182   0.040   0.328   1.757  0.5494 -0.5129  0.1533
 8850SOL    HW138183   0.112   0.382   1.789 -1.3675  0.0073  3.5614
 8850SOL    HW238184   0.020   0.380   1.679  0.5013  0.8674  1.0776
 8851SOL     OW38185   2.511   1.179   6.593 -0.1337  0.5008 -0.1465
 8851SOL    HW138186   2.576   1.211   6.655  0.5113  0.7665 -0.9551
 8851SOL    HW238187   2.439   1.243   6.602  0.3011  0.8112  1.0884
 8852SOL     OW38188   3.835   0.065   6.945 -0.0644  0.2804 -0.4220
 8852SOL    HW138189   3.889   0.021   7.011  2.3478  1.9777 -1.2366
 8852SOL    HW238190   3.788   4.732   6.912 -0.8059  0.5507 -0.0102
 8853SOL     OW38191   0.504   4.008   5.064  0.1237  0.5934 -0.2925
 8853SOL    HW138192   0.409   4.001   5.078 -0.1339  1.2632 -1.7240
 8853SOL    HW238193   0.499   4.051   4.978  1.1464 -2.8435 -2.0645
 8854SOL     OW38194   2.969   1.354   1.681  0.8405 -0.0817 -0.0361
 8854SOL    HW138195   3.061   1.377   1.693  1.2777 -0.4978 -2.5294
 8854SOL    HW238196   2.972   1.296   1.605  2.8072 -0.4453  0.3303
 8855SOL     OW38197   1.330   1.526   1.250 -0.1078  0.1082  0.1280
 8855SOL    HW138198   1.281   1.590   1.197  1.2296  0.6769 -0.4286
 8855SOL    HW238199   1.264   1.500   1.315  0.8420 -3.7692 -0.4496
 8856SOL     OW38200   3.509   4.416   7.042 -0.0693 -0.2423 -0.0458
 8856SOL    HW138201   3.475   4.364   6.970 -1.9244 -1.4199  1.6837
 8856SOL    HW238202   3.429   4.428   7.093 -0.0727  0.8041 -0.3011
 8857SOL     OW38203   2.561   0.525   3.341  0.2440  0.2704  0.1550
 8857SOL    HW138204   2.488   0.516   3.280  1.3232 -0.7425 -0.9868
 8857SOL    HW238205   2.542   0.610   3.380  1.9963  0.8765 -0.3255
 8858SOL     OW38206   4.466   0.717   2.552 -0.2536  0.1145 -0.3644
 8858SOL    HW138207   4.512   0.756   2.477  0.1886 -1.4768 -0.9250
 8858SOL    HW238208   4.457   0.792   2.610  4.5732 -0.2074  0.8605
 8859SOL     OW38209   0.158   0.522   1.510  0.0050 -0.3175 -0.2759
 8859SOL    HW138210   0.098   0.589   1.543  0.6257  0.3318 -0.4756
 8859SOL    HW238211   0.241   0.568   1.509  0.0908 -0.4429  0.5478
 8860SOL     OW38212   1.392   4.642  15.744  0.4934 -0.0512  0.6093
 8860SOL    HW138213   1.480   4.674  15.766  1.0495 -0.1301 -1.5400
 8860SOL    HW238214   1.410   4.548  15.742  0.6548  0.0039 -0.4385
 8861SOL     OW38215   0.342   3.307  10.492  0.0409 -0.3265 -0.1090
 8861SOL    HW138216   0.393   3.232  10.523 -1.3816 -0.5259  1.7391
 8861SOL    HW238217   0.393   3.334  10.415  0.9508  1.2020  1.0330
 8862SOL     OW38218   1.615   4.647  10.339  0.2073 -0.2755 -0.0823
 8862SOL    HW138219   1.657   4.612  10.418  1.2500  0.6198 -0.2392
 8862SOL    HW238220   1.693   4.687  10.300  0.3490 -3.3737 -3.0216
 8863SOL     OW38221   3.061   3.059  10.558 -0.8991  0.3770  0.2351
 8863SOL    HW138222   3.045   2.981  10.505 -3.1720  0.8817  0.1948
 8863SOL    HW238223   3.006   3.042  10.635 -3.1476 -0.2714 -1.5267
 8864SOL     OW38224   3.488   0.245   3.407 -0.2878  0.0356  0.6930
 8864SOL    HW138225   3.497   0.159   3.367  1.4845  0.1385  0.9017
 8864SOL    HW238226   3.398   0.229   3.438 -0.8523 -2.4457 -2.3102
 8865SOL     OW38227   0.285   1.485  13.376 -0.7649 -0.5472  0.1616
 8865SOL    HW138228   0.199   1.526  13.367 -0.3107  0.4031  0.1464
 8865SOL    HW238229   0.342   1.538  13.320 -1.2089 -1.0321 -0.7433
 8866SOL     OW38230   1.084   4.374   8.329 -0.5930  0.0756 -0.3130
 8866SOL    HW138231   1.053   4.464   8.339  1.5830  0.6447  1.4291
 8866SOL    HW238232   1.021   4.340   8.266 -0.9376  0.1687 -0.0186
 8867SOL     OW38233   2.394   1.324   1.323 -0.2412  0.1109  0.3452
 8867SOL    HW138234   2.470   1.374   1.295 -0.6982  0.2144 -0.6940
 8867SOL    HW238235   2.414   1.322   1.417 -0.4239  0.9630  0.4030
 8868SOL     OW38236   0.728   1.708   2.802 -0.1166  0.0623 -0.6154
 8868SOL    HW138237   0.736   1.802   2.812 -0.0732  0.0790 -0.8004
 8868SOL    HW238238   0.634   1.696   2.795  0.1515 -2.3811 -0.1200
 8869SOL     OW38239   3.533   1.381  15.461 -0.6553  0.0234 -0.5754
 8869SOL    HW138240   3.514   1.299  15.416 -1.8920  0.8182 -1.5046
 8869SOL    HW238241   3.590   1.344  15.529 -2.6274 -1.2833  0.3751
 8870SOL     OW38242   4.011   0.980   9.120 -0.1057 -0.6604  0.4290
 8870SOL    HW138243   3.962   0.933   9.188 -1.7427  1.2439  0.5646
 8870SOL    HW238244   3.945   1.029   9.071 -0.5589  1.0029  2.6911
 8871SOL     OW38245   3.071   1.897  13.487 -0.2297 -0.2635 -0.0185
 8871SOL    HW138246   3.035   1.983  13.507 -2.2211 -0.6913 -1.7506
 8871SOL    HW238247   2.994   1.840  13.486 -2.3956  2.6802 -1.2375
 8872SOL     OW38248   3.029   3.601   4.635  0.0255 -0.3046 -0.2719
 8872SOL    HW138249   3.031   3.583   4.729  1.5278 -0.1286 -0.2822
 8872SOL    HW238250   3.003   3.517   4.597  1.3176 -0.5913 -0.5235
 8873SOL     OW38251   4.124   1.062   6.036 -0.3299  0.1295  0.1405
 8873SOL    HW138252   4.203   1.035   6.082 -1.7828 -0.5096  2.2519
 8873SOL    HW238253   4.061   1.045   6.106  0.0405  0.6848  0.6158
 8874SOL     OW38254   2.064   1.758   2.951 -0.4540 -0.2500  0.0860
 8874SOL    HW138255   2.050   1.846   2.984 -0.3133  0.0165 -0.5753
 8874SOL    HW238256   2.153   1.746   2.986 -0.7949 -1.7958  0.4248
 8875SOL     OW38257   4.135   1.493  14.752 -0.1679  0.6985 -0.7269
 8875SOL    HW138258   4.215   1.462  14.794 -0.2218  1.2459 -0.2257
 8875SOL    HW238259   4.163   1.517  14.664  1.8181 -2.0402 -0.8315
 8876SOL     OW38260   1.813   2.354   3.565  0.2542  0.0772  0.0999
 8876SOL    HW138261   1.827   2.355   3.660  0.9256  0.9237 -0.0035
 8876SOL    HW238262   1.770   2.439   3.554  1.2951  0.6230  0.2122
 8877SOL     OW38263   3.384   0.608   8.323 -0.0941 -0.9764 -0.1693
 8877SOL    HW138264   3.298   0.567   8.324 -0.4661 -0.3033 -3.3901
 8877SOL    HW238265   3.413   0.602   8.232 -0.4047  0.8772 -0.3945
 8878SOL     OW38266   3.852   2.516   5.138  0.3218  0.4904 -0.3300
 8878SOL    HW138267   3.937   2.501   5.096  1.3936 -0.9834  2.3452
 8878SOL    HW238268   3.796   2.543   5.066  1.4220 -0.4358 -1.5361
 8879SOL     OW38269   3.661   3.695   5.528  0.3728  0.6512  0.9673
 8879SOL    HW138270   3.633   3.654   5.610 -4.1504  2.1001  0.1069
 8879SOL    HW238271   3.584   3.744   5.501 -0.1733 -1.4705 -1.3443
 8880SOL     OW38272   2.968   0.506  14.683  0.2057  0.2101 -0.0458
 8880SOL    HW138273   2.880   0.485  14.652  0.6232  0.0036 -1.0903
 8880SOL    HW238274   2.948   0.594  14.715 -3.2389 -0.8900  0.8379
 8881SOL     OW38275   1.549   3.088   7.098 -0.5852  0.2605  0.4197
 8881SOL    HW138276   1.576   3.017   7.040 -0.9239  0.1959  0.3424
 8881SOL    HW238277   1.574   3.046   7.180 -0.7086  0.2079  0.4290
 8882SOL     OW38278   2.478   2.580   9.048  0.1249  0.5271 -0.2181
 8882SOL    HW138279   2.403   2.520   9.049 -0.6364  1.4707 -1.1131
 8882SOL    HW238280   2.471   2.617   9.136  3.9124  0.6135  0.0546
 8883SOL     OW38281   0.165   3.090   2.512  0.1219 -0.4157 -0.2247
 8883SOL    HW138282   0.224   3.075   2.439 -0.3856 -0.6732 -0.5808
 8883SOL    HW238283   0.079   3.063   2.478 -0.8888  0.0845  1.8777
 8884SOL     OW38284   3.228   2.917   3.744  0.3862 -0.1508 -0.5296
 8884SOL    HW138285   3.316   2.940   3.715  0.9227  0.6627  1.7683
 8884SOL    HW238286   3.256   2.879   3.827  1.7415  1.0531 -0.4495
 8885SOL     OW38287   3.797   2.675   5.365  0.1121 -0.1407 -0.0183
 8885SOL    HW138288   3.805   2.596   5.311 -1.3039  0.3635 -0.9902
 8885SOL    HW238289   3.884   2.715   5.362 -0.0905  0.4271  2.0625
 8886SOL     OW38290   1.247   2.163   5.470 -0.5093  0.3588  0.1111
 8886SOL    HW138291   1.165   2.196   5.508 -0.4895  1.6962 -0.9749
 8886SOL    HW238292   1.236   2.070   5.490 -0.0585  0.4657  0.8456
 8887SOL     OW38293   0.411   1.813   7.441  0.0312  0.3793 -0.1831
 8887SOL    HW138294   0.392   1.880   7.376  0.0783  0.5414 -0.0320
 8887SOL    HW238295   0.374   1.741   7.391 -1.3476  0.5239  0.6128
 8888SOL     OW38296   3.563   4.494   4.279 -0.3473 -0.0913  0.2242
 8888SOL    HW138297   3.508   4.523   4.352  1.8630  1.5764  1.2125
 8888SOL    HW238298   3.640   4.491   4.336 -0.2770  1.6914  0.2392
 8889SOL     OW38299   3.471   0.935   5.852 -0.6720 -0.1716  0.0361
 8889SOL    HW138300   3.533   1.002   5.823 -1.4290  1.4695  2.2509
 8889SOL    HW238301   3.441   0.966   5.937  1.8570  0.4870  0.6795
 8890SOL     OW38302   1.849   2.589  13.709  0.0977 -0.9124 -0.0844
 8890SOL    HW138303   1.838   2.585  13.614 -0.0395  0.4749 -0.1236
 8890SOL    HW238304   1.908   2.514  13.721  1.4665  0.5437  2.1807
 8891SOL     OW38305   2.889   1.393   8.455  0.0331  0.9787  0.0155
 8891SOL    HW138306   2.910   1.309   8.497  2.4865  0.4968 -2.0956
 8891SOL    HW238307   2.914   1.369   8.365 -0.9308 -1.3178  0.3597
 8892SOL     OW38308   3.901   3.705  14.194  0.3981 -0.1497  0.5002
 8892SOL    HW138309   3.864   3.649  14.126 -3.4550  0.1747  2.3236
 8892SOL    HW238310   3.873   3.792  14.165 -0.1044 -0.5922 -0.3246
 8893SOL     OW38311   1.946   2.124   8.960  0.1328  0.1383  0.1541
 8893SOL    HW138312   1.990   2.209   8.955  1.7302 -0.7489 -0.7860
 8893SOL    HW238313   1.912   2.129   9.049  1.7521 -2.0816  0.8951
 8894SOL     OW38314   1.093   2.854   1.793  0.2984  0.3600  1.1511
 8894SOL    HW138315   1.071   2.937   1.752 -1.6587 -1.6600 -1.8757
 8894SOL    HW238316   1.097   2.878   1.886  0.9264  2.3583  0.6181
 8895SOL     OW38317   0.740   0.022   9.172  0.5865  0.6796  0.6911
 8895SOL    HW138318   0.724   0.113   9.148  0.5769  1.0061  1.9757
 8895SOL    HW238319   0.716   0.011   9.264  0.6582  0.0398  0.6342
 8896SOL     OW38320   0.061   0.607  16.210  0.6737  0.2155  0.9648
 8896SOL    HW138321   0.007   0.540  16.169  0.9388  0.4315  0.2640
 8896SOL    HW238322   0.050   0.580  16.301  0.0255 -2.1708  0.1746
 8897SOL     OW38323   1.430   2.985   3.174  0.1063  0.3185 -0.0803
 8897SOL    HW138324   1.383   2.998   3.256 -1.7700  1.4087 -1.3102
 8897SOL    HW238325   1.404   2.896   3.149 -0.0969  0.0843  0.9805
 8898SOL     OW38326   4.632   1.623   5.563  0.3900  0.6632 -0.4211
 8898SOL    HW138327   4.602   1.532   5.567  1.0818  0.4602  0.1087
 8898SOL    HW238328   4.627   1.630   5.658  0.7198 -1.1734 -0.2575
 8899SOL     OW38329   3.529   3.922  15.057  0.1025 -0.4554  0.3265
 8899SOL    HW138330   3.490   3.841  15.089 -0.9773 -0.3803 -0.8225
 8899SOL    HW238331   3.614   3.887  15.030  0.1490 -0.4612  0.4786
 8900SOL     OW38332   0.125   0.080  16.508  0.2188 -0.1320 -1.0066
 8900SOL    HW138333   0.219   0.094  16.516 -0.0961 -0.4945  3.4396
 8900SOL    HW238334   0.102   0.160  16.556 -0.6943 -0.7496 -0.4138
 8901SOL     OW38335   4.570   1.074   6.397 -0.2447  0.1020  0.0178
 8901SOL    HW138336   4.608   1.079   6.309  0.8962  3.2556  0.6839
 8901SOL    HW238337   4.542   1.164   6.410  3.0150  0.8461  2.0242
 8902SOL     OW38338   2.039   3.139   0.785 -0.2401  0.0835 -0.9181
 8902SOL    HW138339   2.105   3.149   0.716 -0.2140  3.9174 -0.3513
 8902SOL    HW238340   2.089   3.165   0.862 -0.9523  0.8081 -0.7003
 8903SOL     OW38341   3.780   3.965   6.215 -0.5116  0.3869  0.4342
 8903SOL    HW138342   3.702   3.972   6.161 -0.9285  0.7095  1.0661
 8903SOL    HW238343   3.848   4.015   6.169 -0.1697 -0.9433 -0.4897
 8904SOL     OW38344   2.356   0.122   0.930 -0.3620  0.4012 -0.1268
 8904SOL    HW138345   2.408   0.044   0.952 -0.3092  0.7448  0.9768
 8904SOL    HW238346   2.361   0.133   0.836 -1.1311 -2.8914 -0.5799
 8905SOL     OW38347   3.948   0.214   5.609  0.0562  0.3274  0.2071
 8905SOL    HW138348   3.927   0.301   5.644 -1.9426  0.4686 -1.2889
 8905SOL    HW238349   4.030   0.233   5.564 -0.0948  3.8440  1.4171
 8906SOL     OW38350   3.577   4.214   1.365 -0.0811 -0.2057  0.4427
 8906SOL    HW138351   3.604   4.284   1.425  1.1185 -0.3311  0.0373
 8906SOL    HW238352   3.650   4.155   1.382  0.2122  0.6139  2.0461
 8907SOL     OW38353   4.163   1.825   8.957 -0.2508  0.2552  0.4715
 8907SOL    HW138354   4.139   1.820   8.865  0.2137 -1.6217  0.4447
 8907SOL    HW238355   4.225   1.898   8.951  0.0488 -0.0871 -0.6126
 8908SOL     OW38356   0.233   2.450   3.209  0.3876  0.4131 -0.3341
 8908SOL    HW138357   0.185   2.432   3.290 -0.7076  1.1529 -0.8232
 8908SOL    HW238358   0.258   2.359   3.191 -2.9271 -0.2973 -1.3929
 8909SOL     OW38359   4.555   0.856  16.313  0.0291 -0.0481 -0.3556
 8909SOL    HW138360   4.566   0.906  16.233  1.4757 -1.1821 -0.8779
 8909SOL    HW238361   4.630   0.867  16.372 -0.2631 -0.1321  0.0329
 8910SOL     OW38362   1.996   4.105   8.513 -0.1546  0.2666 -0.2721
 8910SOL    HW138363   1.919   4.048   8.515 -0.3318  0.4900 -0.7215
 8910SOL    HW238364   2.066   4.058   8.558 -1.2527 -3.0112 -1.9807
 8911SOL     OW38365   4.556   0.322   2.056 -0.0489 -0.0122 -0.3869
 8911SOL    HW138366   4.467   0.325   2.088  0.4265 -2.3678  1.1653
 8911SOL    HW238367   4.581   0.411   2.030 -0.2305  0.1325 -0.0554
 8912SOL     OW38368   4.446   3.533   4.721 -0.0497 -0.1249  0.4558
 8912SOL    HW138369   4.360   3.561   4.752 -0.3049 -1.1258  0.6449
 8912SOL    HW238370   4.463   3.443   4.748  0.3880 -0.8352 -2.2011
 8913SOL     OW38371   1.532   3.723   3.863  0.0627 -1.2285  0.1240
 8913SOL    HW138372   1.608   3.667   3.847  0.8659  0.3568 -1.6165
 8913SOL    HW238373   1.463   3.688   3.805  1.0454 -2.3129 -0.4002
 8914SOL     OW38374   0.469   4.509  13.086 -0.5169 -0.6556  0.0980
 8914SOL    HW138375   0.545   4.548  13.043 -0.1212  1.9410  3.1479
 8914SOL    HW238376   0.484   4.542  13.175 -2.5701  1.7681 -0.4669
 8915SOL     OW38377   1.249   1.434  10.187 -0.2825 -0.4715  0.0434
 8915SOL    HW138378   1.307   1.403  10.117  0.7176  0.7650  0.3088
 8915SOL    HW238379   1.230   1.522  10.154  1.3611 -0.1935 -0.1956
 8916SOL     OW38380   2.274   1.584   0.987  0.2183 -0.0467  0.2626
 8916SOL    HW138381   2.352   1.639   0.972 -0.3368  0.4153 -0.9453
 8916SOL    HW238382   2.202   1.646   0.989 -0.3243 -0.7386  1.6013
 8917SOL     OW38383   4.078   3.415  17.367  0.5553 -0.0901  0.2883
 8917SOL    HW138384   4.037   3.442  17.285 -1.0503 -1.1480  0.7554
 8917SOL    HW238385   4.171   3.419  17.343  0.3731  1.3984 -0.1624
 8918SOL     OW38386   3.794   2.723   3.813 -0.0329  0.0059  0.0568
 8918SOL    HW138387   3.732   2.778   3.765 -0.1283  0.1553  0.3541
 8918SOL    HW238388   3.850   2.792   3.849 -3.1831  1.4999  2.1529
 8919SOL     OW38389   0.472   4.702   8.919  0.0436  0.5118  0.5036
 8919SOL    HW138390   0.489   0.043   8.878  0.7793  0.3051  0.3868
 8919SOL    HW238391   0.423   4.719   8.999 -2.4188  0.6884 -1.0279
 8920SOL     OW38392   3.225   3.335   7.755 -0.3962 -0.1787 -0.0045
 8920SOL    HW138393   3.247   3.295   7.670  0.0189  0.1281 -0.0381
 8920SOL    HW238394   3.166   3.405   7.726  1.9758  0.8551 -2.3162
 8921SOL     OW38395   2.944   3.173  16.186  0.1319  0.0333 -0.1246
 8921SOL    HW138396   2.866   3.142  16.232 -0.5262  0.4319 -0.9691
 8921SOL    HW238397   2.911   3.182  16.097 -2.1797  0.0410  0.7307
 8922SOL     OW38398   3.701   0.492   8.753  1.0764 -0.1101 -0.6298
 8922SOL    HW138399   3.638   0.428   8.785  0.5746  0.4603 -0.4761
 8922SOL    HW238400   3.780   0.450   8.785 -0.6447 -2.4458  0.5200
 8923SOL     OW38401   3.965   4.462  16.844  0.1694 -0.0884  0.2695
 8923SOL    HW138402   3.877   4.462  16.881 -0.5118 -1.9249 -1.4075
 8923SOL    HW238403   3.936   4.407  16.772 -1.0446  0.7625  0.1002
 8924SOL     OW38404   3.301   4.317   6.033  0.1396  0.1393 -0.0173
 8924SOL    HW138405   3.236   4.385   6.014 -2.0025 -1.7612  0.4793
 8924SOL    HW238406   3.370   4.341   5.972 -1.6305  1.3163 -1.5942
 8925SOL     OW38407   0.072   2.392   3.426 -0.4915  0.0666 -0.2590
 8925SOL    HW138408   0.091   2.464   3.487  1.9795  0.2055 -1.1923
 8925SOL    HW238409   0.095   2.316   3.480  0.1694 -0.0069 -0.6434
 8926SOL     OW38410   3.031   1.247   6.673  0.2995  0.3042 -0.0515
 8926SOL    HW138411   3.076   1.166   6.696  0.4178  0.3737 -0.0365
 8926SOL    HW238412   2.992   1.221   6.590 -1.6454 -0.8928  1.2504
 8927SOL     OW38413   0.274   4.200   6.985 -0.1281  1.1169 -0.1898
 8927SOL    HW138414   0.348   4.184   7.043 -1.6971  0.1739  1.5642
 8927SOL    HW238415   0.296   4.135   6.919  0.7404  0.6211  0.5893
 8928SOL     OW38416   0.703   3.761   0.858  0.0556  0.2067  0.1227
 8928SOL    HW138417   0.724   3.752   0.765  0.1780 -3.8635  0.5260
 8928SOL    HW238418   0.697   3.852   0.888  0.1899  0.6872 -1.2958
 8929SOL     OW38419   2.016   3.620   2.428 -0.0766  0.1358 -0.1862
 8929SOL    HW138420   1.954   3.687   2.400  0.5265  1.3465  1.4206
 8929SOL    HW238421   1.992   3.591   2.516  0.9367 -1.5565 -0.4702
 8930SOL     OW38422   0.077   3.729   5.602 -0.0235  0.1902  0.1849
 8930SOL    HW138423   0.064   3.646   5.648  1.7341 -0.0580  0.2336
 8930SOL    HW238424   0.152   3.703   5.549  0.3855 -0.7962  1.2479
 8931SOL     OW38425   4.417   2.052   7.521  0.5267 -0.0064 -0.2080
 8931SOL    HW138426   4.398   2.142   7.547  1.2657  0.7266 -2.1827
 8931SOL    HW238427   4.328   2.024   7.543  0.9707 -0.4153  1.0191
 8932SOL     OW38428   1.324   4.622   5.605  0.5678  0.0218  0.1141
 8932SOL    HW138429   1.328   4.658   5.517 -1.0657 -0.3241 -0.1142
 8932SOL    HW238430   1.370   4.690   5.654  0.6665 -2.5261  3.6137
 8933SOL     OW38431   2.336   3.623   5.364  0.1099 -0.3787 -0.2746
 8933SOL    HW138432   2.243   3.618   5.344  0.0451 -1.6402  0.3213
 8933SOL    HW238433   2.338   3.603   5.458 -0.8917 -0.2940 -0.2320
 8934SOL     OW38434   4.459   4.665   4.253  0.0858 -0.8577  0.0174
 8934SOL    HW138435   4.425   4.701   4.335 -0.1160 -0.2378 -0.3387
 8934SOL    HW238436   4.439   4.573   4.272 -0.7387 -0.7235 -0.1682
 8935SOL     OW38437   0.801   4.396  17.287  0.3305 -0.2549  0.5130
 8935SOL    HW138438   0.723   4.345  17.309  0.0691 -0.6573 -1.3194
 8935SOL    HW238439   0.868   4.330  17.299  1.2760  0.7510  0.7793
 8936SOL     OW38440   1.980   3.520   8.264 -0.4480  0.1909  0.8937
 8936SOL    HW138441   1.987   3.434   8.222 -0.1249  0.5418  0.2364
 8936SOL    HW238442   1.969   3.496   8.356  1.1465  0.7452  1.2301
 8937SOL     OW38443   1.098   0.294  16.944 -0.6179 -0.2837 -0.0493
 8937SOL    HW138444   1.063   0.296  17.033  0.1367 -0.7625  0.2583
 8937SOL    HW238445   1.054   0.211  16.925  0.6289 -1.4443  2.1209
 8938SOL     OW38446   0.413   2.522   3.661 -0.5748 -0.0114  0.3828
 8938SOL    HW138447   0.395   2.490   3.750  0.2862 -1.2903  0.0829
 8938SOL    HW238448   0.489   2.575   3.685 -1.5523  1.7604 -0.3832
 8939SOL     OW38449   0.910   2.464  10.349  0.1166 -0.2507  0.1031
 8939SOL    HW138450   0.985   2.447  10.292 -0.8541  0.2418 -1.3266
 8939SOL    HW238451   0.869   2.538  10.304 -1.6893 -1.4273 -0.1942
 8940SOL     OW38452   1.375   0.692   0.980 -0.5404  0.2303  0.0916
 8940SOL    HW138453   1.412   0.740   1.054  3.5523  0.5213 -2.1904
 8940SOL    HW238454   1.342   0.613   1.022  2.7077  0.8902  3.8784
 8941SOL     OW38455   2.426   2.071  17.350 -0.2666  0.4054  0.1283
 8941SOL    HW138456   2.355   2.134  17.358 -1.1635 -0.3642 -1.9126
 8941SOL    HW238457   2.419   2.028  17.436 -0.6214 -1.4570 -0.8334
 8942SOL     OW38458   4.656   0.617   4.033 -0.2127 -0.3538  0.1195
 8942SOL    HW138459   4.619   0.608   3.946 -1.1425  0.5447  0.4247
 8942SOL    HW238460   4.708   0.538   4.047 -1.0620 -1.2416 -1.8155
 8943SOL     OW38461   3.028   0.896   5.521  0.3027 -0.5584  0.6109
 8943SOL    HW138462   2.939   0.864   5.506 -0.2755  0.9445  0.8259
 8943SOL    HW238463   3.050   0.933   5.435 -0.1096 -4.8136 -1.3109
 8944SOL     OW38464   2.577   4.050  14.787  0.0809 -0.7508 -0.4541
 8944SOL    HW138465   2.661   4.096  14.785 -0.0975 -0.3496  1.2075
 8944SOL    HW238466   2.547   4.042  14.697 -1.5727  2.4526 -0.1661
 8945SOL     OW38467   0.569   1.082   9.118  0.4447 -0.1200  0.2319
 8945SOL    HW138468   0.586   0.988   9.127  2.8374  0.1480 -1.4305
 8945SOL    HW238469   0.478   1.083   9.145 -0.1986  0.2565 -1.9096
 8946SOL     OW38470   3.224   1.683  10.538 -0.3690 -0.3591  0.7092
 8946SOL    HW138471   3.289   1.641  10.594  0.3681 -0.9839 -0.5969
 8946SOL    HW238472   3.157   1.615  10.526 -0.6267  0.0447 -0.1317
 8947SOL     OW38473   1.447   2.335  17.334 -0.1474 -0.1183 -0.0992
 8947SOL    HW138474   1.432   2.412  17.280 -0.3746  1.2545  1.9477
 8947SOL    HW238475   1.435   2.379  17.418 -0.1887 -1.6880  0.7292
 8948SOL     OW38476   4.669   3.460   5.883  0.5946  0.1251  0.3557
 8948SOL    HW138477   4.740   3.435   5.824 -0.2464  0.8598 -0.9767
 8948SOL    HW238478   4.714   3.524   5.938  1.3242 -1.1845  1.2895
 8949SOL     OW38479   0.111   2.697   8.803  0.4347 -0.4474 -0.3882
 8949SOL    HW138480   0.115   2.634   8.732  2.0637  1.7005 -2.2089
 8949SOL    HW238481   0.041   2.753   8.771 -2.5019 -3.1833  1.2886
 8950SOL     OW38482   1.141   0.082   3.342 -0.1723  0.0575 -0.5192
 8950SOL    HW138483   1.061   0.053   3.387 -1.3942  3.7009 -0.3163
 8950SOL    HW238484   1.130   0.177   3.335  1.4426  0.4578  2.4106
 8951SOL     OW38485   3.302   1.601  17.447 -0.1810 -0.5331 -0.3658
 8951SOL    HW138486   3.398   1.598  17.446 -0.1781 -0.5849  0.9874
 8951SOL    HW238487   3.279   1.649  17.367  0.1733 -1.2036 -0.8720
 8952SOL     OW38488   1.734   0.930   0.012  0.3808 -0.3703 -0.2228
 8952SOL    HW138489   1.672   0.993   0.049  1.1061  0.2599 -0.0690
 8952SOL    HW238490   1.810   0.989   0.017  1.3220 -1.5009 -1.0113
 8953SOL     OW38491   2.113   2.849   9.073  0.0297 -0.0140  0.3671
 8953SOL    HW138492   2.161   2.854   9.156  1.4855  1.7789 -0.5827
 8953SOL    HW238493   2.170   2.898   9.013 -0.8767  0.1179 -0.3785
 8954SOL     OW38494   0.994   1.467   5.662 -0.3295 -0.1327  0.3329
 8954SOL    HW138495   1.067   1.526   5.677 -1.4863  1.3598  0.0627
 8954SOL    HW238496   1.003   1.412   5.740 -2.1471 -0.5526  0.2473
 8955SOL     OW38497   0.477   0.318   0.403  0.0987 -0.6993 -0.6954
 8955SOL    HW138498   0.484   0.309   0.308  2.3675 -1.8738 -0.4140
 8955SOL    HW238499   0.393   0.277   0.425 -1.1430  2.1684 -0.0980
 8956SOL     OW38500   4.492   4.531   4.725 -0.0616 -0.8214 -0.2292
 8956SOL    HW138501   4.504   4.600   4.660 -1.5636 -1.0064 -0.7023
 8956SOL    HW238502   4.519   4.564   4.810 -2.6480 -1.9298  0.9823
 8957SOL     OW38503   2.355   1.565  10.200  0.0446 -0.0789  0.1202
 8957SOL    HW138504   2.299   1.586  10.274 -0.4611 -0.3638 -0.1835
 8957SOL    HW238505   2.416   1.510  10.250 -0.8780 -0.2819  1.0270
 8958SOL     OW38506   1.722   4.548   5.477 -0.2545  0.2520 -0.3018
 8958SOL    HW138507   1.731   4.594   5.560 -0.3534 -1.0302  0.4204
 8958SOL    HW238508   1.660   4.482   5.507 -0.6259  0.1596 -1.2572
 8959SOL     OW38509   1.597   3.684   2.343  0.4206 -0.6658  0.2743
 8959SOL    HW138510   1.625   3.776   2.340 -0.5150 -0.3992 -0.1721
 8959SOL    HW238511   1.635   3.656   2.260  2.4763 -2.6241  1.8869
 8960SOL     OW38512   0.890   2.418   4.307 -0.0923  0.0164 -0.1098
 8960SOL    HW138513   0.812   2.474   4.311 -0.3323 -0.2132 -1.6418
 8960SOL    HW238514   0.960   2.477   4.337 -0.3494 -0.5759  1.6550
 8961SOL     OW38515   1.802   0.271   8.144 -0.0295 -0.3552 -0.2862
 8961SOL    HW138516   1.860   0.289   8.070 -0.0903 -0.0276 -0.2545
 8961SOL    HW238517   1.864   0.282   8.216  0.6280 -0.7114 -0.8056
 8962SOL     OW38518   2.694   1.289  15.136 -0.4450  0.4318  0.4271
 8962SOL    HW138519   2.751   1.266  15.063 -1.6286 -0.9122 -0.0598
 8962SOL    HW238520   2.726   1.234  15.207  1.3568  1.9599  0.8157
 8963SOL     OW38521   1.896   3.407   4.993  0.2585 -0.5325  0.1776
 8963SOL    HW138522   1.901   3.353   5.071 -3.2246  0.3861  1.0271
 8963SOL    HW238523   1.821   3.371   4.946  0.7381  1.9756 -2.5557
 8964SOL     OW38524   1.895   1.903   9.969 -0.3029 -0.5932  0.6119
 8964SOL    HW138525   1.905   1.942  10.056 -1.6450  1.3735 -0.1226
 8964SOL    HW238526   1.915   1.810   9.979 -2.3708 -0.9550  1.4259
 8965SOL     OW38527   3.303   3.407   9.437 -0.0066  0.1433 -0.5268
 8965SOL    HW138528   3.377   3.356   9.406  3.0557  3.8981  0.5672
 8965SOL    HW238529   3.252   3.343   9.485 -0.8606 -0.5978 -2.4452
 8966SOL     OW38530   1.365   4.346   7.278  0.2238  0.0846 -0.0891
 8966SOL    HW138531   1.403   4.282   7.217 -0.9090  0.3778 -1.1123
 8966SOL    HW238532   1.402   4.319   7.362 -0.1866 -3.0700 -0.9260
 8967SOL     OW38533   3.686   2.590  15.191  0.1842  0.3361 -0.0082
 8967SOL    HW138534   3.719   2.614  15.104  1.0763 -0.7884  0.0360
 8967SOL    HW238535   3.594   2.568  15.176  0.3991 -0.1462 -0.6148
 8968SOL     OW38536   3.191   1.277   4.777  0.1278 -0.3932 -0.6224
 8968SOL    HW138537   3.170   1.365   4.810  0.6689 -0.2231 -0.7280
 8968SOL    HW238538   3.124   1.226   4.823  0.7922  0.7569  1.6124
 8969SOL     OW38539   4.360   4.340  13.226 -0.3392  0.4306  0.0177
 8969SOL    HW138540   4.364   4.252  13.263  0.3468  0.1243 -0.7920
 8969SOL    HW238541   4.300   4.387  13.284  0.0563  0.1275  0.6824
 8970SOL     OW38542   4.409   1.192   4.417  0.0242 -0.1359 -0.1360
 8970SOL    HW138543   4.458   1.226   4.492 -2.4681 -1.9084  2.2715
 8970SOL    HW238544   4.326   1.236   4.434 -0.1576 -0.1646 -0.9542
 8971SOL     OW38545   0.761   2.991   3.515  0.1552 -0.5564  0.7106
 8971SOL    HW138546   0.729   2.904   3.539  3.0837 -2.1585 -1.2856
 8971SOL    HW238547   0.685   3.043   3.488  2.4644  0.9664 -2.6547
 8972SOL     OW38548   0.574   1.505   5.804 -0.0781  0.1972 -0.8391
 8972SOL    HW138549   0.596   1.497   5.896  0.1749 -2.3276 -1.1096
 8972SOL    HW238550   0.620   1.425   5.780 -0.5636  0.2946 -2.1265
 8973SOL     OW38551   0.926   1.559   6.928 -0.5512  0.4606  0.1819
 8973SOL    HW138552   0.860   1.605   6.876  1.5001  1.7904 -1.2410
 8973SOL    HW238553   0.900   1.581   7.017  1.4321 -2.4565  1.4780
 8974SOL     OW38554   1.219   3.957   4.433 -1.0678  0.6819 -0.0526
 8974SOL    HW138555   1.217   3.889   4.367 -1.9386  0.5786  0.0898
 8974SOL    HW238556   1.235   3.906   4.513 -0.3396 -0.1335 -0.7323
 8975SOL     OW38557   2.899   1.799   1.704  0.2873 -0.2511  0.2752
 8975SOL    HW138558   2.893   1.787   1.799  0.1391  0.9748  0.4167
 8975SOL    HW238559   2.825   1.853   1.678  1.0514  1.3236  1.3060
 8976SOL     OW38560   1.029   0.125   2.606  0.2844  0.2415  0.3362
 8976SOL    HW138561   0.974   0.145   2.682 -1.9361 -0.7812 -1.0089
 8976SOL    HW238562   0.975   0.051   2.577  1.7298  0.2368 -2.3287
 8977SOL     OW38563   2.906   4.033   2.402  0.3260  0.5039 -0.2711
 8977SOL    HW138564   2.924   4.090   2.326  0.4094 -0.6397 -1.1076
 8977SOL    HW238565   2.936   3.949   2.368 -1.0202  0.9367 -2.5827
 8978SOL     OW38566   1.661   1.558   0.069 -0.2335 -0.4040  0.0684
 8978SOL    HW138567   1.619   1.624   0.124 -2.0083  0.0865 -1.8697
 8978SOL    HW238568   1.754   1.574   0.088 -0.1427  0.3040 -0.9654
 8979SOL     OW38569   0.359   4.664   8.457  0.0760 -0.1983 -0.5394
 8979SOL    HW138570   0.268   4.657   8.430  0.7473 -0.1998 -2.7881
 8979SOL    HW238571   0.371   4.613   8.537 -0.1722 -0.1436 -0.4672
 8980SOL     OW38572   4.444   0.663   5.374  0.5558 -0.2895 -0.3351
 8980SOL    HW138573   4.535   0.651   5.403  0.7556  1.4952 -0.2313
 8980SOL    HW238574   4.438   0.622   5.288  1.8135 -2.1633  0.4594
 8981SOL     OW38575   2.135   0.572   2.220  0.3025  0.8640 -0.1545
 8981SOL    HW138576   2.050   0.541   2.188 -0.3735  1.8167  0.7088
 8981SOL    HW238577   2.115   0.665   2.228 -1.2416  0.4864  0.5344
 8982SOL     OW38578   2.887   4.362   3.720  0.8144 -0.1326 -0.1773
 8982SOL    HW138579   2.915   4.327   3.804  0.7813  0.5492  0.1161
 8982SOL    HW238580   2.936   4.303   3.663  1.3690 -0.3204  0.5109
 8983SOL     OW38581   1.782   2.463   6.036  0.1457 -0.0480 -0.7592
 8983SOL    HW138582   1.814   2.374   6.028 -0.8536 -0.5859  1.3444
 8983SOL    HW238583   1.829   2.498   6.111 -0.1525  1.2933 -1.1867
 8984SOL     OW38584   0.138   0.814  13.345  0.2126 -0.2039 -0.0828
 8984SOL    HW138585   0.208   0.779  13.400  0.3484 -1.0678 -0.7984
 8984SOL    HW238586   0.188   0.839  13.267 -0.0581 -0.4298 -0.3273
 8985SOL     OW38587   4.677   3.073  13.629 -0.3208 -0.2080 -0.2184
 8985SOL    HW138588   4.612   3.129  13.671  0.1928 -0.4324  0.8640
 8985SOL    HW238589   4.694   3.026  13.710 -0.3577  2.4804  1.3471
 8986SOL     OW38590   0.113   3.844  11.768  0.3052 -0.2977  0.2460
 8986SOL    HW138591   0.202   3.841  11.733  0.4099  2.5673  0.2539
 8986SOL    HW238592   0.093   3.757  11.803 -1.3283 -0.5663 -1.3150
 8987SOL     OW38593   1.448   1.206   4.987  0.0632 -0.1284  0.4317
 8987SOL    HW138594   1.440   1.125   4.937  0.3097 -0.5397  1.0565
 8987SOL    HW238595   1.499   1.261   4.927  0.8023  1.0917  2.1891
 8988SOL     OW38596   2.079   1.559  14.218  0.0285  0.4526 -0.2228
 8988SOL    HW138597   1.988   1.564  14.249 -0.1359  0.1170 -0.6471
 8988SOL    HW238598   2.064   1.486  14.158 -1.5629 -0.3363  1.1242
 8989SOL     OW38599   4.169   1.286  12.545 -0.6144  0.1293 -0.4771
 8989SOL    HW138600   4.213   1.210  12.584 -2.3375  0.1252  1.4655
 8989SOL    HW238601   4.246   1.330  12.510 -0.6375  0.6159  0.0710
 8990SOL     OW38602   1.535   1.364  10.447  0.0323  0.0807 -0.0990
 8990SOL    HW138603   1.512   1.283  10.401 -2.0583 -0.2093  1.4533
 8990SOL    HW238604   1.452   1.410  10.462  1.4267  2.2946  0.8407
 8991SOL     OW38605   4.532   0.727   6.166 -0.5304  0.4878 -0.0150
 8991SOL    HW138606   4.495   0.706   6.080  0.0674 -2.1193  0.3674
 8991SOL    HW238607   4.506   0.655   6.223  3.6177 -0.8177  0.2434
 8992SOL     OW38608   0.274   0.546   6.883 -0.0157  0.0920  0.2903
 8992SOL    HW138609   0.181   0.542   6.861 -0.7634  0.5072  3.3928
 8992SOL    HW238610   0.282   0.627   6.933 -1.8193  0.3404  0.1672
 8993SOL     OW38611   2.716   3.824   3.981  0.2006  0.2950 -0.3777
 8993SOL    HW138612   2.700   3.883   3.907  1.1178 -0.4755 -1.1833
 8993SOL    HW238613   2.721   3.739   3.937  1.5959  1.0092 -1.5648
 8994SOL     OW38614   4.388   2.748  12.280 -0.0977  0.4215 -0.0628
 8994SOL    HW138615   4.466   2.803  12.275  0.1960  0.2417  2.5316
 8994SOL    HW238616   4.351   2.789  12.358  0.3336  1.8624 -0.6222
 8995SOL     OW38617   2.200   0.305  12.971  0.5111 -0.4607  0.1351
 8995SOL    HW138618   2.293   0.306  12.948  0.5329  2.6062  0.4120
 8995SOL    HW238619   2.191   0.216  13.006 -0.8907  0.1888  1.4303
 8996SOL     OW38620   0.861   0.858   4.376 -0.3078 -0.2081  0.1844
 8996SOL    HW138621   0.831   0.947   4.359  0.4966  0.6699  3.4430
 8996SOL    HW238622   0.788   0.811   4.337 -0.4446  0.4949 -0.3993
 8997SOL     OW38623   2.677   0.617   1.814  0.0384 -0.3230  0.6937
 8997SOL    HW138624   2.716   0.590   1.731 -1.2639 -2.9208  0.9252
 8997SOL    HW238625   2.592   0.638   1.777 -0.2792 -1.3649  0.8280
 8998SOL     OW38626   4.400   4.137   4.112 -0.7023 -0.7199  0.3990
 8998SOL    HW138627   4.470   4.087   4.071  0.6648  1.0530  0.5723
 8998SOL    HW238628   4.389   4.086   4.192 -2.7417  0.7480  1.0745
 8999SOL     OW38629   0.760   0.283   8.693 -0.1989 -0.1240 -0.1073
 8999SOL    HW138630   0.707   0.315   8.766  0.0667 -0.0927  0.0721
 8999SOL    HW238631   0.738   0.330   8.612 -2.3297  1.8890  1.6463
 9000SOL     OW38632   2.502   4.479  14.799 -0.2345 -0.1814  0.3631
 9000SOL    HW138633   2.589   4.498  14.763 -0.1441  1.7442  1.6387
 9000SOL    HW238634   2.471   4.557  14.845  0.9118 -0.3922  1.4771
 9001SOL     OW38635   3.611   3.337   2.131  0.7732 -0.3351 -0.0202
 9001SOL    HW138636   3.546   3.385   2.080  2.1771 -0.4243 -1.9320
 9001SOL    HW238637   3.620   3.394   2.207  0.6376  1.5339 -1.4288
 9002SOL     OW38638   0.622   4.492   3.929 -0.5187  0.0189 -0.4578
 9002SOL    HW138639   0.537   4.487   3.972 -0.1469 -2.8174 -0.0139
 9002SOL    HW238640   0.630   4.581   3.896 -0.9109  0.1116 -0.2952
 9003SOL     OW38641   0.481   1.596   0.294 -0.7481  0.1576 -0.4463
 9003SOL    HW138642   0.455   1.597   0.386  1.3969 -0.7848  0.1506
 9003SOL    HW238643   0.575   1.585   0.288 -0.7897 -0.0117 -0.7831
 9004SOL     OW38644   1.513   3.345   9.105  0.0750 -0.1634 -0.5385
 9004SOL    HW138645   1.602   3.375   9.122 -0.2613 -0.7013  2.1684
 9004SOL    HW238646   1.518   3.250   9.096 -1.2035 -0.2496 -0.3840
 9005SOL     OW38647   3.587   1.112   2.419 -0.8368  0.3684  0.2312
 9005SOL    HW138648   3.564   1.108   2.511 -0.6621 -0.9514  0.2183
 9005SOL    HW238649   3.536   1.186   2.388 -1.6005  0.9986  3.0178
 9006SOL     OW38650   1.348   3.089   3.459  0.1795  0.4949  0.0221
 9006SOL    HW138651   1.276   3.043   3.501  0.1619  0.7634  0.2822
 9006SOL    HW238652   1.408   3.122   3.526  2.4034 -3.3444 -0.0466
 9007SOL     OW38653   1.171   3.239  10.915  0.0952 -0.8259  0.8442
 9007SOL    HW138654   1.157   3.302  10.986 -0.7585 -0.0163 -0.0418
 9007SOL    HW238655   1.198   3.164  10.968 -0.1757  1.3547  4.0561
 9008SOL     OW38656   4.133   3.940   6.175 -0.2345  0.0033 -0.6074
 9008SOL    HW138657   4.079   3.994   6.117  0.5099  1.9740  0.5211
 9008SOL    HW238658   4.123   3.857   6.129  2.3506 -1.2124  0.9820
 9009SOL     OW38659   0.281   1.822   4.217  0.2010 -0.1744 -0.3351
 9009SOL    HW138660   0.296   1.728   4.207  1.1464 -0.2278  1.4879
 9009SOL    HW238661   0.193   1.827   4.255  0.2968 -0.4946 -0.0656
 9010SOL     OW38662   4.627   0.089  16.784 -0.0882  0.2297 -0.1355
 9010SOL    HW138663   4.584   0.166  16.821 -1.6898 -0.4907 -0.4996
 9010SOL    HW238664   4.558   0.022  16.786  0.4742 -0.3586 -0.7024
 9011SOL     OW38665   1.801   2.628  12.285 -0.0078  0.2990 -0.2669
 9011SOL    HW138666   1.881   2.584  12.257 -1.2246 -3.1124  1.6018
 9011SOL    HW238667   1.738   2.577  12.234  1.2832 -1.8042  0.2398
 9012SOL     OW38668   1.290   2.246   6.993  0.2589 -0.5360  0.1758
 9012SOL    HW138669   1.241   2.266   6.914  1.1454  1.6411  0.1932
 9012SOL    HW238670   1.349   2.179   6.959 -3.2071 -2.9854 -0.9550
 9013SOL     OW38671   4.729   1.879   4.228 -0.0754 -0.4971 -0.0509
 9013SOL    HW138672   0.043   1.895   4.154 -0.0842 -0.7280 -0.1059
 9013SOL    HW238673   4.657   1.940   4.208 -0.8087 -0.8507  1.4950
 9014SOL     OW38674   3.770   0.301   3.319  0.4057 -0.0795 -0.1345
 9014SOL    HW138675   3.739   0.388   3.295  2.2478  0.2958 -1.2108
 9014SOL    HW238676   3.720   0.238   3.267  0.7304 -0.5783  0.1549
 9015SOL     OW38677   3.862   1.252   8.475  0.2937 -0.0356  0.2047
 9015SOL    HW138678   3.907   1.259   8.391  0.5332  0.9888  0.4266
 9015SOL    HW238679   3.797   1.185   8.451  1.2673 -0.2482 -1.8438
 9016SOL     OW38680   2.744   4.576  13.740  0.1556  0.3482 -0.2792
 9016SOL    HW138681   2.749   4.612  13.828 -0.3253  1.0079 -0.5259
 9016SOL    HW238682   2.804   4.634  13.691 -0.3789  1.3993  0.3154
 9017SOL     OW38683   3.828   1.855   4.763  0.2820  0.4722 -0.1703
 9017SOL    HW138684   3.817   1.897   4.848 -2.0429  0.4438 -0.4693
 9017SOL    HW238685   3.787   1.926   4.713  0.8228  0.6330 -0.3896
 9018SOL     OW38686   0.031   1.022   2.314  0.1559  0.0806 -0.3456
 9018SOL    HW138687   4.710   0.956   2.340 -1.3296  0.8850 -2.0196
 9018SOL    HW238688   4.735   1.108   2.324  2.3804  1.2019 -1.0525
 9019SOL     OW38689   1.304   3.960   1.637  0.3999 -0.7790  0.0933
 9019SOL    HW138690   1.343   3.897   1.576  1.0825  0.1757 -0.4533
 9019SOL    HW238691   1.216   3.968   1.599  0.7981  1.3512 -0.3784
 9020SOL     OW38692   1.104   4.236   8.995  0.8856  0.0223  0.0036
 9020SOL    HW138693   1.114   4.315   9.048  0.3689 -1.4916  2.3582
 9020SOL    HW238694   1.196   4.228   8.972  1.3570  3.6373  0.6609
 9021SOL     OW38695   2.549   1.528  15.270 -0.6341  0.0904 -0.2468
 9021SOL    HW138696   2.553   1.445  15.221 -1.6722 -0.6597  0.9370
 9021SOL    HW238697   2.643   1.521  15.287  0.1228  2.0027 -3.6024
 9022SOL     OW38698   1.039   2.666   3.719 -0.0664  0.3612 -0.2081
 9022SOL    HW138699   1.113   2.626   3.672 -0.3105  0.3440 -0.5710
 9022SOL    HW238700   1.021   2.745   3.669 -2.4377 -0.4044 -0.5494
 9023SOL     OW38701   1.716   1.466   1.099  0.5514 -0.5467 -0.2342
 9023SOL    HW138702   1.768   1.538   1.062  0.8572 -0.2993  0.6699
 9023SOL    HW238703   1.716   1.488   1.192 -2.3824 -0.1964 -0.3293
 9024SOL     OW38704   0.309   0.746  15.800 -0.1571  0.2670  0.1241
 9024SOL    HW138705   0.215   0.728  15.799  0.0865 -1.0373  0.7262
 9024SOL    HW238706   0.336   0.658  15.774  2.3214  0.3318  2.4208
 9025SOL     OW38707   1.706   2.650   3.144  0.1274 -0.1136  0.2868
 9025SOL    HW138708   1.691   2.685   3.056 -2.6325 -2.3406 -0.1105
 9025SOL    HW238709   1.679   2.561   3.125  1.9366 -0.5188 -0.4153
 9026SOL     OW38710   1.635   2.715   7.536  0.5352  0.0047 -0.2745
 9026SOL    HW138711   1.630   2.654   7.462  0.7304  1.6181 -1.6150
 9026SOL    HW238712   1.587   2.673   7.607  0.2111 -0.9640 -1.0633
 9027SOL     OW38713   2.301   0.389   0.565  0.3071  0.4369 -0.2739
 9027SOL    HW138714   2.358   0.394   0.489 -0.1045 -0.6350 -0.6416
 9027SOL    HW238715   2.219   0.364   0.522 -0.6591 -0.6161  2.1623
 9028SOL     OW38716   3.985   1.114  11.059  0.1683 -0.2459  0.1746
 9028SOL    HW138717   3.987   1.179  10.989 -0.7627 -0.2234  0.1587
 9028SOL    HW238718   4.031   1.153  11.133 -2.0218  0.9491  0.9038
 9029SOL     OW38719   1.442   1.873   5.103  0.0101  0.1435  0.3597
 9029SOL    HW138720   1.505   1.824   5.156 -0.0040 -0.0130  0.2309
 9029SOL    HW238721   1.409   1.800   5.050  1.2021  0.6464 -1.0488
 9030SOL     OW38722   1.445   3.706   8.905  0.7888  0.2123 -0.3982
 9030SOL    HW138723   1.395   3.786   8.888  1.0820  0.5016  0.1322
 9030SOL    HW238724   1.430   3.663   8.820  0.6995 -0.3832 -0.0794
 9031SOL     OW38725   2.478   2.340   8.687  0.7450 -0.2124 -1.2999
 9031SOL    HW138726   2.480   2.280   8.613  0.5636  0.2627 -1.6934
 9031SOL    HW238727   2.419   2.412   8.663  1.2838 -0.4938 -3.4334
 9032SOL     OW38728   3.154   1.855   1.650  0.0714  0.0143 -0.3849
 9032SOL    HW138729   3.152   1.950   1.641  1.5961 -0.0506 -1.5540
 9032SOL    HW238730   3.068   1.839   1.687  0.0041  3.3243  0.8317
 9033SOL     OW38731   0.809   3.360   2.288 -0.6030  0.0121  0.6614
 9033SOL    HW138732   0.844   3.429   2.344 -1.2265  0.2555  0.7527
 9033SOL    HW238733   0.764   3.310   2.356 -1.8423  2.1477  1.4165
 9034SOL     OW38734   2.054   3.592   5.285  0.0827  0.5519 -0.1400
 9034SOL    HW138735   1.968   3.585   5.325  0.7916  1.2110  1.4753
 9034SOL    HW238736   2.080   3.501   5.304 -1.8092 -0.1005 -0.6528
 9035SOL     OW38737   2.586   0.025   4.860 -0.3956  0.7457  0.2957
 9035SOL    HW138738   2.670   4.722   4.855 -1.2684 -0.6414 -1.5547
 9035SOL    HW238739   2.534   4.742   4.785  1.9470 -0.0822 -1.0427
 9036SOL     OW38740   1.266   2.604  10.742 -0.0754 -0.4519  0.2235
 9036SOL    HW138741   1.234   2.537  10.803  0.1703 -1.9720 -1.3295
 9036SOL    HW238742   1.185   2.623  10.696 -0.1622 -0.2968  0.4421
 9037SOL     OW38743   3.445   1.579  14.999  0.1214  0.5428  0.0827
 9037SOL    HW138744   3.510   1.631  14.953 -0.5532  2.6845  1.5465
 9037SOL    HW238745   3.377   1.645  15.012  1.0164  1.3596  0.5953
 9038SOL     OW38746   1.850   2.830  13.339 -0.4431 -0.1373  0.1152
 9038SOL    HW138747   1.823   2.919  13.364 -0.3159  0.3320 -1.4013
 9038SOL    HW238748   1.848   2.838  13.243  2.3478 -4.8508 -0.3323
 9039SOL     OW38749   3.990   4.016   2.576 -0.8010  0.1084 -0.1716
 9039SOL    HW138750   3.967   4.024   2.669  0.4021  1.7534 -0.0250
 9039SOL    HW238751   3.980   3.921   2.572  0.3379  0.0058 -0.4642
 9040SOL     OW38752   0.862   1.428   2.461  0.4833 -0.4935 -0.8389
 9040SOL    HW138753   0.782   1.449   2.509  2.4170  1.2993  1.5859
 9040SOL    HW238754   0.831   1.439   2.371  1.1329  1.3562 -0.8339
 9041SOL     OW38755   4.609   3.332   4.009 -0.0085 -0.2576 -0.1294
 9041SOL    HW138756   4.675   3.381   3.960 -0.3040 -0.9373 -1.2031
 9041SOL    HW238757   4.664   3.262   4.046 -1.2244 -0.7172  0.8023
 9042SOL     OW38758   4.594   2.916   6.343  0.7681  0.0709 -0.0036
 9042SOL    HW138759   4.600   2.901   6.438 -1.9140  0.1316  0.1549
 9042SOL    HW238760   4.593   3.012   6.342  0.0187  0.0598  0.0234
 9043SOL     OW38761   2.394   1.602   1.558 -0.0752 -0.5309 -0.6933
 9043SOL    HW138762   2.460   1.645   1.503 -1.0211  0.9125 -0.7018
 9043SOL    HW238763   2.313   1.641   1.526 -0.8763 -3.2461 -1.9943
 9044SOL     OW38764   2.544   0.471   4.615 -0.7933 -0.2953  0.2185
 9044SOL    HW138765   2.627   0.518   4.619 -0.5084 -0.8836  1.1889
 9044SOL    HW238766   2.564   0.381   4.639  0.9493  0.9227  3.3333
 9045SOL     OW38767   4.729   0.001   6.033  0.4852 -0.3445  0.2306
 9045SOL    HW138768   0.044   4.669   6.039  1.7982  0.6164 -0.3992
 9045SOL    HW238769   4.737   0.045   6.118  1.3589  0.7730 -0.4240
 9046SOL     OW38770   4.303   3.163   6.724  0.4588 -0.3788 -0.3842
 9046SOL    HW138771   4.268   3.248   6.695 -0.2234 -0.5869 -0.1673
 9046SOL    HW238772   4.307   3.177   6.819  0.1321  1.2176 -0.6008
 9047SOL     OW38773   3.830   4.597   8.025  0.6212 -0.3865  0.1923
 9047SOL    HW138774   3.870   4.675   8.064  1.1412 -0.0581 -0.9891
 9047SOL    HW238775   3.745   4.594   8.070  1.3027 -0.3579  1.4752
 9048SOL     OW38776   4.691   2.406  10.636  0.2718  0.6224  0.1107
 9048SOL    HW138777   4.653   2.436  10.718  1.2544 -0.5973  0.9968
 9048SOL    HW238778   4.644   2.469  10.581  0.0871 -0.5011 -1.0142
 9049SOL     OW38779   2.344   4.321   8.483 -0.2906 -0.2730  0.5924
 9049SOL    HW138780   2.256   4.352   8.502 -0.4422 -0.7404  0.6378
 9049SOL    HW238781   2.332   4.231   8.454 -2.0698 -0.0193  0.5514
 9050SOL     OW38782   4.450   2.727   4.296 -0.0004  0.1712 -0.0452
 9050SOL    HW138783   4.495   2.793   4.244 -1.4234  0.4101 -0.9816
 9050SOL    HW238784   4.379   2.776   4.337 -0.5736 -0.1659 -0.6250
 9051SOL     OW38785   1.620   3.366   7.552 -0.6192 -0.0011  0.3402
 9051SOL    HW138786   1.536   3.359   7.507  0.7482 -2.0454 -1.8807
 9051SOL    HW238787   1.598   3.331   7.638 -1.8997 -0.5169 -0.2017
 9052SOL     OW38788   3.487   4.350   1.153  0.0934 -0.2861 -0.2090
 9052SOL    HW138789   3.521   4.293   1.222 -0.6813 -0.6812 -0.1512
 9052SOL    HW238790   3.467   4.432   1.197  1.2631  0.8587 -1.7987
 9053SOL     OW38791   3.254   2.080   0.328 -0.2719 -0.3053 -0.1227
 9053SOL    HW138792   3.309   2.124   0.393 -2.7763  2.0202  0.4757
 9053SOL    HW238793   3.178   2.058   0.381  1.0709 -3.2823  0.5187
 9054SOL     OW38794   1.662   3.284   6.599 -0.3602 -0.5542 -0.3263
 9054SOL    HW138795   1.722   3.261   6.528 -0.6379 -0.8326 -0.4664
 9054SOL    HW238796   1.723   3.335   6.653 -1.1757 -3.2558  3.1566
 9055SOL     OW38797   4.189   1.148   0.004 -0.2763 -0.2440  0.1099
 9055SOL    HW138798   4.209   1.124  17.686 -3.5648 -0.8324 -0.4836
 9055SOL    HW238799   4.140   1.073   0.037  0.8483 -1.1380 -0.2757
 9056SOL     OW38800   0.158   0.719  10.379  0.3207  0.1734  0.8394
 9056SOL    HW138801   0.136   0.805  10.345  0.8013 -0.4735 -1.1184
 9056SOL    HW238802   0.079   0.669  10.356  0.1867  1.5196 -1.5858
 9057SOL     OW38803   0.376   0.585  11.672 -0.0434  0.3449 -0.0546
 9057SOL    HW138804   0.440   0.620  11.610  0.2102  0.6025  0.3535
 9057SOL    HW238805   0.296   0.636  11.654  0.1227  1.5865  2.7414
 9058SOL     OW38806   4.217   2.136   6.070 -0.4355 -0.7921 -0.5365
 9058SOL    HW138807   4.140   2.179   6.105  1.6298  1.7061  0.9630
 9058SOL    HW238808   4.184   2.105   5.986  1.4391  0.1364 -1.6228
 9059SOL     OW38809   1.283   4.038  12.216 -0.7111 -0.1199  0.2976
 9059SOL    HW138810   1.339   3.962  12.202  1.0432  0.7740  2.5015
 9059SOL    HW238811   1.224   4.040  12.140  0.0186  0.3098 -0.2676
 9060SOL     OW38812   1.153   2.020   6.459  0.1330  0.1227  0.1650
 9060SOL    HW138813   1.131   1.935   6.497  0.3625  0.2459  0.5712
 9060SOL    HW238814   1.118   2.016   6.370  1.3359  1.7053 -0.3690
 9061SOL     OW38815   4.556   3.856   8.530  1.0432 -0.4530  0.1253
 9061SOL    HW138816   4.587   3.920   8.594  2.2593 -1.3298  0.3894
 9061SOL    HW238817   4.608   3.879   8.453  1.5156 -0.3112  0.4844
 9062SOL     OW38818   1.258   3.933   8.853  0.4755  0.6067 -0.0408
 9062SOL    HW138819   1.242   3.873   8.780  1.0294  0.6097 -0.1600
 9062SOL    HW238820   1.244   4.014   8.804  0.5939  0.0517 -0.9893
 9063SOL     OW38821   0.906   3.580   9.933 -0.4228  0.2441 -0.0690
 9063SOL    HW138822   0.874   3.635   9.861 -0.8282  0.9725  0.6697
 9063SOL    HW238823   0.841   3.605   9.999 -0.5945  1.1219 -0.5759
 9064SOL     OW38824   2.556   4.305   3.134 -0.1737 -0.5833 -0.6729
 9064SOL    HW138825   2.623   4.241   3.156 -0.4781 -0.0529  1.8214
 9064SOL    HW238826   2.511   4.323   3.217  0.4093 -0.0643 -0.4695
 9065SOL     OW38827   2.312   1.578   7.963  0.0302 -0.1063 -0.4181
 9065SOL    HW138828   2.399   1.542   7.947  0.3254  0.5709 -0.2899
 9065SOL    HW238829   2.258   1.515   7.914 -1.7919  0.0612  1.3611
 9066SOL     OW38830   4.736   0.865   3.007 -0.0590 -0.2134  0.1907
 9066SOL    HW138831   4.719   0.773   3.028  1.0746 -0.9606 -2.1388
 9066SOL    HW238832   4.699   0.911   3.082  1.4467 -0.6247  1.1892
 9067SOL     OW38833   2.346   0.449   8.300 -0.3416  0.4266 -0.4795
 9067SOL    HW138834   2.334   0.362   8.261 -2.5264  0.0089  1.1613
 9067SOL    HW238835   2.359   0.418   8.390 -0.6429  0.4810 -0.4191
 9068SOL     OW38836   4.127   3.338   1.588 -0.0447 -0.4531 -0.5004
 9068SOL    HW138837   4.119   3.299   1.675 -0.5045 -0.2614 -0.4565
 9068SOL    HW238838   4.052   3.398   1.582 -0.5329 -0.7658  2.7814
 9069SOL     OW38839   1.884   4.154   5.304  0.8995  0.2948 -0.2134
 9069SOL    HW138840   1.800   4.198   5.319  0.5787  0.4165 -2.3318
 9069SOL    HW238841   1.905   4.148   5.397 -0.7318  2.1429  0.2718
 9070SOL     OW38842   2.656   3.324   5.921  0.4439 -0.6186 -0.5895
 9070SOL    HW138843   2.702   3.405   5.900  1.3877 -1.0865 -0.3264
 9070SOL    HW238844   2.727   3.260   5.922 -0.0352 -1.1591 -0.7845
 9071SOL     OW38845   4.394   1.278   9.339  0.4795  0.5621 -0.2178
 9071SOL    HW138846   4.432   1.357   9.378 -1.6341  1.4632  0.0339
 9071SOL    HW238847   4.400   1.287   9.243  0.2858 -1.7094 -0.4368
 9072SOL     OW38848   3.951   2.092  12.955 -0.5116  0.1785  0.3707
 9072SOL    HW138849   3.958   2.012  12.903 -2.2735 -0.2141  0.7311
 9072SOL    HW238850   3.861   2.116  12.933 -0.7091 -0.5353  0.4010
 9073SOL     OW38851   1.392   2.492   4.568 -0.2970  0.0785 -0.1270
 9073SOL    HW138852   1.438   2.481   4.651  2.1590 -2.3147 -1.8082
 9073SOL    HW238853   1.408   2.586   4.555  1.5794  0.1028  2.3578
 9074SOL     OW38854   0.467   4.360   6.079  0.3444  0.2354  0.8880
 9074SOL    HW138855   0.555   4.382   6.110  0.6720  0.4294 -0.1811
 9074SOL    HW238856   0.479   4.290   6.016  2.4404  0.5945  0.8784
 9075SOL     OW38857   2.845   3.180  15.926 -0.3484  0.0715 -0.5337
 9075SOL    HW138858   2.758   3.164  15.888 -0.5580  0.4531 -0.2138
 9075SOL    HW238859   2.879   3.258  15.883 -0.5336 -0.5501 -1.8035
 9076SOL     OW38860   3.519   4.627   3.599 -0.1516  0.1931  0.3144
 9076SOL    HW138861   3.561   4.542   3.610 -2.7302 -1.2651 -1.2964
 9076SOL    HW238862   3.451   4.609   3.534  0.3087 -2.1601  0.5096
 9077SOL     OW38863   2.196   0.084   7.064  0.0530 -0.3338 -0.6360
 9077SOL    HW138864   2.225   0.031   6.990  0.5045  0.2982 -0.9007
 9077SOL    HW238865   2.167   0.014   7.123  3.0734 -1.4680 -0.5047
 9078SOL     OW38866   4.469   2.361   5.541  0.3699 -0.3371  0.4319
 9078SOL    HW138867   4.520   2.412   5.478 -3.6263  1.0436 -1.6420
 9078SOL    HW238868   4.519   2.279   5.549 -2.0550 -1.8449 -0.1403
 9079SOL     OW38869   1.135   1.698  14.657  0.4853  0.2401 -0.5101
 9079SOL    HW138870   1.174   1.784  14.670 -0.3627  0.3026  1.6281
 9079SOL    HW238871   1.091   1.707  14.572  0.0879  2.5816 -0.0303
 9080SOL     OW38872   0.118   1.253   2.631 -0.3211 -0.4598  0.1774
 9080SOL    HW138873   0.083   1.342   2.646  1.9432  0.7224 -1.7212
 9080SOL    HW238874   0.039   1.201   2.619 -1.3529  0.8881  0.9646
 9081SOL     OW38875   3.694   2.552   2.356  0.3194 -0.8062  0.3367
 9081SOL    HW138876   3.602   2.539   2.333  0.2275  1.9751 -0.9401
 9081SOL    HW238877   3.689   2.560   2.452  0.0827 -1.1268  0.3522
 9082SOL     OW38878   0.171   1.964   8.585  0.1628 -0.0885  0.0805
 9082SOL    HW138879   0.079   1.975   8.562  0.3023  0.9282  0.0114
 9082SOL    HW238880   0.202   2.055   8.588 -1.1742  0.3569  0.1802
 9083SOL     OW38881   1.296   3.905   3.554 -0.3075 -0.4167 -0.1767
 9083SOL    HW138882   1.280   3.873   3.643  2.0459  2.3288  1.2433
 9083SOL    HW238883   1.341   3.990   3.562 -1.7717  0.3945 -0.5376
 9084SOL     OW38884   1.829   1.371   1.431  0.3019 -0.2183 -0.1742
 9084SOL    HW138885   1.821   1.456   1.389  1.9424  1.6702  3.3459
 9084SOL    HW238886   1.921   1.363   1.455 -0.1208 -0.4485  1.3666
 9085SOL     OW38887   1.751   2.921   6.134 -0.0506 -0.0566 -0.6391
 9085SOL    HW138888   1.721   2.880   6.053 -0.1140 -1.9407  0.3558
 9085SOL    HW238889   1.830   2.973   6.119 -1.0083  1.0114 -2.1171
 9086SOL     OW38890   4.653   4.123  10.721 -0.2802 -0.0126 -0.5077
 9086SOL    HW138891   4.691   4.162  10.642  0.7388  2.4267  1.1972
 9086SOL    HW238892   4.706   4.043  10.721  0.9195  0.8002 -0.6998
 9087SOL     OW38893   2.656   1.500   4.556 -0.1560 -0.2603 -0.1856
 9087SOL    HW138894   2.714   1.537   4.622  0.6196 -0.4770 -0.7444
 9087SOL    HW238895   2.721   1.436   4.527  1.2047  0.4915  1.1974
 9088SOL     OW38896   1.937   1.352   0.276  0.3995 -0.7971 -0.0740
 9088SOL    HW138897   1.979   1.304   0.347  0.2177 -1.3747 -0.3577
 9088SOL    HW238898   1.917   1.425   0.334 -0.4462 -2.5764  1.8641
 9089SOL     OW38899   2.562   0.665   0.472  0.4406  0.5347 -0.3165
 9089SOL    HW138900   2.473   0.682   0.439 -0.6301 -0.9559  1.7902
 9089SOL    HW238901   2.547   0.637   0.562  1.7503  1.8009  0.2846
 9090SOL     OW38902   3.971   3.237   6.478 -0.0385 -0.1422 -0.0440
 9090SOL    HW138903   4.049   3.182   6.490  0.1168 -0.6575 -3.6413
 9090SOL    HW238904   3.924   3.229   6.561  0.8669 -1.3332  0.3553
 9091SOL     OW38905   2.837   2.772   7.194  0.1425  0.5308  0.9064
 9091SOL    HW138906   2.857   2.733   7.109 -0.8480 -0.8945  1.3266
 9091SOL    HW238907   2.813   2.687   7.233  0.6023 -1.0759 -2.3360
 9092SOL     OW38908   0.890   2.842   8.312 -0.2608  0.0867 -0.6231
 9092SOL    HW138909   0.955   2.905   8.342 -0.2609  0.3270 -1.1257
 9092SOL    HW238910   0.880   2.799   8.396 -1.4010  0.3241 -0.6374
 9093SOL     OW38911   0.347   1.961   2.848  0.0153  0.7298 -0.3010
 9093SOL    HW138912   0.266   2.009   2.832  0.0102  0.8187 -0.0141
 9093SOL    HW238913   0.420   2.021   2.830  0.4446 -0.0354 -1.1229
 9094SOL     OW38914   3.684   2.497   6.609  0.2543 -0.9887  0.2076
 9094SOL    HW138915   3.613   2.551   6.645  0.7679  0.5689 -1.1451
 9094SOL    HW238916   3.749   2.562   6.585 -1.1632  0.8140  1.1930
 9095SOL     OW38917   3.909   1.586  14.901  0.0397 -0.0824  0.5821
 9095SOL    HW138918   3.850   1.550  14.835  0.7156 -1.2432  0.6148
 9095SOL    HW238919   3.993   1.564  14.862  0.0021  0.5419  0.1443
 9096SOL     OW38920   0.803   3.892   8.451  0.1635  0.2253  0.6726
 9096SOL    HW138921   0.788   3.801   8.476 -2.3710  1.3230  3.1716
 9096SOL    HW238922   0.872   3.884   8.385 -0.9081  0.0419 -0.4370
 9097SOL     OW38923   4.566   4.528   7.945  0.1108 -0.4598  0.5033
 9097SOL    HW138924   4.492   4.588   7.937  1.3565  0.9505 -0.5219
 9097SOL    HW238925   4.617   4.540   7.864 -1.5515 -0.0775 -0.5003
 9098SOL     OW38926   4.042   1.757   4.204  0.6048 -0.1499 -0.5926
 9098SOL    HW138927   4.071   1.797   4.286 -0.8168  1.7077 -0.9848
 9098SOL    HW238928   4.090   1.675   4.203  0.5505 -0.2038  1.4970
 9099SOL     OW38929   1.570   4.466   2.224  0.0719 -0.1160  0.1900
 9099SOL    HW138930   1.493   4.500   2.269  1.3810  2.9754  0.0908
 9099SOL    HW238931   1.587   4.530   2.154  1.8711 -1.8130 -0.9424
 9100SOL     OW38932   2.112   1.442  16.607 -0.3755 -0.4831  0.1064
 9100SOL    HW138933   2.091   1.421  16.516  0.1161 -2.8463  0.5570
 9100SOL    HW238934   2.133   1.536  16.599 -1.2976 -0.3296 -0.4319
 9101SOL     OW38935   3.746   1.072   4.212 -0.9303 -0.2719  0.2762
 9101SOL    HW138936   3.715   1.162   4.220 -0.3068 -0.1359  1.1088
 9101SOL    HW238937   3.689   1.039   4.142  0.7391  2.2796 -2.2754
 9102SOL     OW38938   1.273   1.027   4.583 -0.0028 -0.2824 -0.0063
 9102SOL    HW138939   1.281   0.969   4.507 -0.8348  0.1426 -0.4186
 9102SOL    HW238940   1.183   1.055   4.566  0.1509  0.3339  0.1740
 9103SOL     OW38941   2.540   2.695   6.382 -0.1705 -0.0013  0.0763
 9103SOL    HW138942   2.549   2.776   6.432 -1.8133  0.5417 -0.5215
 9103SOL    HW238943   2.631   2.676   6.360 -0.0356  0.9186 -0.1314
 9104SOL     OW38944   3.997   3.066   2.779 -0.2594  0.1089 -0.0356
 9104SOL    HW138945   3.960   2.986   2.740  1.6882 -1.1203  0.6183
 9104SOL    HW238946   3.917   3.113   2.800 -1.1241 -0.4972 -1.9664
 9105SOL     OW38947   2.294   4.443   2.268  0.1692  0.0761  0.1171
 9105SOL    HW138948   2.294   4.375   2.336  1.1449  0.3210  0.3548
 9105SOL    HW238949   2.288   4.374   2.202  1.3170 -0.0459  0.1447
 9106SOL     OW38950   3.376   4.740   5.485 -0.1813 -0.1809 -0.6024
 9106SOL    HW138951   3.435   0.071   5.483 -0.6994  0.2331 -0.5445
 9106SOL    HW238952   3.432   4.667   5.511  0.9712  0.2635 -1.8694
 9107SOL     OW38953   1.516   2.604  15.011  0.5086  0.0218  0.3145
 9107SOL    HW138954   1.489   2.519  14.976  1.9681 -0.6957  0.9268
 9107SOL    HW238955   1.552   2.579  15.096  0.2072 -0.6655  0.2372
 9108SOL     OW38956   3.951   3.605  11.564  0.8624 -0.0791  0.0909
 9108SOL    HW138957   3.868   3.558  11.577  1.0642 -0.6013 -0.5078
 9108SOL    HW238958   3.974   3.624  11.655 -0.7313  1.0174  0.2612
 9109SOL     OW38959   0.292   1.945   7.233  0.8211  0.3551  0.1385
 9109SOL    HW138960   0.260   2.034   7.246 -1.3201 -0.6651  1.9202
 9109SOL    HW238961   0.290   1.931   7.138 -0.0355  3.1337 -0.2374
 9110SOL     OW38962   3.453   4.698   3.874  0.4514 -0.1482  0.8408
 9110SOL    HW138963   3.518   0.019   3.903 -0.7551 -0.2572  3.8059
 9110SOL    HW238964   3.475   4.696   3.781 -2.2296 -0.8688  0.2249
 9111SOL     OW38965   4.203   3.500   4.132 -0.4234  0.0662  0.2146
 9111SOL    HW138966   4.258   3.423   4.121 -1.5147 -0.9479  1.8591
 9111SOL    HW238967   4.246   3.549   4.063 -2.9233 -0.9951 -2.0991
 9112SOL     OW38968   2.352   2.236  15.693  0.1513  0.1440  0.3839
 9112SOL    HW138969   2.406   2.161  15.669 -1.4960 -1.4853  1.7721
 9112SOL    HW238970   2.357   2.281  15.609 -0.5437  0.8994  0.7477
 9113SOL     OW38971   4.219   4.384   6.659 -0.0201  0.4009 -0.1240
 9113SOL    HW138972   4.281   4.421   6.596 -1.4610  0.9083 -1.2126
 9113SOL    HW238973   4.271   4.356   6.735 -0.0911  3.0631  0.8858
 9114SOL     OW38974   4.591   0.438   7.461  0.3046 -0.0844  0.3833
 9114SOL    HW138975   4.656   0.401   7.402  0.6745 -0.4589  1.0295
 9114SOL    HW238976   4.592   0.534   7.457 -1.3077 -0.1150 -0.5469
 9115SOL     OW38977   3.033   1.951   4.507  0.1041 -0.3780 -0.3974
 9115SOL    HW138978   3.065   1.956   4.417 -2.2221 -0.2254 -1.2261
 9115SOL    HW238979   2.944   1.920   4.488 -1.3211  2.1995  2.0280
 9116SOL     OW38980   0.514   3.495   6.377 -0.0545  0.1212 -0.1650
 9116SOL    HW138981   0.458   3.474   6.303  0.3539 -1.3934 -0.0582
 9116SOL    HW238982   0.529   3.587   6.357 -0.3475 -0.0607 -1.2151
 9117SOL     OW38983   1.067   0.705   8.131 -0.2589 -0.4778  0.9431
 9117SOL    HW138984   1.090   0.798   8.139 -0.4929 -0.1929 -1.5876
 9117SOL    HW238985   0.985   0.706   8.181 -0.8694  3.1881 -0.0994
 9118SOL     OW38986   0.408   1.542  16.534  0.5264 -0.1139 -0.1333
 9118SOL    HW138987   0.468   1.502  16.598  1.2639  0.8431 -0.2269
 9118SOL    HW238988   0.363   1.591  16.602  0.9143 -1.2085  0.9267
 9119SOL     OW38989   3.032   0.285   2.176  0.1504  0.3223  0.1393
 9119SOL    HW138990   3.019   0.305   2.084  2.6235  0.8407 -0.1002
 9119SOL    HW238991   3.119   0.244   2.171 -0.0031 -0.1839  1.6254
 9120SOL     OW38992   2.656   1.595  14.766 -0.3095  1.0587  0.0630
 9120SOL    HW138993   2.570   1.585  14.808  0.7000 -0.6012  1.7633
 9120SOL    HW238994   2.708   1.516  14.785  0.7540  2.0252  1.1160
 9121SOL     OW38995   0.699   1.962   4.897 -0.1466 -0.1759  0.4595
 9121SOL    HW138996   0.659   1.945   4.982 -4.3352 -2.5404 -2.0206
 9121SOL    HW238997   0.621   1.967   4.842 -0.7250 -0.1268  1.2946
 9122SOL     OW38998   1.903   0.568   2.422  1.0605  0.0336  0.0508
 9122SOL    HW138999   1.905   0.618   2.341 -2.0475 -2.4765 -1.5753
 9122SOL    HW239000   1.942   0.634   2.479 -0.5836 -0.9139  2.2873
 9123SOL     OW39001   2.338   0.399   3.209 -0.2644  0.7013 -0.1120
 9123SOL    HW139002   2.300   0.348   3.280  0.7980 -2.6943 -2.0007
 9123SOL    HW239003   2.287   0.480   3.218  0.3052  1.3794 -2.8912
 9124SOL     OW39004   3.608   2.369  12.032  0.0331  0.1296  0.2410
 9124SOL    HW139005   3.581   2.437  11.970 -1.9602 -1.6838 -0.8432
 9124SOL    HW239006   3.530   2.315  12.038 -1.0130  1.4998 -0.9562
 9125SOL     OW39007   4.216   2.264   5.205 -0.1827 -0.1341  0.6564
 9125SOL    HW139008   4.227   2.229   5.116  1.3404 -0.4446  0.9702
 9125SOL    HW239009   4.279   2.334   5.217 -0.1021 -0.2907  1.1455
 9126SOL     OW39010   3.936   3.583   8.880 -0.1874 -0.4283  0.0007
 9126SOL    HW139011   4.000   3.549   8.942  2.1632 -1.3347 -2.8683
 9126SOL    HW239012   3.979   3.587   8.794 -1.3541  2.9885 -0.4135
 9127SOL     OW39013   2.025   0.558   4.308 -0.4621 -0.3836 -0.0047
 9127SOL    HW139014   2.109   0.595   4.283 -0.8374  0.3436 -0.2034
 9127SOL    HW239015   2.000   0.486   4.249 -0.0116  1.6066 -2.5961
 9128SOL     OW39016   0.493   3.936   3.373  0.5088  0.7034  0.0126
 9128SOL    HW139017   0.536   4.001   3.428  2.3727 -0.9909  0.5520
 9128SOL    HW239018   0.444   3.995   3.316  0.2996  1.5501  1.0877
 9129SOL     OW39019   2.393   1.813   8.800 -0.0664 -0.5084  0.0945
 9129SOL    HW139020   2.314   1.856   8.834 -0.2473 -2.7622  2.5306
 9129SOL    HW239021   2.368   1.727   8.768  0.7738 -1.3502  1.6883
 9130SOL     OW39022   1.775   4.283   9.619  0.2823  0.2387 -0.1968
 9130SOL    HW139023   1.845   4.218   9.626 -0.3642 -0.4223  0.1268
 9130SOL    HW239024   1.735   4.249   9.539  1.1784 -0.7681 -0.2140
 9131SOL     OW39025   4.114   3.560  10.019  0.0283 -0.0325  0.3289
 9131SOL    HW139026   4.089   3.638  10.070 -3.0058 -0.8618  0.1511
 9131SOL    HW239027   4.045   3.562   9.952  0.7169  1.9141 -0.3255
 9132SOL     OW39028   0.900   1.553   7.902  0.1307  0.2192 -0.1234
 9132SOL    HW139029   0.857   1.619   7.846 -1.6465 -2.6588 -2.1348
 9132SOL    HW239030   0.907   1.582   7.993  2.4659  0.6975 -0.4611
 9133SOL     OW39031   3.267   0.837  10.608 -0.2483  0.0794 -0.7870
 9133SOL    HW139032   3.351   0.832  10.561  0.7050 -1.0501  1.0704
 9133SOL    HW239033   3.298   0.820  10.696 -0.1119  0.0357 -0.8438
 9134SOL     OW39034   0.270   0.836   0.821 -0.2500  0.0778  0.2366
 9134SOL    HW139035   0.296   0.757   0.773  0.5380 -0.0407  0.8546
 9134SOL    HW239036   0.338   0.900   0.798 -0.9538  0.9413  0.5426
 9135SOL     OW39037   4.413   4.286  14.401  0.3356  0.1333  0.3079
 9135SOL    HW139038   4.376   4.302  14.314  3.3470 -0.1353 -1.0436
 9135SOL    HW239039   4.432   4.378  14.420  1.8143  0.2631 -1.7120
 9136SOL     OW39040   3.638   0.841   6.912  0.2247  0.1704  0.2814
 9136SOL    HW139041   3.664   0.904   6.980  2.3489  0.1126 -0.4849
 9136SOL    HW239042   3.638   0.757   6.957 -1.8597 -0.4835 -0.9538
 9137SOL     OW39043   2.628   3.813   6.602 -0.5210 -0.0661 -1.0141
 9137SOL    HW139044   2.676   3.856   6.533 -0.6255 -0.4213 -1.3124
 9137SOL    HW239045   2.672   3.728   6.614  1.8339  1.4576  1.0491
 9138SOL     OW39046   4.586   4.542   9.000  0.7819  0.1243 -0.2586
 9138SOL    HW139047   4.583   4.610   8.933  0.6825  2.1163  1.7287
 9138SOL    HW239048   4.502   4.555   9.045  0.7949  3.2346 -1.1326
 9139SOL     OW39049   1.096   0.405   5.684 -0.2459  0.8710 -0.4832
 9139SOL    HW139050   1.096   0.491   5.725 -0.0737 -0.9480  3.2699
 9139SOL    HW239051   1.170   0.373   5.736 -0.4088 -1.2900 -1.5470
 9140SOL     OW39052   1.777   3.749   6.890  0.4676  0.8147 -0.2713
 9140SOL    HW139053   1.769   3.805   6.813 -0.2947 -0.4910 -1.1381
 9140SOL    HW239054   1.859   3.777   6.931 -0.1377 -0.4841  1.8393
 9141SOL     OW39055   0.470   1.174   5.355  0.3877 -0.0830 -0.4879
 9141SOL    HW139056   0.461   1.202   5.446  1.4364  0.5370 -0.5728
 9141SOL    HW239057   0.395   1.220   5.317 -0.4758 -1.9087 -1.0051
 9142SOL     OW39058   1.978   3.813   7.047 -0.0681  0.0759 -0.1895
 9142SOL    HW139059   1.953   3.810   7.139  0.1641 -2.6000 -0.2374
 9142SOL    HW239060   2.022   3.898   7.040 -1.7540  0.8864 -1.1049
 9143SOL     OW39061   1.493   1.906  14.771 -0.5978 -0.0178  0.0376
 9143SOL    HW139062   1.413   1.953  14.747  1.4202  2.8506 -1.1168
 9143SOL    HW239063   1.558   1.975  14.755  0.9799 -1.1887  1.3113
 9144SOL     OW39064   4.534   2.140   1.406 -0.0856 -0.0767 -0.0446
 9144SOL    HW139065   4.581   2.074   1.355  0.2723  0.3564 -0.2819
 9144SOL    HW239066   4.471   2.180   1.346  1.1010  2.5549  0.4411
 9145SOL     OW39067   4.084   2.077  15.551  0.2185 -0.3096 -0.5292
 9145SOL    HW139068   4.086   2.168  15.579 -0.3631 -0.2233 -0.7670
 9145SOL    HW239069   4.002   2.051  15.593  1.1881  2.9481  3.3167
 9146SOL     OW39070   2.008   2.374   4.488  0.3745 -0.0840 -0.3859
 9146SOL    HW139071   1.920   2.346   4.513  0.1858  2.5489  1.8858
 9146SOL    HW239072   1.999   2.469   4.489  0.5145 -0.0783  0.2246
 9147SOL     OW39073   4.546   0.008   6.490 -0.2574  0.1720  0.1716
 9147SOL    HW139074   4.581   4.672   6.530 -1.9263 -1.6518 -2.0257
 9147SOL    HW239075   4.571   0.069   6.560 -0.7568  0.9851 -0.3588
 9148SOL     OW39076   0.108   1.476   6.292  0.4775  0.3849 -0.2971
 9148SOL    HW139077   0.153   1.552   6.327  1.4180 -0.3483  0.0896
 9148SOL    HW239078   0.158   1.404   6.330  0.2161  0.4896  0.2363
 9149SOL     OW39079   4.112   1.755   0.444 -0.5152  0.1315 -0.1320
 9149SOL    HW139080   4.139   1.665   0.425 -0.8387  0.3672 -1.7100
 9149SOL    HW239081   4.146   1.773   0.532  0.0595  1.7962 -0.7069
 9150SOL     OW39082   1.627   1.954   2.811  0.1363 -0.2411  0.3938
 9150SOL    HW139083   1.666   1.947   2.898 -4.1589  0.8250  2.4167
 9150SOL    HW239084   1.682   1.894   2.761  0.3464  0.9859 -0.8436
 9151SOL     OW39085   1.801   3.800   5.663 -0.4364  0.1836  0.0383
 9151SOL    HW139086   1.861   3.872   5.641 -1.7424  0.4875 -2.4792
 9151SOL    HW239087   1.793   3.757   5.578 -0.5154 -1.0848  0.6992
 9152SOL     OW39088   2.235   2.354  15.892 -0.3075 -0.0345 -0.6939
 9152SOL    HW139089   2.295   2.410  15.942  1.2370 -1.6878 -0.6692
 9152SOL    HW239090   2.286   2.316  15.821 -1.0110  0.7736 -1.6250
 9153SOL     OW39091   2.976   1.231   2.812  0.0932 -0.0418 -0.1258
 9153SOL    HW139092   2.922   1.164   2.853 -1.1574  0.4049 -1.0250
 9153SOL    HW239093   2.984   1.292   2.885 -2.7875  1.3412 -0.9387
 9154SOL     OW39094   1.605   3.024   8.273 -0.4361  0.1970 -0.0768
 9154SOL    HW139095   1.542   2.957   8.247 -1.4487  1.2898 -0.4044
 9154SOL    HW239096   1.683   2.985   8.234 -0.0888  2.5634 -1.7901
 9155SOL     OW39097   4.174   0.440   2.424 -0.1849  0.5130  0.1509
 9155SOL    HW139098   4.266   0.413   2.427  0.8213  3.9975  0.3192
 9155SOL    HW239099   4.125   0.359   2.436 -0.7492  0.2183 -4.2932
 9156SOL     OW39100   1.420   1.607   4.937 -0.6208  0.0228 -0.1556
 9156SOL    HW139101   1.474   1.531   4.921 -2.3479 -1.0115 -1.0238
 9156SOL    HW239102   1.335   1.568   4.919 -0.8238  0.2415  0.3004
 9157SOL     OW39103   1.439   2.347   7.201  0.2075 -1.0761 -0.4649
 9157SOL    HW139104   1.414   2.317   7.113 -0.2518 -1.3872 -0.2258
 9157SOL    HW239105   1.479   2.266   7.233 -0.4021 -0.8733  0.8125
 9158SOL     OW39106   4.116   1.480   5.172 -0.6277  0.0797  0.2416
 9158SOL    HW139107   4.081   1.482   5.260 -0.1859  1.0596  0.3985
 9158SOL    HW239108   4.059   1.421   5.123  0.8481  0.2833 -1.7562
 9159SOL     OW39109   2.300   3.831   3.822 -0.0182 -0.3482  0.0191
 9159SOL    HW139110   2.317   3.850   3.914 -1.2363  1.7617 -0.1918
 9159SOL    HW239111   2.206   3.814   3.817 -0.2535  0.1375  2.6782
 9160SOL     OW39112   2.727   0.644   5.248 -0.7350  0.1333  0.2676
 9160SOL    HW139113   2.704   0.578   5.181  0.6960 -1.0620  0.9510
 9160SOL    HW239114   2.646   0.694   5.252  0.0041  1.4395 -1.0345
 9161SOL     OW39115   4.647   2.004   0.832  0.1267 -0.2447  0.1825
 9161SOL    HW139116   4.570   2.008   0.776  0.7464  1.7629 -0.4971
 9161SOL    HW239117   4.606   2.038   0.912  0.2591 -0.4100  0.3205
 9162SOL     OW39118   1.285   0.105   4.979 -0.0397  0.3210  0.0658
 9162SOL    HW139119   1.310   0.183   4.930  0.2683 -0.8749 -1.6966
 9162SOL    HW239120   1.371   0.078   5.012 -0.1337  0.5076  0.4674
 9163SOL     OW39121   4.096   1.834   9.228 -0.6904 -0.0640  0.1614
 9163SOL    HW139122   4.154   1.790   9.290  0.7000 -1.8820 -2.4004
 9163SOL    HW239123   4.127   1.824   9.138 -1.6464 -2.6034  0.1009
 9164SOL     OW39124   4.267   1.283  11.082 -0.0468  0.5992 -0.0947
 9164SOL    HW139125   4.328   1.251  11.148 -2.0199  0.2564  1.5365
 9164SOL    HW239126   4.257   1.209  11.023  0.7442  0.8415 -0.5371
 9165SOL     OW39127   2.170   4.076   5.441 -0.2179 -0.3502  0.0233
 9165SOL    HW139128   2.260   4.071   5.472 -0.1846 -1.9083 -0.3237
 9165SOL    HW239129   2.177   4.142   5.371 -3.4146 -1.4173 -1.3106
 9166SOL     OW39130   3.330   0.623   4.795  0.1141  0.4207  0.9501
 9166SOL    HW139131   3.366   0.706   4.827  2.4200 -0.1657 -0.1095
 9166SOL    HW239132   3.274   0.600   4.869  1.0938 -1.7254  0.9948
 9167SOL     OW39133   2.148   1.732   2.234 -0.0434  0.0654 -0.1940
 9167SOL    HW139134   2.186   1.743   2.147  2.9316  2.5693  1.4131
 9167SOL    HW239135   2.106   1.818   2.247 -1.2607 -0.2464 -1.9426
 9168SOL     OW39136   1.360   1.194  11.908  0.1870  0.6241 -0.1029
 9168SOL    HW139137   1.407   1.189  11.825  0.1594  2.7771 -0.2370
 9168SOL    HW239138   1.412   1.263  11.948  0.5643 -0.6369  1.5919
 9169SOL     OW39139   1.112   0.868   8.800 -0.5320  0.3064  0.3855
 9169SOL    HW139140   1.058   0.897   8.726  1.8415 -1.6213 -2.1094
 9169SOL    HW239141   1.098   0.773   8.798 -2.0753  0.5732 -1.4373
 9170SOL     OW39142   2.408   3.435   2.833 -0.1531 -0.0547 -0.1821
 9170SOL    HW139143   2.448   3.479   2.758  1.7705 -2.4614 -0.5421
 9170SOL    HW239144   2.329   3.397   2.794  0.0781 -1.5866  0.8484
 9171SOL     OW39145   2.166   0.340   6.486 -0.0419  0.5992  0.5921
 9171SOL    HW139146   2.116   0.420   6.468 -0.1454  0.4393  0.1631
 9171SOL    HW239147   2.139   0.320   6.576  0.6784  0.0843  0.6892
 9172SOL     OW39148   0.755   1.997   3.170  0.0031  0.4121 -0.2863
 9172SOL    HW139149   0.799   1.912   3.173 -0.5149  0.2451  2.7205
 9172SOL    HW239150   0.810   2.060   3.216 -1.1130  2.5643 -1.8964
 9173SOL     OW39151   2.522   1.467   4.198 -0.2263  0.4135  0.1970
 9173SOL    HW139152   2.494   1.388   4.244  2.4781 -0.1751  0.7847
 9173SOL    HW239153   2.616   1.453   4.196 -0.5774 -1.6001 -1.5033
 9174SOL     OW39154   0.074   3.189  17.479 -0.5987  0.0351  0.0955
 9174SOL    HW139155   0.110   3.264  17.527 -1.1145  0.0938  0.3969
 9174SOL    HW239156   0.150   3.130  17.481 -0.3464  0.3598  0.1495
 9175SOL     OW39157   2.938   2.629  15.585 -0.4001 -0.5408 -0.1739
 9175SOL    HW139158   2.889   2.655  15.507 -1.2442 -1.0909  0.1698
 9175SOL    HW239159   2.937   2.533  15.576 -1.7515 -0.6680  1.2550
 9176SOL     OW39160   2.754   2.970   7.644  0.2265  0.0870  0.0492
 9176SOL    HW139161   2.813   3.020   7.701  0.9165 -0.7833  0.0934
 9176SOL    HW239162   2.803   2.888   7.640 -1.0115 -0.5411 -2.2830
 9177SOL     OW39163   2.486   2.163   8.896  0.7078 -0.9213  0.4887
 9177SOL    HW139164   2.447   2.080   8.868 -0.1053 -0.4235  0.1223
 9177SOL    HW239165   2.470   2.206   8.812 -0.8823  1.5355  2.0514
 9178SOL     OW39166   4.240   0.512   7.525 -0.0183 -0.6446  0.4773
 9178SOL    HW139167   4.170   0.566   7.488 -0.6034 -1.0640  0.9691
 9178SOL    HW239168   4.310   0.558   7.479  0.1312 -0.3674  0.9855
 9179SOL     OW39169   4.346   2.038  14.356 -0.2015  0.1770  0.3890
 9179SOL    HW139170   4.380   2.127  14.365  2.4155 -0.7213 -0.3282
 9179SOL    HW239171   4.428   1.992  14.334 -0.7023 -0.6382  0.2430
 9180SOL     OW39172   1.876   4.336   9.902 -0.0732  0.3263  0.2057
 9180SOL    HW139173   1.946   4.311   9.842 -0.2127  2.3939 -0.8092
 9180SOL    HW239174   1.873   4.253   9.951  1.1220  1.1348  1.6308
 9181SOL     OW39175   0.515   2.956   7.422  0.2131  0.7907 -0.0493
 9181SOL    HW139176   0.459   2.984   7.350  0.0832 -3.4599 -1.5719
 9181SOL    HW239177   0.527   2.863   7.404  0.6208  0.2929  2.7667
 9182SOL     OW39178   1.270   0.744   7.386  0.1305  0.2382  0.4426
 9182SOL    HW139179   1.276   0.810   7.456 -1.6321  1.1119 -0.2266
 9182SOL    HW239180   1.273   0.670   7.447  1.7070  0.1050  0.1969
 9183SOL     OW39181   1.391   1.156  15.446  0.0918 -0.0102 -0.1313
 9183SOL    HW139182   1.441   1.107  15.511 -0.5943 -0.8169 -0.2171
 9183SOL    HW239183   1.453   1.226  15.425  1.2474 -0.4905  1.6675
 9184SOL     OW39184   2.452   0.691   7.136 -0.0638 -0.5602 -0.3739
 9184SOL    HW139185   2.368   0.721   7.171  1.1744 -0.0388  2.1774
 9184SOL    HW239186   2.474   0.622   7.199 -1.5706 -1.6156 -1.0329
 9185SOL     OW39187   1.139   0.751   1.538  0.0703 -0.3643 -0.7840
 9185SOL    HW139188   1.162   0.783   1.625  2.9921 -2.6240 -0.7128
 9185SOL    HW239189   1.109   0.830   1.493  1.7169  0.7283  0.0149
 9186SOL     OW39190   0.450   2.579   1.363  0.3929  0.3353 -0.4279
 9186SOL    HW139191   0.459   2.535   1.278 -0.9080  1.1625 -0.9812
 9186SOL    HW239192   0.377   2.640   1.357 -0.0127 -0.2568 -1.4440
 9187SOL     OW39193   4.627   4.650   2.063  0.4264 -0.1680 -0.5654
 9187SOL    HW139194   4.644   4.734   2.021 -1.8367  2.0288  2.8991
 9187SOL    HW239195   4.691   4.655   2.134  1.1984  1.7055 -1.4043
 9188SOL     OW39196   1.525   1.099   9.985  0.2108 -0.0780  0.4451
 9188SOL    HW139197   1.498   1.017   9.945 -0.4189 -0.1360  0.9885
 9188SOL    HW239198   1.469   1.108  10.062 -1.0500  0.3330 -0.5161
 9189SOL     OW39199   3.421   3.886   5.562 -0.2503 -0.2756  0.1512
 9189SOL    HW139200   3.454   3.905   5.650  1.2121 -0.3315 -0.3828
 9189SOL    HW239201   3.466   3.956   5.515  1.3725 -1.1239  0.4534
 9190SOL     OW39202   2.780   4.004   9.886 -0.1648 -0.1137 -0.4806
 9190SOL    HW139203   2.871   4.019   9.911 -0.2948  0.2529 -0.2221
 9190SOL    HW239204   2.794   4.038   9.798  0.9499 -2.8971 -1.3788
 9191SOL     OW39205   1.733   1.954   4.530  0.1465 -0.4358  0.3999
 9191SOL    HW139206   1.651   1.996   4.555 -0.5843 -0.0506 -2.5935
 9191SOL    HW239207   1.693   1.881   4.482 -1.0083  0.6171 -0.2233
 9192SOL     OW39208   3.240   3.238   5.148 -0.0133  0.3217  0.4988
 9192SOL    HW139209   3.231   3.306   5.215 -1.8166 -0.2528  0.8296
 9192SOL    HW239210   3.201   3.292   5.079 -0.3099 -0.6067 -0.0567
 9193SOL     OW39211   3.693   4.513  15.899 -0.1580 -0.0210 -0.5063
 9193SOL    HW139212   3.769   4.529  15.842 -0.0520  3.1805  0.5292
 9193SOL    HW239213   3.653   4.446  15.844 -0.1256 -0.3591 -0.1166
 9194SOL     OW39214   4.622   2.351   6.643  1.2432 -0.3517 -0.0044
 9194SOL    HW139215   4.683   2.325   6.575  0.2806  1.2593 -1.4736
 9194SOL    HW239216   4.557   2.281   6.640  0.2794  0.5363 -0.0814
 9195SOL     OW39217   1.446   1.508   3.768 -0.2806 -0.1859 -0.0052
 9195SOL    HW139218   1.520   1.448   3.758 -1.3126 -0.9175 -3.1570
 9195SOL    HW239219   1.436   1.550   3.682  0.7890 -0.4696 -0.2599
 9196SOL     OW39220   1.254   3.676   3.715  0.8757  0.0656  0.0838
 9196SOL    HW139221   1.312   3.657   3.642  0.2553  1.4102 -0.7498
 9196SOL    HW239222   1.245   3.592   3.760  0.0566 -0.7557 -1.6273
 9197SOL     OW39223   1.334   2.968   7.642 -0.3585  0.4052  0.2886
 9197SOL    HW139224   1.385   2.934   7.568 -2.0696 -1.2682 -0.1520
 9197SOL    HW239225   1.309   3.057   7.617 -0.1498  0.3778 -0.0192
 9198SOL     OW39226   4.114   0.313   0.314 -0.0693  0.3016  0.0041
 9198SOL    HW139227   4.159   0.341   0.393  0.5603 -0.6540 -0.0094
 9198SOL    HW239228   4.062   0.391   0.296  0.8098  1.2470  1.6199
 9199SOL     OW39229   4.021   2.282   6.224 -0.3403 -0.1306 -0.6009
 9199SOL    HW139230   4.045   2.314   6.311  1.5824 -0.0579 -1.1629
 9199SOL    HW239231   3.939   2.239   6.248  0.2883 -0.8567  0.2442
 9200SOL     OW39232   2.729   2.421   2.433  0.0695  0.0260 -0.1619
 9200SOL    HW139233   2.669   2.462   2.496  0.2077 -0.1203  0.0638
 9200SOL    HW239234   2.659   2.420   2.367 -2.1828 -1.3709  2.2407
 9201SOL     OW39235   1.110   1.998  11.411  0.6469  0.0624  0.5095
 9201SOL    HW139236   1.120   1.909  11.443  1.2069 -0.3481 -0.8189
 9201SOL    HW239237   1.075   2.046  11.487 -0.9526  2.0897 -1.5159
 9202SOL     OW39238   0.432   0.364   1.681  0.3353 -0.0924 -0.4062
 9202SOL    HW139239   0.384   0.337   1.602 -0.8560  1.2121 -0.1302
 9202SOL    HW239240   0.363   0.419   1.717  1.4688  1.6744 -0.9123
 9203SOL     OW39241   2.615   1.818   3.547 -0.0300 -0.0647 -0.0874
 9203SOL    HW139242   2.606   1.781   3.459 -0.4190 -1.5844  0.5861
 9203SOL    HW239243   2.705   1.850   3.551 -0.2361  0.6893 -1.5805
 9204SOL     OW39244   2.667   1.215   1.154  0.3045  0.0052 -0.4604
 9204SOL    HW139245   2.703   1.172   1.232  1.3419  2.8087  0.6444
 9204SOL    HW239246   2.643   1.305   1.177  0.3212 -0.5646  1.7998
 9205SOL     OW39247   0.535   1.686   4.426  0.3146 -0.1141  0.4902
 9205SOL    HW139248   0.598   1.635   4.375 -1.4056  0.1556 -1.8907
 9205SOL    HW239249   0.521   1.627   4.500  2.3621  0.5958  1.4611
 9206SOL     OW39250   0.883   1.218  15.928  0.6196 -0.0473 -0.6096
 9206SOL    HW139251   0.833   1.263  15.859  0.5669 -0.0116 -0.5474
 9206SOL    HW239252   0.814   1.155  15.948  0.1399  0.7850  0.3459
 9207SOL     OW39253   1.608   4.201   0.277  0.1730  0.0126 -0.1179
 9207SOL    HW139254   1.652   4.180   0.359  0.5522 -0.9211 -0.5542
 9207SOL    HW239255   1.661   4.147   0.218 -0.7709  0.7240 -1.6355
 9208SOL     OW39256   4.563   4.180  16.216  0.0084 -0.0173 -0.2340
 9208SOL    HW139257   4.583   4.228  16.297  1.6460 -0.0802 -0.5895
 9208SOL    HW239258   4.604   4.242  16.156 -0.9843  1.2870  0.4343
 9209SOL     OW39259   0.101   2.510   7.667 -0.8514 -0.1729  0.1426
 9209SOL    HW139260   0.141   2.567   7.733  0.7801  2.8616 -3.5199
 9209SOL    HW239261   0.013   2.545   7.652 -0.4553  0.3386 -0.9298
 9210SOL     OW39262   1.963   0.894  10.655  0.0223 -0.3641 -0.4878
 9210SOL    HW139263   1.946   0.800  10.663  0.8144 -0.3565  1.3321
 9210SOL    HW239264   1.973   0.906  10.561  1.2766 -1.2023 -0.4656
 9211SOL     OW39265   3.161   3.856  16.435  0.6039  0.4239  0.0361
 9211SOL    HW139266   3.137   3.886  16.347 -2.2795 -2.9064 -0.3138
 9211SOL    HW239267   3.256   3.855  16.433  0.5405  0.5706 -3.1526
 9212SOL     OW39268   4.582   1.507   6.228 -0.1453  0.3791 -0.0872
 9212SOL    HW139269   4.669   1.537   6.253 -0.4173 -1.3919  3.0056
 9212SOL    HW239270   4.555   1.442   6.293  0.0029  1.0751  0.6785
 9213SOL     OW39271   1.939   2.043  12.416  0.2335  0.2017 -0.0957
 9213SOL    HW139272   1.981   2.120  12.455 -1.3108  1.4188 -0.8674
 9213SOL    HW239273   1.937   2.066  12.324 -1.1644 -0.2305 -0.1699
 9214SOL     OW39274   2.935   3.351   4.445 -0.7038 -0.0577  0.5538
 9214SOL    HW139275   2.937   3.264   4.405 -0.0163 -0.5409  1.6491
 9214SOL    HW239276   2.841   3.365   4.430  0.0631  0.0247 -3.9522
 9215SOL     OW39277   2.455   0.004   2.022  0.7143 -0.2755 -0.3106
 9215SOL    HW139278   2.447   0.045   1.936 -1.5355 -0.8032 -0.3342
 9215SOL    HW239279   2.391   0.051   2.075  0.6598  0.9343 -1.4553
 9216SOL     OW39280   0.646   0.992   3.905 -0.0341  0.0107  0.0526
 9216SOL    HW139281   0.686   1.071   3.866  0.3772  0.9045  2.2945
 9216SOL    HW239282   0.589   1.026   3.973  2.9836 -0.8693  3.0150
 9217SOL     OW39283   1.016   0.927   8.518 -0.1622  0.3658 -0.4042
 9217SOL    HW139284   1.038   1.019   8.535  1.6229  0.2974 -2.3063
 9217SOL    HW239285   1.086   0.895   8.461  0.4146  0.2974  0.3382
 9218SOL     OW39286   0.635   0.148  11.655  0.2820  0.2246  0.7045
 9218SOL    HW139287   0.714   0.120  11.702 -0.8056 -2.5244  0.9188
 9218SOL    HW239288   0.661   0.173  11.566  2.7536  3.4211  2.3287
 9219SOL     OW39289   1.669   4.699   9.848  0.1945  1.1397  0.3224
 9219SOL    HW139290   1.715   4.667   9.925  1.1596 -2.2460 -1.6277
 9219SOL    HW239291   1.577   4.672   9.858  0.9048 -1.4539 -0.0042
 9220SOL     OW39292   1.661   2.817  12.482 -0.6013  0.5461 -0.0559
 9220SOL    HW139293   1.602   2.761  12.533 -0.4190  0.6764  0.2892
 9220SOL    HW239294   1.694   2.754  12.418 -0.7095  0.2700  0.1606
 9221SOL     OW39295   3.527   2.294   4.955 -0.0784  0.0532 -0.5877
 9221SOL    HW139296   3.516   2.289   5.051 -0.7451  1.0535 -0.6081
 9221SOL    HW239297   3.527   2.202   4.930 -0.8804 -0.3132  0.7477
 9222SOL     OW39298   3.728   3.887   2.789  0.0570  0.4490  0.0478
 9222SOL    HW139299   3.664   3.941   2.743 -1.3450 -0.3813  1.0181
 9222SOL    HW239300   3.722   3.806   2.738  2.0342 -0.3059  1.0142
 9223SOL     OW39301   2.424   4.543   5.577 -0.3613  0.5627  0.0385
 9223SOL    HW139302   2.380   4.591   5.507  1.1515 -0.4483 -1.5955
 9223SOL    HW239303   2.514   4.550   5.545 -0.1962 -2.9965 -0.2771
 9224SOL     OW39304   2.448   0.257   1.867 -0.0249 -0.0228  0.1674
 9224SOL    HW139305   2.403   0.295   1.792  1.5825  4.0327  1.2395
 9224SOL    HW239306   2.439   0.331   1.927 -1.4273  0.1537 -0.2641
 9225SOL     OW39307   1.758   1.631   4.370 -0.2169  0.0294 -0.6227
 9225SOL    HW139308   1.799   1.669   4.292 -1.0136 -0.0734 -1.0906
 9225SOL    HW239309   1.770   1.538   4.350  1.0929 -0.2599  1.5744
 9226SOL     OW39310   0.525   0.353   0.846 -0.8558  0.3653  0.6294
 9226SOL    HW139311   0.588   0.327   0.779  1.1191 -1.0723  3.0207
 9226SOL    HW239312   0.564   0.433   0.880  1.3909  0.0785 -1.2849
 9227SOL     OW39313   2.368   0.318   6.006 -0.2977  0.3695 -0.0588
 9227SOL    HW139314   2.350   0.402   6.048 -1.0202 -0.3629  1.0713
 9227SOL    HW239315   2.353   0.335   5.913 -0.6157  0.0864 -0.0601
 9228SOL     OW39316   2.136   0.461   5.262 -0.1830  0.0244 -0.2886
 9228SOL    HW139317   2.061   0.480   5.320  0.1557  1.0038 -0.1573
 9228SOL    HW239318   2.134   0.528   5.193  0.7361  0.7935  0.4209
 9229SOL     OW39319   3.117   1.741   2.350  0.2244  0.6329 -0.6846
 9229SOL    HW139320   3.195   1.762   2.298  0.1307  1.6767 -0.4024
 9229SOL    HW239321   3.062   1.805   2.305 -0.0562 -1.5121 -3.3927
 9230SOL     OW39322   0.918   2.517   5.569  0.3250  0.0928 -0.9127
 9230SOL    HW139323   0.842   2.491   5.517 -1.8959  2.3085  1.1936
 9230SOL    HW239324   0.870   2.548   5.646  3.2793 -0.2640  1.0560
 9231SOL     OW39325   3.308   0.783   8.549 -0.1366 -0.1300 -0.4031
 9231SOL    HW139326   3.241   0.734   8.596 -0.7803  0.5150 -0.6476
 9231SOL    HW239327   3.325   0.721   8.478  0.4186 -1.0538  0.5427
 9232SOL     OW39328   3.636   2.788   8.651  0.1011 -0.3257  0.2611
 9232SOL    HW139329   3.710   2.835   8.611  0.7896 -1.7732 -0.1524
 9232SOL    HW239330   3.646   2.694   8.634 -0.2403 -0.0656 -1.3781
 9233SOL     OW39331   2.242   1.878   3.753 -0.5049  0.3308 -0.0704
 9233SOL    HW139332   2.311   1.830   3.798 -0.2231  0.6412 -0.1776
 9233SOL    HW239333   2.222   1.927   3.833  2.3867 -1.2832  1.6349
 9234SOL     OW39334   2.824   1.744  12.208 -0.0480 -0.1077  0.0545
 9234SOL    HW139335   2.915   1.734  12.237  0.0581  2.1544  0.4770
 9234SOL    HW239336   2.801   1.828  12.247  0.7923  0.7932 -1.3943
 9235SOL     OW39337   3.021   0.828   8.044 -0.0088  0.6202  0.5196
 9235SOL    HW139338   2.925   0.829   8.041  0.0169 -1.4869 -0.3422
 9235SOL    HW239339   3.034   0.847   8.137 -0.8704 -0.3385  0.8414
 9236SOL     OW39340   0.562   4.173  12.544 -0.4992  0.2630  0.1299
 9236SOL    HW139341   0.515   4.230  12.605 -0.5675 -0.3834  0.6759
 9236SOL    HW239342   0.557   4.217  12.459 -0.7473  0.1648  0.0949
 9237SOL     OW39343   0.258   3.963   1.296  0.5033 -0.1017 -0.3707
 9237SOL    HW139344   0.266   3.880   1.249  0.2212 -0.4145  0.1510
 9237SOL    HW239345   0.165   3.983   1.302  0.6442 -0.1351  1.7404
 9238SOL     OW39346   1.590   1.381  12.618 -0.4501 -0.2806  0.2947
 9238SOL    HW139347   1.586   1.397  12.712 -0.5988  3.0319 -0.2566
 9238SOL    HW239348   1.514   1.437  12.599 -1.1905 -1.1245  0.7850
 9239SOL     OW39349   0.997   1.184  14.844 -0.6389  0.1438 -0.1254
 9239SOL    HW139350   0.982   1.194  14.938 -2.3854  3.0237 -0.7329
 9239SOL    HW239351   0.926   1.237  14.809 -1.1047 -0.9872 -0.8885
 9240SOL     OW39352   1.075   2.532   4.497 -0.4378 -0.2939 -0.1930
 9240SOL    HW139353   1.102   2.619   4.527 -0.5389  0.2698 -1.7514
 9240SOL    HW239354   1.143   2.474   4.531 -0.2956 -0.6121 -1.0177
 9241SOL     OW39355   4.223   0.886   7.602 -0.3663  0.2351  0.4147
 9241SOL    HW139356   4.227   0.930   7.687  0.1505  0.1141  0.4503
 9241SOL    HW239357   4.220   0.956   7.538  1.2853  0.2665  0.3778
 9242SOL     OW39358   3.239   2.586   4.092  0.0626  0.3893  0.4032
 9242SOL    HW139359   3.184   2.604   4.168  1.1267  1.0955  1.0016
 9242SOL    HW239360   3.194   2.631   4.020  1.6966 -0.0288 -0.8814
 9243SOL     OW39361   3.224   1.771   8.497  0.1579 -0.5271 -0.0411
 9243SOL    HW139362   3.291   1.828   8.535 -3.7534  1.2033  4.1300
 9243SOL    HW239363   3.150   1.794   8.552 -0.3590  1.0293 -1.4092
 9244SOL     OW39364   1.367   4.432   4.105 -0.7165  1.0380 -0.3198
 9244SOL    HW139365   1.422   4.510   4.108 -0.7084  1.0117  0.2337
 9244SOL    HW239366   1.292   4.468   4.153 -1.1581 -0.6720  0.2512
 9245SOL     OW39367   1.456   3.195   9.804  0.2524  0.1883 -0.8346
 9245SOL    HW139368   1.449   3.267   9.741 -0.9762 -0.6726 -1.6651
 9245SOL    HW239369   1.474   3.239   9.888 -2.0866  1.1347 -0.8284
 9246SOL     OW39370   3.627   2.251   8.562  0.3660 -0.0500  0.3185
 9246SOL    HW139371   3.559   2.217   8.619  0.7142  1.0705  1.4013
 9246SOL    HW239372   3.581   2.326   8.525 -1.7067 -1.3250  0.2978
 9247SOL     OW39373   1.088   2.993  16.948  0.3381  0.0454  0.8607
 9247SOL    HW139374   1.056   3.072  16.992 -1.0328  0.3180 -0.6220
 9247SOL    HW239375   1.092   2.930  17.020 -0.2390  0.8494  1.6074
 9248SOL     OW39376   1.894   3.858   2.382  0.1126  0.5851 -0.3648
 9248SOL    HW139377   1.813   3.899   2.413  0.1370 -0.4720  1.0703
 9248SOL    HW239378   1.947   3.938   2.383  1.1153 -0.0809  0.4299
 9249SOL     OW39379   3.271   0.887   2.743 -0.3383 -0.4527 -0.0161
 9249SOL    HW139380   3.323   0.819   2.784  1.7986  1.3838  0.3146
 9249SOL    HW239381   3.185   0.844   2.747 -0.3048 -0.5341 -0.1545
 9250SOL     OW39382   1.908   1.439   8.314  0.2298 -0.0648  0.2310
 9250SOL    HW139383   1.975   1.413   8.251 -1.6514  0.0910 -1.8253
 9250SOL    HW239384   1.934   1.405   8.399  1.0456  0.0082  0.0041
 9251SOL     OW39385   2.820   4.134   5.252 -0.2797 -0.0062  0.0654
 9251SOL    HW139386   2.752   4.090   5.201  1.2051  1.5144 -3.2754
 9251SOL    HW239387   2.825   4.223   5.218 -0.0188  0.6007  1.7156
 9252SOL     OW39388   4.308   1.943  12.247  0.2589  0.3221 -0.0476
 9252SOL    HW139389   4.263   2.023  12.220  1.3379  0.8604 -0.2503
 9252SOL    HW239390   4.395   1.982  12.257 -0.0683  0.2388  2.9723
 9253SOL     OW39391   3.862   4.673   6.603 -0.8033  0.3446 -0.1410
 9253SOL    HW139392   3.895   4.715   6.524 -0.7154 -1.6103 -1.1627
 9253SOL    HW239393   3.901   4.588   6.582  0.3100  0.4206  1.5939
 9254SOL     OW39394   2.147   2.915   7.152  0.3179  0.1247 -0.1472
 9254SOL    HW139395   2.108   3.002   7.154 -2.9236 -1.3620  1.1824
 9254SOL    HW239396   2.238   2.938   7.131  1.0178 -1.8402  0.7192
 9255SOL     OW39397   3.076   1.554  16.272 -0.6781 -0.2071  0.6730
 9255SOL    HW139398   3.067   1.517  16.360  0.1350 -1.2873  0.3121
 9255SOL    HW239399   3.074   1.471  16.224 -5.2539  0.9031 -1.0209
 9256SOL     OW39400   3.390   3.802   9.028  0.4527 -0.6392 -0.1321
 9256SOL    HW139401   3.350   3.885   9.055 -0.3629 -0.5913 -1.4705
 9256SOL    HW239402   3.333   3.774   8.957 -1.4201 -0.7288  1.3982
 9257SOL     OW39403   4.198   3.204   7.908 -0.0650  0.1700 -0.2847
 9257SOL    HW139404   4.133   3.135   7.917  0.4878 -0.3512 -0.2365
 9257SOL    HW239405   4.273   3.147   7.890 -1.4966 -1.4942 -0.9437
 9258SOL     OW39406   0.815   2.302   5.751  0.2741  0.5489  0.4937
 9258SOL    HW139407   0.740   2.342   5.794  0.6249  1.3542  0.3621
 9258SOL    HW239408   0.875   2.302   5.826  0.5748  0.9487  0.2488
 9259SOL     OW39409   2.782   0.241   9.852  0.2252 -0.1534 -0.0173
 9259SOL    HW139410   2.758   0.308   9.787 -0.4875 -0.3892 -0.0013
 9259SOL    HW239411   2.874   0.226   9.830  0.5428  1.8033  0.0145
 9260SOL     OW39412   1.235   0.444   3.858 -0.2551  0.0084 -0.4503
 9260SOL    HW139413   1.154   0.427   3.811 -0.1282 -1.1864 -0.2332
 9260SOL    HW239414   1.226   0.385   3.933  2.9098  0.2656  0.1285
 9261SOL     OW39415   4.637   0.421  15.851 -0.3538 -0.4619 -0.1304
 9261SOL    HW139416   4.628   0.447  15.943 -0.1842 -0.7046 -0.0458
 9261SOL    HW239417   4.609   0.330  15.851 -2.3982  0.1583 -1.0963
 9262SOL     OW39418   0.142   3.005   7.529  0.2494  0.3609 -0.5254
 9262SOL    HW139419   0.169   3.081   7.478 -0.2253  0.7902 -0.1419
 9262SOL    HW239420   0.219   2.950   7.532 -0.5712 -0.6763  1.6791
 9263SOL     OW39421   1.414   2.083  11.294 -0.0055  0.0979 -0.5683
 9263SOL    HW139422   1.414   2.178  11.311  2.4387 -0.0150  0.0167
 9263SOL    HW239423   1.328   2.053  11.325 -0.1648 -0.1165 -1.2029
 9264SOL     OW39424   3.167   0.962   4.094 -0.0123  0.2668  0.4802
 9264SOL    HW139425   3.159   1.050   4.133 -1.0381  0.6476 -0.5991
 9264SOL    HW239426   3.121   0.906   4.157  0.6100 -0.8036 -0.0203
 9265SOL     OW39427   3.785   1.164   9.329  0.0298 -0.5563 -0.2115
 9265SOL    HW139428   3.727   1.197   9.260 -1.6447  0.8368  1.8523
 9265SOL    HW239429   3.742   1.079   9.338  0.4463 -0.7356  0.0550
 9266SOL     OW39430   1.786   0.064   2.939 -0.1970  0.2563  0.1229
 9266SOL    HW139431   1.826   0.061   2.852 -0.5381 -1.8997  0.0491
 9266SOL    HW239432   1.813   4.723   2.974 -0.4546  0.2981  0.4217
 9267SOL     OW39433   2.574   0.609  14.359 -0.3408 -0.2759  0.1756
 9267SOL    HW139434   2.602   0.642  14.273 -1.4237 -0.8731 -0.3960
 9267SOL    HW239435   2.503   0.553  14.330 -1.0876  0.1714  1.1741
 9268SOL     OW39436   2.920   1.515  15.496 -0.1744  0.0429 -0.1966
 9268SOL    HW139437   2.891   1.521  15.405 -0.2102  1.1346 -0.1156
 9268SOL    HW239438   2.928   1.420  15.503 -1.3030 -0.1350 -1.1695
 9269SOL     OW39439   0.840   4.520   2.327 -0.2701  0.3975 -0.1835
 9269SOL    HW139440   0.758   4.494   2.284 -0.9485  0.3504  1.1396
 9269SOL    HW239441   0.880   4.555   2.247 -0.6810 -1.5239 -1.2519
 9270SOL     OW39442   0.329   0.934   8.405  0.0299 -0.0777 -0.7138
 9270SOL    HW139443   0.355   0.848   8.371 -0.9659 -0.7926  0.3473
 9270SOL    HW239444   0.241   0.947   8.370 -1.5633  0.2117  3.4821
 9271SOL     OW39445   2.120   4.230   7.655 -0.1454 -0.3587 -0.2713
 9271SOL    HW139446   2.108   4.148   7.606  0.8975 -1.4970  1.3714
 9271SOL    HW239447   2.092   4.205   7.744 -1.3115  0.9183 -0.2842
 9272SOL     OW39448   1.051   3.126   1.698 -0.0010 -0.7778  0.1366
 9272SOL    HW139449   1.108   3.175   1.758  0.6787 -0.7995 -0.5014
 9272SOL    HW239450   1.079   3.162   1.614  0.3677 -0.3280  0.4529
 9273SOL     OW39451   0.387   2.341   7.531  0.6579 -0.2555 -0.3304
 9273SOL    HW139452   0.357   2.393   7.457  1.5372  0.7552  0.0128
 9273SOL    HW239453   0.338   2.262   7.511  0.8696 -0.7316  0.9999
 9274SOL     OW39454   2.735   2.287   6.240 -0.4916  0.3770 -0.2756
 9274SOL    HW139455   2.702   2.204   6.274 -1.2668  0.4896 -0.7450
 9274SOL    HW239456   2.831   2.280   6.242 -0.7694 -4.4367 -2.9103
 9275SOL     OW39457   0.199   1.137  15.695  0.2577 -0.2560 -0.0852
 9275SOL    HW139458   0.201   1.173  15.783  0.3441  1.7952 -0.9179
 9275SOL    HW239459   0.180   1.218  15.647 -1.7461 -0.9940 -0.5643
 9276SOL     OW39460   1.851   3.310   4.036 -0.0291  0.7700 -0.1366
 9276SOL    HW139461   1.921   3.293   4.098 -0.4554  1.1499  0.4499
 9276SOL    HW239462   1.884   3.291   3.948 -3.0395  1.0686 -1.3334
 9277SOL     OW39463   2.910   3.747   5.434  0.3432  0.5093 -0.1499
 9277SOL    HW139464   2.866   3.725   5.352  1.1092  0.3434 -0.5144
 9277SOL    HW239465   2.995   3.776   5.399  1.3939 -1.1386  1.0242
 9278SOL     OW39466   0.452   4.232  15.527  0.2277  0.2018  0.1685
 9278SOL    HW139467   0.443   4.259  15.618 -0.9287 -1.0778  0.4334
 9278SOL    HW239468   0.490   4.312  15.491 -0.5340 -0.8657 -3.0075
 9279SOL     OW39469   2.937   1.701  14.375 -0.4959  0.0522 -0.0025
 9279SOL    HW139470   2.940   1.794  14.394 -0.2778  0.3082 -1.3507
 9279SOL    HW239471   2.867   1.673  14.435 -0.6422 -2.9898 -1.5493
 9280SOL     OW39472   4.180   4.726   3.154  0.1147 -0.2917  0.4337
 9280SOL    HW139473   4.087   0.001   3.136 -0.1640 -1.1984  0.9608
 9280SOL    HW239474   4.197   4.648   3.102 -1.9736 -1.5080  1.5861
 9281SOL     OW39475   0.536   1.383  13.510  0.4971 -0.1220  0.2436
 9281SOL    HW139476   0.483   1.443  13.458 -0.0479 -1.4298 -0.7147
 9281SOL    HW239477   0.626   1.417  13.504  0.3102  0.2424 -0.5293
 9282SOL     OW39478   1.742   1.782   0.325 -0.8375  0.0291  0.2898
 9282SOL    HW139479   1.826   1.755   0.287 -0.3901  1.2679  0.4106
 9282SOL    HW239480   1.774   1.814   0.409  1.2597 -2.0280  0.2625
 9283SOL     OW39481   2.602   0.497   7.302 -0.3272 -0.1782  0.3223
 9283SOL    HW139482   2.598   0.430   7.370 -2.1888  0.3304  0.7073
 9283SOL    HW239483   2.628   0.442   7.228  0.6220 -0.5513  0.9311
 9284SOL     OW39484   3.456   4.017   7.953  0.1751  0.3387 -0.3386
 9284SOL    HW139485   3.502   4.063   7.883  1.3865  0.4120  0.4810
 9284SOL    HW239486   3.370   4.058   7.946 -0.0514 -0.2809 -1.1112
 9285SOL     OW39487   0.797   3.891   1.154  0.5757  0.3054  0.1101
 9285SOL    HW139488   0.741   3.944   1.097 -1.3951 -0.1146  1.6663
 9285SOL    HW239489   0.840   3.837   1.088  2.8143  0.0322  1.7555
 9286SOL     OW39490   0.531   4.180   1.688  0.2847 -0.1368  0.6543
 9286SOL    HW139491   0.609   4.142   1.647 -0.5149 -1.8705  0.7104
 9286SOL    HW239492   0.574   4.259   1.720 -2.0233  1.9091 -1.3842
 9287SOL     OW39493   0.798   1.185   7.690 -0.0789 -0.0731 -0.5092
 9287SOL    HW139494   0.848   1.109   7.659 -1.1567 -0.6198 -0.9230
 9287SOL    HW239495   0.830   1.253   7.631  0.2073 -0.3110 -0.6343
 9288SOL     OW39496   3.940   1.390   2.879  0.3975  0.1158 -0.1837
 9288SOL    HW139497   4.022   1.340   2.881  0.5867  0.4919  1.5977
 9288SOL    HW239498   3.900   1.362   2.797 -0.1951 -0.8982  0.4604
 9289SOL     OW39499   2.959   0.957   9.275 -0.2800 -0.2606 -0.6363
 9289SOL    HW139500   2.905   1.002   9.210 -0.7347  0.0352 -0.0504
 9289SOL    HW239501   2.933   0.865   9.263 -0.3508 -0.5919  2.1727
 9290SOL     OW39502   3.423   1.054   6.080 -0.1597  0.2824  0.4099
 9290SOL    HW139503   3.335   1.067   6.118  1.1362 -0.9679  3.8656
 9290SOL    HW239504   3.485   1.099   6.137  0.3607 -1.0004  0.8572
 9291SOL     OW39505   4.034   0.987  14.994 -1.0340  0.1329 -0.3317
 9291SOL    HW139506   3.980   0.930  15.048  2.9752 -2.1235  1.3033
 9291SOL    HW239507   3.992   0.970  14.910  4.0064 -0.1995 -2.7649
 9292SOL     OW39508   0.397   3.071   1.189 -0.0002 -0.4034 -0.1281
 9292SOL    HW139509   0.314   3.111   1.164  0.3747  1.1923  1.1665
 9292SOL    HW239510   0.457   3.101   1.121  0.7703 -0.3619  0.5588
 9293SOL     OW39511   2.347   0.925   7.689 -0.5212  0.7959  0.8130
 9293SOL    HW139512   2.322   0.836   7.713  1.5642  0.1812  0.7036
 9293SOL    HW239513   2.258   0.960   7.689  0.2751  2.8529  0.7498
 9294SOL     OW39514   4.047   3.479   0.283  1.0170 -0.4246 -0.6421
 9294SOL    HW139515   4.087   3.469   0.197  1.3265  0.2234 -0.5720
 9294SOL    HW239516   4.046   3.384   0.297 -0.6178 -0.3654 -0.2405
 9295SOL     OW39517   1.922   4.178  17.379 -0.2283  0.0240 -0.2210
 9295SOL    HW139518   1.883   4.091  17.366 -3.2622  1.2928  0.4455
 9295SOL    HW239519   1.929   4.180  17.475  0.1487  0.1170 -0.2507
 9296SOL     OW39520   2.326   2.550   6.274  0.0982 -0.1073 -0.6411
 9296SOL    HW139521   2.373   2.612   6.329  0.1038  0.2700 -1.0655
 9296SOL    HW239522   2.399   2.513   6.224  0.3498  0.3390 -0.6011
 9297SOL     OW39523   0.628   3.698   7.870  0.0900 -0.1435  0.4359
 9297SOL    HW139524   0.687   3.757   7.822 -1.0016  1.8529  1.5919
 9297SOL    HW239525   0.643   3.610   7.837  2.0022  0.8252 -1.2935
 9298SOL     OW39526   2.309   1.827  16.780  0.0558 -0.3778 -0.5403
 9298SOL    HW139527   2.290   1.897  16.842  3.1911  0.9246 -1.0112
 9298SOL    HW239528   2.370   1.785  16.840  0.4518  0.3130 -0.4471
 9299SOL     OW39529   0.729   0.049   3.557  0.0963 -0.2438 -0.3852
 9299SOL    HW139530   0.685   0.032   3.474  1.4335 -1.9680 -0.7337
 9299SOL    HW239531   0.819   0.022   3.537  0.5035  1.1507 -0.4573
 9300SOL     OW39532   2.804   1.415   3.374 -0.4775 -0.0421  0.3710
 9300SOL    HW139533   2.865   1.366   3.320  0.8670  1.6095  0.3947
 9300SOL    HW239534   2.848   1.409   3.459  2.4672 -0.5504 -1.2006
 9301SOL     OW39535   2.369   2.976   8.529 -0.0155  0.3142 -0.2258
 9301SOL    HW139536   2.327   2.948   8.448 -0.4568  0.7907 -0.1630
 9301SOL    HW239537   2.302   3.037   8.560  0.6007  0.1934  1.3610
 9302SOL     OW39538   1.631   3.626   5.213 -0.0804  0.1855 -0.5521
 9302SOL    HW139539   1.542   3.598   5.231 -0.0170 -0.5249 -1.3604
 9302SOL    HW239540   1.632   3.616   5.118  0.1357 -0.4817 -0.4754
 9303SOL     OW39541   2.102   4.058   7.011  0.7407  0.1297 -0.1405
 9303SOL    HW139542   2.057   4.125   6.959 -0.6425  0.4688  1.5101
 9303SOL    HW239543   2.173   4.038   6.950  0.3816 -0.0146 -0.5173
 9304SOL     OW39544   3.256   1.975   5.216 -0.1436  0.2771  0.4044
 9304SOL    HW139545   3.344   1.944   5.238  0.3732  1.2387 -0.2728
 9304SOL    HW239546   3.258   2.071   5.220 -2.8080  0.4592 -2.4762
 9305SOL     OW39547   1.632   1.637   1.984  0.2117  0.0801  0.3316
 9305SOL    HW139548   1.594   1.641   1.896  1.4227 -0.6151 -0.2301
 9305SOL    HW239549   1.651   1.728   2.005  1.4805  0.2664 -1.5734
 9306SOL     OW39550   1.421   0.910  11.539  0.2431  0.1853 -0.5841
 9306SOL    HW139551   1.435   0.889  11.632  1.0676  1.3011 -0.4591
 9306SOL    HW239552   1.415   0.827  11.493  0.7611  0.4797 -1.1830
 9307SOL     OW39553   4.680   3.893   8.284 -0.0018 -0.3855 -0.1349
 9307SOL    HW139554   0.031   3.895   8.271 -0.1066 -0.5914 -0.9810
 9307SOL    HW239555   4.640   3.944   8.213  0.9856  0.2832 -0.2083
 9308SOL     OW39556   0.386   0.218   2.137 -0.0964  0.2230  0.5271
 9308SOL    HW139557   0.383   0.307   2.102 -0.2919 -0.1375 -0.3866
 9308SOL    HW239558   0.410   0.184   2.050 -0.2507 -1.1788  1.0289
 9309SOL     OW39559   3.907   3.217   6.749 -0.3292 -0.2808  0.4807
 9309SOL    HW139560   3.970   3.244   6.816 -1.7047  0.3260  1.5362
 9309SOL    HW239561   3.823   3.204   6.795 -0.3605 -1.8894 -0.0442
 9310SOL     OW39562   3.143   3.607   4.334  0.1261 -0.4727 -0.0545
 9310SOL    HW139563   3.078   3.573   4.395  1.6629 -2.4905  0.4562
 9310SOL    HW239564   3.138   3.536   4.270  0.4955  0.6271 -1.3055
 9311SOL     OW39565   2.636   0.175   6.673 -0.0400  0.0591  0.7165
 9311SOL    HW139566   2.702   0.106   6.685  0.7484  0.6456 -0.2289
 9311SOL    HW239567   2.583   0.140   6.602  1.3870 -0.9222  0.1380
 9312SOL     OW39568   0.002   0.781  17.318 -0.7131  0.4659  0.2623
 9312SOL    HW139569   0.052   0.758  17.240 -2.8056 -0.7958 -0.6982
 9312SOL    HW239570   0.074   0.820  17.368 -0.3236 -0.7288  0.6602
 9313SOL     OW39571   0.715   2.149  15.847 -0.7590  0.0860  0.0131
 9313SOL    HW139572   0.654   2.080  15.821  0.5160 -0.2162 -2.1974
 9313SOL    HW239573   0.774   2.099  15.903  0.0989  0.8097 -0.2352
 9314SOL     OW39574   0.692   0.302   0.624 -0.0284 -0.3281  0.0484
 9314SOL    HW139575   0.628   0.338   0.562 -1.9474 -0.3432  2.0104
 9314SOL    HW239576   0.758   0.271   0.562  0.5922  1.7550 -0.3387
 9315SOL     OW39577   1.943   1.062   4.665  0.0054 -0.4498 -0.0269
 9315SOL    HW139578   1.894   1.144   4.656  0.1944 -0.1946  1.2922
 9315SOL    HW239579   1.893   1.006   4.726 -2.8048  3.7686  1.5702
 9316SOL     OW39580   1.322   2.596   9.041  0.2763  0.1935  0.8078
 9316SOL    HW139581   1.245   2.540   9.046 -0.2922  1.1604  2.9225
 9316SOL    HW239582   1.300   2.669   9.099  1.3796  1.0721  0.1220
 9317SOL     OW39583   2.825   1.498  15.248 -0.4245 -0.3014 -0.3957
 9317SOL    HW139584   2.869   1.549  15.180  0.0878 -0.0500  0.1206
 9317SOL    HW239585   2.842   1.408  15.219 -1.5604 -0.7751  0.4144
 9318SOL     OW39586   0.399   2.112   7.808 -0.1443  0.2031 -0.5610
 9318SOL    HW139587   0.387   2.105   7.713  2.0666 -0.2780 -0.7938
 9318SOL    HW239588   0.314   2.086   7.843  0.6000 -1.9366 -0.3732
 9319SOL     OW39589   2.669   1.298   0.556 -0.7324  0.4080  0.6070
 9319SOL    HW139590   2.666   1.223   0.497 -0.9660  0.7514  0.1744
 9319SOL    HW239591   2.729   1.344   0.496  0.2826 -3.2733 -1.2247
 9320SOL     OW39592   2.479   4.518   1.887 -0.2574 -0.0151 -0.5524
 9320SOL    HW139593   2.572   4.509   1.869 -0.2739 -0.4520 -0.4266
 9320SOL    HW239594   2.479   4.553   1.976  0.8150  1.2838 -1.0787
 9321SOL     OW39595   1.580   4.250  14.836  0.4789 -0.0856  0.3609
 9321SOL    HW139596   1.652   4.311  14.847  2.0640 -2.0739  1.0249
 9321SOL    HW239597   1.584   4.192  14.912  1.4482 -1.9514 -1.1001
 9322SOL     OW39598   0.824   1.638   4.981 -0.9830 -0.3811 -0.3815
 9322SOL    HW139599   0.884   1.709   5.002 -0.7686 -0.7583  0.2893
 9322SOL    HW239600   0.884   1.584   4.930 -0.1719  0.5206 -0.3866
 9323SOL     OW39601   0.290   0.000  12.685 -0.2309  0.1216  0.5106
 9323SOL    HW139602   0.305   4.663  12.734 -1.7152 -0.4801 -0.0397
 9323SOL    HW239603   0.313   0.063  12.754  0.5149 -0.0477  0.4072
 9324SOL     OW39604   4.339   2.224   1.602 -0.2632  0.1388 -0.3368
 9324SOL    HW139605   4.313   2.306   1.561 -0.8820  0.4911  0.7485
 9324SOL    HW239606   4.399   2.193   1.534  0.9405 -0.7306  1.0850
 9325SOL     OW39607   2.987   2.338  16.467  0.2672  0.3752  0.4608
 9325SOL    HW139608   3.010   2.270  16.531  0.6007  0.6446  0.6341
 9325SOL    HW239609   3.062   2.398  16.474 -1.1111  1.9158  2.0420
 9326SOL     OW39610   1.981   2.877  15.087 -0.0581  0.1336 -0.8820
 9326SOL    HW139611   1.898   2.834  15.107  1.2626 -2.0091  0.0215
 9326SOL    HW239612   2.002   2.920  15.170 -1.9697  2.6903 -1.7298
 9327SOL     OW39613   3.841   2.859   6.826 -0.5143  0.8507  0.1979
 9327SOL    HW139614   3.780   2.919   6.783 -0.7008  0.4475 -0.1145
 9327SOL    HW239615   3.896   2.824   6.756 -0.7951 -0.6312  0.7154
 9328SOL     OW39616   2.095   1.381   2.319 -0.5375  0.1969  0.1807
 9328SOL    HW139617   2.172   1.421   2.359 -0.3772  1.3447 -1.2323
 9328SOL    HW239618   2.039   1.459   2.319  1.5791  1.7087  1.3779
 9329SOL     OW39619   1.184   2.004   7.441  0.5366 -0.1489 -0.0861
 9329SOL    HW139620   1.225   2.082   7.480  0.9234 -1.0349  1.3062
 9329SOL    HW239621   1.109   2.038   7.394  0.6598 -0.1885 -0.3093
 9330SOL     OW39622   2.859   1.525  17.275  0.1321 -0.4455 -0.1832
 9330SOL    HW139623   2.850   1.482  17.361 -2.0580  0.0694 -0.1648
 9330SOL    HW239624   2.935   1.472  17.250 -1.1339 -2.6290  0.5824
 9331SOL     OW39625   2.040   3.623   9.420  0.0560  0.1364  0.2188
 9331SOL    HW139626   2.051   3.718   9.426  0.5558  0.1900 -1.5166
 9331SOL    HW239627   1.974   3.605   9.487 -0.9441  1.2107 -0.4873
 9332SOL     OW39628   1.598   2.999   6.344  0.5399 -0.4378 -0.2719
 9332SOL    HW139629   1.642   3.082   6.326  0.1562 -0.3532 -0.8003
 9332SOL    HW239630   1.625   2.953   6.265  1.5924  1.2878 -0.9110
 9333SOL     OW39631   3.141   2.639   2.430  0.2011 -0.0878 -0.2141
 9333SOL    HW139632   3.170   2.565   2.377  0.4747 -0.3363  0.2796
 9333SOL    HW239633   3.150   2.597   2.516 -0.5133  0.8992  0.3369
 9334SOL     OW39634   4.483   3.070   3.787 -0.1541 -0.2150  0.2973
 9334SOL    HW139635   4.542   2.998   3.810  1.2886  0.4833 -1.2745
 9334SOL    HW239636   4.418   3.051   3.854 -0.6891  3.7230  0.9030
 9335SOL     OW39637   4.389   0.161  11.327  0.0015  0.0313  0.0489
 9335SOL    HW139638   4.362   0.085  11.379  0.0880 -0.8783 -1.2424
 9335SOL    HW239639   4.353   0.232  11.381  0.0554 -0.5522  0.8528
 9336SOL     OW39640   3.364   1.101   8.957  0.0467  0.5201 -0.0345
 9336SOL    HW139641   3.278   1.062   8.968 -0.6452  2.1259  0.3287
 9336SOL    HW239642   3.352   1.168   8.889 -3.6583  0.7930  0.9150
 9337SOL     OW39643   1.293   0.836   6.683 -0.0499 -0.1218 -0.5626
 9337SOL    HW139644   1.366   0.797   6.732 -1.3581  0.0381  1.5240
 9337SOL    HW239645   1.221   0.775   6.695  0.3210 -0.0049  2.1883
 9338SOL     OW39646   0.764   2.749  10.308 -0.3842 -0.5028 -0.6279
 9338SOL    HW139647   0.756   2.719  10.218  0.4712 -0.6606 -0.6564
 9338SOL    HW239648   0.859   2.737  10.310 -0.5890 -1.8209  2.4950
 9339SOL     OW39649   0.726   3.283  15.024 -0.2994  0.1123 -0.0304
 9339SOL    HW139650   0.760   3.366  15.058  0.2064 -0.0913 -0.0303
 9339SOL    HW239651   0.634   3.305  15.011 -1.0213 -1.3369  2.5098
 9340SOL     OW39652   0.719   1.621   6.755 -0.3419  0.2871 -0.5877
 9340SOL    HW139653   0.677   1.708   6.753  3.0868  1.9887  1.7834
 9340SOL    HW239654   0.760   1.622   6.669 -0.8773 -1.3854 -0.8526
 9341SOL     OW39655   4.123   3.935   5.653 -0.5659  0.1285 -0.0839
 9341SOL    HW139656   4.041   3.945   5.606 -1.2984  1.3560  1.4605
 9341SOL    HW239657   4.109   3.840   5.656  0.6677 -0.1025 -1.5125
 9342SOL     OW39658   2.136   1.012   4.510  0.3907 -0.0926 -0.9143
 9342SOL    HW139659   2.058   1.039   4.559  1.0892  0.9206 -0.3484
 9342SOL    HW239660   2.096   0.939   4.464 -1.5635  0.7148 -0.5189
 9343SOL     OW39661   3.049   1.339   4.162  0.2197  0.1186  0.2815
 9343SOL    HW139662   3.117   1.387   4.114  0.7728 -0.8955  0.0604
 9343SOL    HW239663   2.980   1.404   4.177 -0.9409 -1.0286 -0.1339
 9344SOL     OW39664   0.710   3.404   4.104  0.5787 -0.5942 -0.3373
 9344SOL    HW139665   0.786   3.446   4.063  0.1716 -0.7914 -1.2862
 9344SOL    HW239666   0.686   3.472   4.167  0.0813 -2.3115  1.3204
 9345SOL     OW39667   0.759   4.157   1.343 -0.1358  0.1604 -0.3619
 9345SOL    HW139668   0.778   4.207   1.263  1.0288  0.4969  0.1333
 9345SOL    HW239669   0.664   4.172   1.352 -0.6347 -1.9250 -2.0955
 9346SOL     OW39670   4.320   1.559   0.831 -0.0312 -0.3718  0.1329
 9346SOL    HW139671   4.309   1.648   0.865 -0.3226  0.1944 -1.4409
 9346SOL    HW239672   4.244   1.553   0.772  1.1231 -0.0062 -1.3938
 9347SOL     OW39673   0.268   0.473   8.116 -0.1343 -0.4268 -0.2979
 9347SOL    HW139674   0.199   0.459   8.181  2.0495 -2.1865  1.6691
 9347SOL    HW239675   0.300   0.382   8.113 -2.1645 -1.1420  0.0711
 9348SOL     OW39676   4.607   3.447   8.985  0.0196 -0.4635 -0.1210
 9348SOL    HW139677   4.632   3.514   9.049  1.1124 -0.1738 -0.8434
 9348SOL    HW239678   4.516   3.471   8.970  0.1148 -0.2216 -0.3045
 9349SOL     OW39679   1.275   4.221   9.864 -0.0486  0.2685 -0.7129
 9349SOL    HW139680   1.319   4.251   9.785  0.6360  0.8264 -0.1183
 9349SOL    HW239681   1.289   4.127   9.851 -1.6527 -0.1996  0.9262
 9350SOL     OW39682   1.760   4.557   3.745  0.2517 -0.1587  0.2224
 9350SOL    HW139683   1.698   4.502   3.793  0.9857 -1.2618 -0.0904
 9350SOL    HW239684   1.733   4.548   3.654 -1.3857  1.1449  0.5725
 9351SOL     OW39685   0.990   1.356   9.067 -0.3431 -0.3899 -0.5412
 9351SOL    HW139686   0.963   1.439   9.027 -0.1986  0.6097  1.4137
 9351SOL    HW239687   1.085   1.359   9.055 -0.3508 -0.8793 -0.7016
 9352SOL     OW39688   2.153   3.926   4.781 -0.8921  0.3440  0.0870
 9352SOL    HW139689   2.240   3.954   4.811 -1.6275  2.0895  0.6026
 9352SOL    HW239690   2.089   3.912   4.850  1.0381  1.3500  2.0785
 9353SOL     OW39691   3.238   3.977  10.128 -0.4866  0.6847  0.0796
 9353SOL    HW139692   3.278   3.911  10.184 -2.5314 -1.7607 -1.3297
 9353SOL    HW239693   3.198   4.043  10.185 -0.3267  0.6839  0.1892
 9354SOL     OW39694   3.887   2.746   4.417 -0.0587  0.2510 -0.1533
 9354SOL    HW139695   3.939   2.708   4.488 -0.9429  1.4482  1.1289
 9354SOL    HW239696   3.803   2.702   4.429  2.8413 -4.7229  1.8866
 9355SOL     OW39697   3.773   0.537   4.172  0.1873  0.0829  0.0168
 9355SOL    HW139698   3.816   0.619   4.148 -1.6156  0.4948 -1.8407
 9355SOL    HW239699   3.846   0.477   4.154  0.4024  0.3389  0.0428
 9356SOL     OW39700   1.089   3.321   5.912  0.0718 -0.4304  0.1894
 9356SOL    HW139701   1.035   3.276   5.978  0.9196 -0.6750  0.7219
 9356SOL    HW239702   1.174   3.280   5.932  0.7109  1.0173  0.4764
 9357SOL     OW39703   2.717   1.166   6.371  1.0208 -0.0440  0.5606
 9357SOL    HW139704   2.691   1.149   6.280  1.9891  1.8829 -0.0874
 9357SOL    HW239705   2.644   1.126   6.418 -0.1849  0.9105 -0.4776
 9358SOL     OW39706   2.975   2.325   8.759  0.1249  0.1190  0.4447
 9358SOL    HW139707   2.929   2.291   8.836 -0.7652  0.6499  0.1492
 9358SOL    HW239708   2.983   2.419   8.776  3.6421 -0.2511  0.7051
 9359SOL     OW39709   3.100   2.188   2.139 -0.3751  0.8295  0.0685
 9359SOL    HW139710   3.193   2.177   2.158 -0.4686  2.8195  1.6285
 9359SOL    HW239711   3.070   2.239   2.214 -2.5348  0.5816 -0.6012
 9360SOL     OW39712   1.108   0.659   6.356 -0.2954 -0.3045 -0.0981
 9360SOL    HW139713   1.140   0.667   6.446  0.5521  0.3151 -0.4514
 9360SOL    HW239714   1.062   0.576   6.364  3.0944 -2.1706 -0.1759
 9361SOL     OW39715   4.742   2.330   1.216 -0.0274  0.3091 -0.4177
 9361SOL    HW139716   0.085   2.353   1.249 -1.1401  0.7905  2.1415
 9361SOL    HW239717   4.681   2.395   1.251 -0.0927 -1.4987  2.8063
 9362SOL     OW39718   3.480   4.024   6.778  0.3378  0.4102 -0.4533
 9362SOL    HW139719   3.397   3.982   6.802  0.9453 -0.5348 -0.0069
 9362SOL    HW239720   3.481   4.012   6.684  1.6265 -0.1923 -0.3638
 9363SOL     OW39721   1.363   2.120   2.304  0.7552  0.0650  0.3722
 9363SOL    HW139722   1.434   2.119   2.240  1.1072 -1.2057  0.7892
 9363SOL    HW239723   1.378   2.209   2.336 -1.0534  0.5418 -0.1453
 9364SOL     OW39724   2.873   3.125   4.332  0.5544 -0.4162  0.1993
 9364SOL    HW139725   2.908   3.097   4.247 -1.9788 -0.1582 -0.9397
 9364SOL    HW239726   2.813   3.053   4.350 -1.1068  0.6123 -1.1210
 9365SOL     OW39727   0.513   0.202  10.569 -0.1806 -0.0886  0.0586
 9365SOL    HW139728   0.475   0.175  10.653 -0.9449 -0.4034 -0.3798
 9365SOL    HW239729   0.593   0.150  10.574  0.8778  1.5903  0.5781
 9366SOL     OW39730   3.640   1.128   9.607 -0.1862 -0.9004  0.4269
 9366SOL    HW139731   3.599   1.077   9.676  0.5096 -1.3321  0.5227
 9366SOL    HW239732   3.657   1.057   9.545 -1.3676 -0.1669 -0.7382
 9367SOL     OW39733   0.372   3.282  16.533 -0.3223 -0.2452  0.2865
 9367SOL    HW139734   0.341   3.329  16.611 -0.8876 -1.8874  1.0416
 9367SOL    HW239735   0.357   3.193  16.563 -0.8446 -0.1875  0.1851
 9368SOL     OW39736   0.410   0.501   7.325 -0.5004 -0.0627  0.6247
 9368SOL    HW139737   0.412   0.595   7.309 -2.7816 -0.5331 -2.4208
 9368SOL    HW239738   0.450   0.470   7.244 -1.6192 -0.2922  0.1630
 9369SOL     OW39739   1.314   0.476  10.976 -0.4573 -0.0174  0.0529
 9369SOL    HW139740   1.404   0.508  10.970 -0.6573  0.5486  0.1412
 9369SOL    HW239741   1.328   0.391  10.934 -1.2823 -0.6649  1.0857
 9370SOL     OW39742   0.723   0.025   8.657  0.2183 -0.1203 -0.6757
 9370SOL    HW139743   0.746   0.116   8.674 -0.2658  0.3449 -2.4995
 9370SOL    HW239744   0.627   0.032   8.656  0.1972 -0.2680  0.6986
 9371SOL     OW39745   0.684   1.896   6.246  0.4033  0.0160 -0.1550
 9371SOL    HW139746   0.621   1.965   6.229 -0.5937 -1.4003 -2.3113
 9371SOL    HW239747   0.766   1.943   6.264  0.5612 -0.2631 -0.1283
 9372SOL     OW39748   3.118   2.017   2.611  0.4837 -0.7726  0.1558
 9372SOL    HW139749   3.102   1.962   2.688  1.7820  1.1452  1.8023
 9372SOL    HW239750   3.036   2.061   2.590  0.3121 -1.0615  0.2185
 9373SOL     OW39751   2.510   1.373   1.581  0.1446 -0.2457  0.0475
 9373SOL    HW139752   2.594   1.410   1.611 -0.9574  1.6663  0.7801
 9373SOL    HW239753   2.459   1.454   1.581  2.4457  1.2164  0.3625
 9374SOL     OW39754   0.160   3.191  13.099 -0.3566 -0.8958  0.2415
 9374SOL    HW139755   0.198   3.277  13.083 -1.4887 -0.6606 -1.1035
 9374SOL    HW239756   0.081   3.194  13.046  0.0069 -0.9570 -0.3086
 9375SOL     OW39757   4.260   0.773   8.608  0.3302 -0.2904 -0.3904
 9375SOL    HW139758   4.207   0.839   8.563 -0.7244  0.0777  1.3832
 9375SOL    HW239759   4.206   0.695   8.600 -0.6492  0.5708 -2.1420
 9376SOL     OW39760   3.514   4.646  14.026 -0.7056  0.3425  0.2928
 9376SOL    HW139761   3.425   4.679  14.040 -1.1737 -0.3481 -1.0991
 9376SOL    HW239762   3.517   4.625  13.933 -0.1455  2.5351 -0.1794
 9377SOL     OW39763   2.291   0.675   3.473 -0.1194  0.6054 -0.2181
 9377SOL    HW139764   2.250   0.648   3.391 -0.1582 -0.8170  0.2735
 9377SOL    HW239765   2.228   0.648   3.540  0.6179  1.0695  0.6725
 9378SOL     OW39766   3.333   1.069   7.565 -0.3218 -0.0637 -0.1454
 9378SOL    HW139767   3.262   1.027   7.515 -2.0607  2.8197 -0.1168
 9378SOL    HW239768   3.413   1.020   7.551  1.0965  2.7906 -2.1309
 9379SOL     OW39769   3.994   1.047   8.244  0.5045 -0.4400  0.2131
 9379SOL    HW139770   4.088   1.044   8.225  0.7232 -0.2672  1.2688
 9379SOL    HW239771   3.972   0.954   8.233  0.5331  0.0495 -4.0537
 9380SOL     OW39772   3.356   3.920  17.444 -0.0776  0.9218  0.1943
 9380SOL    HW139773   3.390   4.003  17.411 -1.3114  0.8306 -1.3037
 9380SOL    HW239774   3.313   3.886  17.366 -1.2960  2.4667  0.1971
 9381SOL     OW39775   2.363   4.201  11.576  0.5279 -0.1794  0.2474
 9381SOL    HW139776   2.431   4.138  11.601 -0.4869 -0.7466  1.5521
 9381SOL    HW239777   2.406   4.287  11.570 -2.3901  1.3554  1.5125
 9382SOL     OW39778   2.366   1.802   4.883 -0.5345 -0.3746 -0.0520
 9382SOL    HW139779   2.389   1.894   4.868 -0.5798 -0.1921  1.0308
 9382SOL    HW239780   2.271   1.809   4.890 -0.3907  2.0626 -0.5834
 9383SOL     OW39781   2.836   1.223   5.787  0.3566 -0.4945  0.2077
 9383SOL    HW139782   2.806   1.133   5.798 -0.4064 -0.2331  0.2921
 9383SOL    HW239783   2.749   1.264   5.777  0.3871 -0.8943 -1.5958
 9384SOL     OW39784   4.472   1.548   9.321 -0.0385  0.2155  0.2261
 9384SOL    HW139785   4.479   1.596   9.238  0.3221  0.5015  0.4189
 9384SOL    HW239786   4.376   1.543   9.326 -0.0593  0.1014 -0.3632
 9385SOL     OW39787   0.591   3.972   5.392 -0.1716  0.2614 -0.1841
 9385SOL    HW139788   0.571   3.953   5.300 -0.9468 -2.5031  0.5457
 9385SOL    HW239789   0.570   4.065   5.395 -0.6387  0.1321  0.5878
 9386SOL     OW39790   0.244   1.655   2.045  0.2639 -0.1796  0.0160
 9386SOL    HW139791   0.223   1.635   1.954 -0.2426  1.7113 -0.2826
 9386SOL    HW239792   0.328   1.612   2.058  0.1559 -0.2199  0.5965
 9387SOL     OW39793   2.158   3.802   6.257  0.3262 -0.1627 -0.6240
 9387SOL    HW139794   2.225   3.805   6.326  2.1387 -1.2025 -2.3628
 9387SOL    HW239795   2.151   3.897   6.241 -0.7456 -0.2489 -0.6527
 9388SOL     OW39796   1.894   1.003  14.702 -0.2967 -0.2009 -0.0820
 9388SOL    HW139797   1.833   0.937  14.669  1.1613 -0.9726 -1.2230
 9388SOL    HW239798   1.862   1.010  14.792  0.4843  0.3647  0.1551
 9389SOL     OW39799   2.934   0.253  15.894 -0.5328 -0.1788 -0.4113
 9389SOL    HW139800   2.911   0.229  15.804  1.1844  1.8690 -1.3932
 9389SOL    HW239801   2.853   0.292  15.926 -0.2852 -0.4045  0.5024
 9390SOL     OW39802   2.358   2.057   1.584  0.1910  0.5214  0.5782
 9390SOL    HW139803   2.423   2.124   1.605  0.5081  1.2061 -2.5897
 9390SOL    HW239804   2.395   2.024   1.503 -0.2163 -0.4263  0.7834
 9391SOL     OW39805   0.278   3.926   9.084 -0.2825  0.3610  0.1858
 9391SOL    HW139806   0.248   3.982   9.012 -0.0643  1.3343  0.8502
 9391SOL    HW239807   0.373   3.940   9.081 -0.0067 -1.4757  0.5506
 9392SOL     OW39808   3.907   3.735   2.268 -0.1903  0.0942 -0.3956
 9392SOL    HW139809   3.858   3.806   2.309  0.7653  1.3455 -1.4397
 9392SOL    HW239810   3.943   3.774   2.188  0.3121 -0.5498 -0.4826
 9393SOL     OW39811   1.552   2.421   8.536 -0.6907  0.1307 -0.1182
 9393SOL    HW139812   1.518   2.331   8.537 -5.4024  1.8994 -0.6951
 9393SOL    HW239813   1.614   2.415   8.608 -0.3912  0.3401 -0.3559
 9394SOL     OW39814   0.473   2.990  13.179 -0.3766 -0.4421  0.1573
 9394SOL    HW139815   0.416   3.016  13.252  1.7827 -2.0442  2.4181
 9394SOL    HW239816   0.532   2.939  13.235 -1.3067 -0.9793  0.6524
 9395SOL     OW39817   3.450   1.124  13.349  0.0809 -0.3253 -0.0337
 9395SOL    HW139818   3.482   1.111  13.260  1.5334 -0.9554  0.5727
 9395SOL    HW239819   3.432   1.033  13.374 -0.0711  0.8072  3.9877
 9396SOL     OW39820   4.560   3.585   7.839  0.3384  0.2446  0.6419
 9396SOL    HW139821   4.602   3.596   7.924 -0.2871  0.2095  0.9495
 9396SOL    HW239822   4.527   3.498   7.863  1.2622  0.9455  4.4714
 9397SOL     OW39823   3.206   4.271   1.919  0.6299  0.1266 -0.0167
 9397SOL    HW139824   3.265   4.293   1.991  1.1717 -0.3487 -0.3180
 9397SOL    HW239825   3.257   4.217   1.859 -0.8676 -0.7934 -0.4773
 9398SOL     OW39826   3.670   4.674   2.495 -0.0825 -0.0093  0.1931
 9398SOL    HW139827   3.590   4.721   2.471 -1.2018 -0.9345  2.1419
 9398SOL    HW239828   3.677   4.614   2.422 -2.3034  0.2500 -0.2299
 9399SOL     OW39829   3.636   3.177   5.315 -0.3557 -0.3070  0.0865
 9399SOL    HW139830   3.561   3.169   5.257 -0.6430 -0.6831  0.5131
 9399SOL    HW239831   3.665   3.265   5.292  0.3693 -0.8574 -1.1152
 9400SOL     OW39832   2.765   3.733   1.362 -0.5456 -0.4018  0.0801
 9400SOL    HW139833   2.856   3.751   1.386 -1.6724  2.4959  2.1332
 9400SOL    HW239834   2.764   3.767   1.273  1.2292 -1.5806 -0.3986
 9401SOL     OW39835   4.163   0.120   4.289 -0.0549 -0.2652  0.4243
 9401SOL    HW139836   4.159   0.025   4.277 -1.4827 -0.5279  2.9528
 9401SOL    HW239837   4.251   0.147   4.264  0.8513 -2.0281  1.7190
 9402SOL     OW39838   1.934   3.424   7.155  0.0410 -0.3669  0.2130
 9402SOL    HW139839   1.880   3.404   7.079  1.2286 -2.5506 -0.0360
 9402SOL    HW239840   2.006   3.484   7.138 -0.1992  0.0893  0.7955
 9403SOL     OW39841   3.310   1.219   9.374 -0.2142 -0.2789  0.4617
 9403SOL    HW139842   3.287   1.293   9.318 -1.8994 -1.8737 -0.9624
 9403SOL    HW239843   3.380   1.183   9.320 -0.4367 -0.1364  0.0797
 9404SOL     OW39844   3.727   4.083   9.591  0.3783 -0.5217 -0.4118
 9404SOL    HW139845   3.733   4.156   9.652 -0.8178  0.4463 -1.4707
 9404SOL    HW239846   3.693   4.015   9.649  0.0477 -0.0818 -0.0964
 9405SOL     OW39847   0.659   0.900   4.628 -0.2417 -0.2265  0.0037
 9405SOL    HW139848   0.591   0.956   4.663  0.1760  1.2023 -1.4841
 9405SOL    HW239849   0.665   0.945   4.544  0.5030 -1.3162 -0.5362
 9406SOL     OW39850   3.265   1.633   8.273  0.0273  0.1620 -0.2828
 9406SOL    HW139851   3.248   1.662   8.363 -0.9968 -1.0833 -0.0739
 9406SOL    HW239852   3.179   1.596   8.253 -1.6144  0.9561  5.0980
 9407SOL     OW39853   2.713   3.295  12.641  0.1244  0.0761  0.3551
 9407SOL    HW139854   2.708   3.203  12.669 -0.3629 -0.0325 -0.0714
 9407SOL    HW239855   2.797   3.294  12.594  2.0382 -1.4000  3.8286
 9408SOL     OW39856   1.207   0.643   3.165 -0.6844 -0.7766 -0.0886
 9408SOL    HW139857   1.179   0.682   3.248 -2.0007 -1.4305 -0.2159
 9408SOL    HW239858   1.211   0.712   3.100  1.1570  1.0888  2.0210
 9409SOL     OW39859   1.839   4.078  16.024 -0.3353 -0.8669 -0.1276
 9409SOL    HW139860   1.775   4.141  15.992  0.4875 -1.0648 -2.1605
 9409SOL    HW239861   1.893   4.063  15.946 -0.1264 -0.3122 -0.0927
 9410SOL     OW39862   0.485   0.886   5.295  0.5165  0.1886 -0.0399
 9410SOL    HW139863   0.398   0.878   5.256 -0.9059 -1.7659  3.4633
 9410SOL    HW239864   0.476   0.975   5.329  2.6437  0.5867 -0.5137
 9411SOL     OW39865   0.794   4.324   3.521 -0.3638 -0.7047 -0.2918
 9411SOL    HW139866   0.845   4.361   3.449  0.1687 -0.5322  0.1828
 9411SOL    HW239867   0.702   4.338   3.496 -0.0129  1.2242 -0.4963
 9412SOL     OW39868   0.010   4.703   2.487 -0.4065 -0.4197  0.3033
 9412SOL    HW139869   4.741   4.615   2.451 -0.4377 -0.0461 -0.5953
 9412SOL    HW239870   4.678   0.005   2.453  0.9052  1.3382 -0.2376
 9413SOL     OW39871   2.994   3.069   5.623  0.1959 -0.2483 -0.1178
 9413SOL    HW139872   3.072   3.093   5.573  0.9668 -1.1013  0.6795
 9413SOL    HW239873   2.967   2.989   5.578  2.4924 -0.4096 -1.2279
 9414SOL     OW39874   1.991   1.725  11.961  0.3197 -0.2120  0.8949
 9414SOL    HW139875   2.037   1.641  11.953  0.5660  0.0051  0.0784
 9414SOL    HW239876   2.029   1.774  11.889  0.4064 -0.5716  0.6976
 9415SOL     OW39877   1.948   0.297   7.465 -0.1865  0.2894  0.0919
 9415SOL    HW139878   1.958   0.322   7.373 -0.9047 -1.0115 -0.3531
 9415SOL    HW239879   1.901   0.373   7.498 -2.3001 -0.9678  0.0169
 9416SOL     OW39880   4.259   0.064  13.240 -0.1659 -0.0815 -0.2610
 9416SOL    HW139881   4.177   0.108  13.214  0.3106  0.6807 -0.4790
 9416SOL    HW239882   4.325   0.126  13.207  0.4921 -0.7270 -0.1456
 9417SOL     OW39883   1.771   2.341   2.474  0.0511  0.7149 -1.2097
 9417SOL    HW139884   1.835   2.412   2.472 -0.0399  0.7435 -2.8321
 9417SOL    HW239885   1.798   2.289   2.550 -0.2205  2.0441 -0.2025
 9418SOL     OW39886   1.076   0.757   7.666 -0.0985 -0.0373  0.5504
 9418SOL    HW139887   1.162   0.798   7.677  0.5915 -1.7895  1.7413
 9418SOL    HW239888   1.079   0.716   7.753 -0.8451  0.7830  0.9652
 9419SOL     OW39889   0.964   2.394  11.425  0.4685 -0.4999 -0.3871
 9419SOL    HW139890   0.869   2.390  11.417  0.4051 -1.4676  0.7365
 9419SOL    HW239891   0.973   2.480  11.385 -2.8269  1.2310  2.6111
 9420SOL     OW39892   0.441   2.034   8.479 -0.2922 -0.1890  0.2908
 9420SOL    HW139893   0.364   1.987   8.513 -1.5285  0.8391 -1.0734
 9420SOL    HW239894   0.408   2.083   8.404  0.3193  1.2986  1.0011
 9421SOL     OW39895   4.226   3.183  11.119 -0.3788 -0.4826 -0.1933
 9421SOL    HW139896   4.231   3.273  11.089  0.3516  0.0055  1.3836
 9421SOL    HW239897   4.306   3.183  11.173 -0.4939 -0.0469 -0.0256
 9422SOL     OW39898   1.112   1.592   8.701 -0.5961  0.4170 -0.1259
 9422SOL    HW139899   1.171   1.519   8.685 -0.0609  0.7876  0.1633
 9422SOL    HW239900   1.179   1.657   8.722 -0.6941  0.4472  0.0934
 9423SOL     OW39901   0.672   3.797   3.059  0.6442  0.5560 -0.1520
 9423SOL    HW139902   0.676   3.706   3.028  0.3020  0.7915 -0.8794
 9423SOL    HW239903   0.639   3.836   2.978 -1.5695  2.2988  1.5949
 9424SOL     OW39904   1.495   3.308   2.752 -0.6952  1.0936  0.3504
 9424SOL    HW139905   1.468   3.228   2.797 -1.0259  1.0069 -0.0028
 9424SOL    HW239906   1.406   3.330   2.725 -0.5734  1.3281  0.1347
 9425SOL     OW39907   2.198   2.012   7.337  0.3574 -0.0898  0.1368
 9425SOL    HW139908   2.137   2.058   7.279  0.0879  0.9200  1.2258
 9425SOL    HW239909   2.159   2.028   7.423 -1.4217 -1.5191 -0.4018
 9426SOL     OW39910   3.910   0.185   4.843 -0.2219  0.0294 -0.6039
 9426SOL    HW139911   3.893   0.105   4.794 -2.3005  1.7979 -2.7534
 9426SOL    HW239912   3.840   0.174   4.907 -1.3754  2.2004 -1.5014
 9427SOL     OW39913   3.504   2.863   2.384 -0.2566 -0.3499  0.3589
 9427SOL    HW139914   3.466   2.834   2.466 -2.2698 -0.0323 -0.4692
 9427SOL    HW239915   3.569   2.923   2.421 -0.0035 -1.2741  1.4116
 9428SOL     OW39916   4.602   1.986   6.464  0.6401  0.2340  0.8276
 9428SOL    HW139917   4.545   1.924   6.419  1.9041 -2.0916  2.4259
 9428SOL    HW239918   4.605   1.946   6.551  2.6378 -1.6933 -0.1048
 9429SOL     OW39919   0.431   4.184   7.455  0.0385 -0.0329  0.4274
 9429SOL    HW139920   0.449   4.274   7.483 -1.0170 -0.5759  2.8652
 9429SOL    HW239921   0.439   4.140   7.539 -1.0316  0.2330  0.6720
 9430SOL     OW39922   1.240   2.294   3.928 -0.9223 -0.1106 -0.0095
 9430SOL    HW139923   1.169   2.319   3.868 -0.5870  0.9147  0.0246
 9430SOL    HW239924   1.193   2.219   3.965 -0.5094 -0.0733  0.5872
 9431SOL     OW39925   4.433   1.014   8.800 -0.1257  0.1340 -0.6402
 9431SOL    HW139926   4.383   1.019   8.881  0.4440  0.7350 -0.3167
 9431SOL    HW239927   4.508   1.068   8.825 -0.6583  0.9219 -0.7267
 9432SOL     OW39928   2.757   4.154   8.654 -0.1105  0.4266 -0.6451
 9432SOL    HW139929   2.664   4.173   8.670  0.5255  0.8131  2.7214
 9432SOL    HW239930   2.762   4.132   8.561  2.1036  1.3886 -0.7431
 9433SOL     OW39931   1.333   4.465   6.231  0.0722  0.2508 -0.2222
 9433SOL    HW139932   1.385   4.455   6.311  0.8293 -0.0366 -0.7523
 9433SOL    HW239933   1.273   4.391   6.245  0.4551  0.1366  0.8358
 9434SOL     OW39934   1.305   3.980  13.433  0.8290  0.3070 -0.1249
 9434SOL    HW139935   1.228   3.955  13.484  2.5801 -2.2664  1.2663
 9434SOL    HW239936   1.291   3.956  13.342 -0.3234  0.4112  0.0258
 9435SOL     OW39937   3.723   2.891   4.072  0.3484  0.2561 -0.7755
 9435SOL    HW139938   3.799   2.914   4.019 -0.0523 -1.1623 -1.9863
 9435SOL    HW239939   3.658   2.954   4.042  0.3419 -0.4832 -2.3164
 9436SOL     OW39940   3.817   0.841   6.417 -0.6754  0.1190 -0.8305
 9436SOL    HW139941   3.748   0.776   6.404 -0.6468  0.3808 -2.3629
 9436SOL    HW239942   3.801   0.865   6.508  1.2077 -3.0471  0.3292
 9437SOL     OW39943   0.434   1.617   3.024 -0.5918  0.3770 -0.1874
 9437SOL    HW139944   0.447   1.645   2.934 -0.6291  1.0063  0.0067
 9437SOL    HW239945   0.347   1.578   3.021 -1.1748  1.7089 -0.2012
 9438SOL     OW39946   4.205   1.967   3.262 -0.5146  0.0207  0.3052
 9438SOL    HW139947   4.152   1.942   3.338  0.1973 -0.9607  0.4734
 9438SOL    HW239948   4.143   2.012   3.204 -2.0286 -0.6636  1.3918
 9439SOL     OW39949   1.803   1.817   5.045 -0.1222 -0.0628 -0.2675
 9439SOL    HW139950   1.797   1.752   5.115  2.9617  0.3889  0.4105
 9439SOL    HW239951   1.887   1.861   5.061 -0.6507  0.8426 -0.0414
 9440SOL     OW39952   3.059   3.995   8.437  0.0548  0.2671  0.3395
 9440SOL    HW139953   3.034   3.911   8.476 -0.3771 -0.4132 -1.3759
 9440SOL    HW239954   3.136   3.977   8.383 -0.3142 -0.1730 -0.0443
 9441SOL     OW39955   2.578   4.027  16.088  0.0149 -0.4511 -0.4756
 9441SOL    HW139956   2.589   4.121  16.100  1.0672 -0.4837 -1.2140
 9441SOL    HW239957   2.640   4.004  16.019  0.5772 -0.5050  0.0540
 9442SOL     OW39958   1.030   3.562   9.602 -0.8804 -0.2885 -0.2873
 9442SOL    HW139959   0.960   3.617   9.638  0.6523  0.7645  1.1351
 9442SOL    HW239960   0.997   3.473   9.607 -1.9573  0.2401  2.2699
 9443SOL     OW39961   4.605   3.302   9.390  0.1376  0.1021 -0.5688
 9443SOL    HW139962   4.685   3.353   9.402  1.2181 -1.3091 -1.7100
 9443SOL    HW239963   4.620   3.259   9.305  1.7511 -2.7394  1.1378
 9444SOL     OW39964   0.037   2.346  14.085  0.5799  0.4886 -0.5499
 9444SOL    HW139965   0.037   2.412  14.154  1.0988 -0.1459  0.0532
 9444SOL    HW239966   4.742   2.267  14.123  1.9749  1.0775  2.0452
 9445SOL     OW39967   2.500   1.122   7.347 -0.2572 -0.1150  0.2712
 9445SOL    HW139968   2.406   1.128   7.331  0.0430 -0.3995 -1.5282
 9445SOL    HW239969   2.543   1.154   7.268 -0.0204  0.2016  0.5272
 9446SOL     OW39970   1.655   3.929  15.388 -0.2073 -0.1165 -0.0016
 9446SOL    HW139971   1.585   3.870  15.415 -0.7789 -0.0748 -1.3882
 9446SOL    HW239972   1.689   3.963  15.471 -0.6795 -2.6208  1.1939
 9447SOL     OW39973   0.191   4.212  17.407  0.1799  0.0888 -0.0230
 9447SOL    HW139974   0.098   4.214  17.432 -0.7765  1.4228 -3.7186
 9447SOL    HW239975   0.235   4.253  17.481 -2.4435  2.2914  0.3308
 9448SOL     OW39976   4.631   1.449   5.119  0.1626 -0.2192 -0.0075
 9448SOL    HW139977   4.675   1.525   5.080 -0.7730  0.3925  0.1411
 9448SOL    HW239978   4.539   1.476   5.116 -0.0537 -0.9681  0.0644
 9449SOL     OW39979   0.494   3.599  10.157  0.0673  0.3336 -0.5712
 9449SOL    HW139980   0.504   3.687  10.193  0.3588  0.7107 -1.5741
 9449SOL    HW239981   0.516   3.625  10.067 -2.1939 -1.6180 -1.6884
 9450SOL     OW39982   3.695   4.202   5.927 -0.1048 -0.3353 -0.4168
 9450SOL    HW139983   3.652   4.176   6.009  0.1495  0.9960  0.1451
 9450SOL    HW239984   3.763   4.261   5.960 -0.8005  0.6481 -0.7361
 9451SOL     OW39985   3.088   1.600   4.461  0.2601  0.2119 -0.6352
 9451SOL    HW139986   3.103   1.506   4.455 -1.9853 -0.3586  2.5097
 9451SOL    HW239987   3.161   1.634   4.410  0.9396  0.0326  0.2147
 9452SOL     OW39988   3.390   2.904   7.767  0.3723 -0.3235 -0.2733
 9452SOL    HW139989   3.304   2.872   7.795 -0.0171  0.7966 -0.1997
 9452SOL    HW239990   3.369   2.997   7.773  0.0206 -0.4278  0.1251
 9453SOL     OW39991   1.984   2.147  12.168  0.0033  0.4191  0.1276
 9453SOL    HW139992   2.021   2.150  12.079 -0.6652  0.6711 -0.1449
 9453SOL    HW239993   1.892   2.130  12.151  0.5649 -1.3914 -1.1300
 9454SOL     OW39994   3.818   3.686  17.477 -0.3384  0.0576  0.6859
 9454SOL    HW139995   3.749   3.752  17.485 -0.8065 -0.5864  2.0983
 9454SOL    HW239996   3.769   3.610  17.445 -0.4518 -0.5034  2.1671
 9455SOL     OW39997   2.611   1.514   8.726 -0.2231 -0.2301  0.2423
 9455SOL    HW139998   2.595   1.468   8.643 -1.2887  1.8595 -0.7168
 9455SOL    HW239999   2.670   1.584   8.698 -0.1837 -0.3759 -0.0396
 9456SOL     OW40000   0.187   0.723   8.058  0.1813 -0.7044 -0.5653
 9456SOL    HW140001   0.224   0.638   8.084 -0.2576 -0.8591 -0.4453
 9456SOL    HW240002   0.099   0.720   8.094 -0.8973 -0.6253 -3.2464
 9457SOL     OW40003   2.468   2.261   3.874  0.1804  0.1022  0.2507
 9457SOL    HW140004   2.504   2.190   3.822 -2.2734 -0.5116 -0.6171
 9457SOL    HW240005   2.513   2.254   3.959  2.1584  1.4387 -0.6804
 9458SOL     OW40006   3.947   0.932   0.258  0.0184 -0.0906  0.0899
 9458SOL    HW140007   3.941   0.930   0.162 -3.1003  0.8546  0.2609
 9458SOL    HW240008   3.886   0.864   0.286 -0.1142  0.2083  0.5221
 9459SOL     OW40009   4.102   3.946   9.252 -0.9969 -0.5379 -0.0537
 9459SOL    HW140010   4.154   3.919   9.328  0.2422 -0.6912 -0.9668
 9459SOL    HW240011   4.151   3.904   9.182 -0.5779  0.6764 -0.4750
 9460SOL     OW40012   2.695   0.959  12.480  0.1838  0.0684  0.0503
 9460SOL    HW140013   2.760   1.012  12.435 -0.7242  1.2521  0.1292
 9460SOL    HW240014   2.684   0.991  12.570 -0.0229  2.4976 -0.8420
 9461SOL     OW40015   2.570   4.470   4.151 -0.0867 -0.7231 -0.0692
 9461SOL    HW140016   2.513   4.485   4.226 -1.4544  0.8808 -1.4331
 9461SOL    HW240017   2.642   4.429   4.199 -0.3218  1.5305  2.1841
 9462SOL     OW40018   2.851   2.705   6.910 -0.3436  0.1464  0.2867
 9462SOL    HW140019   2.943   2.704   6.885 -0.5075 -0.7328 -0.3037
 9462SOL    HW240020   2.831   2.611   6.909 -0.6800  0.2154  0.3892
 9463SOL     OW40021   4.031   3.156   1.355 -0.4648  0.4233 -0.0856
 9463SOL    HW140022   4.092   3.096   1.313  0.2270  0.6686  0.5731
 9463SOL    HW240023   4.086   3.228   1.386  2.4287 -1.7903 -0.0833
 9464SOL     OW40024   1.315   4.332   5.143  0.1734 -0.1221 -0.1265
 9464SOL    HW140025   1.242   4.376   5.186  0.1692  0.1511 -0.4191
 9464SOL    HW240026   1.286   4.240   5.142  1.2014 -0.4287 -1.9893
 9465SOL     OW40027   2.919   4.703   9.229  0.6789 -0.2226 -0.2252
 9465SOL    HW140028   3.013   4.695   9.211  0.4078 -0.3266 -1.5816
 9465SOL    HW240029   2.882   4.616   9.220  0.4805 -0.2215  0.6000
 9466SOL     OW40030   0.766   3.335   9.028 -0.0919 -0.3722  0.1413
 9466SOL    HW140031   0.701   3.403   9.049 -1.4032 -1.2984 -0.9486
 9466SOL    HW240032   0.840   3.393   9.048 -1.3462  1.6646 -1.0566
 9467SOL     OW40033   0.364   1.422  17.032  0.1399  0.1523  0.0616
 9467SOL    HW140034   0.311   1.404  16.954 -1.5812 -0.6954  1.4189
 9467SOL    HW240035   0.313   1.497  17.064 -2.7350 -2.0026  0.5710
 9468SOL     OW40036   3.800   3.186   8.756 -0.3341 -0.1121  0.3317
 9468SOL    HW140037   3.860   3.199   8.830 -1.3710  0.6036  1.0524
 9468SOL    HW240038   3.740   3.258   8.776  1.4620  0.5314  3.4559
 9469SOL     OW40039   1.543   1.837   8.329 -0.3040  0.3579  0.0659
 9469SOL    HW140040   1.449   1.852   8.343 -1.2738 -2.5659 -3.3595
 9469SOL    HW240041   1.575   1.860   8.416  2.5179 -0.2172 -0.8261
 9470SOL     OW40042   4.450   4.612   4.970 -0.3419  0.2416  0.4611
 9470SOL    HW140043   4.374   4.667   4.954 -2.6504 -2.9140  0.6259
 9470SOL    HW240044   4.407   4.551   5.030 -0.9159 -1.7707 -2.0419
 9471SOL     OW40045   0.785   2.898   8.066  0.3973 -0.2485  0.7003
 9471SOL    HW140046   0.856   2.938   8.016  0.5639 -1.8481 -0.3416
 9471SOL    HW240047   0.827   2.842   8.132  0.2858 -0.2943  0.7332
 9472SOL     OW40048   3.379   1.740   9.077  0.0257 -0.0529  0.0128
 9472SOL    HW140049   3.373   1.650   9.044  1.6300 -0.2047  0.1697
 9472SOL    HW240050   3.474   1.744   9.066 -0.1382 -3.6914 -2.9816
 9473SOL     OW40051   1.879   2.142   9.447 -0.7293 -0.4624  0.7215
 9473SOL    HW140052   1.959   2.093   9.428 -0.1923 -0.6022  3.2734
 9473SOL    HW240053   1.866   2.117   9.539 -1.3051 -0.4145  0.6524
 9474SOL     OW40054   3.267   3.859   6.838  0.0348  0.0578 -0.0776
 9474SOL    HW140055   3.309   3.853   6.924 -0.1865 -1.0376 -0.0368
 9474SOL    HW240056   3.197   3.916   6.867 -0.1233  0.3096 -0.9634
 9475SOL     OW40057   2.100   1.868   4.933  0.0595  0.5508  0.0733
 9475SOL    HW140058   2.048   1.920   4.994 -1.1883 -1.7916  1.0108
 9475SOL    HW240059   2.051   1.884   4.853  1.2007  1.3265 -0.4652
 9476SOL     OW40060   0.449   1.237  14.696  0.6073 -0.5428  0.6695
 9476SOL    HW140061   0.427   1.144  14.691 -0.7559 -0.1046 -1.3602
 9476SOL    HW240062   0.444   1.262  14.788 -2.8778  3.0817 -0.5281
 9477SOL     OW40063   2.472   1.181  11.002  0.5883  0.0399  0.2254
 9477SOL    HW140064   2.399   1.190  10.941  1.4009 -0.1106 -0.7633
 9477SOL    HW240065   2.456   1.089  11.024  0.3681 -0.5302 -2.2985
 9478SOL     OW40066   1.140   2.809   7.049 -0.4369  0.2228  0.3387
 9478SOL    HW140067   1.174   2.719   7.054  2.4989  1.2907 -0.2718
 9478SOL    HW240068   1.049   2.784   7.033  0.5322 -1.9888 -1.7546
 9479SOL     OW40069   0.015   2.321  17.664  0.2331 -0.0844 -0.1786
 9479SOL    HW140070   4.664   2.316  17.652  0.2258 -0.1598 -0.0848
 9479SOL    HW240071   0.052   2.306  17.577  1.7024  3.8418 -0.2299
 9480SOL     OW40072   2.210   3.175  14.210  0.2777  0.0776  0.4784
 9480SOL    HW140073   2.201   3.268  14.234 -1.7903 -0.8653  3.2162
 9480SOL    HW240074   2.133   3.167  14.154  1.3794 -3.1015 -0.5679
 9481SOL     OW40075   0.839   0.675   1.482  0.3835  0.4173 -0.3206
 9481SOL    HW140076   0.899   0.629   1.541 -0.9595 -0.2794  0.4721
 9481SOL    HW240077   0.772   0.609   1.493  0.2075  0.3553 -1.7026
 9482SOL     OW40078   3.327   2.434   1.236 -0.2996  0.3543  0.5820
 9482SOL    HW140079   3.369   2.500   1.291  0.3058 -0.6615  1.3242
 9482SOL    HW240080   3.233   2.444   1.254 -0.0894  2.2923  0.5729
 9483SOL     OW40081   3.750   3.628  11.023  0.4502  0.0270 -0.1686
 9483SOL    HW140082   3.775   3.694  10.959  0.2196  0.1939 -0.0867
 9483SOL    HW240083   3.750   3.669  11.109 -1.2234  2.1655 -1.2082
 9484SOL     OW40084   2.845   0.751  14.841 -0.0522 -0.3081 -0.2741
 9484SOL    HW140085   2.864   0.784  14.753 -0.1757 -1.4065 -0.7178
 9484SOL    HW240086   2.926   0.776  14.885 -0.3023  0.9220 -0.5106
 9485SOL     OW40087   0.882   3.114   9.801 -0.7367 -0.3322  0.6828
 9485SOL    HW140088   0.791   3.142   9.816 -1.0732 -0.7743 -0.4862
 9485SOL    HW240089   0.868   3.019   9.810 -1.2667 -0.3898 -0.6805
 9486SOL     OW40090   2.795   3.799   1.091 -0.6542  0.0389  0.1892
 9486SOL    HW140091   2.851   3.800   1.013 -0.4219 -2.8323  0.3026
 9486SOL    HW240092   2.758   3.887   1.091  2.5416  1.3856 -1.0842
 9487SOL     OW40093   0.301   4.527   1.486 -0.7402  0.1662 -0.3925
 9487SOL    HW140094   0.301   4.436   1.514  1.3790  0.7717  1.5877
 9487SOL    HW240095   0.233   4.527   1.419 -0.5638  0.1002 -0.5696
 9488SOL     OW40096   2.250   0.347   8.995  0.1011 -0.1944  0.0007
 9488SOL    HW140097   2.317   0.315   9.056 -1.7062  1.4797  2.8659
 9488SOL    HW240098   2.273   0.293   8.919  3.6335  0.9687  0.2236
 9489SOL     OW40099   2.393   0.444   0.329  0.5510  0.2468 -0.0465
 9489SOL    HW140100   2.338   0.378   0.287 -0.5714  1.3407 -0.3078
 9489SOL    HW240101   2.398   0.507   0.257  1.9739  0.4510  0.2296
 9490SOL     OW40102   3.980   0.314  16.157  0.4656  0.3714 -0.0564
 9490SOL    HW140103   3.926   0.379  16.203  0.0360 -0.2292  0.2833
 9490SOL    HW240104   4.061   0.364  16.146  0.0854  0.8688 -0.6698
 9491SOL     OW40105   4.427   0.090   6.845  0.1517 -0.4308  0.1038
 9491SOL    HW140106   4.486   0.051   6.910 -1.1536 -2.4670  0.0614
 9491SOL    HW240107   4.347   0.041   6.859  0.7147 -1.0964  1.0268
 9492SOL     OW40108   3.164   0.992   8.648  0.2924 -0.1916 -0.3546
 9492SOL    HW140109   3.232   1.058   8.637  0.0613  0.2139  0.5915
 9492SOL    HW240110   3.206   0.911   8.621 -0.8871 -0.9591  0.0851
 9493SOL     OW40111   3.957   2.827   0.263 -0.0623  0.0425 -0.1215
 9493SOL    HW140112   4.017   2.794   0.330 -0.4913  1.3310  0.9124
 9493SOL    HW240113   3.876   2.846   0.310 -0.7276  1.0802 -1.6797
 9494SOL     OW40114   2.251   3.588   8.605  0.0549 -0.1651 -0.2577
 9494SOL    HW140115   2.191   3.660   8.589  0.8175  0.6254  0.4536
 9494SOL    HW240116   2.246   3.578   8.700  2.8096 -1.3159 -0.2146
 9495SOL     OW40117   2.350   2.986   6.041 -0.3240 -0.0895 -0.1235
 9495SOL    HW140118   2.352   3.032   6.125  1.7288  0.5757 -0.5258
 9495SOL    HW240119   2.379   3.054   5.980  0.4025  0.2888  0.6357
 9496SOL     OW40120   1.366   2.666   3.826 -0.5186  0.0199  0.9190
 9496SOL    HW140121   1.285   2.697   3.867 -0.2090  0.2330  1.3727
 9496SOL    HW240122   1.389   2.606   3.897  2.1932  1.4871  1.2701
 9497SOL     OW40123   3.537   1.405   6.260 -0.0008  0.0237 -0.1736
 9497SOL    HW140124   3.546   1.403   6.356  0.5519  2.4668 -0.1869
 9497SOL    HW240125   3.444   1.383   6.256  0.3158 -1.1544 -1.1166
 9498SOL     OW40126   4.390   3.847   6.512 -0.5284  0.1814 -0.6140
 9498SOL    HW140127   4.410   3.891   6.429 -0.4147  0.6218 -0.3532
 9498SOL    HW240128   4.346   3.772   6.472  1.4188 -2.0203  1.3571
 9499SOL     OW40129   0.867   3.586   1.049  0.7728  0.8435  0.1426
 9499SOL    HW140130   0.803   3.599   0.979 -1.8093  1.8850  2.6913
 9499SOL    HW240131   0.924   3.661   1.034  0.0956  1.3016 -0.1316
 9500SOL     OW40132   0.259   3.798   7.462 -0.3547  0.4233 -0.0021
 9500SOL    HW140133   0.352   3.809   7.443 -0.3784  1.6407  0.5401
 9500SOL    HW240134   0.262   3.764   7.552 -1.7080  1.1310  0.3187
 9501SOL     OW40135   2.802   0.028   4.578  0.3677  0.1163  0.6688
 9501SOL    HW140136   2.837   0.053   4.492 -0.8453  0.5249  0.2944
 9501SOL    HW240137   2.865   0.082   4.626  1.2628  1.1327 -1.6293
 9502SOL     OW40138   3.684   3.260   3.236  0.6191 -0.4406 -0.2534
 9502SOL    HW140139   3.688   3.284   3.329  2.5189  0.2811 -0.5374
 9502SOL    HW240140   3.621   3.188   3.234  0.3759 -0.1794 -1.8474
 9503SOL     OW40141   2.071   4.694  15.628 -0.3180  0.0659 -0.4186
 9503SOL    HW140142   1.976   4.687  15.624 -0.4226  1.2152  0.0232
 9503SOL    HW240143   2.081   0.039  15.663  1.4452 -0.3284  0.0743
 9504SOL     OW40144   1.546   3.608   9.793 -0.2156  0.1448  0.4680
 9504SOL    HW140145   1.546   3.650   9.708 -1.9874 -0.2393  0.2902
 9504SOL    HW240146   1.453   3.598   9.813 -0.2328  0.6585  0.6572
 9505SOL     OW40147   0.079   3.476   4.689  0.2898 -0.2674  0.2562
 9505SOL    HW140148   0.104   3.565   4.713 -2.6163  0.8473 -0.8528
 9505SOL    HW240149   0.028   3.498   4.611  1.2200  2.3923  0.4027
 9506SOL     OW40150   4.665   0.275  11.699 -0.0247  0.2119 -0.3460
 9506SOL    HW140151   0.012   0.302  11.711  0.3467 -0.8686 -0.6680
 9506SOL    HW240152   4.664   0.185  11.732  0.1627 -0.0006 -0.9312
 9507SOL     OW40153   3.922   0.082   0.706  0.2340 -0.2432 -0.0593
 9507SOL    HW140154   3.999   0.066   0.760  0.5001  2.5379  0.3931
 9507SOL    HW240155   3.847   0.086   0.766  0.2419 -1.1037  0.0123
 9508SOL     OW40156   2.566   3.962  10.018  0.1604 -0.0298  0.8491
 9508SOL    HW140157   2.537   4.051  10.038 -0.0043  0.8467 -3.3816
 9508SOL    HW240158   2.651   3.989   9.981 -0.7184  1.1192 -0.3259
 9509SOL     OW40159   4.451   1.784  14.111 -0.1485  0.3977 -0.0484
 9509SOL    HW140160   4.503   1.826  14.180  2.0823  0.2811 -1.6830
 9509SOL    HW240161   4.465   1.695  14.144  1.0977  0.0410 -1.5839
 9510SOL     OW40162   2.408   2.237   6.156  0.1078 -0.2276  0.1950
 9510SOL    HW140163   2.461   2.161   6.133 -1.0819 -0.6668 -1.0761
 9510SOL    HW240164   2.455   2.319   6.138 -0.2384 -0.1237 -0.2425
 9511SOL     OW40165   2.777   4.324  14.663  0.2347  0.2087 -0.6144
 9511SOL    HW140166   2.713   4.346  14.595 -0.5627  0.1582  0.1127
 9511SOL    HW240167   2.813   4.410  14.686 -2.6881  1.4281 -0.4906
 9512SOL     OW40168   4.155   0.650   9.139  0.6311 -0.4046 -0.0618
 9512SOL    HW140169   4.175   0.720   9.201 -1.7310  0.5697 -0.3826
 9512SOL    HW240170   4.131   0.696   9.059  0.9412  0.1442  0.1629
 9513SOL     OW40171   0.859   1.610   7.198 -0.2262  0.3433  0.2546
 9513SOL    HW140172   0.933   1.627   7.256 -0.8149 -0.3893  1.2494
 9513SOL    HW240173   0.793   1.675   7.225 -0.2519  0.9642 -1.3511
 9514SOL     OW40174   4.356   4.526   9.154  0.1777  0.0743  0.0817
 9514SOL    HW140175   4.391   4.575   9.229 -0.5591 -0.4222  0.7391
 9514SOL    HW240176   4.333   4.440   9.187  2.3157 -0.0351  1.3107
 9515SOL     OW40177   1.224   1.676   7.088 -0.4371 -0.4365 -0.2318
 9515SOL    HW140178   1.269   1.741   7.142 -2.0667  0.8217 -0.4076
 9515SOL    HW240179   1.178   1.627   7.156  0.9057 -0.8856  0.3654
 9516SOL     OW40180   1.304   3.924   9.137 -0.3546  0.0721  0.3644
 9516SOL    HW140181   1.224   3.912   9.189 -1.2979 -0.2069 -1.1297
 9516SOL    HW240182   1.279   3.904   9.047 -1.9787 -0.6088  0.9629
 9517SOL     OW40183   3.614   1.521   4.993  0.3884 -0.1125  0.1151
 9517SOL    HW140184   3.655   1.557   5.072  0.4632  0.4900 -0.2022
 9517SOL    HW240185   3.656   1.436   5.007  2.8468  1.0054 -0.4374
 9518SOL     OW40186   2.261   0.682  10.320  0.3180 -0.1831  0.2330
 9518SOL    HW140187   2.220   0.697  10.405  2.6049 -0.2772  1.3249
 9518SOL    HW240188   2.192   0.635  10.271  1.7400  1.2192 -3.1405
 9519SOL     OW40189   2.596   0.006   8.681 -0.3434  0.2482 -0.0320
 9519SOL    HW140190   2.517   4.702   8.705 -0.2411  0.0687 -0.0519
 9519SOL    HW240191   2.626   0.032   8.768 -1.3032 -0.1569  0.4177
 9520SOL     OW40192   4.067   2.094  14.318  0.3881  0.4541 -0.4580
 9520SOL    HW140193   4.073   2.144  14.237  2.1052 -0.1397 -0.6898
 9520SOL    HW240194   4.154   2.107  14.355 -0.6489  0.0734  2.1471
 9521SOL     OW40195   3.052   2.557   6.128 -0.2300  0.2268  0.4046
 9521SOL    HW140196   3.030   2.648   6.107  0.7195  0.2492 -0.4496
 9521SOL    HW240197   3.105   2.566   6.207 -0.1087 -1.4677  0.5155
 9522SOL     OW40198   4.526   0.357   5.695 -0.7384 -0.0407 -0.5660
 9522SOL    HW140199   4.620   0.369   5.685 -0.8590 -0.7326 -2.5380
 9522SOL    HW240200   4.502   0.336   5.604 -2.9144 -1.2098  0.2718
 9523SOL     OW40201   1.716   0.886  16.060  0.2716 -0.8091 -0.1625
 9523SOL    HW140202   1.641   0.861  16.113  0.1526  1.0876  0.5619
 9523SOL    HW240203   1.699   0.976  16.031  0.2635 -0.9487 -0.5992
 9524SOL     OW40204   0.658   4.301   6.647  0.0159 -0.4324  0.4437
 9524SOL    HW140205   0.733   4.335   6.599  0.5412 -2.7792 -0.4301
 9524SOL    HW240206   0.675   4.340   6.732 -2.1121  0.7875  0.3165
 9525SOL     OW40207   3.076   4.128   7.648 -0.6362  0.2545 -0.5016
 9525SOL    HW140208   3.029   4.191   7.702  2.2766  0.3786  1.8674
 9525SOL    HW240209   3.008   4.080   7.601 -1.0976 -0.3735  0.8179
 9526SOL     OW40210   1.499   1.989   6.424  0.2388 -1.0603 -0.6380
 9526SOL    HW140211   1.496   1.921   6.357 -0.3822 -1.7442  0.0957
 9526SOL    HW240212   1.441   1.946   6.487 -3.3982  1.5209 -2.2684
 9527SOL     OW40213   1.605   3.735   9.548  0.2977 -0.4062  0.2920
 9527SOL    HW140214   1.610   3.828   9.568 -1.1763 -0.3859  0.5900
 9527SOL    HW240215   1.559   3.740   9.464  0.2631  4.4474  0.6505
 9528SOL     OW40216   2.500   0.342  10.284 -0.1658 -0.8606  0.4402
 9528SOL    HW140217   2.477   0.400  10.356  1.5984  0.2980  0.0594
 9528SOL    HW240218   2.441   0.268  10.299  3.1498 -3.3856  1.2063
 9529SOL     OW40219   4.621   1.992  17.351  0.2169 -0.2129  0.0293
 9529SOL    HW140220   4.691   1.937  17.315  0.0230  0.2998 -1.1193
 9529SOL    HW240221   4.560   1.985  17.278 -2.4595 -0.9217  2.3315
 9530SOL     OW40222   4.257   1.198   8.314 -0.0102  0.1614  0.4900
 9530SOL    HW140223   4.171   1.240   8.311 -1.2281 -2.3556  0.7536
 9530SOL    HW240224   4.267   1.176   8.406  1.0974 -1.0662  0.0691
 9531SOL     OW40225   3.137   0.654   5.782 -0.0100 -0.5884  0.4981
 9531SOL    HW140226   3.149   0.597   5.706  2.5446  0.1567  0.3671
 9531SOL    HW240227   3.048   0.685   5.766  0.4012 -0.7605 -2.1273
 9532SOL     OW40228   2.180   3.309   7.468  0.4191  0.1928  0.3052
 9532SOL    HW140229   2.165   3.403   7.461  0.4075  0.1395 -0.3484
 9532SOL    HW240230   2.093   3.267   7.466  0.7062 -0.2986 -1.6414
 9533SOL     OW40231   2.054   0.455  16.250 -0.1305  0.4835  0.2180
 9533SOL    HW140232   2.117   0.523  16.227  0.3914  0.6317  2.0189
 9533SOL    HW240233   2.120   0.402  16.297 -0.2308 -0.8960 -1.2125
 9534SOL     OW40234   3.130   0.232  11.738  0.5364  0.3861  0.6244
 9534SOL    HW140235   3.195   0.302  11.737  0.9502 -0.0279 -1.6336
 9534SOL    HW240236   3.131   0.205  11.646 -1.3290  0.8614  0.4479
 9535SOL     OW40237   4.647   0.658  10.911  0.2504  0.6627  0.1582
 9535SOL    HW140238   4.717   0.594  10.925 -0.3322 -0.0548 -0.1693
 9535SOL    HW240239   4.676   0.684  10.824 -0.3236  1.7866  0.3002
 9536SOL     OW40240   4.557   1.090   6.122  0.5110 -0.0315 -0.3413
 9536SOL    HW140241   4.568   1.048   6.037  0.5427 -0.2183 -0.2441
 9536SOL    HW240242   4.553   1.180   6.091 -1.8754 -0.0478 -0.0650
 9537SOL     OW40243   0.776   0.203   1.838 -0.1585  0.3597  0.0827
 9537SOL    HW140244   0.783   0.298   1.847 -2.3565  0.7799 -2.5763
 9537SOL    HW240245   0.695   0.173   1.879 -0.0310 -2.2469 -1.5541
 9538SOL     OW40246   3.528   1.889   7.091 -0.0692  0.1494  0.1101
 9538SOL    HW140247   3.504   1.825   7.157  0.6309  0.7010  0.8999
 9538SOL    HW240248   3.536   1.976   7.131  0.5101  0.8765 -1.5697
 9539SOL     OW40249   1.791   4.681  15.578 -0.1012 -0.3686  0.0505
 9539SOL    HW140250   1.790   4.719  15.490  0.1821 -2.6997 -0.9540
 9539SOL    HW240251   1.706   4.712  15.611  0.3478  0.9821 -0.0505
 9540SOL     OW40252   0.891   2.057  13.411  0.1987 -0.3112 -0.3677
 9540SOL    HW140253   0.967   2.060  13.469  0.8392  0.0896 -1.2245
 9540SOL    HW240254   0.936   2.043  13.327  1.9726 -0.8061  0.6601
 9541SOL     OW40255   4.672   1.983   5.425 -0.3944 -0.4734 -0.3167
 9541SOL    HW140256   4.585   1.957   5.455 -0.6212 -1.0734 -1.4725
 9541SOL    HW240257   4.732   1.910   5.432 -0.9975 -0.7822  1.5893
 9542SOL     OW40258   4.285   3.601   1.984 -0.2301 -0.2876  0.3133
 9542SOL    HW140259   4.283   3.693   2.010 -0.7806 -0.9507  2.5962
 9542SOL    HW240260   4.247   3.604   1.896  1.0226  0.6528 -0.1947
 9543SOL     OW40261   0.945   4.448   3.331  0.3003 -0.0417 -0.2727
 9543SOL    HW140262   1.040   4.448   3.318  0.5530 -3.8152  1.5601
 9543SOL    HW240263   0.931   4.412   3.243  1.5933  0.5739 -0.7304
 9544SOL     OW40264   0.758   0.609   0.667  0.0227 -0.1247  0.0544
 9544SOL    HW140265   0.847   0.575   0.657 -0.2747 -0.7235 -0.5925
 9544SOL    HW240266   0.739   0.584   0.757  0.1323  2.7593  0.8861
 9545SOL     OW40267   1.179   1.966   8.187 -0.3162 -0.3057  0.4509
 9545SOL    HW140268   1.140   1.948   8.102 -0.0133 -0.5008  0.3549
 9545SOL    HW240269   1.222   2.051   8.177 -0.3082 -0.5096 -1.1253
 9546SOL     OW40270   0.275   1.533   2.312 -0.4865  0.1411 -0.1148
 9546SOL    HW140271   0.246   1.592   2.243  0.0291 -0.9433 -1.2569
 9546SOL    HW240272   0.326   1.471   2.260 -1.5493  0.2833 -1.3132
 9547SOL     OW40273   1.574   2.522   7.354 -0.0304  0.2785 -0.8878
 9547SOL    HW140274   1.518   2.458   7.309  1.7390 -0.1382 -2.4786
 9547SOL    HW240275   1.641   2.462   7.386 -1.1935  0.0741  1.2035
 9548SOL     OW40276   3.862   1.131   8.932 -0.2207 -0.2316 -0.3344
 9548SOL    HW140277   3.870   1.226   8.926  2.7019 -0.4166  0.6512
 9548SOL    HW240278   3.772   1.120   8.902 -0.5073  0.1749  0.4020
 9549SOL     OW40279   0.336   3.994   3.711  0.0356 -0.2228  0.3108
 9549SOL    HW140280   0.391   3.958   3.780 -1.3421  0.9785  2.0344
 9549SOL    HW240281   0.312   3.916   3.660 -0.3712  1.9501 -2.7978
 9550SOL     OW40282   4.547   2.710  11.687 -0.4283 -0.2335 -0.4700
 9550SOL    HW140283   4.628   2.671  11.653  0.8438  1.0758  1.0438
 9550SOL    HW240284   4.524   2.651  11.759 -1.6221  2.5683  1.4256
 9551SOL     OW40285   2.445   0.789   0.913  0.2764  0.5106 -0.2834
 9551SOL    HW140286   2.456   0.714   0.855  4.0852  0.6617  0.2849
 9551SOL    HW240287   2.366   0.770   0.964  0.7456 -0.4933  0.0585
 9552SOL     OW40288   1.292   2.923   4.408  0.6561 -0.1112  0.5341
 9552SOL    HW140289   1.303   2.899   4.316 -1.6916 -0.6430  0.3786
 9552SOL    HW240290   1.199   2.946   4.412  0.1047 -2.3317  0.6606
 9553SOL     OW40291   3.904   0.984   9.795 -0.4550 -0.5680 -0.0956
 9553SOL    HW140292   3.971   1.007   9.860 -0.9802 -1.7592  0.8726
 9553SOL    HW240293   3.942   1.016   9.713 -0.4859 -1.3759 -0.4241
 9554SOL     OW40294   3.343   1.081   9.874 -0.1909  0.0786  0.0017
 9554SOL    HW140295   3.425   1.036   9.854  0.2611 -0.3403  2.6825
 9554SOL    HW240296   3.304   1.098   9.789 -0.3904 -1.1446 -0.1633
 9555SOL     OW40297   1.724   2.245   8.174 -0.5163  0.4609 -0.2232
 9555SOL    HW140298   1.789   2.252   8.243  0.4391 -0.4085 -1.0389
 9555SOL    HW240299   1.770   2.290   8.104 -0.6266  0.5675 -0.2289
 9556SOL     OW40300   2.905   1.138   8.205 -0.1311 -0.5032 -1.0444
 9556SOL    HW140301   2.997   1.144   8.180 -0.0314  1.2455 -0.2348
 9556SOL    HW240302   2.866   1.205   8.149  0.7094 -0.0431 -1.0743
 9557SOL     OW40303   0.143   0.987   1.771 -0.0564 -0.4541  0.9935
 9557SOL    HW140304   0.186   1.044   1.708 -0.4372  0.6480  1.7437
 9557SOL    HW240305   0.120   1.056   1.833 -0.3290  0.2528  0.1067
 9558SOL     OW40306   0.663   2.928   1.269 -0.2585 -0.3427 -0.1528
 9558SOL    HW140307   0.660   2.865   1.198 -0.5644 -1.1956  0.6123
 9558SOL    HW240308   0.585   2.982   1.257 -0.7446 -0.7563  1.0971
 9559SOL     OW40309   1.778   1.848   6.381 -0.0824 -0.5333 -0.0705
 9559SOL    HW140310   1.755   1.756   6.392 -0.3752 -0.5793 -1.0989
 9559SOL    HW240311   1.758   1.884   6.468  0.5678 -2.8098  1.0123
 9560SOL     OW40312   2.051   1.732   3.418 -0.0755 -0.3596 -0.3057
 9560SOL    HW140313   2.043   1.821   3.452 -0.8709 -1.0323  1.2859
 9560SOL    HW240314   2.144   1.713   3.434  0.0057 -0.1253 -0.5132
 9561SOL     OW40315   3.724   2.100   7.277 -0.6269  0.1354  0.4618
 9561SOL    HW140316   3.754   2.092   7.367  1.5258 -1.6270 -0.4319
 9561SOL    HW240317   3.790   2.047   7.233 -3.2852 -1.0940 -2.0930
 9562SOL     OW40318   2.272   4.298   3.016 -0.7970 -0.0690  0.3867
 9562SOL    HW140319   2.302   4.207   3.011 -0.3464  0.1364 -0.7844
 9562SOL    HW240320   2.355   4.341   3.038  0.0752  0.7000 -4.2855
 9563SOL     OW40321   1.379   2.751  12.803 -0.1519 -0.0727 -0.3231
 9563SOL    HW140322   1.330   2.749  12.886 -1.4248 -0.3038 -1.0685
 9563SOL    HW240323   1.462   2.711  12.829  0.3009  0.5161 -0.8826
 9564SOL     OW40324   1.196   2.054  11.765 -0.2039 -0.0063 -0.0900
 9564SOL    HW140325   1.239   2.122  11.712 -0.5574 -0.4931 -1.0069
 9564SOL    HW240326   1.108   2.091  11.754  0.4648  1.4795 -0.5334
 9565SOL     OW40327   1.708   1.668   8.206  0.2236 -0.4231 -0.0317
 9565SOL    HW140328   1.645   1.726   8.249 -0.2778 -0.5208 -0.6458
 9565SOL    HW240329   1.650   1.602   8.170  0.4786 -0.8418  0.3294
 9566SOL     OW40330   4.188   0.212   5.452 -0.4245 -0.4686  0.6421
 9566SOL    HW140331   4.282   0.209   5.439 -0.7021 -0.4266 -1.5262
 9566SOL    HW240332   4.146   0.146   5.396 -0.0845 -0.3067  0.1992
 9567SOL     OW40333   1.117   4.474   4.591  0.5572 -0.3285 -0.1556
 9567SOL    HW140334   1.122   4.392   4.542 -0.4832 -0.2323 -0.4358
 9567SOL    HW240335   1.153   4.437   4.671  0.6109 -1.5815 -0.7614
 9568SOL     OW40336   3.850   4.012   8.800  0.0816 -0.7870 -0.0776
 9568SOL    HW140337   3.793   3.951   8.847  0.2780  0.4830  1.7869
 9568SOL    HW240338   3.807   4.006   8.715  1.2886  0.5974 -0.7975
 9569SOL     OW40339   2.489   2.126   8.522 -0.0871  0.1450  0.1932
 9569SOL    HW140340   2.414   2.072   8.497 -0.4651  1.0165 -0.5681
 9569SOL    HW240341   2.537   2.056   8.566 -1.0364 -1.0847 -0.7261
 9570SOL     OW40342   4.068   2.294   6.723 -0.3537  0.5829 -0.1168
 9570SOL    HW140343   4.084   2.303   6.629  3.0725 -1.2258  0.2988
 9570SOL    HW240344   3.974   2.282   6.730 -0.2345 -0.3349 -0.1669
 9571SOL     OW40345   2.632   2.404   4.394  0.0427  0.1975 -0.1723
 9571SOL    HW140346   2.635   2.319   4.439 -0.8039  0.5591  0.5655
 9571SOL    HW240347   2.706   2.451   4.431  0.4722 -2.1031  1.9021
   4.74379   4.74379  17.77177
