Membrane in water
40347
    1TMC1    C1    1   2.229   2.984  11.579 -0.2005  0.3046  0.2154
    1TMC1    C2    2   2.164   3.090  11.631 -0.3260 -0.0672  0.5814
    1TMC1    C3    3   2.160   3.200  11.558 -0.2120  0.4809  0.3600
    1TMC1    C4    4   2.252   2.977  11.441 -0.8071 -0.0819  0.2406
    1TMC1    C5    5   2.250   3.095  11.372 -0.5090  0.5068 -0.1884
    1TMC1    C6    6   2.210   3.215  11.432  0.9422 -0.3327  0.7983
    1TMC1     C    7   2.189   2.866  11.650 -0.5908 -0.0634 -0.0800
    1TMC1     O    8   2.073   2.869  11.693 -0.2439  0.2297  0.3862
    1TMC1     H    9   2.133   3.076  11.734  0.0150 -3.3802  0.2291
    1TMC1    H1   10   2.279   2.882  11.396 -2.4322 -1.0996  1.3980
    1TMC1    H2   11   2.195   3.302  11.370 -1.7317  0.5195  2.6452
    1TMC1    C7   12   2.230   3.083  11.230  0.1102 -0.2421 -0.1696
    1TMC1    C8   13   2.077   3.307  11.603 -0.0071  0.2249 -0.1808
    1TMC1    O1   14   2.169   2.988  11.181 -0.4919  0.2131 -0.0054
    1TMC1    O2   15   2.110   3.424  11.601  0.6699 -0.2449 -0.0352
    1TMC1    O3   16   2.268   3.194  11.163  0.2003 -0.4572  0.0353
    1TMC1    H3   17   2.316   3.256  11.221  1.4728  0.5298 -2.0962
    1TMC1    O5   18   1.965   3.257  11.551  0.7082 -0.3667  0.6670
    1TMC1    H5   19   1.959   3.159  11.546  1.1085 -0.3371 -0.3097
    2MPD2     C   20   2.283   2.427  11.885  0.3129 -0.4599 -0.1311
    2MPD2    C1   21   2.163   2.498  11.872  0.0206 -0.0816  0.5929
    2MPD2    C2   22   2.162   2.607  11.790  0.1684 -0.6040  0.5859
    2MPD2    C3   23   2.275   2.649  11.725 -0.3401  0.0586  0.1412
    2MPD2    C4   24   2.388   2.572  11.726 -0.1154 -0.3691  0.5221
    2MPD2    C5   25   2.395   2.470  11.825  0.0186 -0.1738 -0.3733
    2MPD2     H   26   2.071   2.667  11.794 -0.6413 -1.9419  2.0983
    2MPD2    H1   27   2.483   2.609  11.691 -0.4900 -0.2612 -0.3618
    2MPD2    H2   28   2.272   2.344  11.953 -0.4653  0.6807  1.1357
    2MPD2    H3   29   2.492   2.423  11.830  0.0160 -0.1305  0.0605
    2MPD2     N   30   2.285   2.777  11.668  0.4767  0.3858  0.2004
    2MPD2    H5   31   2.379   2.792  11.632  1.7182 -3.5788  1.7094
    2MPD2    N1   32   2.039   2.463  11.925  0.0919 -0.2218  0.0696
    2MPD2    H7   33   1.967   2.535  11.918 -2.0227 -2.3670 -0.2848
    3TMC1    C1   34   1.366   3.121  11.007  0.5437 -0.1883  0.4960
    3TMC1    C2   35   1.363   3.187  10.883  0.1261 -0.0142 -0.5899
    3TMC1    C3   36   1.483   3.210  10.815  0.1401 -0.5074  0.2748
    3TMC1    C4   37   1.483   3.063  11.046 -0.3517 -0.2237 -0.4500
    3TMC1    C5   38   1.597   3.084  10.970  0.7560 -0.1709 -0.2412
    3TMC1    C6   39   1.600   3.164  10.858 -0.3806  1.1997 -0.1490
    3TMC1     C   40   1.268   3.154  11.108  0.0607  0.4281  0.0305
    3TMC1     O   41   1.255   3.085  11.207  0.6987 -0.1422  1.0295
    3TMC1     H   42   1.273   3.239  10.854  0.4575  0.4915 -0.7179
    3TMC1    H1   43   1.492   3.002  11.136  0.7436 -2.4276 -2.0448
    3TMC1    H2   44   1.698   3.195  10.822  0.5008 -1.9659 -0.4822
    3TMC1    C7   45   1.718   3.014  11.018  0.0231  0.4136 -0.0041
    3TMC1    C8   46   1.478   3.275  10.691  0.0548  0.0361  0.0461
    3TMC1    O1   47   1.741   2.971  11.133 -0.3800  1.1042 -0.0146
    3TMC1    O2   48   1.578   3.330  10.650 -0.6399  0.2326  0.0940
    3TMC1    O3   49   1.773   2.968  10.906 -0.3550 -0.4327 -0.1763
    3TMC1    H3   50   1.715   2.992  10.831  1.2652 -0.0714 -1.3277
    3TMC1    O5   51   1.398   3.192  10.613 -0.2467  0.3388 -0.5758
    3TMC1    H5   52   1.336   3.145  10.674  0.8613  0.4720  0.6614
    4MPD2     C   53   0.955   3.506  11.321  0.1593  0.1079  0.5050
    4MPD2    C1   54   1.039   3.570  11.232 -0.6498 -0.8706 -1.3974
    4MPD2    C2   55   1.131   3.497  11.162  0.3984  0.8388 -0.0499
    4MPD2    C3   56   1.143   3.361  11.186  0.1519 -0.5730  0.2641
    4MPD2    C4   57   1.066   3.301  11.281  0.1224 -0.2433 -0.2282
    4MPD2    C5   58   0.970   3.374  11.349  0.7798 -0.5089 -0.8232
    4MPD2     H   59   1.194   3.549  11.090  0.1890 -0.2574 -1.0300
    4MPD2    H1   60   1.074   3.196  11.304  4.8018  0.4315  1.3875
    4MPD2    H2   61   0.874   3.549  11.380  0.2628 -0.4519  1.0446
    4MPD2    H3   62   0.900   3.338  11.423 -0.6939 -1.0034 -2.4517
    4MPD2     N   63   1.227   3.284  11.099 -0.5645 -0.6760  0.7932
    4MPD2    H5   64   1.289   3.339  11.041  0.5388 -0.8668  1.7913
    4MPD2    N1   65   1.039   3.707  11.198 -0.5032  0.1466  0.3846
    4MPD2    H7   66   1.102   3.742  11.126 -1.3772  0.9292 -0.0071
    5TCq1    O1   67   2.256   0.372  12.454 -0.2162 -0.3438  0.4140
    5TCq1    C1   68   2.299   0.487  12.404 -0.1162 -0.8048  0.0728
    5TCq1    O2   69   2.391   0.508  12.325 -0.2854 -0.4082  0.1421
    5TCq1    C2   70   2.177   0.562  12.389  0.0824  0.1553  0.4400
    5TCq1    C3   71   2.089   0.573  12.500 -0.4281  0.5922  0.0762
    5TCq1    C4   72   1.969   0.638  12.479 -0.4401 -0.2274 -0.3483
    5TCq1    C5   73   1.932   0.675  12.350  0.4916 -0.2456 -0.4193
    5TCq1    C6   74   2.019   0.663  12.252  0.4804  0.7669 -0.1507
    5TCq1    C7   75   2.143   0.617  12.272 -0.4166  0.5943  0.0883
    5TCq1    C8   76   1.990   0.713  12.116  0.2840 -0.1990 -0.5469
    5TCq1    O4   77   2.071   0.694  12.029  0.2103  0.4673  0.0719
    5TCq1    C9   78   1.875   0.644  12.588  0.5783 -0.1486 -0.4169
    5TCq1    O5   79   1.910   0.582  12.693 -0.6735  0.2201 -0.2204
    5TCq1    O6   80   1.757   0.683  12.561 -0.0783 -0.4808 -0.3265
    5TCq1    H1   81   2.177   0.381  12.512 -0.5178 -2.7374  0.3858
    5TCq1    H2   82   2.117   0.560  12.604 -0.2674  0.8879  0.0697
    5TCq1    H3   83   1.829   0.706  12.343  0.4306 -0.7032 -1.5215
    5TCq1    H4   84   2.211   0.614  12.187  0.3488 -0.1840  0.7333
    6MPD2     C   85   1.735   0.959  12.012  0.0204  0.3263  0.0682
    6MPD2    C1   86   1.833   0.865  11.998  0.0988  0.2584  0.2003
    6MPD2    C2   87   1.876   0.843  11.871  0.5043  0.7457  0.9399
    6MPD2    C3   88   1.832   0.913  11.759  0.1814 -0.3436  0.1938
    6MPD2    C4   89   1.736   1.012  11.777  0.5198 -0.3121 -0.1007
    6MPD2    C5   90   1.689   1.032  11.903  0.1473 -0.0544  0.8074
    6MPD2     H   91   1.943   0.759  11.855  0.9333  0.9876  1.4430
    6MPD2    H1   92   1.689   1.065  11.695 -2.0509 -0.2038  1.4375
    6MPD2    H2   93   1.691   0.962  12.111 -2.0896 -0.1158 -0.8581
    6MPD2    H3   94   1.602   1.095  11.919  2.2189  2.3964  2.5042
    6MPD2     N   95   1.889   0.874  11.638 -0.6560 -0.1858 -0.3082
    6MPD2    H5   96   1.947   0.791  11.644 -0.1141  0.0878 -1.7711
    6MPD2    N1   97   1.881   0.794  12.112  0.1083 -0.0663  0.3472
    6MPD2    H7   98   1.840   0.828  12.199 -1.7639 -0.4439 -0.3737
    7TCq1    O1   99   3.270   0.016  13.002 -0.0114  0.2140  0.0743
    7TCq1    C1  100   3.394   4.703  13.018  0.2901  0.0395 -0.2237
    7TCq1    O2  101   3.493   0.029  13.057  0.2712 -0.1087  0.4844
    7TCq1    C2  102   3.382   4.559  13.022  0.2043 -0.3002 -0.2744
    7TCq1    C3  103   3.284   4.497  12.955  0.7924 -0.7586 -0.0968
    7TCq1    C4  104   3.282   4.366  12.971 -0.8808  0.2760 -0.0665
    7TCq1    C5  105   3.372   4.303  13.056 -0.2145 -0.0498 -0.3404
    7TCq1    C6  106   3.474   4.367  13.113 -0.1529  0.0501 -0.5224
    7TCq1    C7  107   3.485   4.499  13.095 -0.0757 -0.1045 -0.0516
    7TCq1    C8  108   3.579   4.293  13.185 -0.4827  0.5857  0.0074
    7TCq1    O4  109   3.568   4.173  13.214  0.4990 -0.5791  0.1553
    7TCq1    C9  110   3.186   4.292  12.889  0.1647  0.1727 -0.1150
    7TCq1    O5  111   3.101   4.360  12.823  0.1370 -0.3696  0.2348
    7TCq1    O6  112   3.207   4.167  12.878  0.0847  0.7831  0.2267
    7TCq1    H1  113   3.263   0.114  13.006 -2.4240 -0.0691  3.6720
    7TCq1    H2  114   3.216   4.552  12.890 -0.9262 -2.3060  0.3755
    7TCq1    H3  115   3.367   4.198  13.083  0.6052 -0.2902 -1.1227
    7TCq1    H4  116   3.560   4.567  13.134  1.4792 -1.4777 -0.6583
    8MPD2     C  117   4.073   4.262  13.293 -0.6790  0.5401  0.6020
    8MPD2    C1  118   3.971   4.180  13.332  0.8196  0.3490  0.0741
    8MPD2    C2  119   3.839   4.208  13.304 -0.3032  0.3242  0.1231
    8MPD2    C3  120   3.819   4.325  13.225 -0.4956  0.9314 -0.3576
    8MPD2    C4  121   3.919   4.408  13.182 -0.3623  0.8374 -0.3940
    8MPD2    C5  122   4.048   4.377  13.221  0.7002  0.5372  0.3868
    8MPD2     H  123   3.759   4.148  13.345  0.2927 -0.2415  0.4469
    8MPD2    H1  124   3.899   4.490  13.113  0.5573  1.0246 -0.4393
    8MPD2    H2  125   4.176   4.231  13.302 -1.6055 -2.3747  1.2438
    8MPD2    H3  126   4.139   4.424  13.185  0.5046  1.2119  0.7782
    8MPD2     N  127   3.694   4.366  13.180  0.4512  0.2733  0.4131
    8MPD2    H5  128   3.688   4.458  13.137 -1.4541 -1.3311 -2.7418
    8MPD2    N1  129   4.007   4.066  13.396 -0.0272  0.5660  0.5969
    8MPD2    H7  130   4.105   4.067  13.423  0.8355  0.4280 -2.4943
    9TMC1    C1  131   1.525   4.192  11.788 -0.0135  0.6847 -1.1612
    9TMC1    C2  132   1.388   4.185  11.775  0.4190 -0.3640 -0.5991
    9TMC1    C3  133   1.330   4.243  11.663 -0.2435  0.4839 -0.0712
    9TMC1    C4  134   1.601   4.258  11.695 -0.0023 -0.3188  0.4525
    9TMC1    C5  135   1.536   4.320  11.594  0.1750 -0.5609 -0.0668
    9TMC1    C6  136   1.404   4.317  11.576 -0.2848 -0.3173  0.0378
    9TMC1     C  137   1.598   4.118  11.884  0.4760  0.2685 -0.1144
    9TMC1     O  138   1.708   4.163  11.904 -0.3438  0.3408  0.1577
    9TMC1     H  139   1.327   4.134  11.849 -1.3017  1.2882 -0.8588
    9TMC1    H1  140   1.707   4.268  11.717 -0.2908  2.9100  0.4352
    9TMC1    H2  141   1.366   4.368  11.488  1.9418  0.1137 -0.6863
    9TMC1    C7  142   1.606   4.367  11.480  0.4256 -0.0268 -0.5666
    9TMC1    C8  143   1.190   4.269  11.662 -0.5676 -0.0206  0.3119
    9TMC1    O1  144   1.567   4.436  11.389 -0.0281 -1.0038  0.7117
    9TMC1    O2  145   1.146   4.380  11.631 -0.0490  1.1199  0.4109
    9TMC1    O3  146   1.700   4.276  11.462  0.0208  0.3951 -0.2732
    9TMC1    H3  147   1.695   4.204  11.529  2.5539 -2.4199 -3.1164
    9TMC1    O5  148   1.124   4.175  11.737  0.3072 -0.2954  0.0540
    9TMC1    H5  149   1.175   4.093  11.758  1.9115  1.2595  2.1704
   10MPD2     C  150   1.742   3.909  12.046 -0.1653 -0.2908  0.1003
   10MPD2    C1  151   1.607   3.909  12.018  0.0343  0.1416  0.6769
   10MPD2    C2  152   1.528   3.814  12.087 -0.1127  0.1876  0.6208
   10MPD2    C3  153   1.588   3.727  12.181  0.2119  0.3670  0.6662
   10MPD2    C4  154   1.720   3.740  12.200 -0.2269  0.8500 -0.4113
   10MPD2    C5  155   1.800   3.826  12.132  0.2408  1.3228  0.2173
   10MPD2     H  156   1.422   3.817  12.065  0.4262 -0.6315 -2.0874
   10MPD2    H1  157   1.770   3.675  12.270 -0.5004  1.9938  0.8335
   10MPD2    H2  158   1.810   3.982  12.004  0.1519 -1.6921 -1.8574
   10MPD2    H3  159   1.908   3.819  12.140  0.0490  0.1203  1.8231
   10MPD2     N  160   1.531   3.622  12.254  0.0082 -0.0530  0.7354
   10MPD2    H5  161   1.592   3.568  12.314  1.3190  0.3496 -0.2361
   10MPD2    N1  162   1.547   3.996  11.929 -0.0226  0.3849  0.6409
   10MPD2    H7  163   1.450   3.978  11.906  0.3074 -0.8176  0.1797
   11TCq1    O1  164   2.080   3.155  14.528 -0.5099 -0.0011 -0.0025
   11TCq1    C1  165   2.041   3.228  14.634 -0.2967  0.3496  0.0304
   11TCq1    O2  166   2.116   3.256  14.727 -0.2349 -0.4014  0.8238
   11TCq1    C2  167   1.967   3.339  14.564 -0.6275  0.7237 -1.0126
   11TCq1    C3  168   2.009   3.467  14.585  0.7257 -0.5282 -0.0030
   11TCq1    C4  169   1.941   3.574  14.540  0.1319 -0.0455 -0.3573
   11TCq1    C5  170   1.824   3.543  14.474 -0.2818  0.1729  1.1415
   11TCq1    C6  171   1.776   3.416  14.460  0.2861 -0.2757 -0.1993
   11TCq1    C7  172   1.847   3.312  14.513 -0.2498  0.2684 -0.0462
   11TCq1    C8  173   1.656   3.396  14.371  0.6911 -0.5433 -0.0809
   11TCq1    O4  174   1.600   3.497  14.341 -0.3870  0.3972  0.5913
   11TCq1    C9  175   1.995   3.706  14.546  0.0294 -0.4004 -0.3803
   11TCq1    O5  176   2.101   3.728  14.608  0.4569 -0.0877 -0.1884
   11TCq1    O6  177   1.919   3.794  14.512  0.4931  0.3648 -0.6054
   11TCq1    H1  178   2.038   3.182  14.443 -0.1985 -1.1994 -0.5446
   11TCq1    H2  179   2.106   3.486  14.630  2.1872 -0.0675 -3.3595
   11TCq1    H3  180   1.776   3.619  14.413  0.1542  1.8351  2.8893
   11TCq1    H4  181   1.817   3.208  14.517  1.9489 -0.3604  0.3281
   12MPD2     C  182   1.424   3.279  14.223  0.1024 -0.6433  0.0939
   12MPD2    C1  183   1.528   3.207  14.283  0.2446  0.1388 -0.3456
   12MPD2    C2  184   1.523   3.071  14.272 -0.2994  0.5570 -0.1841
   12MPD2    C3  185   1.419   3.004  14.206 -0.3904  0.3132  0.4128
   12MPD2    C4  186   1.319   3.075  14.152  0.0714 -0.0786  0.3223
   12MPD2    C5  187   1.329   3.215  14.155  0.3416  0.1160 -0.0094
   12MPD2     H  188   1.608   3.012  14.304 -1.9009 -2.0268 -0.6969
   12MPD2    H1  189   1.235   3.027  14.104 -0.2711  0.9615 -0.1169
   12MPD2    H2  190   1.419   3.387  14.236  2.6327 -0.5900  0.7093
   12MPD2    H3  191   1.255   3.271  14.100 -1.2491 -2.3078 -0.3480
   12MPD2     N  192   1.409   2.864  14.199  0.1475 -0.2050 -0.1860
   12MPD2    H5  193   1.331   2.827  14.147 -1.1437  1.4387  0.5751
   12MPD2    N1  194   1.631   3.263  14.358 -0.3348  0.1087 -0.0153
   12MPD2    H7  195   1.693   3.195  14.400  0.5098 -0.5748 -2.3287
   13TCq1    O1  196   2.281   4.206  10.610  0.3474  0.0444 -0.2835
   13TCq1    C1  197   2.211   4.102  10.651 -0.2564 -0.1627  0.2089
   13TCq1    O2  198   2.263   3.995  10.675 -0.1030 -0.3762  0.4260
   13TCq1    C2  199   2.067   4.137  10.679 -0.2244 -0.2267 -0.1870
   13TCq1    C3  200   1.996   4.214  10.590  0.6398 -0.7759  0.3312
   13TCq1    C4  201   1.867   4.239  10.616 -0.0345 -0.1842  2.0459
   13TCq1    C5  202   1.809   4.191  10.729  1.1956 -0.0656  0.2936
   13TCq1    C6  203   1.880   4.103  10.812 -0.2710 -0.5649 -0.1726
   13TCq1    C7  204   2.010   4.072  10.788  0.2890  0.1586  0.2560
   13TCq1    C8  205   1.806   3.998  10.868  0.3931  0.1412  0.7385
   13TCq1    O4  206   1.701   4.029  10.916  0.6310  0.8644  0.1791
   13TCq1    C9  207   1.787   4.310  10.522 -0.1577  0.0532 -0.6692
   13TCq1    O5  208   1.677   4.365  10.556 -0.2267  0.3544  0.1582
   13TCq1    O6  209   1.840   4.325  10.410 -0.0238 -0.1205  0.4108
   13TCq1    H1  210   2.241   4.296  10.610  0.8589  0.2780  0.9207
   13TCq1    H2  211   2.042   4.251  10.499  1.1540 -2.6325 -0.1667
   13TCq1    H3  212   1.701   4.192  10.725  1.2285  0.1899 -0.4549
   13TCq1    H4  213   2.075   4.011  10.849  1.8929  1.4663 -0.1355
   14MPD2     C  214   1.814   3.636  10.786 -0.2929  0.1563 -1.0137
   14MPD2    C1  215   1.796   3.749  10.866  0.2114  0.7123 -0.6230
   14MPD2    C2  216   1.723   3.733  10.975 -0.4525  0.3881  0.7378
   14MPD2    C3  217   1.674   3.608  11.010 -0.4286  0.0166  0.0904
   14MPD2    C4  218   1.688   3.497  10.927 -0.7574  0.1872 -0.5623
   14MPD2    C5  219   1.764   3.514  10.813 -0.0566  0.0024  0.3447
   14MPD2     H  220   1.693   3.822  11.030  1.9767  2.0093 -0.5761
   14MPD2    H1  221   1.656   3.397  10.955  0.9937 -0.2922 -0.2622
   14MPD2    H2  222   1.848   3.658  10.686 -0.1236 -0.2091 -1.0337
   14MPD2    H3  223   1.770   3.425  10.751 -3.4969  0.4019 -0.5630
   14MPD2     N  224   1.603   3.589  11.128  0.3136 -0.1097  0.1580
   14MPD2    H5  225   1.592   3.662  11.197 -2.0992 -0.0565 -0.2553
   14MPD2    N1  226   1.841   3.876  10.824  0.2031 -0.5885 -1.1256
   14MPD2    H7  227   1.903   3.882  10.744  1.4871  1.2648  0.0174
   15TCq1    O1  228   3.979   2.953   1.598  0.2786 -0.2977  0.1915
   15TCq1    C1  229   3.963   2.839   1.525 -0.4805 -0.1137 -0.0376
   15TCq1    O2  230   4.049   2.774   1.462  0.0413  0.4889 -0.1586
   15TCq1    C2  231   3.825   2.789   1.552  0.3952  0.3770  0.5243
   15TCq1    C3  232   3.722   2.876   1.580  0.5925  0.7001 -0.3170
   15TCq1    C4  233   3.606   2.821   1.619  0.6308 -0.1051 -0.0360
   15TCq1    C5  234   3.583   2.685   1.621  0.3785 -0.8345  0.7048
   15TCq1    C6  235   3.690   2.608   1.592 -0.1150  0.1556 -0.0789
   15TCq1    C7  236   3.814   2.656   1.564 -0.5272 -0.4087 -0.7669
   15TCq1    C8  237   3.689   2.469   1.625  0.2208  0.2432 -0.1755
   15TCq1    O4  238   3.796   2.411   1.653 -0.4179 -0.1518 -0.0316
   15TCq1    C9  239   3.494   2.910   1.631 -0.5416 -0.0681  0.5315
   15TCq1    O5  240   3.381   2.870   1.668  0.0268  0.8295  0.2186
   15TCq1    O6  241   3.515   3.036   1.629  0.2533  0.5182 -0.2831
   15TCq1    H1  242   3.907   2.979   1.659 -0.0634  1.5843 -1.0145
   15TCq1    H2  243   3.719   2.982   1.561  0.0388  1.1655  2.3376
   15TCq1    H3  244   3.484   2.648   1.643 -0.9419  2.4420  0.3401
   15TCq1    H4  245   3.900   2.594   1.543  0.4930  0.1827  1.6902
   16MPD2     C  246   3.409   2.234   1.581  0.0207  0.7003 -0.3615
   16MPD2    C1  247   3.537   2.271   1.607 -0.3841  0.1260 -0.0071
   16MPD2    C2  248   3.632   2.171   1.625  0.0555 -0.2431  0.3876
   16MPD2    C3  249   3.597   2.038   1.630 -0.3694  0.8010  0.3230
   16MPD2    C4  250   3.460   2.000   1.628  0.9835 -0.5950  0.3330
   16MPD2    C5  251   3.372   2.098   1.600 -0.3309  0.2485 -0.4883
   16MPD2     H  252   3.734   2.191   1.656  0.3217 -0.1560 -0.5405
   16MPD2    H1  253   3.421   1.899   1.639  0.5352 -0.4374  0.2141
   16MPD2    H2  254   3.327   2.305   1.581 -0.2373  0.4069 -0.6647
   16MPD2    H3  255   3.266   2.073   1.601 -0.4710  0.8528 -0.4335
   16MPD2     N  256   3.694   1.935   1.662 -0.2927  0.7312  0.2290
   16MPD2    H5  257   3.789   1.967   1.676  0.0603 -0.9680  1.7058
   16MPD2    N1  258   3.563   2.411   1.605  0.0020  0.6517 -0.4160
   16MPD2    H7  259   3.485   2.466   1.571 -2.1267 -1.0376  1.6706
   17TMC1    C1  260   1.675   3.575  11.670  0.0474 -0.1964 -0.3423
   17TMC1    C2  261   1.554   3.626  11.714 -0.5751 -0.5824  0.2034
   17TMC1    C3  262   1.497   3.574  11.825 -0.8405  0.2291 -0.1394
   17TMC1    C4  263   1.742   3.486  11.743 -0.0630 -0.5176  0.2095
   17TMC1    C5  264   1.679   3.430  11.853 -0.3600 -0.2471 -0.9541
   17TMC1    C6  265   1.552   3.470  11.896  0.2244  0.4590  0.0264
   17TMC1     C  266   1.732   3.642  11.562  0.2923 -0.4548 -0.3888
   17TMC1     O  267   1.686   3.755  11.540  0.0364  0.1651 -0.5159
   17TMC1     H  268   1.497   3.699  11.658  2.3995  1.0882 -0.6282
   17TMC1    H1  269   1.846   3.459  11.729 -0.8302 -2.8464 -1.0232
   17TMC1    H2  270   1.505   3.436  11.987  1.5853  1.7934  1.2372
   17TMC1    C7  271   1.725   3.309  11.920  0.1106 -0.2270 -0.1032
   17TMC1    C8  272   1.352   3.601  11.846 -0.2173  1.1207 -0.1972
   17TMC1    O1  273   1.763   3.314  12.034 -0.6366  0.0743 -0.3807
   17TMC1    O2  274   1.304   3.709  11.817 -0.0764 -0.7630  0.7277
   17TMC1    O3  275   1.778   3.229  11.820  0.2022 -0.4528  0.8495
   17TMC1    H3  276   1.737   3.244  11.733  0.8578 -0.0312  0.6131
   17TMC1    O5  277   1.295   3.479  11.861 -0.1990  0.4828  0.0755
   17TMC1    H5  278   1.342   3.406  11.907 -1.6724 -0.4151  0.1671
   18MPD2     C  279   1.926   3.751  11.366 -1.0833 -0.3912  0.5740
   18MPD2    C1  280   1.899   3.614  11.380 -0.6317  0.4730  0.2193
   18MPD2    C2  281   1.944   3.523  11.282  1.2211 -0.8186  0.5150
   18MPD2    C3  282   2.004   3.564  11.165 -0.2623  0.0445  0.6365
   18MPD2    C4  283   2.029   3.703  11.158 -0.2327 -0.0064 -0.3402
   18MPD2    C5  284   1.999   3.786  11.261 -0.0619 -0.0071  0.5573
   18MPD2     H  285   1.940   3.419  11.312 -4.2068 -0.5967  0.5971
   18MPD2    H1  286   2.084   3.753  11.079  0.4942  0.5528  0.5163
   18MPD2    H2  287   1.903   3.816  11.450  0.1438  0.6685  0.0871
   18MPD2    H3  288   2.030   3.890  11.248 -0.8542  0.1452 -0.0972
   18MPD2     N  289   2.043   3.484  11.059  0.3110 -0.0846 -0.3716
   18MPD2    H5  290   2.099   3.528  10.987  1.5911 -0.9529  0.0851
   18MPD2    N1  291   1.821   3.564  11.484 -0.2365  0.7749  0.5199
   18MPD2    H7  292   1.817   3.464  11.499 -0.2823  0.5991 -0.6659
   19TMC2    C1  293   3.427   2.795  14.447 -0.5456  0.2765  0.3389
   19TMC2    C2  294   3.465   2.855  14.331  0.2595  0.2523 -0.1960
   19TMC2    C3  295   3.375   2.863  14.233 -1.2693 -0.1827 -0.8420
   19TMC2    C4  296   3.307   2.728  14.461  0.1609 -0.0512  0.0684
   19TMC2    C5  297   3.231   2.729  14.348  0.0578  0.3240  0.5071
   19TMC2    C6  298   3.255   2.803  14.236  0.1845 -0.2416  0.3793
   19TMC2     C  299   3.513   2.834  14.554  0.1243  0.4766  0.8821
   19TMC2     O  300   3.579   2.940  14.539 -0.0641  0.5189 -0.1744
   19TMC2     H  301   3.558   2.910  14.325 -0.7922  1.9692 -0.8191
   19TMC2    H1  302   3.268   2.683  14.552 -0.7649 -0.9266 -0.7651
   19TMC2    H2  303   3.208   2.778  14.142  0.9300 -0.4969  0.0790
   19TMC2    C7  304   3.101   2.669  14.358 -0.5645  0.3822 -0.1056
   19TMC2    C8  305   3.415   2.906  14.092  0.4989 -0.7541 -0.1416
   19TMC2    O1  306   3.091   2.567  14.431 -0.2314 -0.5199 -0.2323
   19TMC2    O2  307   3.358   2.860  13.994 -0.0851 -0.6831  0.3055
   19TMC2    O5  308   3.477   3.028  14.088 -0.0360  0.3594  0.1499
   19TMC2    H5  309   3.486   3.064  14.179  1.7866 -0.6499  0.3748
   20MPD2     C  310   3.652   2.857  14.816 -0.1898 -0.3086 -0.5032
   20MPD2    C1  311   3.576   2.747  14.779  0.6213  0.2374 -0.5511
   20MPD2    C2  312   3.571   2.633  14.858 -0.4588  0.6762 -0.1570
   20MPD2    C3  313   3.630   2.644  14.984 -0.7480  0.8276  0.2993
   20MPD2    C4  314   3.703   2.757  15.020  0.2507  0.5569 -0.4065
   20MPD2    C5  315   3.724   2.857  14.933  1.0205  0.8877 -0.0144
   20MPD2     H  316   3.507   2.547  14.839  3.1880 -2.1005  0.2163
   20MPD2    H1  317   3.760   2.758  15.112  0.2217 -1.3772 -0.3547
   20MPD2    H2  318   3.675   2.943  14.755 -1.8325 -0.8743 -1.9449
   20MPD2    H3  319   3.809   2.920  14.955  0.5715  2.5231 -2.8828
   20MPD2     N  320   3.619   2.539  15.079  0.1259  0.3650  0.1036
   20MPD2    H5  321   3.656   2.551  15.172  0.6139 -0.1527 -0.0258
   20MPD2    N1  322   3.510   2.742  14.656 -0.0674  0.2089 -0.5387
   20MPD2    H7  323   3.474   2.651  14.628 -0.7653  0.0688  0.8080
   21TMC2    C1  324   0.481   3.378  15.054  0.7359 -0.0233 -0.2593
   21TMC2    C2  325   0.455   3.264  15.126  0.4178  0.7473  0.1774
   21TMC2    C3  326   0.330   3.236  15.161  0.7567  0.6991 -0.4573
   21TMC2    C4  327   0.380   3.460  15.011  0.5114 -0.3696 -0.2981
   21TMC2    C5  328   0.255   3.432  15.058 -0.1223  0.5496 -0.0338
   21TMC2    C6  329   0.226   3.318  15.129  0.6553 -0.0173  0.5052
   21TMC2     C  330   0.618   3.421  15.025 -0.7807 -0.1122 -0.7807
   21TMC2     O  331   0.702   3.346  15.075 -0.7429  0.4031  0.6573
   21TMC2     H  332   0.533   3.196  15.157  0.2972  0.4258 -0.2222
   21TMC2    H1  333   0.390   3.547  14.947 -1.5088 -0.8958 -1.3590
   21TMC2    H2  334   0.129   3.295  15.171  0.4469 -1.0591 -0.5806
   21TMC2    C7  335   0.145   3.537  15.066  0.7601  0.2054 -0.7657
   21TMC2    C8  336   0.303   3.099  15.205 -0.1625 -0.7602 -0.5620
   21TMC2    O1  337   0.038   3.499  15.117  0.2102 -0.3035 -0.5110
   21TMC2    O2  338   0.395   3.027  15.240 -0.7263  0.0682 -0.0003
   21TMC2    O5  339   0.182   3.056  15.153 -0.2125  0.6081 -0.2768
   21TMC2    H5  340   0.129   3.128  15.112  1.8174  1.4419 -1.4322
   22MPD2     C  341   0.967   3.645  14.729  0.0973 -0.4463  0.4876
   22MPD2    C1  342   0.978   3.525  14.803  0.9290 -0.4669  0.1176
   22MPD2    C2  343   0.872   3.500  14.893 -0.5377  0.0985  0.3086
   22MPD2    C3  344   0.754   3.580  14.893 -0.3969  0.2209  0.6232
   22MPD2    C4  345   0.749   3.692  14.821 -0.3967  0.3972  0.4817
   22MPD2    C5  346   0.856   3.726  14.739 -0.1753  0.4952  0.0302
   22MPD2     H  347   0.881   3.405  14.944  0.5789 -0.8965 -1.7684
   22MPD2    H1  348   0.659   3.750  14.810  0.5827  1.9399  0.5497
   22MPD2    H2  349   1.042   3.682  14.660 -1.8535 -0.5123 -1.6907
   22MPD2    H3  350   0.857   3.819  14.683  0.8716  1.3346  1.4381
   22MPD2     N  351   0.629   3.540  14.954 -0.3145  0.7972 -0.6922
   22MPD2    H5  352   0.549   3.602  14.948  0.2304  1.4990 -0.7340
   22MPD2    N1  353   1.082   3.432  14.795 -0.3898  0.2911  0.7293
   22MPD2    H7  354   1.070   3.339  14.834  4.2423 -1.1283 -1.2292
   23TMC2    C1  355   2.018   4.470  14.919 -0.5095 -0.1034 -0.3866
   23TMC2    C2  356   2.037   4.582  14.841 -0.3292 -0.0776  0.1128
   23TMC2    C3  357   1.955   4.601  14.732  0.4536  0.1811 -0.0570
   23TMC2    C4  358   1.926   4.378  14.894 -0.5426  0.4395 -0.4876
   23TMC2    C5  359   1.846   4.393  14.779 -0.0762  0.2293  0.5510
   23TMC2    C6  360   1.857   4.510  14.707  0.4082 -0.1955 -0.5139
   23TMC2     C  361   2.090   4.447  15.040  0.4180  0.3771  0.0767
   23TMC2     O  362   2.030   4.394  15.131 -0.1538  0.1714  0.5307
   23TMC2     H  363   2.098   4.666  14.871 -1.4569  0.6997  0.2472
   23TMC2    H1  364   1.914   4.293  14.961 -1.8982  0.0917 -1.1695
   23TMC2    H2  365   1.814   4.513  14.608 -1.5262 -0.2643  0.3129
   23TMC2    C7  366   1.748   4.293  14.747 -0.0348 -0.1946  0.1608
   23TMC2    C8  367   1.994   4.696  14.629 -0.4292  0.9573  1.0844
   23TMC2    O1  368   1.768   4.179  14.793  0.1694 -0.3142  0.8855
   23TMC2    O2  369   2.103   0.008  14.624  0.1402  0.3871  0.1922
   23TMC2    O5  370   1.887   0.021  14.574 -0.4269 -0.1797  0.0996
   23TMC2    H5  371   1.804   4.731  14.618 -0.5405  0.8386  0.5245
   24MPD2     C  372   2.510   4.540  15.308  1.0043 -0.0431 -0.8376
   24MPD2    C1  373   2.403   4.457  15.342  0.1725  0.4161 -0.2837
   24MPD2    C2  374   2.304   4.434  15.254 -0.2346 -0.1583 -0.3140
   24MPD2    C3  375   2.304   4.504  15.131  0.0965 -0.0329 -0.3189
   24MPD2    C4  376   2.415   4.581  15.093  0.2495  0.8213 -0.1217
   24MPD2    C5  377   2.518   4.606  15.186  0.3507 -0.0959 -0.2539
   24MPD2     H  378   2.222   4.372  15.285  0.7902 -2.6108 -2.4886
   24MPD2    H1  379   2.415   4.625  14.994 -0.0989 -0.3770 -0.6497
   24MPD2    H2  380   2.599   4.556  15.367  2.0662 -0.8991 -2.1921
   24MPD2    H3  381   2.608   4.664  15.168  0.6384 -0.7787 -0.9921
   24MPD2     N  382   2.211   4.500  15.033  0.4049 -0.3722 -0.0423
   24MPD2    H5  383   2.234   4.538  14.942  0.0014 -2.0228 -0.8436
   24MPD2    N1  384   2.400   4.373  15.456 -0.5425  0.5022  0.1438
   24MPD2    H7  385   2.326   4.303  15.465  0.3557 -0.3106  1.1752
   25TMC2    C1  386   1.794   2.124  11.419  0.1869 -0.2690 -0.2380
   25TMC2    C2  387   1.913   2.169  11.458 -0.3521  0.5692  0.3227
   25TMC2    C3  388   1.932   2.179  11.593 -0.1920  0.2121  0.6244
   25TMC2    C4  389   1.697   2.108  11.510 -0.0343 -0.1339  0.7146
   25TMC2    C5  390   1.723   2.119  11.646  0.1432 -0.1897 -0.2438
   25TMC2    C6  391   1.840   2.167  11.694  0.4302  0.6499  0.2302
   25TMC2     C  392   1.781   2.070  11.281  0.2067 -0.3325  0.1954
   25TMC2     O  393   1.874   2.105  11.209  0.1162 -0.4674 -0.5619
   25TMC2     H  394   2.000   2.178  11.395 -0.0776  0.4372  0.6816
   25TMC2    H1  395   1.599   2.099  11.465  1.2277 -0.1989 -2.0339
   25TMC2    H2  396   1.860   2.170  11.800  0.6032 -0.3587  0.2345
   25TMC2    C7  397   1.630   2.090  11.747  0.6910 -0.0574  0.8335
   25TMC2    C8  398   2.077   2.185  11.631 -0.5303 -0.3998 -0.5443
   25TMC2    O1  399   1.626   2.166  11.841  0.0892 -0.2535 -0.4843
   25TMC2    O2  400   2.126   2.081  11.671  0.2576  0.3816  1.3142
   25TMC2    O5  401   2.148   2.273  11.553  0.1166 -0.2323  0.3456
   25TMC2    H5  402   2.089   2.344  11.520 -0.5866 -0.5053  1.0015
   26MPD2     C  403   1.562   1.831  10.877  0.2517  0.5285 -0.4186
   26MPD2    C1  404   1.524   1.763  10.996 -0.3128  0.0560 -0.6472
   26MPD2    C2  405   1.564   1.808  11.125  0.1925 -0.3499 -0.8899
   26MPD2    C3  406   1.647   1.923  11.133 -1.0468  0.2738  0.1897
   26MPD2    C4  407   1.681   1.982  11.016 -0.0598  0.0035 -0.9870
   26MPD2    C5  408   1.647   1.941  10.892 -0.3708  0.0096  0.0835
   26MPD2     H  409   1.519   1.770  11.215 -0.3110  3.7558  0.5878
   26MPD2    H1  410   1.760   2.056  11.015  2.0190 -2.2160 -0.8009
   26MPD2    H2  411   1.538   1.792  10.779  0.9151  1.1383 -0.8278
   26MPD2    H3  412   1.681   1.990  10.801  1.6717  2.1020  2.0096
   26MPD2     N  413   1.682   1.970  11.264  0.7917 -0.2128 -0.0068
   26MPD2    H5  414   1.628   1.936  11.343  1.4365  1.1259  1.0089
   26MPD2    N1  415   1.453   1.643  10.967 -0.1158  0.4028 -0.2317
   26MPD2    H7  416   1.454   1.619  10.868 -1.3865 -0.8109  0.0471
   27TMC2    C1  417   4.678   4.521  12.677 -0.1273  0.3294 -0.6583
   27TMC2    C2  418   0.006   4.633  12.640 -0.1662  0.2183 -0.7355
   27TMC2    C3  419   0.120   4.673  12.705 -0.2273  0.1296 -0.2646
   27TMC2    C4  420   4.731   4.438  12.772  0.1038 -1.1764 -0.1220
   27TMC2    C5  421   0.102   4.485  12.841 -0.6601  0.5007 -0.0341
   27TMC2    C6  422   0.169   4.605  12.811  0.5101  0.6336  0.0487
   27TMC2     C  423   4.582   4.461  12.587 -0.4522  0.2954  0.0884
   27TMC2     O  424   4.604   4.490  12.470  0.4390 -0.3858  0.2819
   27TMC2     H  425   4.703   4.688  12.556 -1.1701 -0.7682 -0.8998
   27TMC2    H1  426   4.687   4.341  12.787 -1.6132 -0.4589 -0.5332
   27TMC2    H2  427   0.259   4.633  12.864 -0.6339  0.4664  2.0695
   27TMC2    C7  428   0.178   4.383  12.913 -0.0347 -0.4025 -0.4219
   27TMC2    C8  429   0.157   0.074  12.672  0.6951 -0.1379  0.1249
   27TMC2    O1  430   0.124   4.284  12.955 -0.4301 -0.3111 -0.8384
   27TMC2    O2  431   0.078   0.151  12.620 -0.0137 -0.8895  0.1843
   27TMC2    O5  432   0.291   0.074  12.667 -0.1721 -0.1895  0.7306
   27TMC2    H5  433   0.322   4.722  12.691 -1.6512 -1.3467 -1.6487
   28MPD2     C  434   4.194   4.134  12.485  0.3709  0.7381  0.5877
   28MPD2    C1  435   4.194   4.161  12.624 -0.0830 -0.2173 -0.3861
   28MPD2    C2  436   4.280   4.259  12.676 -0.2597  0.2112 -0.5519
   28MPD2    C3  437   4.385   4.308  12.594  0.4738 -0.0911  0.1788
   28MPD2    C4  438   4.397   4.270  12.461  0.3400 -0.3790  0.9287
   28MPD2    C5  439   4.303   4.188  12.410 -0.0680  0.1117  0.0647
   28MPD2     H  440   4.290   4.285  12.781 -0.1926 -1.8865 -0.0424
   28MPD2    H1  441   4.480   4.297  12.396 -0.2003 -0.7923  0.0806
   28MPD2    H2  442   4.126   4.065  12.436  2.6823 -1.5017  0.4876
   28MPD2    H3  443   4.324   4.163  12.306  0.2082  0.1488  0.1128
   28MPD2     N  444   4.484   4.384  12.652  0.3287  0.1285 -0.1064
   28MPD2    H5  445   4.488   4.393  12.753  0.1294 -0.2330 -0.0648
   28MPD2    N1  446   4.104   4.089  12.703  0.6201 -0.2481  0.0780
   28MPD2    H7  447   4.038   4.030  12.654  2.3135  0.8754 -3.5548
   29TMC2    C1  448   4.383   1.711  14.477  0.0261 -0.6031 -0.1091
   29TMC2    C2  449   4.473   1.619  14.430  0.2137  0.9359 -0.3052
   29TMC2    C3  450   4.598   1.668  14.414  0.6309 -0.2280 -0.1607
   29TMC2    C4  451   4.413   1.834  14.526  0.2294 -0.0861 -0.1751
   29TMC2    C5  452   4.545   1.871  14.515  0.5294  0.7666  0.6396
   29TMC2    C6  453   4.641   1.784  14.467  0.2941 -0.0325 -0.3060
   29TMC2     C  454   4.235   1.686  14.478 -0.1109 -0.3209 -0.2727
   29TMC2     O  455   4.161   1.778  14.479  0.0451 -0.5242  0.1635
   29TMC2     H  456   4.454   1.522  14.386  1.5993  0.3579  0.3668
   29TMC2    H1  457   4.342   1.890  14.587  1.3341  2.1125 -0.9174
   29TMC2    H2  458   0.010   1.805  14.473 -0.0800  0.4585  4.7236
   29TMC2    C7  459   4.600   1.984  14.593 -0.4382  0.0734  0.2745
   29TMC2    C8  460   4.705   1.595  14.350 -0.6264  0.0231 -0.5419
   29TMC2    O1  461   4.724   1.990  14.595  0.1294 -0.4635 -0.0186
   29TMC2    O2  462   4.701   1.473  14.336  0.2196 -0.9799 -0.6818
   29TMC2    O5  463   0.040   1.683  14.272  0.0441 -0.0472  0.3321
   29TMC2    H5  464   4.715   1.751  14.240 -0.3327 -0.9872 -0.9560
   30MPD2     C  465   3.860   1.377  14.285 -0.5774 -0.6575 -0.0470
   30MPD2    C1  466   3.975   1.301  14.307 -0.2479 -0.2791 -1.0724
   30MPD2    C2  467   4.086   1.371  14.355 -0.1577 -0.7573 -0.0210
   30MPD2    C3  468   4.090   1.505  14.389  0.3973  0.1027 -0.0165
   30MPD2    C4  469   3.970   1.582  14.368  0.0244 -0.2685 -0.3947
   30MPD2    C5  470   3.860   1.512  14.315 -0.2051 -0.4202 -0.3155
   30MPD2     H  471   4.172   1.311  14.383 -0.8178 -0.6155  2.3223
   30MPD2    H1  472   3.955   1.687  14.390 -0.5520 -0.7312  1.4116
   30MPD2    H2  473   3.769   1.334  14.245  0.3618 -1.3197 -1.5062
   30MPD2    H3  474   3.763   1.560  14.309  0.7126  1.5775  0.8169
   30MPD2     N  475   4.204   1.556  14.447 -0.2742  0.0800  0.0794
   30MPD2    H5  476   4.284   1.497  14.465 -0.5974 -1.2875 -2.8972
   30MPD2    N1  477   3.991   1.163  14.273  0.4481  0.1864 -0.2311
   30MPD2    H7  478   4.077   1.122  14.307 -0.0610 -1.0789 -0.4483
   31TMC2    C1  479   1.914   0.357  15.730 -0.5109  0.2568 -0.4347
   31TMC2    C2  480   1.804   0.435  15.762  0.0608  0.5075  0.7959
   31TMC2    C3  481   1.748   0.421  15.886  0.0752 -0.0458  0.6029
   31TMC2    C4  482   1.977   0.284  15.828 -0.9256 -0.7972  0.0182
   31TMC2    C5  483   1.924   0.289  15.954  0.6190 -0.1158 -1.3862
   31TMC2    C6  484   1.808   0.350  15.983  1.0927  0.4208  0.5084
   31TMC2     C  485   1.960   0.365  15.596  0.1910  0.1204  0.0228
   31TMC2     O  486   1.915   0.459  15.530 -0.1480  0.0523  0.5615
   31TMC2     H  487   1.757   0.489  15.681 -0.4870  1.5007  1.7599
   31TMC2    H1  488   2.078   0.247  15.814 -1.2058 -1.5983  0.0990
   31TMC2    H2  489   1.768   0.336  16.083 -0.9954 -3.3732 -0.8375
   31TMC2    C7  490   2.004   0.233  16.056 -0.0956 -0.0098 -0.6491
   31TMC2    C8  491   1.635   0.499  15.935 -0.7546 -0.0551 -0.6699
   31TMC2    O1  492   2.082   0.137  16.032 -0.1124  0.0584  0.1840
   31TMC2    O2  493   1.581   0.474  16.043  0.2842  0.0402  0.1207
   31TMC2    O5  494   1.612   0.599  15.859 -0.6787 -0.3141 -0.7750
   31TMC2    H5  495   1.662   0.614  15.776 -0.4744 -4.6795 -1.4711
   32MPD2     C  496   2.260   0.228  15.187 -0.1926  0.7544 -0.6854
   32MPD2    C1  497   2.181   0.344  15.205  0.2349  0.1258  0.0967
   32MPD2    C2  498   2.106   0.353  15.328  0.4063  0.5512  0.1978
   32MPD2    C3  499   2.124   0.260  15.430 -0.1320 -0.4828  0.9194
   32MPD2    C4  500   2.221   0.167  15.417  0.1741 -0.5552 -0.9319
   32MPD2    C5  501   2.283   0.149  15.298  0.4402 -0.8403 -0.3812
   32MPD2     H  502   2.027   0.427  15.334 -0.4185 -0.4845  2.0172
   32MPD2    H1  503   2.242   0.102  15.501  1.2928 -0.8774 -1.4563
   32MPD2    H2  504   2.316   0.217  15.095  1.2927 -0.6322  0.3843
   32MPD2    H3  505   2.351   0.066  15.288  2.0135  0.5318 -1.1745
   32MPD2     N  506   2.048   0.263  15.553 -0.1322 -0.1310  0.7229
   32MPD2    H5  507   2.067   0.191  15.621  0.2865 -1.5812 -0.9290
   32MPD2    N1  508   2.154   0.420  15.087  0.7003 -0.3687  0.0821
   32MPD2    H7  509   2.200   0.396  15.000  0.0349 -0.4121 -0.2529
   33TMC2    C1  510   2.004   3.938  10.178  0.5330  0.3229  0.0922
   33TMC2    C2  511   1.873   3.946  10.167 -0.4931 -0.3021 -0.3059
   33TMC2    C3  512   1.821   4.071  10.154  0.0458 -1.0556 -0.1342
   33TMC2    C4  513   2.086   4.048  10.200 -1.0327  0.6886 -0.1424
   33TMC2    C5  514   2.029   4.169  10.194 -0.1302  0.3022  0.4086
   33TMC2    C6  515   1.893   4.182  10.166  0.4549 -0.8191  0.1962
   33TMC2     C  516   2.055   3.802  10.205  0.7070  0.1626  0.0620
   33TMC2     O  517   1.976   3.718  10.241 -0.4458  0.4290 -0.6933
   33TMC2     H  518   1.823   3.853  10.141 -0.9679 -0.7704  2.2860
   33TMC2    H1  519   2.193   4.035  10.195 -0.9184  0.6066  2.4888
   33TMC2    H2  520   1.850   4.280  10.146  0.6322 -1.0583 -1.3419
   33TMC2    C7  521   2.113   4.284  10.183 -0.0307 -0.4025 -0.0421
   33TMC2    C8  522   1.674   4.079  10.159  0.0305  0.6908  0.6911
   33TMC2    O1  523   2.224   4.286  10.130 -0.2669 -0.1312  0.0968
   33TMC2    O2  524   1.592   4.001  10.114 -0.3288  0.0114 -0.5722
   33TMC2    O5  525   1.646   4.155  10.268  0.3458  0.3667  0.4388
   33TMC2    H5  526   1.724   4.195  10.311  0.9883 -0.2483 -0.1574
   34MPD2     C  527   2.410   3.463  10.345  0.5448  0.1522  0.0653
   34MPD2    C1  528   2.288   3.489  10.402  0.8746  0.9048  0.4377
   34MPD2    C2  529   2.210   3.595  10.346  0.9529 -0.3126 -0.8666
   34MPD2    C3  530   2.265   3.681  10.254  0.0805 -0.2374 -0.4432
   34MPD2    C4  531   2.392   3.651  10.207  0.2150 -0.6436 -0.0814
   34MPD2    C5  532   2.455   3.539  10.240  0.1488  0.4848  0.3853
   34MPD2     H  533   2.111   3.613  10.384  2.1596  0.6351  1.8071
   34MPD2    H1  534   2.441   3.712  10.132 -1.0073  1.5607  0.8900
   34MPD2    H2  535   2.467   3.377  10.380  0.6108  0.5675  0.9904
   34MPD2    H3  536   2.549   3.522  10.188  0.3191 -3.3752  1.9324
   34MPD2     N  537   2.192   3.791  10.205  0.0677 -1.2430 -0.3627
   34MPD2    H5  538   2.245   3.863  10.157  0.1843 -1.6781 -0.8900
   34MPD2    N1  539   2.239   3.397  10.499 -0.2576  0.5656 -1.3840
   34MPD2    H7  540   2.295   3.315  10.519 -0.3289  0.9861  0.5972
   35TMC2    C1  541   3.164   4.390  11.565 -0.4748 -0.0457 -0.3869
   35TMC2    C2  542   3.078   4.493  11.526  0.0499 -0.4622  0.0237
   35TMC2    C3  543   2.949   4.486  11.575 -0.3272  0.2487  0.6089
   35TMC2    C4  544   3.115   4.272  11.616  0.5186 -0.3930 -0.7165
   35TMC2    C5  545   2.986   4.261  11.642 -0.2862 -0.3928  0.4186
   35TMC2    C6  546   2.900   4.371  11.622  0.7582  0.2539  0.0603
   35TMC2     C  547   3.306   4.416  11.547  0.4306  0.5329 -0.1328
   35TMC2     O  548   3.339   4.503  11.468 -0.7117  0.2042  0.3916
   35TMC2     H  549   3.114   4.584  11.478 -0.0771 -0.2584  0.3127
   35TMC2    H1  550   3.186   4.192  11.634 -0.1419 -0.6159  0.9257
   35TMC2    H2  551   2.797   4.366  11.655  1.7461 -0.6365  3.0081
   35TMC2    C7  552   2.931   4.148  11.704  0.7917 -0.2509  0.1262
   35TMC2    C8  553   2.855   4.590  11.536 -0.0833 -0.2830 -0.5620
   35TMC2    O1  554   3.010   4.089  11.776  0.0789 -0.0724 -0.2905
   35TMC2    O2  555   2.776   4.638  11.615  0.2434  0.2428  0.1176
   35TMC2    O5  556   2.882   4.623  11.406  0.1564 -0.5173  0.5242
   35TMC2    H5  557   2.930   4.552  11.357 -1.7190 -0.8410 -0.8579
   36MPD2     C  558   3.795   4.389  11.725 -0.1530  0.8435  0.2312
   36MPD2    C1  559   3.713   4.310  11.803  0.2527  0.7334  0.1831
   36MPD2    C2  560   3.579   4.294  11.778 -0.2481 -0.5426 -0.2711
   36MPD2    C3  561   3.517   4.361  11.670  0.5396  0.6940 -0.2873
   36MPD2    C4  562   3.603   4.440  11.593 -0.2424  0.3125 -0.5960
   36MPD2    C5  563   3.735   4.444  11.613 -0.4026  1.3064  0.1449
   36MPD2     H  564   3.518   4.229  11.839  2.0709 -0.5207  2.0596
   36MPD2    H1  565   3.568   4.484  11.500 -1.0822  2.2257  0.6349
   36MPD2    H2  566   3.902   4.398  11.735  0.0830 -0.7537 -0.8567
   36MPD2    H3  567   3.809   4.504  11.561 -1.1513  4.0067  2.1723
   36MPD2     N  568   3.379   4.350  11.642 -0.7505 -0.8336 -0.1756
   36MPD2    H5  569   3.318   4.299  11.704 -2.2007  1.0235 -0.0773
   36MPD2    N1  570   3.775   4.251  11.908  0.4259  0.0829 -0.8833
   36MPD2    H7  571   3.865   4.288  11.937 -0.0025  0.9510 -0.6813
   37TMC2    C1  572   1.040   4.310  12.193 -0.0529 -0.4745 -0.9482
   37TMC2    C2  573   0.926   4.319  12.117 -0.0168  0.2539 -0.8543
   37TMC2    C3  574   0.948   4.359  11.988  0.3339  0.0054 -0.5148
   37TMC2    C4  575   1.164   4.353  12.156  0.3104  0.6026 -0.5806
   37TMC2    C5  576   1.173   4.408  12.029 -0.1085 -0.6759 -0.4915
   37TMC2    C6  577   1.060   4.410  11.938  0.4736 -0.0163 -0.1903
   37TMC2     C  578   1.017   4.268  12.333  0.2153  0.3798 -0.0373
   37TMC2     O  579   0.902   4.273  12.370  0.4922  0.0648  0.0622
   37TMC2     H  580   0.829   4.285  12.152  1.2891 -2.1555  0.3797
   37TMC2    H1  581   1.246   4.347  12.225  1.1132 -1.1768 -1.6719
   37TMC2    H2  582   1.065   4.435  11.833  0.4760 -1.1228 -0.4493
   37TMC2    C7  583   1.303   4.450  11.986 -0.0082 -0.2461 -0.2147
   37TMC2    C8  584   0.824   4.392  11.908 -0.4743  0.2360 -0.3700
   37TMC2    O1  585   1.401   4.437  12.057 -0.3008  0.2134  0.1699
   37TMC2    O2  586   0.717   4.338  11.930  0.1399  0.0363 -0.3867
   37TMC2    O5  587   0.837   4.520  11.863 -0.2875  0.2619 -0.6996
   37TMC2    H5  588   0.929   4.552  11.854 -0.5655  1.0701 -0.6310
   38MPD2     C  589   1.154   4.178  12.818 -0.2854 -0.0476 -0.8109
   38MPD2    C1  590   1.257   4.156  12.733 -0.5564  0.8681 -0.3314
   38MPD2    C2  591   1.251   4.166  12.600 -0.3337  0.1534 -0.1990
   38MPD2    C3  592   1.133   4.207  12.542 -0.4208 -0.2211  0.0490
   38MPD2    C4  593   1.026   4.233  12.623 -0.1969  0.5736  0.4353
   38MPD2    C5  594   1.032   4.212  12.758  0.5009  0.0750  0.0454
   38MPD2     H  595   1.338   4.142  12.538 -0.0147 -0.1847  0.3796
   38MPD2    H1  596   0.930   4.268  12.588 -0.0523 -0.3715 -0.8990
   38MPD2    H2  597   1.153   4.167  12.926 -2.9209 -1.2339 -0.9489
   38MPD2    H3  598   0.952   4.227  12.830  1.0863  0.0566  0.7018
   38MPD2     N  599   1.127   4.224  12.403  0.7933  0.6463 -0.4052
   38MPD2    H5  600   1.210   4.209  12.346  1.8089  2.1846  0.6841
   38MPD2    N1  601   1.383   4.096  12.781 -0.8302  0.3427  0.2954
   38MPD2    H7  602   1.458   4.082  12.714  0.3746  0.6144  1.5798
   39TMC2    C1  603   4.151   1.733   2.152 -0.0272 -0.2019  0.2777
   39TMC2    C2  604   4.109   1.797   2.262 -0.0820 -0.0005  1.0606
   39TMC2    C3  605   4.196   1.888   2.320  0.2014 -0.1587 -0.1191
   39TMC2    C4  606   4.272   1.763   2.090 -1.3191 -0.0450 -0.5561
   39TMC2    C5  607   4.345   1.859   2.148  0.4025  0.1335 -0.0533
   39TMC2    C6  608   4.316   1.918   2.264 -0.4521  0.2793 -0.3551
   39TMC2     C  609   4.060   1.634   2.103 -0.0710  0.6566  0.0885
   39TMC2     O  610   3.946   1.627   2.146 -0.3005 -0.6492 -0.1410
   39TMC2     H  611   4.015   1.771   2.310 -0.1545 -2.4553 -0.3713
   39TMC2    H1  612   4.297   1.719   1.994  0.8058  1.2333 -0.6101
   39TMC2    H2  613   4.378   1.991   2.313 -0.1636 -1.3623  1.7773
   39TMC2    C7  614   4.456   1.919   2.070 -0.2794 -0.2561  0.0967
   39TMC2    C8  615   4.136   1.993   2.404 -0.2457  0.4080  0.0747
   39TMC2    O1  616   4.522   1.849   1.991  0.0686  0.6654 -0.3701
   39TMC2    O2  617   4.206   2.055   2.478 -1.1053  0.0209  0.2921
   39TMC2    O5  618   4.013   2.018   2.364 -0.5622 -0.3980 -0.8010
   39TMC2    H5  619   3.978   1.963   2.291  0.5374 -1.3296 -0.6164
   40MPD2     C  620   4.147   1.343   1.890  0.2964  0.2299  0.5068
   40MPD2    C1  621   4.062   1.438   1.947  0.6380  0.2181  0.1546
   40MPD2    C2  622   3.924   1.431   1.917  0.1662 -0.0376 -0.5473
   40MPD2    C3  623   3.878   1.321   1.845 -0.2086 -0.8608 -0.6255
   40MPD2    C4  624   3.964   1.230   1.796  0.0797 -0.1330  0.8366
   40MPD2    C5  625   4.098   1.248   1.813  0.3980 -0.0934 -0.2614
   40MPD2     H  626   3.856   1.508   1.950 -0.7380 -0.5847 -1.1391
   40MPD2    H1  627   3.937   1.155   1.723  0.2005 -0.4606  1.1305
   40MPD2    H2  628   4.253   1.353   1.911  0.6031 -1.0529 -0.3472
   40MPD2    H3  629   4.166   1.171   1.778 -0.5113 -0.9197 -0.2180
   40MPD2     N  630   3.748   1.298   1.808 -0.3123  0.0713 -0.1664
   40MPD2    H5  631   3.725   1.207   1.768 -0.6342 -0.2928  0.8271
   40MPD2    N1  632   4.120   1.535   2.027  0.0196 -0.3316  0.0421
   40MPD2    H7  633   4.221   1.526   2.029  0.2038  1.8462  0.6151
   41TMC2    C1  634   2.954   3.615  13.866 -0.7272 -0.6468  0.5920
   41TMC2    C2  635   2.844   3.551  13.816  0.0458 -0.4512 -0.0573
   41TMC2    C3  636   2.779   3.614  13.708 -0.3169  0.1507  0.4822
   41TMC2    C4  637   2.994   3.739  13.825  0.3704 -0.5745 -0.1618
   41TMC2    C5  638   2.910   3.796  13.732  0.0754 -0.2806  0.3117
   41TMC2    C6  639   2.801   3.739  13.666  0.7426 -0.2878 -0.4667
   41TMC2     C  640   3.037   3.532  13.954 -0.7040 -0.4793 -0.5238
   41TMC2     O  641   3.008   3.409  13.955 -0.3821 -0.0800 -0.3657
   41TMC2     H  642   2.793   3.477  13.877 -0.0883 -1.6686 -1.6456
   41TMC2    H1  643   3.090   3.781  13.851 -0.6701  1.3199  0.6767
   41TMC2    H2  644   2.737   3.791  13.596 -0.3865 -0.8154  0.1540
   41TMC2    C7  645   2.973   3.912  13.665 -0.0528  0.0500 -0.6761
   41TMC2    C8  646   2.655   3.550  13.672  0.3514 -0.2697  0.0603
   41TMC2    O1  647   3.021   4.003  13.732 -0.4832  0.0883  0.0005
   41TMC2    O2  648   2.605   3.463  13.747  0.1087 -0.1366  0.7225
   41TMC2    O5  649   2.662   3.522  13.541 -0.0994 -0.1705  0.3441
   41TMC2    H5  650   2.673   3.607  13.493 -1.0562 -1.0972 -1.5081
   42MPD2     C  651   3.183   3.414  14.196  0.1206 -0.1260 -0.6499
   42MPD2    C1  652   3.198   3.546  14.147  0.0111 -0.9695 -0.2503
   42MPD2    C2  653   3.272   3.635  14.219  0.2045 -0.2913 -0.0759
   42MPD2    C3  654   3.343   3.596  14.326  0.5801  0.0555  0.2813
   42MPD2    C4  655   3.324   3.473  14.379  0.2689 -0.0816  0.3983
   42MPD2    C5  656   3.239   3.387  14.311 -0.9739  0.6096 -0.3362
   42MPD2     H  657   3.285   3.735  14.178  1.8621  0.3448  1.9973
   42MPD2    H1  658   3.380   3.433  14.462  2.3373  0.1592 -0.8945
   42MPD2    H2  659   3.126   3.343  14.136 -0.1035  0.8131 -1.5497
   42MPD2    H3  660   3.224   3.290  14.356  1.8242 -0.1347 -1.0579
   42MPD2     N  661   3.434   3.681  14.396  0.0298 -0.1545 -0.6034
   42MPD2    H5  662   3.484   3.643  14.476 -1.3147 -0.5217  0.0807
   42MPD2    N1  663   3.124   3.601  14.033  0.2052  0.3892  0.0377
   42MPD2    H7  664   3.128   3.703  14.029  0.0225  0.3452 -1.4333
   43TMC2    C1  665   4.290   2.501   0.572 -0.0508  0.2822 -0.0062
   43TMC2    C2  666   4.192   2.601   0.557 -0.2225  0.2015  0.6443
   43TMC2    C3  667   4.200   2.721   0.630  0.6905  0.5223  0.5890
   43TMC2    C4  668   4.378   2.505   0.679  0.8217 -0.3781  0.3220
   43TMC2    C5  669   4.375   2.625   0.745  0.1268 -0.5920 -0.4636
   43TMC2    C6  670   4.288   2.730   0.732  0.1797  0.2553  0.1554
   43TMC2     C  671   4.299   2.393   0.480  0.2811  0.3850  0.2880
   43TMC2     O  672   4.339   2.288   0.523  0.8678 -0.2153 -0.1067
   43TMC2     H  673   4.099   2.591   0.502  0.2150  1.3629 -0.3195
   43TMC2    H1  674   4.464   2.440   0.674  0.6239 -0.5751 -0.5098
   43TMC2    H2  675   4.284   2.814   0.799  1.2866 -0.3466  0.9779
   43TMC2    C7  676   4.462   2.626   0.860  0.0659 -0.2585  0.1507
   43TMC2    C8  677   4.076   2.797   0.657 -0.3145 -0.0560  0.0126
   43TMC2    O1  678   4.496   2.514   0.894 -0.9005 -0.0388 -0.9179
   43TMC2    O2  679   4.042   2.849   0.760  0.2504  0.2104 -0.4751
   43TMC2    O5  680   3.994   2.793   0.555  0.1238  0.0450  0.2537
   43TMC2    H5  681   4.026   2.759   0.469  2.4894 -1.4614  1.7336
   44MPD2     C  682   4.422   2.230  17.746  0.0922 -0.0819  0.1416
   44MPD2    C1  683   4.433   2.160   0.117 -0.3440 -0.3924 -0.2149
   44MPD2    C2  684   4.388   2.226   0.232  0.2813 -0.1580 -0.4941
   44MPD2    C3  685   4.324   2.352   0.235  0.2424  0.3882 -0.7416
   44MPD2    C4  686   4.307   2.408   0.111 -0.4359  0.4583 -0.0007
   44MPD2    C5  687   4.361   2.351   0.002  0.0936  0.0726  0.3104
   44MPD2     H  688   4.404   2.178   0.328 -2.1411 -0.3426 -0.1640
   44MPD2    H1  689   4.256   2.503   0.101 -0.1924  0.5283 -0.5682
   44MPD2    H2  690   4.445   2.180  17.652 -0.4238  0.2488 -0.1583
   44MPD2    H3  691   4.356   2.397  17.651  2.9810 -1.8818 -0.7542
   44MPD2     N  692   4.290   2.432   0.347 -0.5267  0.0146 -0.1129
   44MPD2    H5  693   4.254   2.522   0.316 -0.8326  0.4750  1.6004
   44MPD2    N1  694   4.511   2.044   0.134  0.3063 -0.8054 -0.6187
   44MPD2    H7  695   4.527   2.013   0.229 -0.4416 -0.2202 -0.3037
   45TMC2    C1  696   0.665   4.232   9.836 -0.0126  0.4368  0.0632
   45TMC2    C2  697   0.706   4.161   9.949 -0.6944  0.6576 -0.0048
   45TMC2    C3  698   0.788   4.220  10.038  0.1192  0.1506 -0.3785
   45TMC2    C4  699   0.708   4.361   9.806  0.4838 -0.0483 -0.7101
   45TMC2    C5  700   0.776   4.422   9.906 -0.3008  0.4347 -0.0205
   45TMC2    C6  701   0.814   4.353  10.019 -0.0534 -0.2036  0.1737
   45TMC2     C  702   0.547   4.181   9.756  0.0357  0.1673  0.3299
   45TMC2     O  703   0.544   4.058   9.751 -0.4058  0.0156  0.1328
   45TMC2     H  704   0.663   4.064   9.971  1.3442 -0.2988 -0.2539
   45TMC2    H1  705   0.670   4.412   9.719  0.1971 -0.4351 -0.8120
   45TMC2    H2  706   0.870   4.406  10.095  0.1166  1.3030 -1.0147
   45TMC2    C7  707   0.821   4.559   9.889 -0.8406  0.2749 -0.4730
   45TMC2    C8  708   0.812   4.173  10.175  0.5312  0.3061 -0.1598
   45TMC2    O1  709   0.879   4.612   9.987  0.0399  0.2357 -0.0669
   45TMC2    O2  710   0.762   4.225  10.277  0.3103 -0.6994  0.3253
   45TMC2    O5  711   0.800   4.043  10.158  0.1427 -0.0981  0.0648
   45TMC2    H5  712   0.836   4.014  10.072 -2.0411  1.3328 -1.3179
   46MPD2     C  713   0.288   4.116   9.632  0.1553 -0.2051 -0.4524
   46MPD2    C1  714   0.322   4.240   9.666  0.2695  0.0578  0.6118
   46MPD2    C2  715   0.227   4.341   9.677  0.0871  0.4156 -0.6392
   46MPD2    C3  716   0.098   4.310   9.633 -0.5923  0.8411  0.7484
   46MPD2    C4  717   0.066   4.183   9.580  0.0836  0.1881 -0.0647
   46MPD2    C5  718   0.159   4.088   9.597 -0.2277  0.4147  0.2711
   46MPD2     H  719   0.257   4.442   9.703  0.1518  0.1443  0.3279
   46MPD2    H1  720   4.711   4.154   9.533  1.1380 -2.4928 -0.4947
   46MPD2    H2  721   0.351   4.027   9.631  0.2294 -0.1541 -0.2191
   46MPD2    H3  722   0.141   3.988   9.558  1.3300  0.3472 -0.2737
   46MPD2     N  723   4.733   4.411   9.647  0.5796  0.1965  0.7595
   46MPD2    H5  724   0.022   4.505   9.675 -0.4603  0.7106  0.0219
   46MPD2    N1  725   0.447   4.271   9.720 -0.4573 -0.2847  0.5395
   46MPD2    H7  726   0.459   4.367   9.753 -2.9015  0.1661  0.0814
   47TMC2    C1  727   2.472   1.287   9.035 -0.2769  0.5729  0.0831
   47TMC2    C2  728   2.401   1.201   8.956 -0.1843 -0.7008  0.4127
   47TMC2    C3  729   2.267   1.229   8.936  0.0769  0.2021 -0.1323
   47TMC2    C4  730   2.415   1.391   9.098 -0.5936  0.5802 -0.2370
   47TMC2    C5  731   2.277   1.402   9.085 -0.1310  0.5661 -0.2628
   47TMC2    C6  732   2.201   1.326   9.009 -0.2108 -0.9220 -0.3719
   47TMC2     C  733   2.616   1.264   9.044  0.3215  0.4632  0.2348
   47TMC2     O  734   2.684   1.360   9.072  0.0859 -0.3863  0.1115
   47TMC2     H  735   2.456   1.130   8.896  1.0033  0.4195  0.1968
   47TMC2    H1  736   2.473   1.462   9.158  0.1354  1.1366 -1.5904
   47TMC2    H2  737   2.098   1.358   8.997  1.3275  3.2749 -2.4351
   47TMC2    C7  738   2.215   1.481   9.193  0.5392 -0.6651  0.1458
   47TMC2    C8  739   2.183   1.132   8.873  0.3087  0.2570 -0.2077
   47TMC2    O1  740   2.285   1.558   9.254 -0.0472  0.7579 -0.2320
   47TMC2    O2  741   2.226   1.022   8.836  0.4252  0.6921  0.0884
   47TMC2    O5  742   2.099   1.206   8.798  0.0560  0.3894  0.3715
   47TMC2    H5  743   2.106   1.303   8.796  0.9564  0.3192  0.1987
   48MPD2     C  744   2.891   1.163   9.065  0.1467 -0.2726 -0.3691
   48MPD2    C1  745   2.778   1.083   9.076  0.5169 -0.2156 -0.2816
   48MPD2    C2  746   2.799   0.950   9.112 -0.3429  0.6326  0.1530
   48MPD2    C3  747   2.926   0.895   9.113  0.3725  0.1700  0.4411
   48MPD2    C4  748   3.035   0.978   9.103  0.5249  0.0294 -0.3070
   48MPD2    C5  749   3.022   1.111   9.087 -0.0977  0.5207 -0.2055
   48MPD2     H  750   2.710   0.889   9.105 -0.3232  0.5728  0.4529
   48MPD2    H1  751   3.140   0.952   9.101  0.8613  1.3377  0.4819
   48MPD2    H2  752   2.896   1.269   9.047  0.1923 -0.5693 -2.0499
   48MPD2    H3  753   3.111   1.173   9.081 -0.2387  0.8314  0.8427
   48MPD2     N  754   2.942   0.757   9.141 -0.0050 -0.0217 -0.8580
   48MPD2    H5  755   2.857   0.706   9.162  0.5340 -0.4227  0.3427
   48MPD2    N1  756   2.650   1.134   9.049 -0.3251  0.4020  0.1621
   48MPD2    H7  757   2.584   1.058   9.043  0.2194 -0.1433  1.0691
   49TMC2    C1  758   1.447   2.782  10.340  0.2540 -0.5116 -0.0252
   49TMC2    C2  759   1.515   2.806  10.455 -0.7928 -0.2429 -0.4480
   49TMC2    C3  760   1.566   2.934  10.470  0.2965 -0.3614 -0.3577
   49TMC2    C4  761   1.422   2.879  10.250  0.4184 -0.2346 -0.0515
   49TMC2    C5  762   1.487   3.000  10.264  0.3512  0.1596 -0.4040
   49TMC2    C6  763   1.552   3.038  10.379  0.2214  0.1193 -0.3180
   49TMC2     C  764   1.381   2.651  10.330 -0.1000  0.8182  0.4702
   49TMC2     O  765   1.358   2.603  10.218  0.4772 -0.1375  0.4845
   49TMC2     H  766   1.524   2.721  10.522  3.8138 -0.7028 -1.6183
   49TMC2    H1  767   1.353   2.861  10.168 -1.4749 -1.2663  1.7654
   49TMC2    H2  768   1.611   3.128  10.394 -0.1766  0.1238  1.2742
   49TMC2    C7  769   1.477   3.101  10.147 -0.4294  0.4548  0.9982
   49TMC2    C8  770   1.652   2.960  10.584  0.0323 -0.2748 -0.7494
   49TMC2    O1  771   1.393   3.078  10.058 -0.3336  0.3741  0.0605
   49TMC2    O2  772   1.716   3.062  10.592  0.5597  0.3445 -0.4865
   49TMC2    O5  773   1.598   2.902  10.693  0.4446 -0.0910 -0.1472
   49TMC2    H5  774   1.531   2.832  10.682 -1.8205  1.8988  0.9544
   50MPD2     C  775   1.185   2.421  10.363 -0.1578 -0.1441 -0.1812
   50MPD2    C1  776   1.219   2.508  10.461 -0.7247  0.7186 -0.1623
   50MPD2    C2  777   1.151   2.514  10.581  0.4510 -0.8007 -0.3076
   50MPD2    C3  778   1.057   2.418  10.611 -0.2873 -0.0783  0.2904
   50MPD2    C4  779   1.032   2.319  10.519 -0.3388  0.0437  0.5627
   50MPD2    C5  780   1.101   2.319  10.401 -0.2267 -0.4756  0.4799
   50MPD2     H  781   1.169   2.589  10.657 -2.7324  0.6410 -0.9500
   50MPD2    H1  782   0.964   2.238  10.541  0.1432 -0.7090 -0.6664
   50MPD2    H2  783   1.238   2.419  10.269  1.4889  0.7121  0.7327
   50MPD2    H3  784   1.077   2.241  10.330 -1.6249 -0.5215  1.0135
   50MPD2     N  785   0.990   2.401  10.732  1.2089 -0.3740 -0.5810
   50MPD2    H5  786   0.927   2.323  10.746  1.1593 -0.2689 -0.2070
   50MPD2    N1  787   1.314   2.614  10.447  0.0779  0.3570  0.2654
   50MPD2    H7  788   1.320   2.679  10.526  0.6330  0.5249  0.0818
   51TMC2    C1  789   0.884   2.004   1.531 -0.0029  0.7759  0.6301
   51TMC2    C2  790   0.886   2.069   1.653 -0.2273  0.4855  0.1200
   51TMC2    C3  791   0.956   2.190   1.656 -0.2770  0.2978  0.1019
   51TMC2    C4  792   0.956   2.048   1.423  0.1572 -0.1049  0.2633
   51TMC2    C5  793   1.039   2.153   1.431 -0.3250  0.5520  0.7527
   51TMC2    C6  794   1.033   2.231   1.545 -0.4918 -0.7440  0.3295
   51TMC2     C  795   0.846   1.868   1.536  1.0061  0.2896  0.5149
   51TMC2     O  796   0.933   1.788   1.502 -0.3139 -0.6025 -0.6094
   51TMC2     H  797   0.843   2.015   1.737  0.8381  0.6385  0.7627
   51TMC2    H1  798   0.939   1.991   1.332 -0.8617  0.5971  0.0167
   51TMC2    H2  799   1.082   2.327   1.552 -1.9516 -0.0607  1.0480
   51TMC2    C7  800   1.158   2.147   1.350 -0.5294 -0.2202  0.2327
   51TMC2    C8  801   0.954   2.276   1.774  0.2149  0.1201  0.2945
   51TMC2    O1  802   1.165   2.066   1.262  0.1495  0.2679 -0.2988
   51TMC2    O2  803   1.019   2.383   1.779  0.5310  0.0324 -0.0280
   51TMC2    O5  804   0.839   2.267   1.833  0.3395  0.0741 -0.1771
   51TMC2    H5  805   0.794   2.187   1.799 -1.5454  0.8797  0.3921
   52MPD2     C  806   0.505   1.488   1.589 -0.8137 -0.2113  0.2834
   52MPD2    C1  807   0.638   1.482   1.563 -0.0619  0.0321  0.4816
   52MPD2    C2  808   0.707   1.604   1.560  1.5247 -0.4740  0.6425
   52MPD2    C3  809   0.649   1.723   1.576 -0.4818 -0.3059 -0.3687
   52MPD2    C4  810   0.508   1.724   1.597 -0.1499 -0.4794 -0.1291
   52MPD2    C5  811   0.444   1.609   1.605 -0.4832 -0.4054 -0.8669
   52MPD2     H  812   0.816   1.602   1.553  1.6018  0.0069  1.7468
   52MPD2    H1  813   0.457   1.819   1.609 -0.1631 -0.4051 -0.7608
   52MPD2    H2  814   0.443   1.399   1.587  1.8719 -2.0481 -1.0075
   52MPD2    H3  815   0.337   1.610   1.627  0.1871 -0.5030  2.4077
   52MPD2     N  816   0.715   1.848   1.580 -0.3573 -0.6875  0.4602
   52MPD2    H5  817   0.664   1.934   1.598 -0.6331 -0.3922 -1.8209
   52MPD2    N1  818   0.716   1.362   1.544 -0.4615 -1.0022  0.0726
   52MPD2    H7  819   0.807   1.368   1.500 -0.5600  1.0810  0.1752
   53TMC2    C1  820   1.911   0.061  11.919 -0.5183  0.3930 -0.3516
   53TMC2    C2  821   2.042   0.030  11.892 -0.8697 -0.1918 -0.4586
   53TMC2    C3  822   2.120   4.711  11.991 -0.5705  0.0523 -0.2394
   53TMC2    C4  823   1.858   0.043  12.041  0.1027 -0.1283 -0.0810
   53TMC2    C5  824   1.938   4.730  12.138 -0.3798  0.2449  0.2403
   53TMC2    C6  825   2.068   4.698  12.114  0.1710 -0.3694  0.0752
   53TMC2     C  826   1.820   0.049  11.804 -0.1938 -0.0512  0.2440
   53TMC2     O  827   1.849   0.103  11.700 -0.1333 -0.0593  0.2092
   53TMC2     H  828   2.073   0.010  11.790 -0.5590  1.4013 -0.6749
   53TMC2    H1  829   1.756   0.075  12.057  0.4157 -0.1597  2.0391
   53TMC2    H2  830   2.130   4.662  12.194  0.2848  1.0089  0.6047
   53TMC2    C7  831   1.876   4.688  12.254 -0.5079 -0.1843 -0.8879
   53TMC2    C8  832   2.256   4.695  11.976 -0.1491 -0.2185 -0.6481
   53TMC2    O1  833   1.765   4.717  12.281 -0.2017  0.1270  0.2767
   53TMC2    O2  834   2.322   4.636  12.062  0.2034 -0.1189  0.2026
   53TMC2    O5  835   2.318   0.020  11.872 -0.0542  0.3772 -0.1696
   53TMC2    H5  836   2.251   0.072  11.823 -1.4069  0.0042  1.3077
   54MPD2     C  837   1.589   4.712  11.648 -0.1756 -0.0885 -0.3009
   54MPD2    C1  838   1.614   4.661  11.774  0.2628 -0.7754 -0.0126
   54MPD2    C2  839   1.525   4.591  11.837  0.2739  0.6968 -0.3857
   54MPD2    C3  840   1.396   4.579  11.790  0.2549 -0.0966 -0.4714
   54MPD2    C4  841   1.365   4.635  11.665 -0.2081 -0.4357 -0.7469
   54MPD2    C5  842   1.462   4.702  11.594  0.4371  0.3279  0.5896
   54MPD2     H  843   1.547   4.555  11.937 -0.8777 -1.3941 -0.8799
   54MPD2    H1  844   1.267   4.621  11.622  0.4782 -2.3151 -1.7208
   54MPD2    H2  845   1.661   0.027  11.586  1.7773  0.5786  2.5384
   54MPD2    H3  846   1.450   0.017  11.499 -0.1621 -0.3702  0.2819
   54MPD2     N  847   1.291   4.519  11.861  0.0043  0.4624 -1.1116
   54MPD2    H5  848   1.200   4.538  11.823 -0.1396  0.8084 -0.6007
   54MPD2    N1  849   1.733   4.691  11.835 -0.4846  0.7804 -0.3015
   54MPD2    H7  850   1.748   4.657  11.929  1.0948  0.1057 -0.7959
   55TMC2    C1  851   2.604   2.528   0.271  0.1853  0.4259  0.4271
   55TMC2    C2  852   2.533   2.430   0.214 -0.4983 -0.3624 -0.7750
   55TMC2    C3  853   2.503   2.322   0.289  0.3995 -0.1859  0.6660
   55TMC2    C4  854   2.664   2.518   0.392  0.2711 -0.3831 -0.5726
   55TMC2    C5  855   2.629   2.406   0.459  0.0474 -0.3072 -0.2594
   55TMC2    C6  856   2.554   2.308   0.416  0.3349  0.3900  0.5244
   55TMC2     C  857   2.537   2.655   0.258  0.0718 -0.4514 -0.0511
   55TMC2     O  858   2.462   2.678   0.349  0.3346  0.2361  0.2067
   55TMC2     H  859   2.498   2.438   0.111 -0.6089  1.2068 -0.6191
   55TMC2    H1  860   2.727   2.598   0.430  0.8154 -1.5854  1.0575
   55TMC2    H2  861   2.544   2.222   0.480 -0.2301  1.1199  1.4267
   55TMC2    C7  862   2.595   2.437   0.592 -0.1660  0.2948 -0.2250
   55TMC2    C8  863   2.440   2.202   0.243 -0.4898  0.1882 -0.0322
   55TMC2    O1  864   2.598   2.345   0.670  0.2984  0.6122 -0.4649
   55TMC2    O2  865   2.404   2.114   0.319 -0.6198  0.6134 -0.1896
   55TMC2    O5  866   2.425   2.215   0.114 -0.1114  0.2323  0.9337
   55TMC2    H5  867   2.397   2.131   0.073  2.2245  0.4350 -1.1172
   56MPD2     C  868   2.556   2.922   0.019  0.0564 -0.1097 -0.3356
   56MPD2    C1  869   2.521   2.859   0.132  0.2036 -0.2793  0.0047
   56MPD2    C2  870   2.456   2.936   0.232  0.3172 -0.4223  0.2055
   56MPD2    C3  871   2.437   3.075   0.223 -0.3044  0.9332 -0.0790
   56MPD2    C4  872   2.486   3.134   0.109  0.1884  0.6110 -0.4510
   56MPD2    C5  873   2.539   3.059   0.006  0.2422 -0.9027  0.1703
   56MPD2     H  874   2.430   2.899   0.330 -2.1006  1.5384  0.3003
   56MPD2    H1  875   2.473   3.239   0.085  1.0664  0.8709  0.2018
   56MPD2    H2  876   2.620   2.871  17.694  0.0618 -2.0481  1.0240
   56MPD2    H3  877   2.572   3.100  17.659  1.0385  0.4759  1.0465
   56MPD2     N  878   2.393   3.154   0.331 -0.4293 -0.3428 -0.7199
   56MPD2    H5  879   2.387   3.254   0.312 -1.2406 -0.4513 -0.9839
   56MPD2    N1  880   2.565   2.729   0.147  0.0929  0.0237 -0.4743
   56MPD2    H7  881   2.636   2.698   0.081  0.3906 -0.5178  0.0994
   57TMC2    C1  882   1.201   2.729  13.762 -0.6074  0.0297 -0.4423
   57TMC2    C2  883   1.142   2.626  13.690  0.0762 -0.5385  0.2162
   57TMC2    C3  884   1.188   2.588  13.563 -0.7053 -0.2083  0.2991
   57TMC2    C4  885   1.305   2.800  13.708  0.2732 -0.4395  0.6190
   57TMC2    C5  886   1.350   2.757  13.586 -0.7763 -0.3754 -0.0089
   57TMC2    C6  887   1.297   2.654  13.505 -0.5740 -0.4533  0.4428
   57TMC2     C  888   1.158   2.755  13.899  0.2509 -0.0130 -0.1169
   57TMC2     O  889   1.235   2.814  13.969 -0.0002  0.0811 -0.5879
   57TMC2     H  890   1.060   2.563  13.722 -0.1693 -1.2998 -1.8774
   57TMC2    H1  891   1.364   2.874  13.761 -0.0628 -1.0400  1.8455
   57TMC2    H2  892   1.327   2.636  13.402  0.2245 -1.5972  0.8745
   57TMC2    C7  893   1.450   2.840  13.524  0.1643 -0.7330  0.0139
   57TMC2    C8  894   1.098   2.493  13.485 -0.2680 -0.3006  0.4638
   57TMC2    O1  895   1.451   2.962  13.541  0.4492 -0.9187  0.5176
   57TMC2    O2  896   0.978   2.472  13.510  0.5073 -0.5431 -0.3418
   57TMC2    O5  897   1.161   2.456  13.370 -0.0142  0.1214  0.4333
   57TMC2    H5  898   1.257   2.463  13.392  0.2373  0.4607 -0.7738
   58MPD2     C  899   0.795   2.805  14.259 -0.3179 -0.3411 -0.5209
   58MPD2    C1  900   0.903   2.886  14.233 -0.1723 -0.0632  0.0736
   58MPD2    C2  901   0.992   2.849  14.131 -0.1859 -0.1869  0.2288
   58MPD2    C3  902   0.958   2.754  14.042  0.2029  0.1165  0.5448
   58MPD2    C4  903   0.850   2.671  14.073 -0.6104 -0.0914  0.1884
   58MPD2    C5  904   0.776   2.694  14.184 -0.3891  0.5731 -0.4148
   58MPD2     H  905   1.081   2.909  14.120 -0.8334  0.8986  0.8981
   58MPD2    H1  906   0.837   2.579  14.017  3.7047  1.4832 -3.4255
   58MPD2    H2  907   0.734   2.815  14.348 -0.8169  0.2015 -0.9183
   58MPD2    H3  908   0.711   2.612  14.216  0.4533 -0.2258 -0.7403
   58MPD2     N  909   1.031   2.715  13.929  0.0473  0.0165  0.1261
   58MPD2    H5  910   0.990   2.646  13.866  1.5559 -2.1431  1.4985
   58MPD2    N1  911   0.936   2.998  14.311  0.2356  0.1495  0.1959
   58MPD2    H7  912   1.031   3.036  14.310  0.6929 -0.9702  1.3662
   59TMC2    C1  913   4.269   3.527  12.977 -0.5906  0.5770 -0.4355
   59TMC2    C2  914   4.373   3.447  12.986 -0.1420 -0.4273  0.2524
   59TMC2    C3  915   4.409   3.360  12.887  0.1702  0.2172  0.3742
   59TMC2    C4  916   4.199   3.539  12.861 -0.1367 -0.2122 -0.2606
   59TMC2    C5  917   4.240   3.446  12.764  0.1796  0.2881  1.4454
   59TMC2    C6  918   4.343   3.361  12.773 -0.4483  0.6723 -1.0095
   59TMC2     C  919   4.268   3.658  13.052 -1.0509  1.2975 -0.3006
   59TMC2     O  920   4.228   3.762  13.001  0.3209 -0.3392  0.3862
   59TMC2     H  921   4.439   3.457  13.071 -0.3682  0.1602  0.3604
   59TMC2    H1  922   4.102   3.588  12.861 -0.3535 -0.6424  1.3895
   59TMC2    H2  923   4.362   3.284  12.699  0.5530  1.0420 -1.1395
   59TMC2    C7  924   4.165   3.435  12.640 -0.4282 -0.0115 -0.0964
   59TMC2    C8  925   4.552   3.338  12.872 -0.5798 -0.6017 -0.2273
   59TMC2    O1  926   4.191   3.341  12.564  0.0320 -0.1206 -0.0120
   59TMC2    O2  927   4.626   3.374  12.961  0.2515 -0.0908  1.2571
   59TMC2    O5  928   4.586   3.368  12.745  0.0594 -0.2682 -0.2663
   59TMC2    H5  929   4.526   3.340  12.672 -1.3566 -1.9333  1.5464
   60MPD2     C  930   4.368   3.889  13.225 -0.1478 -1.1758 -0.5372
   60MPD2    C1  931   4.386   3.756  13.254 -0.1029 -0.1232  0.0973
   60MPD2    C2  932   4.454   3.723  13.366 -0.2488 -0.0670 -0.4034
   60MPD2    C3  933   4.528   3.819  13.441  0.7156 -0.8472 -0.0820
   60MPD2    C4  934   4.525   3.952  13.398  0.1484  0.4809 -0.0253
   60MPD2    C5  935   4.443   3.984  13.296  0.5608  0.3315  0.1687
   60MPD2     H  936   4.467   3.616  13.374  1.5628  0.0076 -2.2537
   60MPD2    H1  937   4.578   4.035  13.444 -0.0246  0.4909  0.1541
   60MPD2    H2  938   4.293   3.928  13.158  0.3331 -1.0743 -1.0153
   60MPD2    H3  939   4.437   4.090  13.271  2.8352  0.7141  1.2333
   60MPD2     N  940   4.600   3.786  13.561  0.6471  0.0544 -0.0314
   60MPD2    H5  941   4.642   3.866  13.607  1.5590 -0.5326  0.1653
   60MPD2    N1  942   4.333   3.649  13.177  0.3315  0.0224  0.1222
   60MPD2    H7  943   4.369   3.557  13.201 -0.7170 -0.6420 -0.8236
   61TMC2    C1  944   3.751   0.088  15.663  0.2377 -0.0778  0.3191
   61TMC2    C2  945   3.695   0.041  15.775 -0.1065  0.3002 -0.3413
   61TMC2    C3  946   3.629   0.133  15.854 -0.4217  0.0248  0.3182
   61TMC2    C4  947   3.759   0.219  15.625 -0.3232  0.4030  0.4199
   61TMC2    C5  948   3.684   0.306  15.703  0.0863  0.1654  0.2272
   61TMC2    C6  949   3.619   0.267  15.821  0.4737  0.5146  0.8985
   61TMC2     C  950   3.820   4.728  15.581  0.4803  0.3391 -0.5934
   61TMC2     O  951   3.802   4.610  15.608  0.1373  0.4266  0.2053
   61TMC2     H  952   3.707   4.677  15.812  0.3491  1.1412  1.8317
   61TMC2    H1  953   3.801   0.256  15.533 -0.3593  0.5789  0.4745
   61TMC2    H2  954   3.567   0.330  15.891 -0.7745  0.4302  0.0421
   61TMC2    C7  955   3.640   0.418  15.628 -0.2775 -0.0164  0.2917
   61TMC2    C8  956   3.562   0.076  15.965 -0.4765 -0.4257  0.2968
   61TMC2    O1  957   3.718   0.458  15.541  0.1347 -0.2146 -0.5581
   61TMC2    O2  958   3.512   0.149  16.051  0.4277  0.7665 -0.0284
   61TMC2    O5  959   3.490   4.702  15.927  0.2646  0.1500  0.4133
   61TMC2    H5  960   3.512   4.668  15.837  1.8017  1.4401  0.2775
   62MPD2     C  961   4.006   4.581  15.392 -0.5246  0.0835 -0.7942
   62MPD2    C1  962   3.980   4.716  15.386 -0.0630  0.6453 -0.5758
   62MPD2    C2  963   4.041   0.053  15.286  0.9342  0.2059  0.0000
   62MPD2    C3  964   4.120   4.725  15.195  0.4029 -0.2192  0.1953
   62MPD2    C4  965   4.149   4.592  15.200 -0.0326 -0.1148  0.5990
   62MPD2    C5  966   4.091   4.525  15.304 -1.4393  0.2468  0.4189
   62MPD2     H  967   4.013   0.155  15.262  0.0877  0.0690  0.3854
   62MPD2    H1  968   4.217   4.538  15.135  0.1676 -1.9752  2.3629
   62MPD2    H2  969   3.969   4.515  15.470  0.4241  1.2310  0.6238
   62MPD2    H3  970   4.110   4.419  15.317  1.1534  0.4457 -1.6814
   62MPD2     N  971   4.165   0.073  15.085  0.1436 -0.0843  0.4168
   62MPD2    H5  972   4.141   0.171  15.088 -1.3110 -0.4238  0.3175
   62MPD2    N1  973   3.895   0.045  15.480  0.5487  0.4266 -1.2039
   62MPD2    H7  974   3.895   0.146  15.470  0.3963  0.5063 -0.4526
   63TMC2    C1  975   3.027   0.661  10.179  0.5629  0.8199  0.1466
   63TMC2    C2  976   3.152   0.622  10.209  0.1483  0.1320 -0.6724
   63TMC2    C3  977   3.255   0.668  10.132  0.1085  0.1907 -0.2574
   63TMC2    C4  978   2.990   0.741  10.072 -0.1687  0.2327 -0.3548
   63TMC2    C5  979   3.091   0.777   9.988  0.0333 -0.0571 -0.2103
   63TMC2    C6  980   3.215   0.728  10.013  0.3964 -0.3993 -0.3107
   63TMC2     C  981   2.923   0.636  10.282  0.0764 -0.2840  0.1155
   63TMC2     O  982   2.814   0.688  10.261  0.4388 -0.2076 -0.1323
   63TMC2     H  983   3.174   0.582  10.307 -0.2178  0.7915 -0.3231
   63TMC2    H1  984   2.888   0.774  10.051 -0.1519  0.6234  0.1759
   63TMC2    H2  985   3.293   0.777   9.956 -1.1262  0.2858 -1.8035
   63TMC2    C7  986   3.055   0.840   9.865  0.1686  0.5791 -0.4009
   63TMC2    C8  987   3.388   0.675  10.186 -0.1467  0.4408 -0.1169
   63TMC2    O1  988   2.936   0.844   9.830 -0.2377 -0.0553  0.4146
   63TMC2    O2  989   3.436   0.584  10.251  0.0921  0.2005  0.5324
   63TMC2    O5  990   3.423   0.805  10.213 -0.2885 -0.2425 -0.2054
   63TMC2    H5  991   3.387   0.869  10.147 -0.6963 -0.8944 -0.6159
   64MPD2     C  992   2.662   0.425  10.674 -0.2236 -0.2659  0.6096
   64MPD2    C1  993   2.760   0.335  10.631  0.0094  0.0796  0.4309
   64MPD2    C2  994   2.840   0.369  10.529  0.3262  0.1341 -0.3962
   64MPD2    C3  995   2.841   0.497  10.471 -0.2124  1.1715  0.1422
   64MPD2    C4  996   2.755   0.585  10.522 -0.9639  0.5885  0.2317
   64MPD2    C5  997   2.660   0.548  10.614 -0.0454  0.5645  0.0100
   64MPD2     H  998   2.913   0.299  10.491 -0.6859 -0.7515 -0.7295
   64MPD2    H1  999   2.750   0.689  10.492  2.1190  0.6763  0.0283
   64MPD2    H2 1000   2.595   0.409  10.757  1.2659 -1.1537  1.6290
   64MPD2    H3 1001   2.594   0.623  10.655 -0.3904  0.7976 -0.9671
   64MPD2     N 1002   2.939   0.534  10.370  0.1685  0.0002  0.0466
   64MPD2    H5 1003   3.020   0.474  10.365 -0.7563 -1.2494 -0.0784
   64MPD2    N1 1004   2.770   0.204  10.689  0.0603 -0.5652 -0.5752
   64MPD2    H7 1005   2.824   0.134  10.639  1.2933 -0.9164  1.2749
   65TMC2    C1 1006   4.332   4.565  15.594  0.1623 -0.7636 -0.1833
   65TMC2    C2 1007   4.414   4.531  15.490  0.3609 -0.0951 -0.7337
   65TMC2    C3 1008   4.447   4.621  15.394 -0.6422  0.6514 -0.1738
   65TMC2    C4 1009   4.281   4.692  15.606  0.8241 -0.4404  0.3745
   65TMC2    C5 1010   4.327   0.047  15.518  0.0372 -0.8378 -0.1432
   65TMC2    C6 1011   4.409   0.018  15.411  0.5197  0.2382  0.2090
   65TMC2     C 1012   4.266   4.458  15.661  0.2409  0.5690  0.0058
   65TMC2     O 1013   4.279   4.342  15.617 -0.3723 -0.2193  0.3309
   65TMC2     H 1014   4.461   4.434  15.498 -1.3336 -0.8766 -0.4289
   65TMC2    H1 1015   4.191   4.718  15.661 -0.0693 -0.8725 -0.8809
   65TMC2    H2 1016   4.465   0.097  15.362 -0.9473  0.0108 -1.8337
   65TMC2    C7 1017   4.275   0.183  15.515  0.0163 -0.7979 -0.1303
   65TMC2    C8 1018   4.520   4.574  15.274 -0.0775  0.3057 -0.0124
   65TMC2    O1 1019   4.274   0.239  15.405  0.2339  0.4079  0.3196
   65TMC2    O2 1020   4.573   4.464  15.289  0.1170 -0.2881 -0.2032
   65TMC2    O5 1021   4.543   4.673  15.186 -0.0008 -0.1157 -0.0787
   65TMC2    H5 1022   4.474   0.004  15.202 -1.7960 -2.0486  0.4243
   66MPD2     C 1023   4.136   4.469  16.001 -0.5452  0.0659  0.9712
   66MPD2    C1 1024   4.147   4.420  15.873  0.0153 -0.6021 -0.4782
   66MPD2    C2 1025   4.102   4.291  15.846 -0.0524 -0.4926  0.6790
   66MPD2    C3 1026   4.057   4.205  15.947  0.6786 -0.4593 -0.2347
   66MPD2    C4 1027   4.072   4.249  16.077  0.7945 -0.0069 -0.1878
   66MPD2    C5 1028   4.103   4.377  16.098 -0.1493 -0.1679 -0.2879
   66MPD2     H 1029   4.102   4.258  15.743 -0.5582 -0.7485  0.7620
   66MPD2    H1 1030   4.039   4.188  16.161 -3.2227  0.2613 -1.5710
   66MPD2    H2 1031   4.165   4.568  16.034 -1.6103  1.2556 -1.6712
   66MPD2    H3 1032   4.083   4.409  16.200 -0.4038 -0.0606 -0.3723
   66MPD2     N 1033   4.011   4.073  15.921  0.0941 -0.1986 -0.1209
   66MPD2    H5 1034   3.996   4.018  16.005 -1.7420 -1.0112 -0.9844
   66MPD2    N1 1035   4.212   4.503  15.779 -0.0390 -0.3668  0.5860
   66MPD2    H7 1036   4.239   4.595  15.813 -2.8611  0.9521 -0.6834
   67TMC2    C1 1037   4.179   3.479  14.272  0.4625  0.4104  0.0394
   67TMC2    C2 1038   4.210   3.614  14.276  0.2559 -0.1484  0.8320
   67TMC2    C3 1039   4.277   3.659  14.387 -0.0809 -0.4406  0.2098
   67TMC2    C4 1040   4.223   3.394  14.366 -0.2034  0.1589  0.0697
   67TMC2    C5 1041   4.302   3.450  14.468 -0.0916  0.5068  0.0247
   67TMC2    C6 1042   4.335   3.581  14.478 -0.3853  0.6096 -0.3806
   67TMC2     C 1043   4.126   3.414  14.154  0.5391  0.0608 -0.5710
   67TMC2     O 1044   4.116   3.290  14.158 -0.0340  0.3397  0.1793
   67TMC2     H 1045   4.182   3.694  14.208  1.2420 -2.1299 -1.9066
   67TMC2    H1 1046   4.204   3.288  14.357  1.1303 -0.2484  2.1402
   67TMC2    H2 1047   4.396   3.610  14.563  0.1408 -1.0616 -0.1833
   67TMC2    C7 1048   4.338   3.348  14.571 -0.5295 -0.7094 -0.8446
   67TMC2    C8 1049   4.307   3.805  14.406  0.7600  0.3352  0.1107
   67TMC2    O1 1050   4.331   3.234  14.541 -0.1926  0.1957 -0.0219
   67TMC2    O2 1051   4.237   3.902  14.369  0.0499  0.3737 -0.0308
   67TMC2    O5 1052   4.440   3.810  14.420 -0.0381 -0.0523 -0.1109
   67TMC2    H5 1053   4.473   3.718  14.412  0.2769  0.1572 -1.1896
   68MPD2     C 1054   4.003   3.341  13.880  0.4509  0.4891  0.6957
   68MPD2    C1 1055   4.018   3.463  13.932 -0.1793 -0.0770 -0.4585
   68MPD2    C2 1056   3.954   3.569  13.865  0.4211  0.0117  0.2898
   68MPD2    C3 1057   3.873   3.539  13.754 -0.1054  0.0304 -0.6720
   68MPD2    C4 1058   3.861   3.409  13.709 -0.2722 -0.5506  0.3148
   68MPD2    C5 1059   3.923   3.315  13.775 -0.2006 -0.3093 -0.4369
   68MPD2     H 1060   3.967   3.671  13.900 -2.0492 -0.3381  2.1821
   68MPD2    H1 1061   3.791   3.381  13.631 -2.4180  2.4880  1.1348
   68MPD2    H2 1062   4.048   3.254  13.927  1.5813 -0.1186 -1.5124
   68MPD2    H3 1063   3.919   3.213  13.739  1.7650  0.1158 -1.8622
   68MPD2     N 1064   3.802   3.638  13.683  0.1217  0.2603  0.0560
   68MPD2    H5 1065   3.752   3.600  13.603 -1.2680  2.8896 -0.3558
   68MPD2    N1 1066   4.087   3.501  14.053 -0.6663  0.4353  0.4778
   68MPD2    H7 1067   4.092   3.599  14.076  1.4559  1.2812 -3.4879
   69TMC2    C1 1068   1.706   0.068  12.757  0.5805 -1.3158 -0.1709
   69TMC2    C2 1069   1.579   0.043  12.709  0.0599 -0.2735 -0.2633
   69TMC2    C3 1070   1.547   0.104  12.587  0.8079 -0.3204  0.1849
   69TMC2    C4 1071   1.804   0.137  12.693 -0.4049  0.2406  0.4478
   69TMC2    C5 1072   1.769   0.179  12.564  0.4203  0.2388  0.5045
   69TMC2    C6 1073   1.640   0.155  12.511 -0.1360 -0.1213 -0.2773
   69TMC2     C 1074   1.738   0.027  12.890 -0.0145 -0.4170  0.0834
   69TMC2     O 1075   1.675   4.671  12.935 -0.5998  0.4681  0.1351
   69TMC2     H 1076   1.498   0.012  12.773 -0.9046  0.0684 -1.3103
   69TMC2    H1 1077   1.905   0.144  12.730 -0.4619 -0.8289  0.8110
   69TMC2    H2 1078   1.605   0.169  12.409  0.6533 -2.1346 -0.8344
   69TMC2    C7 1079   1.872   0.237  12.474  0.0496  0.2100  0.0696
   69TMC2    C8 1080   1.427   0.060  12.528  0.4804  0.5788  0.0219
   69TMC2    O1 1081   1.989   0.242  12.511 -0.2075 -0.5295 -0.0807
   69TMC2    O2 1082   1.420   4.690  12.468  0.0384 -0.1086  0.3035
   69TMC2    O5 1083   1.337   0.103  12.616  0.0370  0.4463 -0.1870
   69TMC2    H5 1084   1.369   0.157  12.691  0.3348 -0.6037  0.4368
   70MPD2     C 1085   1.911   0.225  13.153  0.3447  0.2041  0.7383
   70MPD2    C1 1086   1.845   0.121  13.097 -0.4456  0.3907 -0.3579
   70MPD2    C2 1087   1.802   0.021  13.182  0.5639 -0.3091  0.3580
   70MPD2    C3 1088   1.829   0.028  13.318  0.3420  0.1191 -0.0069
   70MPD2    C4 1089   1.912   0.126  13.364 -0.1311 -0.1275  0.1071
   70MPD2    C5 1090   1.951   0.226  13.285  0.1959 -0.2683  0.1875
   70MPD2     H 1091   1.738   4.676  13.153 -1.0987  1.1022 -0.0317
   70MPD2    H1 1092   1.959   0.135  13.461 -0.2610  1.1883  0.0599
   70MPD2    H2 1093   1.953   0.298  13.085 -0.8063 -1.6384 -1.9657
   70MPD2    H3 1094   2.017   0.301  13.326 -1.5915  1.1603  0.4352
   70MPD2     N 1095   1.787   4.664  13.416  0.4337 -0.2212  0.7449
   70MPD2    H5 1096   1.827   4.671  13.509  0.5227  1.2043  0.5894
   70MPD2    N1 1097   1.816   0.122  12.953 -0.3861  0.4193  0.3641
   70MPD2    H7 1098   1.849   0.201  12.899 -0.9025 -0.7580 -1.6452
   71TMC2    C1 1099   3.099   1.317   1.783 -0.3544 -0.2488  0.3045
   71TMC2    C2 1100   3.153   1.351   1.907  0.1981 -0.5729  0.5614
   71TMC2    C3 1101   3.101   1.459   1.971  0.1634  0.4131 -0.2599
   71TMC2    C4 1102   2.995   1.387   1.724  0.0988 -0.1389 -0.2709
   71TMC2    C5 1103   2.943   1.488   1.799 -0.4804  0.3941 -0.2078
   71TMC2    C6 1104   3.002   1.530   1.915  0.3233 -0.4880  0.5420
   71TMC2     C 1105   3.158   1.204   1.716  0.0828  0.1000  0.9032
   71TMC2     O 1106   3.270   1.169   1.746 -0.0348  0.7649 -0.2204
   71TMC2     H 1107   3.241   1.303   1.948  1.2359  2.3830  1.8047
   71TMC2    H1 1108   2.948   1.352   1.633  2.5281  0.4738 -1.7776
   71TMC2    H2 1109   2.968   1.627   1.949  1.7743  0.9094 -2.0164
   71TMC2    C7 1110   2.821   1.560   1.755 -0.0820 -0.1806  0.1260
   71TMC2    C8 1111   3.182   1.520   2.076 -0.1381  0.7859  0.1130
   71TMC2    O1 1112   2.791   1.668   1.812  0.5059  0.0117  0.3373
   71TMC2    O2 1113   3.287   1.581   2.045 -0.2952  0.0360  0.5974
   71TMC2    O5 1114   3.089   1.565   2.162  0.3667  0.0784  0.0987
   71TMC2    H5 1115   3.016   1.500   2.171  0.6803 -0.2310  0.4072
   72MPD2     C 1116   3.116   0.800   1.394  0.0077  0.4729 -0.2848
   72MPD2    C1 1117   3.229   0.861   1.441  0.1265  0.1913 -0.1948
   72MPD2    C2 1118   3.218   0.974   1.525 -0.6643 -0.1900  0.5397
   72MPD2    C3 1119   3.093   1.022   1.559 -0.6206  0.3384  0.5274
   72MPD2    C4 1120   2.987   0.964   1.503  0.5450 -0.2142 -0.3840
   72MPD2    C5 1121   2.996   0.854   1.418 -0.0721  0.3273 -0.4941
   72MPD2     H 1122   3.307   1.022   1.566 -1.1116 -0.3322  1.6604
   72MPD2    H1 1123   2.885   0.998   1.519  1.8899  3.7378 -0.3849
   72MPD2    H2 1124   3.116   0.701   1.351  2.0468  0.8143 -1.0773
   72MPD2    H3 1125   2.908   0.802   1.381 -0.7974  1.1458  0.0810
   72MPD2     N 1126   3.067   1.137   1.639  0.1714  0.3541  0.0935
   72MPD2    H5 1127   2.970   1.166   1.641 -1.1830 -4.0815 -0.0769
   72MPD2    N1 1128   3.360   0.818   1.408 -0.3662 -0.6372  0.4707
   72MPD2    H7 1129   3.438   0.869   1.446 -1.7424  2.6867 -1.1463
   73TMC2    C1 1130   2.996   2.168  13.842  0.2665 -0.5320  0.0025
   73TMC2    C2 1131   3.025   2.170  13.977 -0.0494  0.0419 -0.0644
   73TMC2    C3 1132   3.128   2.078  14.007 -0.0659  0.4091 -0.2595
   73TMC2    C4 1133   3.033   2.064  13.764 -0.0267 -0.1892  0.0152
   73TMC2    C5 1134   3.131   1.975  13.797 -0.4550  0.3393 -0.0472
   73TMC2    C6 1135   3.172   1.977  13.924 -0.2377 -0.6851 -0.6176
   73TMC2     C 1136   3.006   2.292  13.769  0.0381 -0.8244  0.1807
   73TMC2     O 1137   3.039   2.290  13.649  0.1381  0.2338  0.1700
   73TMC2     H 1138   3.009   2.258  14.039 -1.7988  0.4213 -1.0423
   73TMC2    H1 1139   2.997   2.054  13.662  0.7726 -0.0806 -0.2811
   73TMC2    H2 1140   3.256   1.918  13.958 -0.3956  0.1180  1.1470
   73TMC2    C7 1141   3.232   1.958  13.695 -0.6313  0.0100  0.1608
   73TMC2    C8 1142   3.191   2.076  14.134  0.0535 -0.0907 -0.2493
   73TMC2    O1 1143   3.304   1.857  13.711  0.3702  0.5672  0.5957
   73TMC2    O2 1144   3.217   1.967  14.182 -0.1486 -0.1533 -0.7611
   73TMC2    O5 1145   3.293   2.166  14.119  0.4422 -0.1962  0.1092
   73TMC2    H5 1146   3.270   2.235  14.053  0.6020 -1.6286 -1.4399
   74MPD2     C 1147   3.042   2.800  13.763 -0.0366  0.5409 -0.0929
   74MPD2    C1 1148   3.084   2.702  13.675 -0.5084 -0.0545  0.0783
   74MPD2    C2 1149   3.064   2.577  13.708 -0.1217  0.3128  0.2627
   74MPD2    C3 1150   2.998   2.534  13.823  0.1812  0.0060 -0.5699
   74MPD2    C4 1151   2.952   2.627  13.913  0.0078 -0.5350  0.1227
   74MPD2    C5 1152   2.981   2.754  13.876  0.3206 -0.0867 -0.6843
   74MPD2     H 1153   3.099   2.502  13.638  3.4539  2.0226  0.2246
   74MPD2    H1 1154   2.902   2.601  14.005  1.2208 -1.7705  0.4324
   74MPD2    H2 1155   3.054   2.908  13.754  1.7868  0.2066 -1.6683
   74MPD2    H3 1156   2.947   2.828  13.948  0.6370  1.0524 -1.7043
   74MPD2     N 1157   2.982   2.396  13.849  0.0104  0.1222 -0.5391
   74MPD2    H5 1158   2.938   2.366  13.935  0.7241  0.5963 -0.0115
   74MPD2    N1 1159   3.155   2.737  13.557  0.1812 -0.2402 -0.7751
   74MPD2    H7 1160   3.186   2.831  13.536  0.7342 -0.4786 -1.0158
   75TMC2    C1 1161   3.708   3.846  13.644 -0.0607 -0.1892 -0.0014
   75TMC2    C2 1162   3.729   3.978  13.640 -0.0973 -0.2921  0.7801
   75TMC2    C3 1163   3.629   4.058  13.588 -0.6328  0.1626 -1.3868
   75TMC2    C4 1164   3.594   3.784  13.603  0.0670 -0.8878  0.6380
   75TMC2    C5 1165   3.504   3.866  13.550  0.1340 -0.1720 -0.4827
   75TMC2    C6 1166   3.511   4.004  13.547 -0.2297 -0.0154  0.5999
   75TMC2     C 1167   3.818   3.773  13.699 -0.5015 -0.2797  0.5958
   75TMC2     O 1168   3.891   3.836  13.774 -0.4196  0.1118 -0.3314
   75TMC2     H 1169   3.817   4.020  13.687 -0.4680 -1.9743  2.9673
   75TMC2    H1 1170   3.568   3.680  13.614 -0.8046 -0.7666 -0.3546
   75TMC2    H2 1171   3.430   4.067  13.511 -1.9863 -1.8373  1.3845
   75TMC2    C7 1172   3.380   3.809  13.487  0.3271  0.3681 -0.1661
   75TMC2    C8 1173   3.644   4.200  13.585  0.3087  0.5179 -0.7553
   75TMC2    O1 1174   3.326   3.872  13.397 -0.3127 -0.4989  0.1554
   75TMC2    O2 1175   3.754   4.247  13.606  1.1277  0.0395 -0.2606
   75TMC2    O5 1176   3.528   4.267  13.593 -0.3880  0.5726 -0.0806
   75TMC2    H5 1177   3.440   4.224  13.600  0.2836 -0.7878 -0.0138
   76TMC2    C1 1178   2.268   4.131  11.915 -0.3605  0.0489  1.1384
   76TMC2    C2 1179   2.166   4.106  11.816 -0.4119  0.1035  0.1127
   76TMC2    C3 1180   2.093   3.987  11.824 -0.2809 -0.0962 -0.0734
   76TMC2    C4 1181   2.304   4.038  12.008 -0.0480  0.6489  0.5809
   76TMC2    C5 1182   2.228   3.921  12.013 -1.0413  0.6233 -0.1458
   76TMC2    C6 1183   2.126   3.898  11.919  0.1984  0.0078  0.0105
   76TMC2     C 1184   2.346   4.249  11.898  0.6530 -0.1505  0.3038
   76TMC2     O 1185   2.276   4.346  11.876  0.1834  0.1263  0.1084
   76TMC2     H 1186   2.136   4.182  11.745 -2.6575 -1.0751 -0.1778
   76TMC2    H1 1187   2.368   4.070  12.089  0.4399 -2.4435  1.4078
   76TMC2    H2 1188   2.061   3.816  11.949 -1.1954 -0.2639 -3.8108
   76TMC2    C7 1189   2.242   3.826  12.127 -0.1508 -0.5921 -0.6733
   76TMC2    C8 1190   1.965   3.986  11.755 -0.1246 -0.3879  0.8847
   76TMC2    O1 1191   2.149   3.747  12.137 -0.4288 -0.5390  0.7441
   76TMC2    O2 1192   1.922   4.080  11.688  0.3062  0.0899  0.3570
   76TMC2    O5 1193   1.913   3.863  11.741 -0.2295  0.2486 -0.4424
   76TMC2    H5 1194   1.979   3.799  11.774 -0.1609 -0.9914 -3.0040
   77MPD2     C 1195   2.780   4.517  11.954 -0.2972 -0.0624 -0.3244
   77MPD2    C1 1196   2.651   4.557  11.946 -0.0594  0.0909  0.5319
   77MPD2    C2 1197   2.547   4.472  11.918  0.7757 -0.3374 -0.0716
   77MPD2    C3 1198   2.575   4.337  11.908  0.4890 -0.2359  0.2434
   77MPD2    C4 1199   2.705   4.294  11.932  0.1917  0.5680  0.0266
   77MPD2    C5 1200   2.804   4.384  11.960 -0.0507 -0.3122 -0.3369
   77MPD2     H 1201   2.444   4.503  11.905  1.0277  0.3716 -0.3810
   77MPD2    H1 1202   2.728   4.188  11.936  0.4347  0.6086 -0.2886
   77MPD2    H2 1203   2.862   4.584  11.978 -0.1609  0.2906 -1.7479
   77MPD2    H3 1204   2.906   4.352  11.979  0.4485  0.9453 -0.8574
   77MPD2     N 1205   2.480   4.228  11.908 -0.2047  0.1738 -0.0064
   77MPD2    H5 1206   2.511   4.132  11.923 -4.3706 -1.3196 -0.9537
   77MPD2    N1 1207   2.612   4.693  11.975  0.3448  0.1407  0.2089
   77MPD2    H7 1208   2.512   4.706  11.969  0.9212  2.5507 -3.7850
   78TMC2    C1 1209   3.977   1.133   2.154  0.3560 -0.4796 -0.1076
   78TMC2    C2 1210   3.843   1.150   2.181  0.7670  0.0058 -0.3153
   78TMC2    C3 1211   3.761   1.076   2.103  0.2640  0.3054  0.2242
   78TMC2    C4 1212   4.024   1.044   2.062  0.4776 -0.3301 -0.3582
   78TMC2    C5 1213   3.937   0.982   1.985 -0.1472  0.1980 -0.6159
   78TMC2    C6 1214   3.802   0.992   2.008 -0.1109 -0.6460  0.6849
   78TMC2     C 1215   4.085   1.203   2.222 -0.3075 -1.0047  0.1639
   78TMC2     O 1216   4.199   1.159   2.212 -0.0665 -0.5126  0.5344
   78TMC2     H 1217   3.814   1.222   2.257  1.1390  1.9045 -1.9628
   78TMC2    H1 1218   4.130   1.028   2.052  0.5186  0.3751 -1.0000
   78TMC2    H2 1219   3.726   0.940   1.951  0.2606 -1.5215  0.9898
   78TMC2    C7 1220   3.995   0.893   1.891 -0.1154  0.3411  0.4334
   78TMC2    C8 1221   3.618   1.109   2.098 -0.5641 -0.6812 -0.5656
   78TMC2    O1 1222   4.118   0.882   1.897  0.2423  0.1730  0.3532
   78TMC2    O2 1223   3.538   1.027   2.063  0.4622  0.9372 -0.0454
   78TMC2    O5 1224   3.601   1.241   2.119  0.3474  0.1176  0.1136
   78TMC2    H5 1225   3.672   1.308   2.133  1.9224 -1.0573 -2.3172
   79MPD1     C 1226   4.250   1.575   2.534 -0.3617  0.0930  0.2422
   79MPD1    C1 1227   4.321   1.464   2.498  0.5526  0.3211  1.0606
   79MPD1    C2 1228   4.247   1.382   2.412  0.3841  0.3320 -0.5089
   79MPD1    C3 1229   4.116   1.403   2.368 -0.5575  0.1805  0.5625
   79MPD1    C4 1230   4.046   1.513   2.421  0.1785 -0.0620  1.1463
   79MPD1    C5 1231   4.122   1.592   2.498  0.1749  0.4632  0.2586
   79MPD1     H 1232   4.291   1.287   2.385  1.0096  0.0812  1.3826
   79MPD1    H1 1233   3.940   1.531   2.407  0.1401 -0.3029  1.1240
   79MPD1    H2 1234   4.291   1.654   2.595 -1.1404 -0.7605  1.8819
   79MPD1    H3 1235   4.070   1.680   2.534 -3.0300 -1.4952  0.4426
   79MPD1     N 1236   4.040   1.315   2.290  0.1502 -0.7310  0.6785
   79MPD1    H5 1237   3.942   1.335   2.274  0.4684 -1.2633 -1.7863
   79MPD1    N1 1238   4.459   1.457   2.527  0.7668 -0.1001  0.7010
   79MPD1    H6 1239   4.494   1.363   2.545  1.6716  0.4558  1.8862
   79MPD1    H7 1240   4.479   1.517   2.608 -2.4306  1.6373  0.2385
   80TMC2    C1 1241   1.066   3.885  12.120  0.3394  0.0003 -0.0522
   80TMC2    C2 1242   0.991   3.935  12.013  0.5543  0.6633  0.3978
   80TMC2    C3 1243   0.908   3.847  11.952 -0.4145 -0.5299 -0.3784
   80TMC2    C4 1244   1.054   3.751  12.158 -0.4464 -0.3963  0.6739
   80TMC2    C5 1245   0.962   3.674  12.095  0.2763 -0.3060  0.8195
   80TMC2    C6 1246   0.885   3.721  11.992 -1.0784 -0.2898  0.7440
   80TMC2     C 1247   1.183   3.964  12.145 -0.8081 -0.3063 -0.1582
   80TMC2     O 1248   1.210   4.049  12.063  0.6188 -0.3168  0.2432
   80TMC2     H 1249   0.997   4.035  11.971 -1.6447  0.4482 -0.4109
   80TMC2    H1 1250   1.122   3.711  12.233  0.6306 -1.6481 -0.9586
   80TMC2    H2 1251   0.813   3.657  11.942  0.9300  0.6816 -3.4053
   80TMC2    C7 1252   0.975   3.529  12.104 -0.9362 -0.3531  0.0640
   80TMC2    C8 1253   0.837   3.901  11.836  0.3507  0.0803  0.2110
   80TMC2    O1 1254   0.945   3.462  12.006  0.4334  0.0526  0.0380
   80TMC2    O2 1255   0.823   4.022  11.820  0.1455 -0.0804 -0.0966
   80TMC2    O5 1256   0.864   3.813  11.738  0.7685  0.3104  0.1682
   80TMC2    H5 1257   0.908   3.730  11.769  0.9183  1.8624  4.1671
   81MPD2     C 1258   1.439   4.101  12.242  0.4242 -0.3245 -0.2274
   81MPD2    C1 1259   1.376   3.990  12.301 -0.1493 -0.5932  0.0157
   81MPD2    C2 1260   1.439   3.917  12.401 -0.2038  0.5123 -0.6037
   81MPD2    C3 1261   1.553   3.976  12.456  0.5970  0.0994  0.4339
   81MPD2    C4 1262   1.615   4.083  12.398  0.3591  0.0989  0.2994
   81MPD2    C5 1263   1.567   4.131  12.286  0.2192 -0.0406 -0.1092
   81MPD2     H 1264   1.394   3.827  12.443  1.6470 -0.2148 -0.1916
   81MPD2    H1 1265   1.698   4.139  12.440 -0.7280  1.2301  0.9648
   81MPD2    H2 1266   1.402   4.162  12.160  0.8145 -1.7579 -1.4528
   81MPD2    H3 1267   1.604   4.225  12.245  1.9093 -0.1108  1.2923
   81MPD2     N 1268   1.616   3.931  12.568 -0.1217 -0.2079  0.3150
   81MPD2    H5 1269   1.709   3.968  12.586 -0.8972  1.5130  0.7515
   81MPD2    N1 1270   1.255   3.930  12.255  0.7667  0.3119  0.1045
   81MPD2    H7 1271   1.217   3.861  12.319 -0.3761 -0.2453 -1.1741
   82TMC2    C1 1272   0.036   3.268  11.249  0.0553  0.0082  0.7913
   82TMC2    C2 1273   0.150   3.211  11.204 -0.3328  0.7162  0.3130
   82TMC2    C3 1274   0.184   3.093  11.265 -0.6615  1.1187  0.3305
   82TMC2    C4 1275   4.681   3.196  11.329  0.2325 -0.4759  0.0289
   82TMC2    C5 1276   4.724   3.082  11.383  0.0786  0.1713  0.3626
   82TMC2    C6 1277   0.112   3.026  11.365 -0.4392 -0.0477 -0.2647
   82TMC2     C 1278   4.736   3.406  11.214 -0.1670  0.1896  0.3049
   82TMC2     O 1279   4.619   3.436  11.227  0.3916 -0.3228  0.1900
   82TMC2     H 1280   0.204   3.238  11.114 -1.5615  0.1470 -0.6055
   82TMC2    H1 1281   4.577   3.224  11.342 -0.2735 -2.2078 -0.2962
   82TMC2    H2 1282   0.151   2.938  11.415 -1.2028  0.9787  2.1128
   82TMC2    C7 1283   4.625   2.993  11.430 -0.0382 -0.0481  0.0016
   82TMC2    C8 1284   0.326   3.062  11.272  0.0684 -0.8772  0.6446
   82TMC2    O1 1285   4.523   3.040  11.480  0.1169 -0.3183 -0.2665
   82TMC2    O2 1286   0.359   2.949  11.311  0.5253  0.0832  0.1166
   82TMC2    O5 1287   0.392   3.178  11.299 -0.1494  0.3156 -0.0959
   82TMC2    H5 1288   0.336   3.257  11.288 -2.4805 -1.3575 -0.2859
   83MPD2     C 1289   0.082   3.885  11.039  0.4501 -0.6349 -0.1528
   83MPD2    C1 1290   4.701   3.814  11.037  0.1931  0.0414 -0.1288
   83MPD2    C2 1291   4.710   3.683  11.081  0.2826  0.3270 -0.6922
   83MPD2    C3 1292   0.090   3.629  11.126  0.1399 -0.5654 -0.2124
   83MPD2    C4 1293   0.209   3.705  11.122  0.1676 -0.0911  0.4754
   83MPD2    C5 1294   0.203   3.835  11.079  0.0168 -0.9407  0.4556
   83MPD2     H 1295   4.620   3.621  11.077  0.4696  0.0273 -0.2784
   83MPD2    H1 1296   0.306   3.664  11.149 -0.2114  0.3786  2.5926
   83MPD2    H2 1297   0.086   3.988  11.006 -0.1968 -0.4085  0.4691
   83MPD2    H3 1298   0.290   3.899  11.075 -0.4650 -0.2472  0.9725
   83MPD2     N 1299   0.103   3.491  11.168 -0.6424 -0.0966  0.4432
   83MPD2    H5 1300   0.200   3.464  11.180  0.2044  1.8002 -2.1051
   83MPD2    N1 1301   4.582   3.878  11.005  0.4060 -0.2403  0.0933
   83MPD2    H7 1302   4.577   3.978  10.987 -0.1074 -0.4238 -0.7887
   84TMC2    C1 1303   0.859   2.458  11.180 -1.0496  0.3064 -0.3303
   84TMC2    C2 1304   0.810   2.331  11.181  0.5400 -0.3326 -0.2729
   84TMC2    C3 1305   0.835   2.252  11.078 -0.0714  0.7518  0.1907
   84TMC2    C4 1306   0.930   2.509  11.071  0.5069 -0.0294  0.0637
   84TMC2    C5 1307   0.950   2.427  10.964  0.2713 -0.8704 -0.0461
   84TMC2    C6 1308   0.894   2.303  10.959 -0.3279 -0.0935  0.0947
   84TMC2     C 1309   0.818   2.548  11.291 -0.1055 -0.3073  0.4073
   84TMC2     O 1310   0.710   2.535  11.343  0.0236  0.4374 -0.2597
   84TMC2     H 1311   0.756   2.300  11.269 -0.4214 -1.1822 -1.1694
   84TMC2    H1 1312   0.955   2.614  11.062  1.5614 -0.1742  1.2678
   84TMC2    H2 1313   0.902   2.233  10.877  1.2802  1.2751 -0.8990
   84TMC2    C7 1314   0.995   2.487  10.839 -0.0486  0.5475 -0.1210
   84TMC2    C8 1315   0.850   2.107  11.089 -0.0698 -0.4022  0.1832
   84TMC2    O1 1316   1.055   2.596  10.845  0.4272 -0.3211 -0.4738
   84TMC2    O2 1317   0.859   2.031  10.993 -0.2951 -0.5883  0.0227
   84TMC2    O5 1318   0.838   2.072  11.217  0.1089 -0.6273 -0.1688
   84TMC2    H5 1319   0.870   2.150  11.267 -0.4027 -0.8836  0.5721
   85TMC2    C1 1320   2.112   0.966  16.274  0.2885  0.8255 -0.9000
   85TMC2    C2 1321   2.213   1.047  16.322  0.0845 -0.2836 -0.8860
   85TMC2    C3 1322   2.255   1.148  16.239  0.0037 -0.0444 -0.0515
   85TMC2    C4 1323   2.066   0.986  16.145 -0.3518  0.3683  0.4823
   85TMC2    C5 1324   2.131   1.081  16.064  0.1499 -0.0877  0.5149
   85TMC2    C6 1325   2.217   1.174  16.115 -0.0113  0.0772 -0.9871
   85TMC2     C 1326   2.077   0.857  16.357 -1.3590 -0.0800  0.1040
   85TMC2     O 1327   2.136   0.846  16.466 -0.5163 -0.6788  0.4661
   85TMC2     H 1328   2.251   1.029  16.422 -1.7016  0.1775 -0.1254
   85TMC2    H1 1329   1.992   0.916  16.107  0.8033 -2.4920  3.5217
   85TMC2    H2 1330   2.241   1.255  16.047 -1.9198  0.4477 -1.2310
   85TMC2    C7 1331   2.189   1.013  15.954  0.6032  0.0366 -0.2518
   85TMC2    C8 1332   2.357   1.233  16.302 -0.4768  0.0265  0.1804
   85TMC2    O1 1333   2.211   0.896  15.979  0.3788  0.1804 -0.2924
   85TMC2    O2 1334   2.354   1.250  16.421  0.3571 -0.1714  0.7258
   85TMC2    O5 1335   2.426   1.296  16.208  0.0660 -0.1541 -0.0488
   85TMC2    H5 1336   2.429   1.264  16.115 -0.4727 -1.7858  0.5056
   86MPD2     C 1337   1.689   0.569  16.538 -0.9642  0.0370 -0.2896
   86MPD2    C1 1338   1.672   0.577  16.403  0.0594  0.4048 -0.0164
   86MPD2    C2 1339   1.763   0.653  16.332 -0.3749 -0.6827 -0.4390
   86MPD2    C3 1340   1.873   0.719  16.391  0.3234 -0.1106  0.7610
   86MPD2    C4 1341   1.895   0.707  16.524 -0.8133 -1.0836 -0.0592
   86MPD2    C5 1342   1.796   0.634  16.592  0.3540  0.1868 -0.1301
   86MPD2     H 1343   1.754   0.652  16.224  2.4716  2.0138 -0.6867
   86MPD2    H1 1344   1.977   0.756  16.574  0.1148 -1.1969 -1.4677
   86MPD2    H2 1345   1.623   0.513  16.603 -1.6785  0.5457 -0.5805
   86MPD2    H3 1346   1.804   0.638  16.700 -0.3447  2.0355 -0.1473
   86MPD2     N 1347   1.963   0.795  16.309  0.6285 -0.0873 -0.3772
   86MPD2    H5 1348   1.947   0.811  16.210 -2.0703 -0.1359  0.0316
   86MPD2    N1 1349   1.560   0.508  16.337  0.3116 -0.2738  0.2193
   86MPD2    H7 1350   1.557   0.503  16.235  2.5606 -1.0296  0.1962
   87TMC2    C1 1351   3.444   3.548   0.616  0.3855  0.4589 -0.0426
   87TMC2    C2 1352   3.321   3.492   0.583 -0.1342  0.2724 -0.1174
   87TMC2    C3 1353   3.212   3.573   0.589 -0.0400 -0.4095 -0.5240
   87TMC2    C4 1354   3.457   3.687   0.629 -0.2378  0.5412  0.1528
   87TMC2    C5 1355   3.341   3.758   0.630  0.1735  0.2111  0.6601
   87TMC2    C6 1356   3.216   3.707   0.611 -0.3606  0.5724  0.6117
   87TMC2     C 1357   3.557   3.461   0.598  0.5082  0.6103 -0.3905
   87TMC2     O 1358   3.535   3.355   0.541  0.2921 -0.3422 -0.1525
   87TMC2     H 1359   3.308   3.385   0.575  2.6534  0.0406 -1.4736
   87TMC2    H1 1360   3.558   3.724   0.631  0.4724 -1.5574  2.8491
   87TMC2    H2 1361   3.126   3.768   0.616 -0.4530  0.4912  0.0136
   87TMC2    C7 1362   3.350   3.894   0.675  0.0343 -0.0138  0.1443
   87TMC2    C8 1363   3.081   3.510   0.590 -0.6450 -0.4570  0.4370
   87TMC2    O1 1364   3.243   3.950   0.680  0.0521  0.2268  0.3246
   87TMC2    O2 1365   3.063   3.395   0.628 -0.1664 -0.3782 -0.5238
   87TMC2    O5 1366   3.024   3.555   0.474  0.5212  0.3389  0.2688
   87TMC2    H5 1367   3.078   3.630   0.440  0.6346  1.5667  3.1785
   88MPD2     C 1368   3.657   4.082   0.779 -0.3432  0.4693  0.2176
   88MPD2    C1 1369   3.518   4.062   0.756  0.2834  0.2209 -0.3638
   88MPD2    C2 1370   3.426   4.165   0.773 -0.4446 -0.7050  0.5057
   88MPD2    C3 1371   3.466   4.288   0.818 -0.0505  1.3185  0.9562
   88MPD2    C4 1372   3.606   4.312   0.824 -1.1654  0.0279 -0.0469
   88MPD2    C5 1373   3.698   4.208   0.811 -0.5666  0.0455  0.8599
   88MPD2     H 1374   3.320   4.155   0.751  0.2275  1.1585 -3.4961
   88MPD2    H1 1375   3.653   4.406   0.849 -0.5764 -0.7477  1.7514
   88MPD2    H2 1376   3.730   4.003   0.761  0.8194  1.8370 -1.0860
   88MPD2    H3 1377   3.803   4.233   0.808 -0.2588 -1.1456  1.3865
   88MPD2     N 1378   3.382   4.396   0.858  0.1465 -0.3452 -0.4011
   88MPD2    H5 1379   3.428   4.485   0.876 -0.6284 -0.3228  1.4375
   88MPD2    N1 1380   3.481   3.935   0.701 -0.9550 -0.0647 -0.2329
   88MPD2    H7 1381   3.551   3.861   0.704 -0.6313  0.3343  2.1563
   89TMC2    C1 1382   4.520   2.766   1.979 -0.8969  0.4238 -0.6154
   89TMC2    C2 1383   4.390   2.762   2.014  0.1935  0.0141 -0.6771
   89TMC2    C3 1384   4.331   2.883   2.041 -0.6863  0.0325 -0.4791
   89TMC2    C4 1385   4.585   2.877   1.935  0.9430 -0.7315 -0.5245
   89TMC2    C5 1386   4.521   2.996   1.958 -0.4471 -0.3091  0.4219
   89TMC2    C6 1387   4.394   3.002   2.014  0.1590  0.4560 -0.0767
   89TMC2     C 1388   4.595   2.642   1.966 -0.7161 -0.0958 -0.1474
   89TMC2     O 1389   4.695   2.645   1.894  0.0122 -0.1258  0.0361
   89TMC2     H 1390   4.342   2.676   2.060  1.3283  0.1599  0.7634
   89TMC2    H1 1391   4.693   2.865   1.936  0.7369 -2.7571 -2.4018
   89TMC2    H2 1392   4.344   3.098   2.012 -0.5881  0.0425 -1.2175
   89TMC2    C7 1393   4.605   3.112   1.979 -0.3142 -0.4168  0.9172
   89TMC2    C8 1394   4.199   2.881   2.094  0.4340  0.3957  0.4160
   89TMC2    O1 1395   4.561   3.193   2.061 -0.0873 -0.5308 -0.3925
   89TMC2    O2 1396   4.173   2.788   2.172 -0.0395  0.5270  0.7084
   89TMC2    O5 1397   4.118   2.932   2.000 -0.2402 -1.3585 -0.3188
   89TMC2    H5 1398   4.161   3.004   1.949 -1.8790  0.4902  0.9080
   90MPD2     C 1399   4.626   2.135   1.923 -0.8586  0.1059  0.6382
   90MPD2    C1 1400   4.523   2.157   2.007 -0.1826  0.1615 -0.0910
   90MPD2    C2 1401   4.497   2.290   2.034  0.3329 -0.1670 -0.2770
   90MPD2    C3 1402   4.575   2.394   1.983 -0.0949 -0.6790 -0.7049
   90MPD2    C4 1403   4.666   2.366   1.887  0.4569 -0.1010 -0.2350
   90MPD2    C5 1404   4.698   2.236   1.859 -0.2127  0.1484  0.1146
   90MPD2     H 1405   4.412   2.314   2.097 -1.6093 -1.1322 -2.5027
   90MPD2    H1 1406   4.721   2.441   1.830  3.1622 -1.4595  0.5773
   90MPD2    H2 1407   4.659   2.034   1.901  1.6855  0.8829  0.9490
   90MPD2    H3 1408   0.047   2.207   1.800 -0.6015  0.1204 -0.4357
   90MPD2     N 1409   4.533   2.523   2.013  0.4167 -0.8286 -0.3232
   90MPD2    H5 1410   4.457   2.530   2.080  1.5863  1.0431  0.8129
   90MPD2    N1 1411   4.446   2.057   2.075  0.2040  0.0274  0.5988
   90MPD2    H7 1412   4.365   2.095   2.123 -0.1146  0.3747 -0.2223
   91TMC2    C1 1413   1.367   1.956  16.412 -0.1774 -0.0178 -0.5066
   91TMC2    C2 1414   1.376   2.027  16.529  0.2882 -0.7783 -0.0278
   91TMC2    C3 1415   1.279   1.996  16.624  0.0914 -0.3429 -0.2049
   91TMC2    C4 1416   1.261   1.873  16.379 -0.7131 -0.0322 -0.1000
   91TMC2    C5 1417   1.162   1.855  16.478  0.8039 -0.0833 -0.4125
   91TMC2    C6 1418   1.169   1.914  16.600  0.1759 -0.2444 -0.2509
   91TMC2     C 1419   1.463   1.996  16.309 -0.5229  0.2224 -0.0084
   91TMC2     O 1420   1.435   1.973  16.194 -0.3160  0.1122  0.4916
   91TMC2     H 1421   1.446   2.108  16.547 -2.5472  1.8687 -0.9292
   91TMC2    H1 1422   1.252   1.826  16.282  1.3790 -0.7682  0.0576
   91TMC2    H2 1423   1.085   1.891  16.664 -0.8986 -1.1951 -2.0075
   91TMC2    C7 1424   1.054   1.761  16.449  0.1116 -0.0248 -0.0815
   91TMC2    C8 1425   1.271   2.077  16.744 -0.6726 -0.1650 -0.2441
   91TMC2    O1 1426   1.003   1.720  16.552  0.9715  0.1540  0.0898
   91TMC2    O2 1427   1.372   2.121  16.797 -0.6677  0.0563  0.0609
   91TMC2    O5 1428   1.142   2.094  16.785 -0.2018  0.4118  0.1998
   91TMC2    H5 1429   1.079   2.049  16.726 -1.2274 -0.0386  1.6258
   92MPD2     C 1430   1.720   2.067  16.169 -0.2215 -0.3212 -0.3048
   92MPD2    C1 1431   1.708   2.063  16.306 -0.9180  0.3686 -0.4785
   92MPD2    C2 1432   1.814   2.076  16.391  0.3714 -0.8799  0.3541
   92MPD2    C3 1433   1.939   2.074  16.333 -0.1928  0.0770  0.7109
   92MPD2    C4 1434   1.957   2.078  16.198  0.4626 -0.4329  0.7999
   92MPD2    C5 1435   1.846   2.079  16.117  0.0039 -0.3916 -0.5222
   92MPD2     H 1436   1.802   2.063  16.498  1.1725 -0.5435  0.4860
   92MPD2    H1 1437   2.057   2.068  16.156  0.4438 -1.8075  1.0939
   92MPD2    H2 1438   1.641   2.067  16.095 -0.6866  0.7970  0.1905
   92MPD2    H3 1439   1.860   2.083  16.010  1.1532  1.8106 -0.2767
   92MPD2     N 1440   2.051   2.058  16.420 -0.1566 -0.2468  0.0087
   92MPD2    H5 1441   2.035   2.050  16.520 -0.7646  0.1440 -0.0584
   92MPD2    N1 1442   1.576   2.032  16.368  0.0895  0.0217 -0.2571
   92MPD2    H7 1443   1.582   2.023  16.469 -0.2200  0.1486 -0.2264
   93TMC2    C1 1444   3.231   2.110  14.534 -0.3314 -1.1383  0.0217
   93TMC2    C2 1445   3.259   2.213  14.612 -0.4997 -0.4672  0.1159
   93TMC2    C3 1446   3.386   2.274  14.600 -0.2529  0.1097 -0.0653
   93TMC2    C4 1447   3.327   2.046  14.462 -0.2117  0.2615 -0.8560
   93TMC2    C5 1448   3.455   2.103  14.459 -0.2462  1.0864  0.5327
   93TMC2    C6 1449   3.488   2.221  14.526  0.0168 -0.0328 -0.1959
   93TMC2     C 1450   3.100   2.041  14.549  0.0978  0.1444  0.2079
   93TMC2     O 1451   3.038   2.055  14.652 -0.1379 -0.4508 -0.0188
   93TMC2     H 1452   3.175   2.269  14.650 -0.1587 -1.3007  2.1136
   93TMC2    H1 1453   3.314   1.948  14.417  1.1748  0.4589 -1.6821
   93TMC2    H2 1454   3.577   2.276  14.497 -2.0231  2.4398 -1.7797
   93TMC2    C7 1455   3.562   2.048  14.374 -0.8487 -0.2396 -0.4757
   93TMC2    C8 1456   3.395   2.410  14.615 -0.3030  0.6455 -0.5274
   93TMC2    O1 1457   3.675   2.086  14.404 -0.0525 -0.3675 -0.2416
   93TMC2    O2 1458   3.469   2.484  14.552 -0.6460 -0.6723 -0.3689
   93TMC2    O5 1459   3.295   2.452  14.700 -0.1274  0.1449 -0.0820
   93TMC2    H5 1460   3.266   2.375  14.755  0.7421  1.1816  1.8154
   94MPD2     C 1461   2.855   1.868  14.536  0.1656  0.4302 -0.3080
   94MPD2    C1 1462   2.948   1.888  14.435  0.0214  0.7990  0.3651
   94MPD2    C2 1463   2.928   1.823  14.315 -0.1142  0.1100  0.0704
   94MPD2    C3 1464   2.821   1.741  14.288  0.3484 -0.9613  0.1671
   94MPD2    C4 1465   2.744   1.714  14.396 -0.1358  0.2303 -0.1779
   94MPD2    C5 1466   2.751   1.789  14.504 -0.3303  0.4814  0.3587
   94MPD2     H 1467   2.994   1.847  14.232 -1.0303  1.5122 -0.2542
   94MPD2    H1 1468   2.669   1.636  14.394  0.7842 -0.5707 -4.7372
   94MPD2    H2 1469   2.871   1.911  14.634 -0.2094 -0.8204  0.2971
   94MPD2    H3 1470   2.697   1.758  14.593 -0.4184  0.0229  0.1471
   94MPD2     N 1471   2.788   1.687  14.159  0.2370 -0.0777 -0.3108
   94MPD2    H5 1472   2.722   1.610  14.152 -1.5221  1.4811 -0.9218
   94MPD2    N1 1473   3.066   1.966  14.443  0.5001 -0.2395  0.1697
   94MPD2    H7 1474   3.131   1.961  14.365 -1.9650  1.0516 -1.9854
   95TMC2    C1 1475   3.382   3.446  16.523  0.3572 -0.1660 -0.4435
   95TMC2    C2 1476   3.335   3.322  16.554  0.5652  0.5178 -0.2978
   95TMC2    C3 1477   3.278   3.323  16.677 -0.2251 -0.3596  0.1121
   95TMC2    C4 1478   3.370   3.556  16.600 -0.2105 -0.5631  0.4137
   95TMC2    C5 1479   3.333   3.538  16.733  0.3062 -0.1616 -0.6874
   95TMC2    C6 1480   3.279   3.420  16.772 -0.9231 -0.5339  0.5810
   95TMC2     C 1481   3.427   3.475  16.386 -0.5443 -0.8407 -0.5056
   95TMC2     O 1482   3.480   3.583  16.367 -0.5890 -0.1541  0.0250
   95TMC2     H 1483   3.343   3.235  16.490 -1.8815  2.5354 -3.3455
   95TMC2    H1 1484   3.413   3.652  16.574 -2.9789 -0.1274 -2.5179
   95TMC2    H2 1485   3.248   3.397  16.874  0.3148 -0.7396  0.9098
   95TMC2    C7 1486   3.329   3.650  16.822 -0.3690 -1.0943  0.5063
   95TMC2    C8 1487   3.167   3.233  16.698  0.2832 -0.0939  0.6883
   95TMC2    O1 1488   3.309   3.764  16.778  0.5135 -0.6560 -0.3114
   95TMC2    O2 1489   3.143   3.135  16.630  0.0549  0.6213 -0.1404
   95TMC2    O5 1490   3.073   3.316  16.737 -0.1879 -0.1377  0.1159
   95TMC2    H5 1491   3.101   3.410  16.747 -0.3897  0.1089 -1.7791
   96MPD2     C 1492   3.496   3.374  15.879 -0.4760 -0.0372 -0.4048
   96MPD2    C1 1493   3.552   3.470  15.957  0.2789  0.1391 -1.0773
   96MPD2    C2 1494   3.522   3.471  16.093 -0.1831  0.2969 -0.3335
   96MPD2    C3 1495   3.447   3.378  16.161  0.7567 -0.1443 -0.7307
   96MPD2    C4 1496   3.397   3.288  16.076  0.5407  0.1465  0.7572
   96MPD2    C5 1497   3.416   3.286  15.941  0.2195 -0.0512  0.1032
   96MPD2     H 1498   3.572   3.542  16.158  0.6552 -1.0659  0.5250
   96MPD2    H1 1499   3.324   3.223  16.124  1.5398 -0.2058  1.7939
   96MPD2    H2 1500   3.519   3.371  15.773  0.2445  2.0238 -0.2994
   96MPD2    H3 1501   3.368   3.204  15.888  2.2965 -1.1686 -0.0360
   96MPD2     N 1502   3.403   3.377  16.290 -0.1900  1.0313  0.4323
   96MPD2    H5 1503   3.358   3.289  16.315  1.2919 -0.3984 -1.9590
   96MPD2    N1 1504   3.624   3.565  15.885 -0.7062 -0.3893 -0.0774
   96MPD2    H7 1505   3.621   3.560  15.784 -0.2495  0.4590 -0.1376
   97TMC2    C1 1506   1.154   1.551   0.205 -0.5528 -0.5559 -0.6129
   97TMC2    C2 1507   1.196   1.535   0.077 -0.2652  0.6513 -1.5152
   97TMC2    C3 1508   1.175   1.642  17.738  0.2184  0.6103 -0.0874
   97TMC2    C4 1509   1.098   1.666   0.251 -0.0788 -0.9299  0.1856
   97TMC2    C5 1510   1.091   1.770   0.166 -0.3922 -0.2973  0.6872
   97TMC2    C6 1511   1.122   1.764   0.027  0.5944 -0.7903 -0.4046
   97TMC2     C 1512   1.128   1.435   0.286  0.6546  0.5735 -0.6569
   97TMC2     O 1513   1.065   1.446   0.393 -1.0484  0.4988  0.0390
   97TMC2     H 1514   1.226   1.439   0.035 -0.0219 -0.5997  1.5208
   97TMC2    H1 1515   1.060   1.676   0.352 -1.1806  1.7234 -0.4923
   97TMC2    H2 1516   1.123   1.850  17.708 -2.0714 -0.9678 -0.7020
   97TMC2    C7 1517   1.071   1.902   0.235  0.1752  0.1115  0.3257
   97TMC2    C8 1518   1.185   1.608  17.589  0.1482 -0.3664 -0.7057
   97TMC2    O1 1519   1.122   1.925   0.343  0.3430 -0.2428  0.8268
   97TMC2    O2 1520   1.232   1.505  17.545 -0.0063 -0.3587 -0.9758
   97TMC2    O5 1521   1.086   1.675  17.529 -0.1410 -0.3239 -0.3094
   97TMC2    H5 1522   1.076   1.761  17.573  1.7705 -0.6885  0.8260
   98MPD2     C 1523   1.087   0.924   0.372  0.5339  0.2106 -0.7421
   98MPD2    C1 1524   1.025   1.025   0.434 -0.5800  0.2917  0.0113
   98MPD2    C2 1525   1.057   1.150   0.388 -0.2299 -0.4937  0.3360
   98MPD2    C3 1526   1.144   1.184   0.285 -0.7766  0.9137  0.1185
   98MPD2    C4 1527   1.212   1.075   0.235 -0.6055 -0.7476 -0.3528
   98MPD2    C5 1528   1.180   0.947   0.271  0.5354 -0.2266 -0.3599
   98MPD2     H 1529   1.015   1.233   0.444  3.4103  2.0586 -0.7138
   98MPD2    H1 1530   1.287   1.091   0.159  0.3104 -3.2736  0.0265
   98MPD2    H2 1531   1.058   0.823   0.398 -0.9364  1.1784  1.3821
   98MPD2    H3 1532   1.223   0.858   0.227 -1.7695 -1.3592 -0.2926
   98MPD2     N 1533   1.171   1.315   0.233 -0.6896  0.2047 -0.6727
   98MPD2    H5 1534   1.232   1.325   0.152 -1.0615  0.6799 -0.8954
   98MPD2    N1 1535   0.941   0.997   0.546  0.6336  0.2915 -0.0640
   98MPD2    H7 1536   0.908   0.902   0.561 -2.5074  1.2283 -0.9356
   99TMC2    C1 1537   4.659   3.260   1.381 -0.6321 -0.5270 -1.1211
   99TMC2    C2 1538   0.018   3.344   1.430  0.3120  0.5321 -0.3290
   99TMC2    C3 1539   4.723   3.479   1.437  0.9614  0.4338  0.0476
   99TMC2    C4 1540   4.543   3.306   1.326  0.2297 -0.2005  0.0590
   99TMC2    C5 1541   4.522   3.446   1.320 -0.7472  0.1349 -0.1183
   99TMC2    C6 1542   4.603   3.530   1.393  0.5412  0.9285  0.1076
   99TMC2     C 1543   4.690   3.113   1.358 -0.6121  0.2263 -0.5774
   99TMC2     O 1544   0.048   3.061   1.413 -0.5032 -0.3463 -0.0273
   99TMC2     H 1545   0.117   3.304   1.450 -0.4582 -1.3337 -0.2812
   99TMC2    H1 1546   4.465   3.242   1.287  1.2910 -1.2821 -0.2535
   99TMC2    H2 1547   4.599   3.639   1.394 -0.3815  0.8957  0.0522
   99TMC2    C7 1548   4.399   3.521   1.277  0.4226 -0.7334  0.5534
   99TMC2    C8 1549   0.064   3.568   1.517  0.2658 -0.1304  0.1734
   99TMC2    O1 1550   4.409   3.642   1.271  0.3874 -0.3567 -0.4301
   99TMC2    O2 1551   0.118   3.667   1.476  0.4553 -0.0507 -0.5980
   99TMC2    O5 1552   4.734   3.582   1.633  0.2738 -0.7178  0.7759
   99TMC2    H5 1553   4.677   3.510   1.669 -0.9311 -0.5593 -0.7874
  100MPD2     C 1554   4.682   2.822   1.277  0.5570  0.2917 -0.0487
  100MPD2    C1 1555   4.625   2.930   1.211  0.1201  0.8415  0.0058
  100MPD2    C2 1556   4.564   2.898   1.090  0.1922 -0.6984 -0.9888
  100MPD2    C3 1557   4.553   2.771   1.031 -0.6512  0.4316  0.7408
  100MPD2    C4 1558   4.606   2.671   1.108 -0.0607 -0.2317  0.0708
  100MPD2    C5 1559   4.674   2.696   1.223 -0.8123 -0.0150  0.1810
  100MPD2     H 1560   4.514   2.978   1.037 -0.5533 -0.4002  0.1668
  100MPD2    H1 1561   4.591   2.564   1.099 -1.0581 -0.2508  1.9312
  100MPD2    H2 1562   4.735   2.832   1.370  2.1695  0.5873 -0.9989
  100MPD2    H3 1563   4.693   2.609   1.286 -0.4409  1.3393  1.9339
  100MPD2     N 1564   4.473   2.749   0.914 -0.1158  0.2590 -0.1766
  100MPD2    H5 1565   4.432   2.831   0.870  0.6130  0.9573  0.4242
  100MPD2    N1 1566   4.616   3.062   1.258  0.4404  0.3966 -0.2629
  100MPD2    H7 1567   4.566   3.124   1.195 -0.3691 -0.0038 -0.0229
  101TMC2    C1 1568   0.759   3.782  13.364 -0.5708  0.0503  0.7899
  101TMC2    C2 1569   0.811   3.689  13.278 -0.5765  0.1034 -0.0212
  101TMC2    C3 1570   0.874   3.743  13.175  0.7365  0.9889 -0.4131
  101TMC2    C4 1571   0.765   3.922  13.342 -0.3976 -0.4673 -0.4939
  101TMC2    C5 1572   0.826   3.966  13.229 -0.2007  0.4452 -0.2799
  101TMC2    C6 1573   0.883   3.879  13.147 -0.1670  0.7680 -0.2343
  101TMC2     C 1574   0.652   3.735  13.453 -0.0567 -0.4774  0.2041
  101TMC2     O 1575   0.564   3.810  13.483 -0.0231  0.0723  0.2285
  101TMC2     H 1576   0.792   3.583  13.291  3.4080 -0.3525  2.2823
  101TMC2    H1 1577   0.714   3.994  13.405 -0.4735 -0.8753 -0.0933
  101TMC2    H2 1578   0.910   3.920  13.051  0.4223 -2.0769 -1.2760
  101TMC2    C7 1579   0.871   4.104  13.213 -0.1464  0.7396 -0.4515
  101TMC2    C8 1580   0.876   3.660  13.052  0.1946 -0.6086 -0.0536
  101TMC2    O1 1581   0.888   4.141  13.100  0.0631 -0.3959 -0.6625
  101TMC2    O2 1582   0.806   3.560  13.047  0.5619 -0.3785  0.6966
  101TMC2    O5 1583   0.984   3.684  12.979 -0.0998  0.9252  0.2639
  101TMC2    H5 1584   1.038   3.764  12.996  1.6360 -0.5002  1.4721
  102MPD2     C 1585   0.701   3.474  13.703  0.0332 -0.2414  0.1791
  102MPD2    C1 1586   0.626   3.557  13.628  0.0015 -0.5876  0.4013
  102MPD2    C2 1587   0.498   3.585  13.663  0.1913 -0.0985 -0.4205
  102MPD2    C3 1588   0.445   3.522  13.775  0.4425 -0.2992 -0.5491
  102MPD2    C4 1589   0.518   3.439  13.847  0.4711 -0.4335 -0.1799
  102MPD2    C5 1590   0.648   3.415  13.818  0.7387  0.2009  0.0251
  102MPD2     H 1591   0.435   3.658  13.613  0.5125  1.7177  1.8204
  102MPD2    H1 1592   0.463   3.367  13.906  0.0322 -1.3626 -1.7111
  102MPD2    H2 1593   0.803   3.454  13.673  0.0999  0.9825 -0.4206
  102MPD2    H3 1594   0.703   3.343  13.878  0.0087 -0.6086 -0.2694
  102MPD2     N 1595   0.303   3.529  13.787  0.0589  0.3002 -0.1056
  102MPD2    H5 1596   0.265   3.587  13.714  2.3075  1.7945 -0.1138
  102MPD2    N1 1597   0.695   3.626  13.519 -0.2451  0.2083 -0.5153
  102MPD2    H7 1598   0.795   3.606  13.517  0.2101  2.1620  1.5119
  103TMC2    C1 1599   2.871   3.747  12.690 -0.0532  0.6061  0.0218
  103TMC2    C2 1600   2.946   3.827  12.603  0.5363 -0.0748  0.3420
  103TMC2    C3 1601   3.040   3.908  12.663  0.1508 -0.2486 -0.3778
  103TMC2    C4 1602   2.892   3.743  12.825  0.0473  0.1401  0.3716
  103TMC2    C5 1603   2.987   3.828  12.878  0.2562  0.1749 -0.0385
  103TMC2    C6 1604   3.067   3.899  12.796  0.5110 -0.2234  0.3169
  103TMC2     C 1605   2.738   3.704  12.650 -0.1343  0.3448  0.4976
  103TMC2     O 1606   2.670   3.648  12.734 -0.7436  0.2343 -0.0262
  103TMC2     H 1607   2.954   3.802  12.498 -0.6564  0.5431  0.0947
  103TMC2    H1 1608   2.823   3.701  12.897 -1.5498  4.0971  1.1319
  103TMC2    H2 1609   3.147   3.958  12.837  2.3661 -0.7746 -2.4969
  103TMC2    C7 1610   2.984   3.850  13.022 -0.4500  0.3215 -0.0725
  103TMC2    C8 1611   3.146   3.965  12.578 -0.2213  0.2654  0.1330
  103TMC2    O1 1612   2.920   3.771  13.090 -0.1676 -0.7840 -0.5396
  103TMC2    O2 1613   3.171   3.913  12.473  0.4403 -0.0973  0.3626
  103TMC2    O5 1614   3.226   4.047  12.650 -0.6205 -0.3832  0.3805
  103TMC2    H5 1615   3.188   4.083  12.733  0.5799 -0.1130  0.8110
  104MPD2     C 1616   2.479   3.634  12.530 -0.4614  0.2073 -0.3415
  104MPD2    C1 1617   2.569   3.709  12.469 -0.2345 -0.3986 -0.4479
  104MPD2    C2 1618   2.529   3.789  12.361  0.2013  0.8092 -0.0451
  104MPD2    C3 1619   2.398   3.773  12.311 -0.6197 -0.1745  0.3519
  104MPD2    C4 1620   2.309   3.692  12.373 -0.1499 -0.2862 -0.0196
  104MPD2    C5 1621   2.351   3.623  12.485 -0.0754  0.0421  0.0513
  104MPD2     H 1622   2.604   3.848  12.308  0.1469  0.3106 -0.6842
  104MPD2    H1 1623   2.205   3.689  12.340 -0.2183 -0.5271  0.2100
  104MPD2    H2 1624   2.507   3.570  12.613 -1.3508 -1.5573 -1.4053
  104MPD2    H3 1625   2.271   3.560  12.522  0.5613 -1.7169 -1.5810
  104MPD2     N 1626   2.364   3.846  12.190  0.1910  0.6183  0.3307
  104MPD2    H5 1627   2.433   3.906  12.146 -0.5063  0.2470 -1.2417
  104MPD2    N1 1628   2.698   3.731  12.518  0.3900  0.1630 -0.5475
  104MPD2    H7 1629   2.763   3.784  12.461 -0.4134 -0.6261 -2.1649
  105TMC2    C1 1630   4.321   3.030   0.256  0.2638 -0.7307 -0.4587
  105TMC2    C2 1631   4.230   3.018   0.153  0.9077  0.9417  0.1298
  105TMC2    C3 1632   4.096   3.028   0.184 -0.1795 -0.0462 -0.4838
  105TMC2    C4 1633   4.284   3.062   0.385  0.3831  0.4404 -0.0186
  105TMC2    C5 1634   4.149   3.075   0.410  0.5931 -0.1918  0.5462
  105TMC2    C6 1635   4.052   3.057   0.304 -0.6985  0.0246 -0.2758
  105TMC2     C 1636   4.462   3.030   0.234  0.4267 -0.0552 -0.1913
  105TMC2     O 1637   4.534   3.008   0.333 -0.4788  0.9240 -0.8360
  105TMC2     H 1638   4.266   2.978   0.059 -0.2668 -0.9710  0.4841
  105TMC2    H1 1639   4.354   3.066   0.469  0.9686 -2.9030 -0.3222
  105TMC2    H2 1640   3.946   3.062   0.325 -0.3288  1.6616  1.3052
  105TMC2    C7 1641   4.116   3.119   0.545 -0.2590 -0.1002 -0.1429
  105TMC2    C8 1642   3.999   3.031   0.077  0.0924  0.2459 -0.2258
  105TMC2    O1 1643   4.209   3.120   0.624 -0.0682 -0.1161 -0.2743
  105TMC2    O2 1644   3.878   3.016   0.091 -0.3810 -0.0250 -0.2123
  105TMC2    O5 1645   4.056   3.085  17.712 -0.2043  0.1779  0.2171
  105TMC2    H5 1646   4.151   3.108  17.722 -0.1506 -0.0195  0.1404
  106MPD2     C 1647   0.145   3.196  17.734 -1.0970  0.3423 -0.6330
  106MPD2    C1 1648   0.036   3.257  17.681  0.0740  0.1464 -0.3291
  106MPD2    C2 1649   4.648   3.215  17.719 -0.4718  0.0131 -0.1004
  106MPD2    C3 1650   4.621   3.116   0.065 -0.4964  0.0605  0.2643
  106MPD2    C4 1651   4.736   3.052   0.115 -0.2285 -0.5642  0.4490
  106MPD2    C5 1652   0.128   3.088   0.073 -0.5583  0.6806  0.0547
  106MPD2     H 1653   4.573   3.271  17.665 -1.0031  1.0864  1.7547
  106MPD2    H1 1654   4.726   2.976   0.191  2.4994 -2.3410 -0.9665
  106MPD2    H2 1655   0.246   3.231  17.715 -0.8812  0.3327  0.4829
  106MPD2    H3 1656   0.209   3.054   0.136  1.0355  0.8922 -1.9062
  106MPD2     N 1657   4.489   3.088   0.113  0.1185  0.5762  0.2035
  106MPD2    H5 1658   4.415   3.125   0.054  0.1952 -1.7547 -1.3554
  106MPD2    N1 1659   0.055   3.356  17.582 -0.3471  1.0922  0.8608
  106MPD2    H7 1660   4.705   3.404  17.563  0.3055  1.1676 -1.9733
  107TMC2    C1 1661   0.352   3.081  11.805 -0.0862  0.1108 -0.3657
  107TMC2    C2 1662   0.260   3.168  11.756  0.5855  0.4111  0.2164
  107TMC2    C3 1663   0.301   3.251  11.658  0.0215  0.6667 -0.6640
  107TMC2    C4 1664   0.477   3.069  11.748  0.1036  0.1156 -0.7415
  107TMC2    C5 1665   0.514   3.150  11.649  0.6371 -0.1886  0.1821
  107TMC2    C6 1666   0.426   3.240  11.607 -0.8349 -0.3208  0.4706
  107TMC2     C 1667   0.343   3.029  11.939  0.1550 -0.6078  0.4412
  107TMC2     O 1668   0.253   3.069  12.007 -0.1590 -0.1769 -0.2113
  107TMC2     H 1669   0.163   3.177  11.803  0.4058 -1.8709  0.2515
  107TMC2    H1 1670   0.550   2.999  11.788  0.3417  0.7844 -0.0140
  107TMC2    H2 1671   0.453   3.309  11.527 -3.6403  0.1323 -0.1126
  107TMC2    C7 1672   0.637   3.117  11.570  0.1372 -0.1792  0.3751
  107TMC2    C8 1673   0.203   3.317  11.576  0.2347 -1.0982 -0.1413
  107TMC2    O1 1674   0.696   3.214  11.525  0.5573  0.0495  0.3781
  107TMC2    O2 1675   0.228   3.340  11.462  0.3531  0.5281  0.2057
  107TMC2    O5 1676   0.077   3.310  11.626  0.0696  0.0164 -0.3541
  107TMC2    H5 1677   0.068   3.287  11.721 -1.3249  0.4835 -0.3757
  108MPD2     C 1678   0.517   2.780  12.143  0.5173 -0.6742 -0.0311
  108MPD2    C1 1679   0.438   2.890  12.122 -0.0374  0.2883  0.0588
  108MPD2    C2 1680   0.359   2.945  12.228 -0.2107 -0.2947  0.8470
  108MPD2    C3 1681   0.363   2.892  12.356 -0.4162 -0.2958  0.6198
  108MPD2    C4 1682   0.445   2.782  12.377  0.2026 -0.1618 -0.1945
  108MPD2    C5 1683   0.523   2.725  12.271 -0.2362 -0.1871 -0.1571
  108MPD2     H 1684   0.279   3.016  12.206  1.6332  1.7724  0.8175
  108MPD2    H1 1685   0.454   2.743  12.478  0.1394 -1.1430 -0.5697
  108MPD2    H2 1686   0.569   2.730  12.062 -0.7623 -0.5593 -0.9204
  108MPD2    H3 1687   0.581   2.637  12.294  0.1560 -0.1551 -1.0539
  108MPD2     N 1688   0.294   2.933  12.472 -0.3527  0.0765 -0.0024
  108MPD2    H5 1689   0.317   2.878  12.554 -1.5484 -0.8222 -0.2664
  108MPD2    N1 1690   0.441   2.945  11.991  0.2229  0.4856 -0.3665
  108MPD2    H7 1691   0.505   2.894  11.932 -0.2877  0.8405 -1.2208
  109TMC2    C1 1692   0.008   0.147   0.583  0.2650  0.6353 -1.1565
  109TMC2    C2 1693   0.008   0.154   0.445  0.0757  0.0937  0.4052
  109TMC2    C3 1694   0.119   0.200   0.386 -1.2868  0.0156  0.4082
  109TMC2    C4 1695   0.113   0.193   0.663  0.2610 -0.2756  0.1291
  109TMC2    C5 1696   0.219   0.251   0.597 -0.2136 -0.0621  0.0481
  109TMC2    C6 1697   0.223   0.247   0.463 -0.1934  0.1179  0.2159
  109TMC2     C 1698   4.611   0.131   0.642  0.5517 -1.1351  0.0926
  109TMC2     O 1699   4.512   0.107   0.569  0.0169 -0.4734  0.5768
  109TMC2     H 1700   4.663   0.122   0.382  2.2723 -1.7274 -1.5348
  109TMC2    H1 1701   0.121   0.173   0.769 -1.1014  1.1157  0.4911
  109TMC2    H2 1702   0.283   0.321   0.413  1.9774 -1.3689  0.6306
  109TMC2    C7 1703   0.290   0.356   0.660 -0.5928 -0.2547  0.1153
  109TMC2    C8 1704   0.111   0.219   0.246 -0.9576  0.1302  0.0043
  109TMC2    O1 1705   0.377   0.408   0.591 -0.1313  0.0950 -0.1189
  109TMC2    O2 1706   0.069   0.118   0.188 -0.0355  0.1154 -0.2736
  109TMC2    O5 1707   0.023   0.316   0.248 -1.0515  0.2986 -0.6903
  109TMC2    H5 1708   0.034   0.359   0.335  1.8620 -0.2143 -0.8007
  110MPD2     C 1709   4.296   0.191   1.038  0.2037  0.4868  0.2856
  110MPD2    C1 1710   4.413   0.263   1.055  0.3792 -0.1852  0.1509
  110MPD2    C2 1711   4.515   0.250   0.967 -0.3239 -0.1648 -0.3138
  110MPD2    C3 1712   4.495   0.182   0.851  0.4519  0.3804  0.0224
  110MPD2    C4 1713   4.386   0.106   0.835  0.8442  0.2633  0.8512
  110MPD2    C5 1714   4.282   0.113   0.925 -0.4831 -0.1574 -0.1063
  110MPD2     H 1715   4.599   0.318   0.958  2.7931 -3.5750  2.6208
  110MPD2    H1 1716   4.365   0.037   0.754 -0.0091 -0.2151  1.4793
  110MPD2    H2 1717   4.225   0.197   1.120 -0.0053  1.1062  0.0616
  110MPD2    H3 1718   4.192   0.059   0.898 -0.6335  1.3911 -2.7257
  110MPD2     N 1719   4.615   0.167   0.774 -0.3644  0.0937  0.1815
  110MPD2    H5 1720   4.700   0.177   0.828  0.6418 -0.3742 -1.3306
  110MPD2    N1 1721   4.427   0.347   1.164  0.3755  0.0165 -0.1162
  110MPD2    H7 1722   4.344   0.363   1.220  1.6992  0.1831  1.7811
  111TMC2    C1 1723   0.372   4.640  11.968 -0.0665 -0.2060  0.0989
  111TMC2    C2 1724   0.265   4.671  12.050  0.0215 -0.5471  0.1789
  111TMC2    C3 1725   0.288   4.699  12.182  0.4338  0.0592  0.6915
  111TMC2    C4 1726   0.495   4.632  12.025  0.3825  0.0989  0.0394
  111TMC2    C5 1727   0.511   4.651  12.161 -0.4909  0.5027 -0.1631
  111TMC2    C6 1728   0.410   4.689  12.243 -0.1385 -0.4179  0.3565
  111TMC2     C 1729   0.369   4.671  11.823  0.1274 -0.8609  0.3566
  111TMC2     O 1730   0.460   0.003  11.785 -0.3604 -0.4288 -0.1666
  111TMC2     H 1731   0.163   4.678  12.013  0.3517  0.1174 -0.5961
  111TMC2    H1 1732   0.580   4.594  11.970  1.1611 -1.4740  2.3373
  111TMC2    H2 1733   0.414   4.706  12.350 -0.2456 -0.3814  0.3551
  111TMC2    C7 1734   0.636   4.644  12.232  0.0216 -0.6611  0.6456
  111TMC2    C8 1735   0.177   4.733  12.273 -0.3306  0.0110  1.3695
  111TMC2    O1 1736   0.629   4.617  12.350  0.0855 -0.0807  0.6166
  111TMC2    O2 1737   0.180   4.705  12.390 -0.3910  0.3831  0.1688
  111TMC2    O5 1738   0.084   0.067  12.211 -0.3381 -0.3429  0.5720
  111TMC2    H5 1739   0.115   0.095  12.122  0.9835  1.9334  1.7770
  112MPD2     C 1740   0.098   0.127  11.440 -0.9215  0.2087 -0.4304
  112MPD2    C1 1741   0.226   0.126  11.469  0.5483  0.6997 -0.6200
  112MPD2    C2 1742   0.277   0.070  11.580  0.3686 -0.2506  0.9103
  112MPD2    C3 1743   0.195   0.014  11.672 -0.4916  0.2502 -0.3400
  112MPD2    C4 1744   0.061   4.736  11.638  0.3285  0.0183 -0.4011
  112MPD2    C5 1745   0.011   0.058  11.518 -0.0718 -0.0415  0.1858
  112MPD2     H 1746   0.385   0.074  11.586  0.4263 -1.7196  0.6760
  112MPD2    H1 1747   4.726   4.676  11.693  1.3559 -1.3026 -0.4952
  112MPD2    H2 1748   0.053   0.169  11.351  2.4489  0.4595 -2.0232
  112MPD2    H3 1749   4.643   0.055  11.490  0.5784  0.8176 -2.3692
  112MPD2     N 1750   0.237   4.682  11.782 -0.2580  0.5368 -0.1227
  112MPD2    H5 1751   0.160   4.657  11.843  1.0240 -0.1167  1.2014
  112MPD2    N1 1752   0.322   0.188  11.383 -0.3389  0.0795 -0.0813
  112MPD2    H7 1753   0.421   0.192  11.405 -0.4687  0.1980  0.4783
  113TMC2    C1 1754   2.904   3.320   0.937  0.3250  0.5977  0.0557
  113TMC2    C2 1755   2.780   3.358   0.984 -0.3336 -0.2082  0.0200
  113TMC2    C3 1756   2.675   3.272   0.985 -0.0058 -0.1797 -0.4904
  113TMC2    C4 1757   2.919   3.197   0.883 -0.2338  0.3427  0.1078
  113TMC2    C5 1758   2.813   3.112   0.891 -0.3495  0.1834 -0.2663
  113TMC2    C6 1759   2.685   3.144   0.941  0.1527 -0.2468 -0.8000
  113TMC2     C 1760   3.013   3.417   0.951  0.5100 -0.3412 -0.5052
  113TMC2     O 1761   2.982   3.533   0.950 -0.2028 -0.1389  0.2088
  113TMC2     H 1762   2.765   3.464   1.005 -1.5989 -0.7861  2.0132
  113TMC2    H1 1763   3.017   3.161   0.855 -0.3220  0.5338 -0.4352
  113TMC2    H2 1764   2.610   3.066   0.940  0.1337 -0.1940 -2.6674
  113TMC2    C7 1765   2.844   2.977   0.854 -0.3417  0.6313 -0.3844
  113TMC2    C8 1766   2.549   3.323   1.037 -0.1368  0.5365 -0.0892
  113TMC2    O1 1767   2.904   2.956   0.748  0.3478  0.7642 -0.2410
  113TMC2    O2 1768   2.542   3.446   1.053 -0.0221  0.2626 -0.1831
  113TMC2    O5 1769   2.501   3.232   1.121 -0.1011  0.2450  0.7727
  113TMC2    H5 1770   2.531   3.139   1.109  0.2670  0.3720  0.7220
  114MPD2     C 1771   3.499   3.543   0.999 -0.3660  0.0610  0.1964
  114MPD2    C1 1772   3.393   3.622   1.020 -0.0982 -0.3646  0.0869
  114MPD2    C2 1773   3.271   3.562   0.997  0.8406  0.4124  0.1281
  114MPD2    C3 1774   3.257   3.427   0.961 -0.0834  0.4868  0.1396
  114MPD2    C4 1775   3.373   3.352   0.956  0.2969 -0.7805  0.2702
  114MPD2    C5 1776   3.485   3.412   0.969 -0.1670 -0.2472  0.4042
  114MPD2     H 1777   3.181   3.621   1.012  0.6614  0.2518 -0.3223
  114MPD2    H1 1778   3.348   3.254   0.916  0.2317 -0.9167  0.6429
  114MPD2    H2 1779   3.599   3.583   1.012 -0.2090 -0.7627  1.5219
  114MPD2    H3 1780   3.576   3.356   0.951 -0.7299 -1.0883  0.1476
  114MPD2     N 1781   3.134   3.354   0.959  0.1059 -0.1517  0.1376
  114MPD2    H5 1782   3.130   3.253   0.951  0.0868 -0.0375 -1.1904
  114MPD2    N1 1783   3.395   3.760   1.055  0.5370 -0.4718 -0.0072
  114MPD2    H7 1784   3.301   3.787   1.084 -0.0504  0.8221 -3.0264
  115TMC2    C1 1785   4.424   0.553   0.244 -0.3417 -0.8598 -0.8821
  115TMC2    C2 1786   4.494   0.496   0.341  0.3039  0.2993 -0.0629
  115TMC2    C3 1787   4.529   0.568   0.451 -0.1195 -0.9271 -0.0265
  115TMC2    C4 1788   4.390   0.687   0.241 -0.2233 -0.9011  0.0738
  115TMC2    C5 1789   4.421   0.757   0.355  1.2023 -0.4537  0.4265
  115TMC2    C6 1790   4.491   0.699   0.463 -0.2278  0.0020 -0.2216
  115TMC2     C 1791   4.352   0.455   0.158  0.3249  0.3527 -0.2120
  115TMC2     O 1792   4.255   0.494   0.087 -0.1236 -0.2446 -0.4405
  115TMC2     H 1793   4.508   0.390   0.362 -0.1859  0.3394  0.4695
  115TMC2    H1 1794   4.332   0.730   0.160  0.5311 -2.3189 -1.2060
  115TMC2    H2 1795   4.519   0.748   0.555 -1.4751 -0.7028  0.5384
  115TMC2    C7 1796   4.391   0.902   0.358 -0.0669  0.7920 -0.0346
  115TMC2    C8 1797   4.647   0.527   0.513 -0.0690  0.4270  0.1210
  115TMC2    O1 1798   4.395   0.954   0.469  0.3057  0.1376 -0.1782
  115TMC2    O2 1799   0.005   0.475   0.451  0.3968 -0.5753  0.0125
  115TMC2    O5 1800   4.601   0.480   0.631  0.2174 -0.3474  0.3904
  115TMC2    H5 1801   4.519   0.523   0.663 -0.4037 -0.2083 -1.3620
  116MPD2     C 1802   4.285   4.706   0.024  0.6079  0.7069  0.2466
  116MPD2    C1 1803   4.196   0.073   0.041  0.4478 -0.1884  0.2999
  116MPD2    C2 1804   4.244   0.196   0.079 -0.8531  0.6950 -0.0692
  116MPD2    C3 1805   4.375   0.218   0.108  0.6093  0.3883  0.4396
  116MPD2    C4 1806   4.457   0.108   0.095 -0.1266 -0.0653 -0.3602
  116MPD2    C5 1807   4.418   4.726   0.051 -0.1421 -0.7403 -0.1923
  116MPD2     H 1808   4.167   0.273   0.084 -1.9413 -0.3928  0.0153
  116MPD2    H1 1809   4.553   0.118   0.144  0.5345  1.1439 -1.8923
  116MPD2    H2 1810   4.251   4.612  17.729 -0.2830  0.7176  0.9371
  116MPD2    H3 1811   4.498   4.658   0.024 -1.4507 -1.9122 -1.0807
  116MPD2     N 1812   4.431   0.344   0.142 -0.1484 -0.8327  0.3888
  116MPD2    H5 1813   4.530   0.353   0.161 -0.5352  2.9085  0.6618
  116MPD2    N1 1814   4.064   0.053   0.004 -0.1327 -0.6041 -0.4385
  116MPD2    H7 1815   4.049   4.710  17.691  0.2092 -1.3812  0.5161
  117TMC2    C1 1816   2.380   2.138  14.268 -0.5191 -0.6912 -0.6604
  117TMC2    C2 1817   2.361   2.056  14.375  0.8987 -0.2096  0.2957
  117TMC2    C3 1818   2.462   2.049  14.468  0.6584 -0.4978 -1.1157
  117TMC2    C4 1819   2.493   2.216  14.260 -0.1292  0.1736  0.3306
  117TMC2    C5 1820   2.588   2.210  14.357  0.0601  0.1706  0.8686
  117TMC2    C6 1821   2.584   2.115  14.455 -0.1426  0.3435  0.1151
  117TMC2     C 1822   2.281   2.144  14.169  0.4613 -0.0247  0.0416
  117TMC2     O 1823   2.327   2.126  14.059  0.7554 -0.0659  0.7916
  117TMC2     H 1824   2.274   1.993  14.383  0.3771  0.2195 -2.0174
  117TMC2    H1 1825   2.510   2.274  14.169 -0.2765  1.1354  0.9112
  117TMC2    H2 1826   2.654   2.118  14.538  0.5615 -0.5791 -0.4571
  117TMC2    C7 1827   2.675   2.328  14.373 -0.2013  0.2389  0.3717
  117TMC2    C8 1828   2.450   1.958  14.582 -0.6299  0.2564 -0.2020
  117TMC2    O1 1829   2.771   2.323  14.448  0.0144 -0.2364 -0.5049
  117TMC2    O2 1830   2.522   1.972  14.677  0.6553 -0.5326 -0.5305
  117TMC2    O5 1831   2.411   1.838  14.538 -0.6043 -0.3630 -0.3807
  117TMC2    H5 1832   2.401   1.835  14.440 -0.0301  2.0745 -0.5186
  118MPD2     C 1833   2.608   2.656  14.216 -0.6094 -0.0752  0.6351
  118MPD2    C1 1834   2.683   2.559  14.282 -0.0348 -0.0414 -0.4957
  118MPD2    C2 1835   2.814   2.593  14.317 -0.3356  0.3143 -0.5255
  118MPD2    C3 1836   2.867   2.712  14.281 -0.1363 -0.1249  0.0642
  118MPD2    C4 1837   2.786   2.811  14.226 -0.3686 -0.4467 -0.2483
  118MPD2    C5 1838   2.656   2.781  14.188 -0.3363  0.2882  0.1242
  118MPD2     H 1839   2.878   2.515  14.358  1.3607  0.5924 -2.6094
  118MPD2    H1 1840   2.836   2.904  14.205 -0.5121 -0.3628 -0.2173
  118MPD2    H2 1841   2.511   2.629  14.176 -0.8453  3.4162 -1.1490
  118MPD2    H3 1842   2.604   2.855  14.129  1.0370  0.1215 -1.2948
  118MPD2     N 1843   3.006   2.750  14.302  0.7160 -0.5963 -1.1939
  118MPD2    H5 1844   3.034   2.843  14.273  1.2498 -0.1521  0.8028
  118MPD2    N1 1845   2.626   2.432  14.304  0.4028 -0.5593 -0.2089
  118MPD2    H7 1846   2.531   2.418  14.268 -0.3741  0.6073  1.3870
  119TMC2    C1 1847   0.706   3.013  13.660 -0.3994 -0.1561 -0.1484
  119TMC2    C2 1848   0.723   3.029  13.521 -0.1504 -0.0742 -0.4281
  119TMC2    C3 1849   0.624   2.980  13.448 -0.5981 -0.2569 -0.1714
  119TMC2    C4 1850   0.601   2.949  13.712 -0.2058  0.1692 -0.2170
  119TMC2    C5 1851   0.503   2.898  13.629  0.7018  0.4410  0.2192
  119TMC2    C6 1852   0.510   2.919  13.492 -0.0537 -0.4974 -0.0499
  119TMC2     C 1853   0.793   3.071  13.751 -0.2117 -0.5517 -0.3822
  119TMC2     O 1854   0.764   3.054  13.868  0.0369 -0.5263  0.3219
  119TMC2     H 1855   0.807   3.084  13.479 -0.8333  2.7191  1.8573
  119TMC2    H1 1856   0.582   2.955  13.818 -1.0401 -0.7355 -0.3150
  119TMC2    H2 1857   0.435   2.871  13.429 -2.0446  1.1336  1.0869
  119TMC2    C7 1858   0.363   2.922  13.683  0.0991 -0.5057 -0.6307
  119TMC2    C8 1859   0.635   2.980  13.301 -0.4522 -0.5467  0.8650
  119TMC2    O1 1860   0.290   2.990  13.608 -0.1980  0.3076  0.4189
  119TMC2    O2 1861   0.648   2.874  13.237 -0.1907 -0.1082  0.2224
  119TMC2    O5 1862   0.623   3.104  13.249 -0.2476 -0.7042 -0.0720
  119TMC2    H5 1863   0.614   3.173  13.318  1.1187 -0.0590 -0.5335
  120MPD2     C 1864   1.113   3.433  13.918 -0.1466 -0.2268 -0.5572
  120MPD2    C1 1865   1.017   3.361  13.984 -0.6431 -0.2691 -0.8000
  120MPD2    C2 1866   0.941   3.263  13.916  0.2519  0.4617 -0.0427
  120MPD2    C3 1867   0.967   3.243  13.782 -0.0812  0.0624 -0.2871
  120MPD2    C4 1868   1.075   3.308  13.720 -0.8976  0.6488 -0.9825
  120MPD2    C5 1869   1.141   3.414  13.785 -0.0829 -0.2411  0.3258
  120MPD2     H 1870   0.864   3.220  13.978 -0.5265 -1.4046 -2.3095
  120MPD2    H1 1871   1.100   3.287  13.617 -2.1300 -0.3392 -1.0644
  120MPD2    H2 1872   1.168   3.512  13.968  1.6914 -1.0214 -1.3020
  120MPD2    H3 1873   1.219   3.465  13.731 -0.6521  1.8914  1.5005
  120MPD2     N 1874   0.885   3.153  13.699  0.2838 -0.3820 -0.0014
  120MPD2    H5 1875   0.898   3.158  13.598 -1.6108  2.4084 -0.1224
  120MPD2    N1 1876   0.988   3.380  14.120 -0.5412  0.1980 -0.0923
  120MPD2    H7 1877   0.917   3.317  14.157  1.1787 -0.1334  2.5845
  121TMC2    C1 1878   2.184   4.702  14.272  0.4837  0.4809  0.1975
  121TMC2    C2 1879   2.152   4.580  14.315  0.1810 -0.8956 -0.4832
  121TMC2    C3 1880   2.023   4.537  14.301 -0.0689  0.7050  0.6907
  121TMC2    C4 1881   2.098   0.031  14.200 -0.4372 -0.5807  0.0251
  121TMC2    C5 1882   1.979   4.718  14.169  1.2125 -0.5094  0.4403
  121TMC2    C6 1883   1.950   4.588  14.204 -0.3413  0.2864  0.4793
  121TMC2     C 1884   2.315   0.015  14.295  0.0433  0.8437  0.1089
  121TMC2     O 1885   2.395   4.699  14.374  0.8427 -0.3759 -0.5109
  121TMC2     H 1886   2.222   4.530  14.381  0.0409  1.0733  1.1543
  121TMC2    H1 1887   2.099   0.130  14.156  1.8186 -0.4898  0.2895
  121TMC2    H2 1888   1.853   4.546  14.182 -0.4652  1.4008 -1.1478
  121TMC2    C7 1889   1.901   0.032  14.054 -0.1488  0.0327 -0.1240
  121TMC2    C8 1890   1.985   4.405  14.354 -0.1183 -0.3882  0.2704
  121TMC2    O1 1891   1.963   0.088  13.969 -0.4573 -0.0002  0.0555
  121TMC2    O2 1892   1.865   4.382  14.372  0.4190  0.2535 -0.4444
  121TMC2    O5 1893   2.082   4.323  14.300  0.3283  0.5462 -0.4394
  121TMC2    H5 1894   2.155   4.379  14.267  1.9990 -1.4538 -0.1595
  122MPD2     C 1895   2.549   0.189  14.319 -0.1079  0.1195  0.4859
  122MPD2    C1 1896   2.468   0.186  14.208  0.3781 -0.3304  0.5462
  122MPD2    C2 1897   2.493   0.257  14.089  0.0661 -0.0010  0.1859
  122MPD2    C3 1898   2.605   0.346  14.091  0.1039  0.6908 -0.0772
  122MPD2    C4 1899   2.685   0.348  14.204 -0.3060 -0.9108 -0.3841
  122MPD2    C5 1900   2.662   0.271  14.311  0.5301 -0.6051 -0.3213
  122MPD2     H 1901   2.425   0.239  14.006  0.6110 -0.6199 -0.1367
  122MPD2    H1 1902   2.745   0.436  14.222 -1.4156  0.1479 -1.8168
  122MPD2    H2 1903   2.521   0.139  14.411 -0.4636  1.0384  0.8726
  122MPD2    H3 1904   2.714   0.289  14.404  1.6243 -0.1326 -1.0242
  122MPD2     N 1905   2.641   0.412  13.975 -0.4911 -0.2759  0.8078
  122MPD2    H5 1906   2.723   0.471  13.973 -1.3991  1.0048  1.1673
  122MPD2    N1 1907   2.349   0.112  14.201 -0.7012  0.3572  0.4882
  122MPD2    H7 1908   2.290   0.121  14.119  2.1287 -0.1095 -1.5913
  123TMC2    C1 1909   1.397   3.689  10.535  0.3746 -0.1362 -1.2896
  123TMC2    C2 1910   1.501   3.770  10.570  0.6792 -0.0790  0.2138
  123TMC2    C3 1911   1.583   3.800  10.469  0.3992  0.2791 -0.4560
  123TMC2    C4 1912   1.359   3.667  10.401 -1.2904  0.2227  0.9090
  123TMC2    C5 1913   1.440   3.714  10.310  0.5010  0.3066  0.0560
  123TMC2    C6 1914   1.559   3.773  10.335  0.7855 -0.1476  0.1148
  123TMC2     C 1915   1.311   3.626  10.634 -0.1535  0.2082  0.5849
  123TMC2     O 1916   1.294   3.686  10.739  0.0984  0.2050  0.2870
  123TMC2     H 1917   1.536   3.784  10.671 -1.8068  3.7048  0.5772
  123TMC2    H1 1918   1.257   3.640  10.375 -1.4445 -1.2792  3.0892
  123TMC2    H2 1919   1.634   3.807  10.265  0.4902 -0.0562 -0.1582
  123TMC2    C7 1920   1.400   3.678  10.181 -0.2652  0.4558 -0.7573
  123TMC2    C8 1921   1.683   3.898  10.505  0.8201  0.1678  0.7251
  123TMC2    O1 1922   1.324   3.583  10.174  0.3287 -0.2629 -0.9637
  123TMC2    O2 1923   1.793   3.900  10.448 -0.0612 -0.4993  0.2066
  123TMC2    O5 1924   1.625   4.000  10.579 -0.1027 -0.4149  0.4609
  123TMC2    H5 1925   1.529   3.996  10.599 -0.4534 -0.4977 -1.2399
  124MPD2     C 1926   0.933   3.289  10.754  0.9109 -0.2138 -0.1819
  124MPD2    C1 1927   0.975   3.263  10.621  0.0465  0.0826  0.6870
  124MPD2    C2 1928   1.082   3.342  10.570  0.4281 -0.2616 -0.0574
  124MPD2    C3 1929   1.142   3.441  10.645  0.1633 -0.5445 -0.0454
  124MPD2    C4 1930   1.092   3.469  10.771  0.5860 -0.3377  0.3051
  124MPD2    C5 1931   0.994   3.388  10.832 -0.7460  0.4237  0.7475
  124MPD2     H 1932   1.115   3.338  10.467 -0.3353 -0.3493 -0.3010
  124MPD2    H1 1933   1.146   3.540  10.832 -0.0350 -0.1971  0.6898
  124MPD2    H2 1934   0.845   3.236  10.788 -0.3942  0.8783 -1.8906
  124MPD2    H3 1935   0.965   3.417  10.932 -2.0192  0.7155  0.2939
  124MPD2     N 1936   1.243   3.520  10.582  0.0441  0.2697 -0.1747
  124MPD2    H5 1937   1.274   3.493  10.489  0.2968 -0.9522  0.2645
  124MPD2    N1 1938   0.905   3.158  10.548  0.5483  0.1345  0.0468
  124MPD2    H7 1939   0.831   3.102  10.588  1.8876 -1.2818  0.5733
  125TMC2    C1 1940   2.017   2.145   9.703 -0.6386 -0.7334 -0.5320
  125TMC2    C2 1941   1.939   2.194   9.807 -0.0541  0.2561  0.4500
  125TMC2    C3 1942   1.843   2.110   9.860 -0.0067  0.3996  0.3126
  125TMC2    C4 1943   2.013   2.014   9.666  0.0616 -0.6968  0.1675
  125TMC2    C5 1944   1.918   1.930   9.721  0.6655  0.4440  0.0079
  125TMC2    C6 1945   1.827   1.981   9.814 -0.4492 -0.0249 -0.5487
  125TMC2     C 1946   2.097   2.246   9.630 -0.0416 -0.0636 -0.2348
  125TMC2     O 1947   2.125   2.340   9.699  0.2871 -0.0066  0.1265
  125TMC2     H 1948   1.945   2.300   9.829 -0.1893  0.4610 -0.4912
  125TMC2    H1 1949   2.089   1.987   9.594 -0.6402 -1.0763 -0.4336
  125TMC2    H2 1950   1.775   1.904   9.870  0.0130  0.1671  0.1419
  125TMC2    C7 1951   1.867   1.810   9.647  0.1800 -1.1970  0.1368
  125TMC2    C8 1952   1.774   2.152   9.976  1.1479  0.2706 -0.5436
  125TMC2    O1 1953   1.759   1.770   9.689 -0.4976 -0.3604 -0.1152
  125TMC2    O2 1954   1.827   2.209  10.069 -0.0965  0.1135  0.2290
  125TMC2    O5 1955   1.649   2.107   9.965 -0.2971 -0.8144  0.5486
  125TMC2    H5 1956   1.632   2.090   9.870 -0.3280 -0.0317  0.4168
  126MPD1     C 1957   2.395   2.422   9.254  0.1011  0.2047  0.2802
  126MPD1    C1 1958   2.371   2.290   9.234 -0.6331  0.3100  0.4213
  126MPD1    C2 1959   2.297   2.220   9.323 -0.5589 -0.2517 -0.9305
  126MPD1    C3 1960   2.241   2.281   9.434  0.3389  0.7102 -0.9591
  126MPD1    C4 1961   2.276   2.413   9.461 -0.1933  0.3730  1.1803
  126MPD1    C5 1962   2.352   2.483   9.369 -0.5982  0.3022 -0.7113
  126MPD1     H 1963   2.276   2.115   9.306 -1.9708 -0.0794 -0.2889
  126MPD1    H1 1964   2.233   2.470   9.543 -1.6869  2.1508 -0.8372
  126MPD1    H2 1965   2.454   2.483   9.186 -0.7695  0.9050  0.1590
  126MPD1    H3 1966   2.373   2.589   9.383  1.1070  0.0277 -1.2334
  126MPD1     N 1967   2.153   2.205   9.510  0.6285 -0.8640  0.7128
  126MPD1    H5 1968   2.127   2.119   9.463 -0.7037  0.2904 -0.6735
  126MPD1    N1 1969   2.415   2.235   9.113 -0.6718 -0.2755  0.4812
  126MPD1    H6 1970   2.489   2.297   9.080 -2.7401  0.5808 -2.4604
  126MPD1    H7 1971   2.457   2.142   9.117 -2.0370 -0.8850  0.3858
  127TMC2    C1 1972   2.770   0.073  10.089 -0.1839 -0.0538 -0.3337
  127TMC2    C2 1973   2.880   0.048  10.170 -0.2498 -0.1833 -0.0044
  127TMC2    C3 1974   2.863   0.043  10.308  0.8496  0.7248 -1.1591
  127TMC2    C4 1975   2.646   0.077  10.148  0.2819 -0.6870 -0.1649
  127TMC2    C5 1976   2.637   0.072  10.276  0.1514 -0.9047  0.1480
  127TMC2    C6 1977   2.737   0.056  10.367 -0.0494 -0.1409  0.0716
  127TMC2     C 1978   2.787   0.099   9.945  0.9770  0.1211  0.1794
  127TMC2     O 1979   2.893   0.148   9.914 -0.2144  0.6153  0.0466
  127TMC2     H 1980   2.983   0.043  10.135 -0.1041  4.5008 -0.2655
  127TMC2    H1 1981   2.558   0.114  10.097 -0.0981  1.2133  1.8869
  127TMC2    H2 1982   2.714   0.059  10.473 -2.3351 -0.2706 -0.4206
  127TMC2    C7 1983   2.504   0.060  10.330 -0.4831 -0.3164 -0.1635
  127TMC2    C8 1984   2.955   4.728  10.395 -0.4491  0.1888  0.1224
  127TMC2    O1 1985   2.489   0.118  10.434 -0.6838 -0.0086  0.8499
  127TMC2    O2 1986   2.931   4.726  10.516 -0.2581  0.5111 -0.7215
  127TMC2    O5 1987   3.049   4.658  10.327  0.2062  0.5216 -0.4127
  127TMC2    H5 1988   3.034   4.651  10.230 -0.6616 -3.2333 -0.0038
  128MPD2     C 1989   2.547   0.051   9.661 -0.7189  0.2332 -0.1421
  128MPD2    C1 1990   2.658   0.100   9.727 -0.0386  0.8684  0.1915
  128MPD2    C2 1991   2.748   0.161   9.645  0.1194 -0.1351  0.3813
  128MPD2    C3 1992   2.733   0.190   9.515 -0.0547 -0.0188  0.6812
  128MPD2    C4 1993   2.617   0.142   9.454 -0.5881 -0.0136 -0.2991
  128MPD2    C5 1994   2.528   0.075   9.528  0.0133 -0.5233  0.2059
  128MPD2     H 1995   2.840   0.193   9.691  1.1791 -0.3611 -1.5586
  128MPD2    H1 1996   2.600   0.150   9.348 -2.7982  0.9229  0.1340
  128MPD2    H2 1997   2.466   0.006   9.716 -1.2709 -0.2025 -1.3004
  128MPD2    H3 1998   2.453   0.023   9.469  0.3239  0.1721 -0.7869
  128MPD2     N 1999   2.838   0.260   9.446  0.6671 -0.0643  0.1877
  128MPD2    H5 2000   2.925   0.275   9.496  1.9269  2.7099 -2.8320
  128MPD2    N1 2001   2.674   0.074   9.869 -0.6336  0.7188 -0.4541
  128MPD2    H7 2002   2.599   0.039   9.927  1.5397 -3.1010  0.0248
  129TMC2    C1 2003   1.068   4.712   1.517 -0.0674  0.1469  0.9714
  129TMC2    C2 2004   1.142   4.714   1.632  0.3120 -0.0011  0.3280
  129TMC2    C3 2005   1.225   4.606   1.650 -0.0931  0.4628  0.1361
  129TMC2    C4 2006   1.052   4.598   1.441 -0.4125  0.1254  0.2989
  129TMC2    C5 2007   1.131   4.489   1.472  0.9901 -0.3706 -0.3956
  129TMC2    C6 2008   1.217   4.484   1.580  0.2297 -0.0642  0.4630
  129TMC2     C 2009   0.957   0.059   1.505 -0.1431 -0.1574 -0.1146
  129TMC2     O 2010   0.856   0.003   1.464  0.2803 -0.4158  0.2342
  129TMC2     H 2011   1.163   0.072   1.679  1.8642 -0.0192 -0.3448
  129TMC2    H1 2012   0.985   4.593   1.356 -0.7987  2.4879  0.4689
  129TMC2    H2 2013   1.289   4.406   1.602  0.0799  0.2855  2.2151
  129TMC2    C7 2014   1.076   4.364   1.417  0.3482  0.3931 -0.0379
  129TMC2    C8 2015   1.343   4.624   1.731  1.2130  0.3303  0.2654
  129TMC2    O1 2016   0.969   4.369   1.362  0.4581  0.4037 -0.3023
  129TMC2    O2 2017   1.453   4.593   1.686 -0.8282  0.2085  0.4204
  129TMC2    O5 2018   1.319   4.707   1.838 -0.1271 -0.5554  0.0122
  129TMC2    H5 2019   1.229   4.687   1.870  0.6424 -0.0479  2.5293
  130MPD2     C 2020   0.751   0.270   1.496  0.4642  0.1945  0.4292
  130MPD2    C1 2021   0.883   0.302   1.520  0.4882 -0.1272  0.3817
  130MPD2    C2 2022   0.925   0.435   1.534  0.0385 -0.2885  0.6823
  130MPD2    C3 2023   0.828   0.536   1.538  0.1556  0.2096  0.2590
  130MPD2    C4 2024   0.698   0.503   1.503 -0.4506 -0.7124  0.0415
  130MPD2    C5 2025   0.670   0.375   1.476  0.3381 -0.4843  0.3952
  130MPD2     H 2026   1.031   0.457   1.546  0.1563 -1.8781  2.6584
  130MPD2    H1 2027   0.613   0.571   1.503  0.4818  0.4597  0.7505
  130MPD2    H2 2028   0.710   0.170   1.489  1.9452 -0.2371 -1.8537
  130MPD2    H3 2029   0.567   0.353   1.450  0.5579 -1.5393  0.4139
  130MPD2     N 2030   0.868   0.667   1.552 -0.4189  0.1941  0.3121
  130MPD2    H5 2031   0.968   0.680   1.550 -0.3120 -0.5286  0.9509
  130MPD2    N1 2032   0.985   0.197   1.528 -0.5352 -0.0578 -0.5767
  130MPD2    H7 2033   1.080   0.223   1.553 -0.2740 -0.2639 -1.3308
  131TMC2    C1 2034   0.805   3.658   9.720  0.3227  0.0957 -0.1817
  131TMC2    C2 2035   0.751   3.691   9.594 -0.6567  0.4505 -0.1130
  131TMC2    C3 2036   0.790   3.814   9.540 -0.0466 -0.4574  0.3193
  131TMC2    C4 2037   0.892   3.750   9.777 -0.2067  0.3711 -0.9228
  131TMC2    C5 2038   0.914   3.871   9.723 -0.1397 -0.0743 -0.1587
  131TMC2    C6 2039   0.864   3.912   9.604 -0.3027 -0.5096  0.4918
  131TMC2     C 2040   0.786   3.525   9.781 -0.3792 -0.0271  0.2869
  131TMC2     O 2041   0.849   3.502   9.882 -0.5546  0.1049  0.1235
  131TMC2     H 2042   0.705   3.617   9.529 -1.0460 -1.5463  2.4078
  131TMC2    H1 2043   0.945   3.712   9.864 -1.1131  0.8429 -0.1677
  131TMC2    H2 2044   0.888   4.009   9.561  0.5068 -0.7318  0.4282
  131TMC2    C7 2045   0.967   3.972   9.822  0.1087  0.0650  0.2876
  131TMC2    C8 2046   0.717   3.858   9.417 -0.0684  0.3325 -0.4675
  131TMC2    O1 2047   0.974   3.933   9.939 -0.0321  0.4704 -0.0716
  131TMC2    O2 2048   0.769   3.942   9.341 -0.0948 -0.0803  0.6292
  131TMC2    O5 2049   0.584   3.854   9.447  0.1984  0.8372 -0.3277
  131TMC2    H5 2050   0.572   3.820   9.538 -1.2190  2.4076  0.0693
  132MPD2     C 2051   0.549   3.258   9.663  0.1518 -0.1861 -0.1244
  132MPD2    C1 2052   0.645   3.319   9.743 -0.6629 -0.6753  0.9967
  132MPD2    C2 2053   0.686   3.242   9.851  0.0592  0.5848  0.0910
  132MPD2    C3 2054   0.638   3.116   9.883 -0.6022  0.3159 -0.6578
  132MPD2    C4 2055   0.548   3.057   9.807  0.5305  0.6441  0.2291
  132MPD2    C5 2056   0.515   3.124   9.695  0.3937 -0.2809 -0.5938
  132MPD2     H 2057   0.774   3.279   9.902  1.4147  1.1687 -2.6391
  132MPD2    H1 2058   0.522   2.952   9.809  2.0929  0.2397 -0.4241
  132MPD2    H2 2059   0.498   3.313   9.585  1.1837 -1.6020 -1.7742
  132MPD2    H3 2060   0.454   3.065   9.628 -0.6278 -0.4315  0.4617
  132MPD2     N 2061   0.683   3.064  10.010 -0.1379 -0.4291 -0.2097
  132MPD2    H5 2062   0.742   3.126  10.064 -1.3861  0.5385  0.0234
  132MPD2    N1 2063   0.691   3.450   9.714  0.1359  0.0295  0.0063
  132MPD2    H7 2064   0.638   3.491   9.638 -0.4866  0.2881  0.5808
  133TMC2    C1 2065   0.431   0.480   9.607 -0.6783  0.5035 -0.2305
  133TMC2    C2 2066   0.525   0.406   9.532 -0.6681 -0.2397 -0.3565
  133TMC2    C3 2067   0.641   0.467   9.510 -0.3608 -0.4553  0.9495
  133TMC2    C4 2068   0.465   0.590   9.685 -0.1071 -0.7794  0.0810
  133TMC2    C5 2069   0.586   0.640   9.668  0.0726 -0.7403  0.6136
  133TMC2    C6 2070   0.677   0.583   9.582 -0.3755 -0.0178  0.2956
  133TMC2     C 2071   0.292   0.435   9.616 -0.1486 -0.1088  0.1976
  133TMC2     O 2072   0.273   0.323   9.573  0.0349 -0.8210  0.5009
  133TMC2     H 2073   0.487   0.315   9.487  2.6447  0.1418 -3.8689
  133TMC2    H1 2074   0.400   0.648   9.750  0.9496  0.3903  0.1172
  133TMC2    H2 2075   0.765   0.639   9.555  1.9721 -3.0255  1.7079
  133TMC2    C7 2076   0.624   0.750   9.755 -0.2417  0.1022 -0.2782
  133TMC2    C8 2077   0.721   0.436   9.396 -0.3541  0.1627 -0.7669
  133TMC2    O1 2078   0.724   0.805   9.712  0.3716 -0.4299  0.7003
  133TMC2    O2 2079   0.834   0.479   9.376 -0.0061  0.3346  0.0174
  133TMC2    O5 2080   0.640   0.408   9.298  0.0543 -0.3603 -0.1317
  133TMC2    H5 2081   0.545   0.397   9.323 -0.1301 -0.7464 -1.0186
  134MPD2     C 2082   4.719   0.605   9.728 -0.1021 -0.7956  0.2373
  134MPD2    C1 2083   0.062   0.496   9.696  0.0810  0.5420 -0.4146
  134MPD2    C2 2084   0.003   0.377   9.701  0.4164  0.0107  0.0080
  134MPD2    C3 2085   4.604   0.364   9.712 -0.1273 -0.3914 -0.0355
  134MPD2    C4 2086   4.529   0.472   9.746 -0.5400 -0.6636  0.5374
  134MPD2    C5 2087   4.588   0.597   9.756 -0.7664  0.4792  0.2377
  134MPD2     H 2088   0.069   0.291   9.688 -0.0744 -0.7132  2.3381
  134MPD2    H1 2089   4.422   0.480   9.756 -0.5803 -0.5367  0.0255
  134MPD2    H2 2090   0.026   0.704   9.727 -2.4738  0.2895  1.4055
  134MPD2    H3 2091   4.528   0.686   9.773  0.1793  0.9347  1.2719
  134MPD2     N 2092   4.531   0.245   9.694  0.5935  0.2962  0.1119
  134MPD2    H5 2093   4.430   0.248   9.700  0.6628 -0.5177  1.6177
  134MPD2    N1 2094   0.200   0.527   9.669 -0.2329  0.3188 -0.4818
  134MPD2    H7 2095   0.232   0.622   9.688  0.6939  0.0656 -0.8361
  135TMC2    C1 2096   2.060   1.552   9.910  0.2474 -0.9819  0.2936
  135TMC2    C2 2097   2.001   1.484   9.812  0.9584 -0.5179  0.3620
  135TMC2    C3 2098   1.898   1.402   9.841 -0.1242  0.8799  0.5051
  135TMC2    C4 2099   2.016   1.552  10.036 -0.0863  0.1963 -0.8250
  135TMC2    C5 2100   1.903   1.478  10.060 -0.6828  0.5235  0.4110
  135TMC2    C6 2101   1.842   1.397   9.964  0.8093  0.0244  0.1838
  135TMC2     C 2102   2.150   1.665   9.877 -0.2251  0.1048 -0.2383
  135TMC2     O 2103   2.151   1.757   9.954 -0.0159  0.7071 -0.0806
  135TMC2     H 2104   2.042   1.488   9.712  0.1191 -2.7947 -0.0761
  135TMC2    H1 2105   2.055   1.618  10.112 -0.7833 -0.1894 -0.1346
  135TMC2    H2 2106   1.760   1.328   9.977  2.2390 -1.7472 -0.1339
  135TMC2    C7 2107   1.854   1.470  10.192 -1.1248  0.4312 -0.4671
  135TMC2    C8 2108   1.831   1.331   9.743 -0.4364 -0.1053  0.5174
  135TMC2    O1 2109   1.909   1.538  10.274 -0.1169  0.1084 -0.0107
  135TMC2    O2 2110   1.713   1.309   9.752 -0.2032  0.0758  0.2311
  135TMC2    O5 2111   1.924   1.282   9.656 -0.3681  0.2594  0.2612
  135TMC2    H5 2112   2.017   1.298   9.681  0.1804 -0.3177 -1.3933
  136MPD2     C 2113   2.312   1.877   9.737 -0.3677  0.4033 -0.2572
  136MPD2    C1 2114   2.279   1.761   9.682 -0.9753 -0.1444 -0.0465
  136MPD2    C2 2115   2.311   1.738   9.549 -0.2048  0.3419 -0.1644
  136MPD2    C3 2116   2.386   1.832   9.478 -0.1168 -0.4183  0.0881
  136MPD2    C4 2117   2.414   1.955   9.536  0.2457 -0.1284 -0.8802
  136MPD2    C5 2118   2.379   1.974   9.665  0.1538  0.1594 -0.3041
  136MPD2     H 2119   2.297   1.640   9.506  0.5804 -0.4093  1.2626
  136MPD2    H1 2120   2.468   2.034   9.485  0.5966 -1.0453 -1.9202
  136MPD2    H2 2121   2.286   1.908   9.838 -0.3741 -0.0925 -0.1049
  136MPD2    H3 2122   2.378   2.078   9.695  1.4030  0.2095 -0.4480
  136MPD2     N 2123   2.435   1.794   9.350 -0.0049  0.4086 -0.4170
  136MPD2    H5 2124   2.406   1.703   9.317  2.9179 -0.0955 -1.5558
  136MPD2    N1 2125   2.200   1.663   9.748  0.5296  0.4800 -0.2299
  136MPD2    H7 2126   2.181   1.576   9.700  1.4572 -0.6575  1.4664
  137TMC2    C1 2127   2.039   0.158   9.040  0.3964 -0.2416 -0.2654
  137TMC2    C2 2128   2.110   0.242   8.957 -0.1178  0.4664 -0.2345
  137TMC2    C3 2129   2.059   0.274   8.842 -0.8302  0.0689 -0.2378
  137TMC2    C4 2130   1.918   0.118   9.018 -0.0748 -0.2613 -0.2690
  137TMC2    C5 2131   1.865   0.152   8.898  0.1914 -0.2341  0.3295
  137TMC2    C6 2132   1.929   0.243   8.813  0.0788 -0.4048  0.0774
  137TMC2     C 2133   2.083   0.158   9.180  0.4571 -0.1189 -0.0504
  137TMC2     O 2134   2.150   0.259   9.209 -0.0703 -0.1534  0.4026
  137TMC2     H 2135   2.218   0.242   8.963 -0.0682  1.7402 -1.2221
  137TMC2    H1 2136   1.875   0.052   9.092  3.8773 -2.6333 -0.0727
  137TMC2    H2 2137   1.880   0.261   8.718 -0.0421 -1.1526  0.0047
  137TMC2    C7 2138   1.723   0.120   8.871  0.1841 -0.5491 -0.4267
  137TMC2    C8 2139   2.139   0.309   8.725 -0.0185 -0.1830  0.3293
  137TMC2    O1 2140   1.686   0.129   8.756  0.3308  0.4240  0.2336
  137TMC2    O2 2141   2.088   0.325   8.614  0.0925 -0.5667  0.3386
  137TMC2    O5 2142   2.260   0.362   8.768 -0.7225 -0.3761 -0.1889
  137TMC2    H5 2143   2.265   0.368   8.866 -3.1972 -1.0006 -0.0313
  138MPD2     C 2144   2.129   4.582   9.364  0.1606 -0.0269 -0.1687
  138MPD2    C1 2145   2.118   4.721   9.347  0.6116 -0.0955 -0.0745
  138MPD2    C2 2146   2.133   0.074   9.450  0.1856 -0.1040  0.2623
  138MPD2    C3 2147   2.155   0.026   9.578 -0.8500 -0.2649  0.5907
  138MPD2    C4 2148   2.172   4.626   9.597  0.0939  0.7867  0.6704
  138MPD2    C5 2149   2.159   4.537   9.491 -0.4846  0.0103  0.3502
  138MPD2     H 2150   2.129   0.181   9.429  0.0098 -0.4320 -1.4063
  138MPD2    H1 2151   2.186   4.576   9.692  1.3844 -0.9295 -0.4257
  138MPD2    H2 2152   2.125   4.503   9.291  1.8879 -0.3978  0.1236
  138MPD2    H3 2153   2.158   4.429   9.500  2.0229  0.1280  2.0275
  138MPD2     N 2154   2.170   0.113   9.689 -0.3957  0.0184  0.1781
  138MPD2    H5 2155   2.145   0.209   9.668  0.5975  0.3718  0.5922
  138MPD2    N1 2156   2.091   0.024   9.216  0.2488  0.3379  0.3474
  138MPD2    H7 2157   2.074   4.686   9.149  0.1585  1.3257 -0.7295
  139TMC2    C1 2158   2.064   3.055  13.311 -0.3068  0.3792  0.2791
  139TMC2    C2 2159   2.112   3.138  13.213 -0.3489 -0.8435 -0.6264
  139TMC2    C3 2160   2.097   3.274  13.221 -0.0270 -0.0331  0.4245
  139TMC2    C4 2161   1.982   3.104  13.408 -0.5679  0.0516  0.3170
  139TMC2    C5 2162   1.953   3.236  13.412  0.7641 -0.1070 -0.1519
  139TMC2    C6 2163   2.008   3.320  13.318 -0.7479  0.5938  0.6794
  139TMC2     C 2164   2.157   2.948  13.342 -0.4468 -0.0196 -0.2903
  139TMC2     O 2165   2.229   2.910  13.248  0.2576 -0.3692 -0.1357
  139TMC2     H 2166   2.198   3.106  13.155  0.2498  2.4881 -1.5548
  139TMC2    H1 2167   1.954   3.038  13.490  0.1765 -2.1312 -1.1808
  139TMC2    H2 2168   1.974   3.423  13.313  0.3637  0.8545 -1.4407
  139TMC2    C7 2169   1.883   3.297  13.519 -0.4300 -0.5457 -0.1705
  139TMC2    C8 2170   2.190   3.373  13.168 -0.4018 -0.1574  0.0535
  139TMC2    O1 2171   1.902   3.415  13.539 -0.1456  0.1205 -0.1707
  139TMC2    O2 2172   2.168   3.494  13.170 -0.2187  0.5997 -0.1098
  139TMC2    O5 2173   2.315   3.312  13.171 -0.1020  0.1750  0.5151
  139TMC2    H5 2174   2.389   3.371  13.195  0.8503 -1.4441  1.6302
  140MPD2     C 2175   2.196   2.721  13.618 -0.7517  0.1017  0.0653
  140MPD2    C1 2176   2.249   2.809  13.519 -0.1664  0.3302  0.3557
  140MPD2    C2 2177   2.375   2.784  13.465  0.2693  0.2868 -0.4370
  140MPD2    C3 2178   2.455   2.688  13.510  0.7473 -0.5697  0.4495
  140MPD2    C4 2179   2.411   2.617  13.612 -0.0572  0.3553 -0.1088
  140MPD2    C5 2180   2.283   2.617  13.641  0.5967  0.5941  0.7275
  140MPD2     H 2181   2.421   2.848  13.391  2.3576  1.2453  1.6661
  140MPD2    H1 2182   2.469   2.536  13.653 -0.3654 -0.3065 -0.9725
  140MPD2    H2 2183   2.093   2.719  13.651 -0.7736  0.6640  0.0320
  140MPD2    H3 2184   2.246   2.539  13.707 -1.0031 -0.0565 -0.9521
  140MPD2     N 2185   2.580   2.680  13.448  0.0102 -1.1857  0.5883
  140MPD2    H5 2186   2.595   2.738  13.366  0.5145  1.2677  2.4231
  140MPD2    N1 2187   2.153   2.905  13.469 -0.2790 -0.0153 -0.2049
  140MPD2    H7 2188   2.078   2.934  13.530  1.0522  1.6551  0.6543
  141TMC2    C1 2189   3.541   3.889  14.462  0.1056  0.1932  0.0784
  141TMC2    C2 2190   3.645   3.822  14.514  0.2120  0.5535 -0.2950
  141TMC2    C3 2191   3.765   3.885  14.546  0.5424 -0.1904 -0.0484
  141TMC2    C4 2192   3.552   4.024  14.458 -0.3954  0.2066 -0.3862
  141TMC2    C5 2193   3.670   4.090  14.490  0.1935  0.3645  0.3192
  141TMC2    C6 2194   3.781   4.017  14.527 -0.6824  0.0589 -1.0304
  141TMC2     C 2195   3.438   3.822  14.389 -0.4839 -0.3593 -0.5905
  141TMC2     O 2196   3.362   3.894  14.324  0.7761  0.3502 -0.2580
  141TMC2     H 2197   3.655   3.715  14.527  0.0658  0.4492 -1.0463
  141TMC2    H1 2198   3.463   4.082  14.433 -0.0009  0.2753 -1.6205
  141TMC2    H2 2199   3.882   4.056  14.516 -1.6931  2.6473 -1.2590
  141TMC2    C7 2200   3.688   4.226  14.436  0.2332 -0.2774 -0.1971
  141TMC2    C8 2201   3.877   3.804  14.527  0.1289 -0.1171 -0.1998
  141TMC2    O1 2202   3.592   4.257  14.365  0.3004 -0.6881 -0.5267
  141TMC2    O2 2203   3.873   3.688  14.487  0.0079 -0.2493  0.1486
  141TMC2    O5 2204   3.984   3.856  14.597  0.0715  0.4299  0.6216
  141TMC2    H5 2205   3.966   3.944  14.637  3.9581  0.2892  2.6685
  142TMC2    C1 2206   1.007   3.133   9.726  0.0630  0.4602 -0.7268
  142TMC2    C2 2207   0.925   3.155   9.617 -0.2753  0.1520 -0.1951
  142TMC2    C3 2208   0.948   3.272   9.556 -0.6163 -0.4438  0.1886
  142TMC2    C4 2209   1.101   3.216   9.771 -0.7647 -0.2587 -0.8680
  142TMC2    C5 2210   1.110   3.336   9.707 -0.0390  0.3610 -0.8169
  142TMC2    C6 2211   1.038   3.366   9.593  0.1377 -0.5269  0.4813
  142TMC2     C 2212   0.999   3.002   9.795  0.3816  0.2634 -0.0590
  142TMC2     O 2213   0.949   2.915   9.719 -0.2447  0.4290 -0.5768
  142TMC2     H 2214   0.851   3.086   9.580 -0.6273  0.2327  0.3535
  142TMC2    H1 2215   1.154   3.194   9.863  0.7634  0.3567 -1.5981
  142TMC2    H2 2216   1.048   3.457   9.534 -0.1676 -0.0761  1.1253
  142TMC2    C7 2217   1.181   3.437   9.784 -0.2217  0.8888 -0.9913
  142TMC2    C8 2218   0.852   3.321   9.461 -0.1395 -0.1049  0.2156
  142TMC2    O1 2219   1.179   3.420   9.905 -0.5809  0.0161 -0.1456
  142TMC2    O2 2220   0.840   3.440   9.433  0.2764 -0.1222  0.2857
  142TMC2    O5 2221   0.813   3.216   9.386 -0.7966  0.1076 -0.0680
  142TMC2    H5 2222   0.865   3.134   9.399  2.2511  1.7402 -2.0168
  143MPD2     C 2223   0.984   2.698  10.209 -0.0644  0.5403  0.0868
  143MPD2    C1 2224   0.937   2.672  10.079 -0.1558  0.2416 -0.3867
  143MPD2    C2 2225   0.954   2.766   9.983  0.3698 -0.0708  0.1858
  143MPD2    C3 2226   1.031   2.879  10.013 -0.0634 -0.3905  0.4576
  143MPD2    C4 2227   1.076   2.904  10.141  0.8423  0.6048  0.0997
  143MPD2    C5 2228   1.050   2.807  10.240  0.8678  0.1626  0.0668
  143MPD2     H 2229   0.905   2.744   9.889  0.6729  1.0848 -0.2307
  143MPD2    H1 2230   1.115   3.001  10.172  1.9527  0.5604 -1.1750
  143MPD2    H2 2231   0.965   2.631  10.292  0.0286  1.9496  1.2426
  143MPD2    H3 2232   1.079   2.833  10.341  0.7318  2.6025 -0.5291
  143MPD2     N 2233   1.045   2.995   9.926 -0.9295 -0.0164 -0.7619
  143MPD2    H5 2234   1.084   3.076   9.972 -1.4211 -0.9465  1.3242
  143MPD2    N1 2235   0.868   2.543  10.058 -0.0135  0.5775 -0.2636
  143MPD2    H7 2236   0.855   2.482  10.139 -1.2232  0.8112 -0.2765
  144TMC2    C1 2237   3.437   1.982   1.108  0.2537 -0.2496 -0.0304
  144TMC2    C2 2238   3.422   1.858   1.164 -0.3497  0.0974  0.1390
  144TMC2    C3 2239   3.514   1.801   1.255 -0.2635 -0.0969  0.1262
  144TMC2    C4 2240   3.541   2.067   1.149  0.0041 -0.1797 -0.0358
  144TMC2    C5 2241   3.622   2.019   1.251  0.4588 -0.9864  0.2455
  144TMC2    C6 2242   3.609   1.885   1.309  0.0991  0.1899 -0.4179
  144TMC2     C 2243   3.359   2.011   0.993 -0.0564 -0.4528 -0.2922
  144TMC2     O 2244   3.301   1.915   0.938 -0.7555 -0.1863  0.0741
  144TMC2     H 2245   3.341   1.799   1.122 -0.1081 -1.1450  1.4415
  144TMC2    H1 2246   3.567   2.155   1.091  0.8691 -0.4826 -0.1168
  144TMC2    H2 2247   3.665   1.856   1.397  0.7472  0.0396 -0.8817
  144TMC2    C7 2248   3.730   2.099   1.307 -0.2670  0.1588 -0.7909
  144TMC2    C8 2249   3.519   1.659   1.278  0.7610  0.1321 -0.1929
  144TMC2    O1 2250   3.819   2.050   1.371 -0.2727  0.1812 -0.4370
  144TMC2    O2 2251   3.425   1.585   1.263 -0.0932 -0.0994  0.3478
  144TMC2    O5 2252   3.649   1.617   1.263 -0.5318 -0.4162  0.1347
  144TMC2    H5 2253   3.714   1.689   1.249 -0.9757 -0.0521 -0.0070
  145MPD2     C 2254   3.176   2.360   0.662 -0.1941  0.0486  0.8216
  145MPD2    C1 2255   3.168   2.223   0.669 -0.3857  0.8029  0.0107
  145MPD2    C2 2256   3.218   2.159   0.781 -0.4659  0.4617  0.2170
  145MPD2    C3 2257   3.297   2.225   0.874  0.7476  0.3237 -0.7143
  145MPD2    C4 2258   3.307   2.362   0.865 -0.8241  0.6353  0.4441
  145MPD2    C5 2259   3.243   2.432   0.760 -0.1039  0.6459  0.2304
  145MPD2     H 2260   3.216   2.051   0.771 -2.7491  0.4849  0.4113
  145MPD2    H1 2261   3.346   2.420   0.947  0.6935  0.7648 -0.3579
  145MPD2    H2 2262   3.125   2.414   0.583  0.2711 -0.6662  0.0283
  145MPD2    H3 2263   3.256   2.537   0.736 -1.9342  0.6185 -0.9348
  145MPD2     N 2264   3.354   2.151   0.974 -0.2075 -0.8669  0.1902
  145MPD2    H5 2265   3.399   2.204   1.048  0.1210 -0.8698 -0.0088
  145MPD2    N1 2266   3.100   2.150   0.577  0.5987  0.1912  0.5063
  145MPD2    H7 2267   3.110   2.051   0.594  1.2519 -0.0887 -1.5225
  146TMC2    C1 2268   0.241   1.009  12.648  0.1283 -0.2541 -0.6216
  146TMC2    C2 2269   0.161   1.073  12.564 -1.0833  0.0279 -0.0011
  146TMC2    C3 2270   0.193   1.064  12.436 -0.0171  0.5900 -0.5178
  146TMC2    C4 2271   0.342   0.924  12.614  0.1232  0.0472 -1.0205
  146TMC2    C5 2272   0.357   0.901  12.484 -0.3134 -0.2567 -0.4299
  146TMC2    C6 2273   0.285   0.978  12.390  0.0475 -0.2788 -0.2596
  146TMC2     C 2274   0.197   1.012  12.787 -0.6279  0.0723 -0.3401
  146TMC2     O 2275   0.146   1.112  12.831  0.2422  0.2632 -0.4495
  146TMC2     H 2276   0.083   1.136  12.606  0.1925  0.3146  1.9589
  146TMC2    H1 2277   0.419   0.887  12.681  0.5847  0.5254 -1.2888
  146TMC2    H2 2278   0.290   0.938  12.289  0.7200  1.6844 -0.9983
  146TMC2    C7 2279   0.454   0.806  12.450 -0.4495  0.5887 -0.4085
  146TMC2    C8 2280   0.083   1.099  12.347 -0.1030 -0.3963  0.2410
  146TMC2    O1 2281   0.501   0.823  12.342  0.6416  0.0847  0.2879
  146TMC2    O2 2282   0.022   1.018  12.279  0.1185  0.1648 -0.2724
  146TMC2    O5 2283   0.028   1.210  12.391  0.2507  0.5960  0.1985
  146TMC2    H5 2284   0.106   1.256  12.429  1.5019 -1.3631 -0.0482
  147MPD2     C 2285   0.742   0.396  12.512  0.2063 -0.2883 -0.0137
  147MPD2    C1 2286   0.657   0.395  12.618 -0.2899  0.6938 -0.6286
  147MPD2    C2 2287   0.572   0.502  12.629 -0.4813 -0.2334 -0.6722
  147MPD2    C3 2288   0.576   0.603  12.531 -0.0442 -0.3465 -0.2037
  147MPD2    C4 2289   0.662   0.595  12.429  0.5809  0.3938 -0.2402
  147MPD2    C5 2290   0.744   0.484  12.412  0.3021  0.4126 -0.0177
  147MPD2     H 2291   0.497   0.514  12.707  0.1018 -0.9430 -0.0078
  147MPD2    H1 2292   0.688   0.681  12.368 -0.4017  2.1292  1.7965
  147MPD2    H2 2293   0.811   0.313  12.498 -1.0624 -1.6219  1.7201
  147MPD2    H3 2294   0.829   0.474  12.345 -0.8802 -1.2311 -1.2688
  147MPD2     N 2295   0.477   0.708  12.537  0.5450 -0.1761  0.5139
  147MPD2    H5 2296   0.409   0.700  12.612 -1.2918 -0.0306 -1.1506
  147MPD2    N1 2297   0.659   0.282  12.705 -0.2410  0.4874 -0.0382
  147MPD2    H7 2298   0.742   0.224  12.691  0.1118  0.7360  0.9939
  148TMC2    C1 2299   0.626   4.416  10.618  0.0372  0.0406 -0.5831
  148TMC2    C2 2300   0.635   4.525  10.697  0.4853 -0.4265  0.0552
  148TMC2    C3 2301   0.766   4.567  10.723 -0.5782  0.2389 -0.1578
  148TMC2    C4 2302   0.735   4.349  10.568  0.0104  0.9977 -0.8187
  148TMC2    C5 2303   0.859   4.383  10.612  0.9548  0.4465 -0.5930
  148TMC2    C6 2304   0.880   4.503  10.677  0.2840  0.3069  0.2927
  148TMC2     C 2305   0.499   4.381  10.574 -0.2894  0.2007  0.3408
  148TMC2     O 2306   0.409   4.463  10.581  0.2331 -0.2850  0.0510
  148TMC2     H 2307   0.545   4.580  10.721  0.0499 -1.4136  0.6839
  148TMC2    H1 2308   0.723   4.264  10.501  0.7309  0.9667 -0.9153
  148TMC2    H2 2309   0.979   4.538  10.703  0.8283 -0.7667 -0.3928
  148TMC2    C7 2310   0.981   4.326  10.549  0.2016 -0.4670  0.3933
  148TMC2    C8 2311   0.797   4.692  10.795  0.3253  0.5174  0.5507
  148TMC2    O1 2312   1.070   4.401  10.510  0.7647 -0.3846  0.1994
  148TMC2    O2 2313   0.898   0.018  10.774  0.2937  0.4552 -0.0707
  148TMC2    O5 2314   0.718   4.695  10.905 -1.0770  0.3625 -0.1790
  148TMC2    H5 2315   0.656   4.618  10.907 -0.2541 -0.2799  0.5513
  149MPD2     C 2316   0.279   4.257  10.432  0.6715 -0.2766  0.4641
  149MPD2    C1 2317   0.387   4.182  10.471  0.1925  0.0348 -0.2661
  149MPD2    C2 2318   0.378   4.043  10.466 -0.8218 -0.2217  0.4607
  149MPD2    C3 2319   0.263   3.982  10.413  0.9155 -0.0654 -0.5964
  149MPD2    C4 2320   0.153   4.062  10.384 -0.4686  0.1778 -0.3080
  149MPD2    C5 2321   0.163   4.196  10.390  0.6931 -1.2789  0.0380
  149MPD2     H 2322   0.459   3.983  10.504  1.8467  3.2893  0.3045
  149MPD2    H1 2323   0.064   4.014  10.346  0.1806 -1.4615  0.2409
  149MPD2    H2 2324   0.283   4.365  10.430  2.8608 -0.3457  1.0781
  149MPD2    H3 2325   0.081   4.261  10.360  0.1599 -1.2605  1.5433
  149MPD2     N 2326   0.248   3.849  10.369  0.2859  0.1273 -1.0259
  149MPD2    H5 2327   0.167   3.826  10.312 -0.2153 -0.1617 -0.1937
  149MPD2    N1 2328   0.494   4.248  10.530  0.2103 -0.5909 -0.2596
  149MPD2    H7 2329   0.572   4.190  10.559 -0.1476 -0.4005  1.0894
  150TMC2    C1 2330   2.379   3.279  12.304  0.4237 -0.1090 -0.7308
  150TMC2    C2 2331   2.334   3.354  12.195  0.2181 -0.1044  0.1138
  150TMC2    C3 2332   2.420   3.428  12.120 -0.0034 -0.5813 -0.0571
  150TMC2    C4 2333   2.512   3.268  12.333 -0.0536 -0.3088  0.4188
  150TMC2    C5 2334   2.594   3.353  12.263 -0.0104  0.2080 -0.3395
  150TMC2    C6 2335   2.549   3.424  12.152 -0.1752  0.1688  0.3749
  150TMC2     C 2336   2.290   3.192  12.381 -0.3333 -0.3559 -0.6596
  150TMC2     O 2337   2.349   3.115  12.452  0.1877  0.1148 -0.3869
  150TMC2     H 2338   2.229   3.367  12.171  0.8855  0.2323 -2.5667
  150TMC2    H1 2339   2.541   3.217  12.425 -2.1639  0.4583  1.5181
  150TMC2    H2 2340   2.618   3.481  12.091 -0.1347 -0.7085 -0.3924
  150TMC2    C7 2341   2.738   3.356  12.295  0.1330  0.4394  0.2758
  150TMC2    C8 2342   2.392   3.472  11.985  0.1000  0.1698 -0.4280
  150TMC2    O1 2343   2.804   3.444  12.243 -0.1934 -0.1365  0.0536
  150TMC2    O2 2344   2.471   3.546  11.927 -0.4604 -0.6569  0.5291
  150TMC2    O5 2345   2.265   3.465  11.933  0.0583 -0.0546 -0.2420
  150TMC2    H5 2346   2.205   3.417  11.995  1.1313 -2.4197 -1.0232
  151MPD2     C 2347   1.838   2.950  12.410 -0.2982  0.5864  0.0692
  151MPD2    C1 2348   1.817   3.088  12.404  0.4586  0.0347 -0.2577
  151MPD2    C2 2349   1.922   3.175  12.402 -0.2210 -0.2944 -0.1126
  151MPD2    C3 2350   2.055   3.134  12.398  0.2512 -0.2718  0.2769
  151MPD2    C4 2351   2.071   2.998  12.415 -0.1795  0.4238 -0.0572
  151MPD2    C5 2352   1.967   2.908  12.429  0.2442  0.0992 -0.0825
  151MPD2     H 2353   1.904   3.282  12.393 -0.9789 -0.4511 -0.4767
  151MPD2    H1 2354   2.173   2.962  12.415 -0.5309 -0.5534  1.0015
  151MPD2    H2 2355   1.754   2.883  12.397 -2.1344  2.7648  0.8619
  151MPD2    H3 2356   1.987   2.802  12.442  1.1766  0.7455  3.7367
  151MPD2     N 2357   2.161   3.225  12.370  0.0766  0.4741 -0.1872
  151MPD2    H5 2358   2.133   3.316  12.334 -1.0155 -0.7803 -2.5310
  151MPD2    N1 2359   1.682   3.126  12.414  0.4221 -0.5591  0.1792
  151MPD2    H7 2360   1.607   3.058  12.407  0.5965 -0.8325  0.9579
  152TMC2    C1 2361   1.789   2.791  12.788 -0.0397 -0.3198 -0.1543
  152TMC2    C2 2362   1.864   2.684  12.831  0.1719  0.1106  0.0584
  152TMC2    C3 2363   2.002   2.709  12.821  0.1280 -0.2981 -0.2155
  152TMC2    C4 2364   1.841   2.904  12.744  0.0609  0.0601  0.3638
  152TMC2    C5 2365   1.968   2.929  12.750 -0.0560 -0.1051  0.0313
  152TMC2    C6 2366   2.059   2.832  12.785 -0.4433  0.5081 -0.3189
  152TMC2     C 2367   1.647   2.794  12.814 -0.2352  0.0272 -0.4518
  152TMC2     O 2368   1.583   2.868  12.743 -0.2147  0.4451 -0.6461
  152TMC2     H 2369   1.821   2.592  12.868 -0.8119 -0.1660 -1.7644
  152TMC2    H1 2370   1.771   2.983  12.717  1.3694  1.2861  0.5383
  152TMC2    H2 2371   2.166   2.844  12.789 -0.1610 -1.1428 -2.4459
  152TMC2    C7 2372   2.006   3.067  12.772  0.6798 -0.3075  0.0199
  152TMC2    C8 2373   2.099   2.625  12.901  0.1320 -0.3828 -0.1779
  152TMC2    O1 2374   1.916   3.143  12.817  0.4044 -0.2278 -0.8062
  152TMC2    O2 2375   2.172   2.688  12.979  0.4986 -1.0320 -0.5086
  152TMC2    O5 2376   2.039   2.511  12.926 -0.4814  0.0448  0.3558
  152TMC2    H5 2377   1.978   2.479  12.855 -0.0352 -1.2204  0.5366
  153MPD2     C 2378   1.477   2.615  13.068 -0.5955  0.5313 -0.0535
  153MPD2    C1 2379   1.491   2.714  12.972  0.4962  0.3747 -0.0686
  153MPD2    C2 2380   1.388   2.790  12.920 -0.3912 -0.1519 -0.2690
  153MPD2    C3 2381   1.263   2.758  12.973  0.3037  0.2285  0.1510
  153MPD2    C4 2382   1.247   2.652  13.063  0.2417  0.5603 -0.5846
  153MPD2    C5 2383   1.353   2.583  13.110 -0.0687 -0.0687 -0.0235
  153MPD2     H 2384   1.400   2.883  12.866 -0.3865  0.5557  0.9637
  153MPD2    H1 2385   1.152   2.626  13.107 -0.4494  2.3805 -0.9939
  153MPD2    H2 2386   1.551   2.539  13.090  0.0484  0.8190 -1.2433
  153MPD2    H3 2387   1.343   2.497  13.174 -2.3495 -0.5773 -1.0817
  153MPD2     N 2388   1.148   2.838  12.935 -0.3883 -0.3076 -0.5294
  153MPD2    H5 2389   1.178   2.917  12.878  1.3685 -0.9108 -0.4659
  153MPD2    N1 2390   1.616   2.716  12.915 -0.1810 -0.9934 -0.0717
  153MPD2    H7 2391   1.685   2.674  12.977  1.1812  0.5440 -0.5341
  154TMC2    C1 2392   2.753   3.241   0.498 -0.2530 -0.5313 -0.2370
  154TMC2    C2 2393   2.730   3.109   0.509 -0.4815 -0.1487 -0.1538
  154TMC2    C3 2394   2.753   3.031   0.399  0.2429  0.4794  0.1353
  154TMC2    C4 2395   2.816   3.297   0.385 -0.1149 -0.6420  0.0336
  154TMC2    C5 2396   2.833   3.214   0.277  0.4057  0.0991 -0.1853
  154TMC2    C6 2397   2.794   3.081   0.277  0.3449 -0.2543  0.5689
  154TMC2     C 2398   2.687   3.340   0.598 -0.1656  0.0175 -1.0493
  154TMC2     O 2399   2.635   3.287   0.696  0.1504  0.3640  0.2829
  154TMC2     H 2400   2.682   3.068   0.597  1.4449 -0.8241  0.5897
  154TMC2    H1 2401   2.851   3.399   0.382 -0.6502 -0.4447  0.6004
  154TMC2    H2 2402   2.804   3.008   0.197  0.2127 -0.4574  0.7372
  154TMC2    C7 2403   2.885   3.266   0.154  0.4237 -0.8117  0.0259
  154TMC2    C8 2404   2.741   2.882   0.407 -0.4925 -0.1620 -0.8559
  154TMC2    O1 2405   2.951   3.180   0.098 -0.2849 -0.4048 -0.0317
  154TMC2    O2 2406   2.811   2.804   0.345 -0.4463  0.0212 -0.1934
  154TMC2    O5 2407   2.647   2.850   0.491 -0.0955  0.6015 -0.0641
  154TMC2    H5 2408   2.577   2.915   0.513 -1.4766 -0.6269 -0.7794
  155MPD2     C 2409   2.680   3.712   0.554 -0.0818  0.3718  0.5125
  155MPD2    C1 2410   2.668   3.589   0.619 -0.1722 -0.0024  0.2752
  155MPD2    C2 2411   2.611   3.593   0.746  1.0235  0.4022  0.4151
  155MPD2    C3 2412   2.580   3.711   0.808 -0.3525  0.0486  0.0945
  155MPD2    C4 2413   2.607   3.832   0.747  0.5857 -0.5109 -0.1320
  155MPD2    C5 2414   2.656   3.827   0.623  0.2597 -0.1057  0.9605
  155MPD2     H 2415   2.597   3.496   0.793 -0.9040  1.5799  2.2844
  155MPD2    H1 2416   2.575   3.927   0.789  0.9221 -1.2067  1.6753
  155MPD2    H2 2417   2.726   3.718   0.456 -0.2700  2.1689  0.5400
  155MPD2    H3 2418   2.672   3.923   0.575  0.0475 -1.1791 -1.2992
  155MPD2     N 2419   2.532   3.706   0.941 -0.1599  0.2311 -0.3616
  155MPD2    H5 2420   2.526   3.614   0.983 -0.9279  1.6842  2.7115
  155MPD2    N1 2421   2.707   3.470   0.552 -0.0422 -0.0394 -0.5885
  155MPD2    H7 2422   2.760   3.470   0.466 -0.2532 -2.2959 -0.7069
  156TMC2    C1 2423   2.554   0.818  11.292  0.4451  0.0071  0.6938
  156TMC2    C2 2424   2.589   0.732  11.193 -0.5830  0.0643  0.2474
  156TMC2    C3 2425   2.512   0.726  11.083  0.2586 -0.4065 -0.3304
  156TMC2    C4 2426   2.447   0.905  11.277 -0.5032  0.3984  0.3452
  156TMC2    C5 2427   2.370   0.896  11.163  0.6473 -0.7757 -0.1772
  156TMC2    C6 2428   2.404   0.801  11.070 -0.4974  0.2656 -0.5975
  156TMC2     C 2429   2.632   0.821  11.421 -0.1025  0.2048  0.2521
  156TMC2     O 2430   2.590   0.907  11.496 -0.4188 -0.5908  0.1233
  156TMC2     H 2431   2.682   0.676  11.196  0.9177  2.5153 -0.1951
  156TMC2    H1 2432   2.423   0.976  11.356 -1.9654  0.2157  0.0810
  156TMC2    H2 2433   2.344   0.789  10.981  0.1046 -0.3220 -0.9219
  156TMC2    C7 2434   2.248   0.970  11.146  0.3361  1.0613  0.4545
  156TMC2    C8 2435   2.537   0.619  10.995 -0.0069 -0.5319  0.3038
  156TMC2    O1 2436   2.223   1.045  11.240  0.5063  0.2613  0.0301
  156TMC2    O2 2437   2.651   0.576  10.967 -0.3220 -0.0227  0.0830
  156TMC2    O5 2438   2.419   0.550  10.983  0.1932 -0.2817  0.2666
  156TMC2    H5 2439   2.340   0.590  11.025 -0.3847 -0.1955 -0.9034
  157MPD2     C 2440   2.910   0.605  11.540  0.6707 -0.1643 -0.6850
  157MPD2    C1 2441   2.810   0.705  11.548  0.1134 -0.4105 -0.0390
  157MPD2    C2 2442   2.762   0.735  11.680  0.3263 -0.4835  0.4926
  157MPD2    C3 2443   2.831   0.698  11.789 -0.0649  0.4620  0.8910
  157MPD2    C4 2444   2.931   0.606  11.776  0.7327  0.5885  0.6114
  157MPD2    C5 2445   2.976   0.568  11.653 -1.1006  0.1813  0.4751
  157MPD2     H 2446   2.674   0.796  11.699  0.4849  0.4419 -1.6810
  157MPD2    H1 2447   2.993   0.575  11.859 -0.6862 -1.3683  0.9520
  157MPD2    H2 2448   2.951   0.577  11.443 -1.5988 -1.6759 -1.2370
  157MPD2    H3 2449   3.076   0.530  11.634 -0.9749 -0.3448  2.2621
  157MPD2     N 2450   2.782   0.744  11.915  0.0609  0.7731  0.1344
  157MPD2    H5 2451   2.708   0.814  11.913  0.3896  1.0920 -0.9998
  157MPD2    N1 2452   2.737   0.739  11.426 -0.3696  0.3732 -0.4283
  157MPD2    H7 2453   2.775   0.704  11.339 -2.7318  0.5908 -1.5546
  158TMC2    C1 2454   2.300   4.627  13.572 -0.0312  0.6985  0.8174
  158TMC2    C2 2455   2.310   0.015  13.523 -0.0388  0.0337 -0.0503
  158TMC2    C3 2456   2.210   0.099  13.558  0.8521 -0.8371  0.2483
  158TMC2    C4 2457   2.194   4.582  13.645 -0.3722  0.0739  0.1998
  158TMC2    C5 2458   2.097   4.663  13.678 -0.5748 -0.0300  0.6997
  158TMC2    C6 2459   2.106   0.056  13.633  0.1108 -0.8930 -0.7786
  158TMC2     C 2460   2.419   4.545  13.550 -0.2627 -0.5919 -0.6187
  158TMC2     O 2461   2.478   4.552  13.443 -0.6563  0.2696  0.5515
  158TMC2     H 2462   2.401   0.053  13.478  0.1942  1.0994  1.3117
  158TMC2    H1 2463   2.182   4.475  13.663 -0.8688  0.1807  0.5093
  158TMC2    H2 2464   2.033   0.132  13.659  1.6761  0.2835  0.1722
  158TMC2    C7 2465   1.972   4.623  13.737  0.0808  0.3765 -0.2334
  158TMC2    C8 2466   2.239   0.239  13.561  0.0024  0.0163  0.0629
  158TMC2    O1 2467   1.876   4.688  13.689 -0.2151  0.4098  0.0520
  158TMC2    O2 2468   2.211   0.322  13.647 -0.2198  0.0031  0.0902
  158TMC2    O5 2469   2.304   0.269  13.448  0.0123  0.8266  0.2224
  158TMC2    H5 2470   2.312   0.199  13.380 -2.1711  0.2949  0.5246
  159MPD2     C 2471   2.794   4.280  13.760 -0.0315 -0.9607  0.2984
  159MPD2    C1 2472   2.711   4.329  13.859 -0.8822 -0.5565  0.8890
  159MPD2    C2 2473   2.596   4.397  13.830  0.3524  0.6622  0.2465
  159MPD2    C3 2474   2.569   4.419  13.697 -0.9787 -1.0092 -0.5074
  159MPD2    C4 2475   2.648   4.370  13.602 -0.4171  0.4116  0.0084
  159MPD2    C5 2476   2.759   4.301  13.635 -0.3436 -0.5309  0.2184
  159MPD2     H 2477   2.532   4.439  13.907 -0.9001 -0.1396 -0.3514
  159MPD2    H1 2478   2.628   4.368  13.496  0.0262 -2.4157 -0.0258
  159MPD2    H2 2479   2.885   4.223  13.780  0.6603 -0.5477 -1.7339
  159MPD2    H3 2480   2.822   4.272  13.552 -0.7945 -2.3529  0.5003
  159MPD2     N 2481   2.449   4.487  13.672 -0.0495 -0.6434 -0.0168
  159MPD2    H5 2482   2.405   4.524  13.755 -0.0284  0.9698 -0.7122
  159MPD2    N1 2483   2.760   4.311  13.987 -0.1339 -0.3684  0.2900
  159MPD2    H7 2484   2.835   4.243  13.995  1.4420  1.2856 -0.3628
  160TMC2    C1 2485   1.746   2.571   1.925 -0.5771  0.4069  0.0423
  160TMC2    C2 2486   1.706   2.467   2.006 -0.5188 -0.2369 -0.1119
  160TMC2    C3 2487   1.801   2.384   2.057 -0.1772 -0.2153 -0.0600
  160TMC2    C4 2488   1.876   2.587   1.889 -0.4226 -0.2984 -0.3003
  160TMC2    C5 2489   1.968   2.519   1.963 -0.4555 -0.3399 -0.1263
  160TMC2    C6 2490   1.935   2.409   2.041  0.0867  0.0905  0.3258
  160TMC2     C 2491   1.678   2.698   1.943 -0.2221  1.1046 -0.3889
  160TMC2     O 2492   1.625   2.725   2.052  0.2368 -0.2336  0.2312
  160TMC2     H 2493   1.603   2.453   2.034 -0.3727 -1.4018 -0.1490
  160TMC2    H1 2494   1.914   2.670   1.831  1.9607 -1.5176 -0.5042
  160TMC2    H2 2495   2.008   2.343   2.086  0.4775  0.0239 -0.3986
  160TMC2    C7 2496   2.113   2.519   1.921  0.7538  0.0211 -0.0519
  160TMC2    C8 2497   1.754   2.285   2.152  0.2044  0.1051 -0.2801
  160TMC2    O1 2498   2.187   2.432   1.970 -0.2540  0.0707 -0.0283
  160TMC2    O2 2499   1.653   2.293   2.220 -0.0474 -0.1509 -0.0464
  160TMC2    O5 2500   1.812   2.171   2.113 -0.1511 -0.7561 -0.1155
  160TMC2    H5 2501   1.864   2.181   2.030 -0.2103 -0.4631 -0.1150
  161MPD2     C 2502   1.605   2.981   1.920  0.2545 -0.8859  0.0068
  161MPD2    C1 2503   1.647   2.906   1.814  0.2899 -0.5464 -0.2889
  161MPD2    C2 2504   1.654   2.956   1.682 -0.2780  0.7537 -0.2139
  161MPD2    C3 2505   1.633   3.095   1.669 -0.4480  0.0169  0.5873
  161MPD2    C4 2506   1.592   3.175   1.782  0.0357 -0.9917 -0.5471
  161MPD2    C5 2507   1.582   3.113   1.901  0.3650 -0.5778 -0.1261
  161MPD2     H 2508   1.682   2.901   1.593 -1.2067  0.0374 -0.0558
  161MPD2    H1 2509   1.577   3.281   1.768  1.9741 -0.1679  3.5874
  161MPD2    H2 2510   1.594   2.944   2.022  0.7854  1.5603  0.9640
  161MPD2    H3 2511   1.554   3.180   1.981 -2.7035 -2.7470  0.6249
  161MPD2     N 2512   1.638   3.157   1.541  0.1539 -0.1062  0.0286
  161MPD2    H5 2513   1.614   3.256   1.536  2.7619  0.5963  1.4467
  161MPD2    N1 2514   1.693   2.774   1.831  0.3435 -0.2031  0.1961
  161MPD2    H7 2515   1.720   2.724   1.747  1.7517 -0.6557  0.9011
  162TMC2    C1 2516   4.659   4.736   1.329  0.1048 -0.0177  0.3806
  162TMC2    C2 2517   4.562   0.062   1.400  0.3090 -0.0782  0.5391
  162TMC2    C3 2518   4.594   0.126   1.518 -0.4260  0.6159  1.1630
  162TMC2    C4 2519   0.046   4.716   1.379 -0.1209 -0.0563  0.0882
  162TMC2    C5 2520   0.074   0.032   1.498 -0.0773  0.2043  0.5543
  162TMC2    C6 2521   4.719   0.097   1.576 -0.2490  0.8499 -0.2470
  162TMC2     C 2522   4.641   4.712   1.185  0.4612  0.0287 -0.4355
  162TMC2     O 2523   4.737   0.001   1.104 -0.1894 -0.0106  0.2952
  162TMC2     H 2524   4.470   0.086   1.349 -0.0899 -1.5064  0.5829
  162TMC2    H1 2525   0.131   4.698   1.313 -1.0026 -2.0861 -0.5073
  162TMC2    H2 2526   0.018   0.141   1.669 -2.1563 -0.4622  1.1270
  162TMC2    C7 2527   0.182   4.701   1.571  0.6339  0.2351  0.6315
  162TMC2    C8 2528   4.493   0.185   1.605  0.0016  1.3837 -0.8432
  162TMC2    O1 2529   0.251   0.033   1.646  0.1531 -0.7264 -0.0616
  162TMC2    O2 2530   4.376   0.196   1.569  0.4004 -0.8255  0.7103
  162TMC2    O5 2531   4.560   0.292   1.668 -0.1195  0.2273  0.5565
  162TMC2    H5 2532   4.656   0.294   1.649 -0.1245 -0.0950  0.4994
  163MPD2     C 2533   4.396   4.439   0.831  0.8507  0.0135  0.7759
  163MPD2    C1 2534   4.522   4.491   0.818 -0.0531 -0.3651 -0.3025
  163MPD2    C2 2535   4.567   4.566   0.928 -0.0293 -0.1154  0.6443
  163MPD2    C3 2536   4.489   4.581   1.041 -0.0810  0.4567 -0.1124
  163MPD2    C4 2537   4.357   4.549   1.038  0.4331 -0.5428  0.3292
  163MPD2    C5 2538   4.312   4.467   0.939  0.6207 -0.0111 -0.2847
  163MPD2     H 2539   4.671   4.593   0.938  0.0050 -1.5536  4.2682
  163MPD2    H1 2540   4.287   4.568   1.119 -0.2877 -1.1182 -0.1550
  163MPD2    H2 2541   4.362   4.385   0.744 -0.1446  0.3812  0.9354
  163MPD2    H3 2542   4.212   4.425   0.935 -0.2285  2.1272 -1.1750
  163MPD2     N 2543   4.525   4.641   1.163 -0.5754  0.2169 -0.4319
  163MPD2    H5 2544   4.461   4.630   1.240 -0.8231 -0.6095 -0.7603
  163MPD2    N1 2545   4.592   4.463   0.706 -0.2936 -0.5625  0.7167
  163MPD2    H7 2546   4.548   4.402   0.637  1.1649 -0.3542 -0.4105
  164TMC2    C1 2547   0.934   3.929  11.185 -0.3125 -0.0683 -0.2745
  164TMC2    C2 2548   1.006   3.952  11.065  0.5222 -0.3149 -0.4758
  164TMC2    C3 2549   0.971   4.063  10.984  0.3569  0.1460  0.0021
  164TMC2    C4 2550   0.829   4.010  11.215 -0.1913  0.6442  0.5727
  164TMC2    C5 2551   0.798   4.123  11.138  0.3998 -0.5309 -0.2679
  164TMC2    C6 2552   0.863   4.142  11.020  1.0768  0.5647  0.4507
  164TMC2     C 2553   0.940   3.793  11.248 -0.0051  0.0213  0.6691
  164TMC2     O 2554   0.857   3.770  11.336 -1.1395 -0.5019  0.2097
  164TMC2     H 2555   1.099   3.900  11.046  0.6701 -0.9765  2.1043
  164TMC2    H1 2556   0.783   3.983  11.310 -1.1712 -1.8442 -0.5916
  164TMC2    H2 2557   0.830   4.226  10.960  2.2113  0.2464 -0.6179
  164TMC2    C7 2558   0.711   4.225  11.195  0.2875 -0.3092  0.0537
  164TMC2    C8 2559   1.044   4.089  10.866 -0.0473 -0.0015  0.8723
  164TMC2    O1 2560   0.659   4.302  11.114  0.5224  0.7095 -0.1639
  164TMC2    O2 2561   1.093   4.199  10.840  0.0132 -0.7279  0.1018
  164TMC2    O5 2562   1.083   3.965  10.820 -0.1644 -0.6878  0.1467
  164TMC2    H5 2563   1.024   3.891  10.847 -2.1199  0.4934 -0.8852
  165TMC2    C1 2564   1.704   1.845   1.055  0.0516  0.7581 -0.6201
  165TMC2    C2 2565   1.659   1.741   0.991 -0.4387  0.7029 -0.0106
  165TMC2    C3 2566   1.747   1.651   0.928 -0.3784  0.7955  0.0768
  165TMC2    C4 2567   1.841   1.874   1.061  0.5649 -0.7212 -0.3374
  165TMC2    C5 2568   1.923   1.783   1.000 -0.9654 -0.2617 -0.2338
  165TMC2    C6 2569   1.881   1.670   0.933  0.3696 -0.7276 -0.2032
  165TMC2     C 2570   1.617   1.942   1.109 -0.0806  0.1356 -0.6636
  165TMC2     O 2571   1.504   1.951   1.060 -0.4474  0.2120 -0.0870
  165TMC2     H 2572   1.553   1.735   0.968 -0.7058  3.3635  0.5194
  165TMC2    H1 2573   1.883   1.957   1.117 -1.0476  0.5441 -1.0058
  165TMC2    H2 2574   1.946   1.598   0.885  0.3327 -0.2940 -0.9030
  165TMC2    C7 2575   2.063   1.796   1.045  0.6365 -0.1840  0.2883
  165TMC2    C8 2576   1.676   1.539   0.868  0.3441  0.0737  0.1251
  165TMC2    O1 2577   2.079   1.860   1.151 -0.0049 -0.0595  0.0814
  165TMC2    O2 2578   1.563   1.548   0.825  0.2953 -0.0759  0.1411
  165TMC2    O5 2579   1.758   1.431   0.870 -0.1077 -0.0510 -0.5145
  165TMC2    H5 2580   1.827   1.435   0.939 -2.0062 -2.5961  1.5843
  166MPD2     C 2581   1.476   2.269   1.475  0.5273  0.6082  0.2282
  166MPD2    C1 2582   1.400   2.213   1.374 -0.4218 -0.0918 -0.3632
  166MPD2    C2 2583   1.466   2.147   1.270 -0.2025  0.1226  0.1362
  166MPD2    C3 2584   1.600   2.116   1.292  0.5278 -0.3793  0.0739
  166MPD2    C4 2585   1.671   2.182   1.388  0.3072  0.6119  1.0102
  166MPD2    C5 2586   1.613   2.265   1.482 -0.1638  0.2580 -0.6209
  166MPD2     H 2587   1.403   2.093   1.200  1.7725 -2.0236 -0.0036
  166MPD2    H1 2588   1.777   2.160   1.395  0.1267 -0.8668 -1.0573
  166MPD2    H2 2589   1.433   2.327   1.556 -3.4315 -1.8333 -0.1606
  166MPD2    H3 2590   1.667   2.313   1.563 -1.0160  2.9234 -1.6150
  166MPD2     N 2591   1.666   2.008   1.219 -0.5169  0.5976 -0.2714
  166MPD2    H5 2592   1.758   1.990   1.257  0.3572  0.8326 -2.3141
  166MPD2    N1 2593   1.263   2.221   1.402 -0.1365  1.0530  0.7938
  166MPD2    H7 2594   1.243   2.277   1.485 -3.3105 -0.6671  1.2176
  167TMC2    C1 2595   0.452   3.756  13.170  0.3475  0.1283 -0.3077
  167TMC2    C2 2596   0.368   3.793  13.262  0.3039 -0.3110 -0.0683
  167TMC2    C3 2597   0.297   3.690  13.325 -0.0926 -0.2358 -0.0596
  167TMC2    C4 2598   0.467   3.619  13.134  0.1794 -0.3439  0.0158
  167TMC2    C5 2599   0.393   3.519  13.194  1.0236 -0.2743 -0.0566
  167TMC2    C6 2600   0.312   3.553  13.296 -0.3389  0.2594 -0.1373
  167TMC2     C 2601   0.505   3.855  13.080 -0.4413  0.9119 -0.3680
  167TMC2     O 2602   0.601   3.828  13.015 -0.1899  0.0101 -0.0710
  167TMC2     H 2603   0.374   3.890  13.309  0.1690 -0.2050 -0.2681
  167TMC2    H1 2604   0.521   3.602  13.041  0.6515  0.4901  0.1353
  167TMC2    H2 2605   0.248   3.483  13.349 -0.0287  1.5230  1.9085
  167TMC2    C7 2606   0.395   3.385  13.135 -0.2432  0.7387  0.1017
  167TMC2    C8 2607   0.188   3.717  13.418  0.0773  0.2050  0.0460
  167TMC2    O1 2608   0.305   3.308  13.170  0.0617  0.8641 -0.2777
  167TMC2    O2 2609   0.193   3.654  13.523  0.5163 -0.3186 -0.1109
  167TMC2    O5 2610   0.145   3.842  13.416 -1.2063  0.5254  0.5414
  167TMC2    H5 2611   0.131   3.878  13.325  0.4725 -0.0575  0.0561
  168MPD2     C 2612   0.591   4.095  12.931  0.3219 -0.8156  0.6335
  168MPD2    C1 2613   0.470   4.086  13.002 -0.1417  0.3791 -0.4838
  168MPD2    C2 2614   0.382   4.190  13.006  0.0825 -0.2313 -0.4263
  168MPD2    C3 2615   0.412   4.300  12.925 -0.2012  0.2844  0.1720
  168MPD2    C4 2616   0.523   4.314  12.849  0.4467  0.7529  0.1684
  168MPD2    C5 2617   0.614   4.211  12.861  0.3567 -0.3339  0.0859
  168MPD2     H 2618   0.294   4.191  13.069  0.2766  0.9637 -0.1793
  168MPD2    H1 2619   0.531   4.408  12.795 -0.0115 -1.2015 -3.2808
  168MPD2    H2 2620   0.671   4.021  12.928  1.9948  0.9657  1.5552
  168MPD2    H3 2621   0.708   4.234  12.812  0.6167 -0.4695  0.5182
  168MPD2     N 2622   0.312   4.401  12.900 -1.1164  0.0009  0.4996
  168MPD2    H5 2623   0.343   4.482  12.846  0.9350 -1.9855 -1.3001
  168MPD2    N1 2624   0.441   3.974  13.084  0.1395 -0.6830 -0.1978
  168MPD2    H7 2625   0.354   3.979  13.136  0.1385 -1.1615 -0.1456
  169MPD1     C 2626   2.423   0.033   8.858  0.2773  0.3896  0.2719
  169MPD1    C1 2627   2.360   4.661   8.915 -0.0810 -0.4548  0.7758
  169MPD1    C2 2628   2.411   4.604   9.031  0.0813  0.6077  0.1636
  169MPD1    C3 2629   2.524   4.657   9.092  0.4036 -0.5050  0.0238
  169MPD1    C4 2630   2.592   0.024   9.026 -0.0121 -0.3981  0.4667
  169MPD1    C5 2631   2.534   0.079   8.920 -0.3128  0.1730  0.3350
  169MPD1     H 2632   2.366   4.517   9.076  0.1296 -0.0992 -1.1543
  169MPD1    H1 2633   2.675   0.081   9.067 -0.6502 -0.2913  1.6153
  169MPD1    H2 2634   2.389   0.074   8.763 -0.1108 -0.9189 -0.1508
  169MPD1    H3 2635   2.579   0.170   8.884  0.3120 -0.3023 -0.0865
  169MPD1     N 2636   2.572   4.604   9.215  0.0962 -0.0818  0.2528
  169MPD1    H5 2637   2.509   4.537   9.258 -0.1602 -0.1282 -0.1964
  169MPD1    N1 2638   2.255   4.592   8.842  0.1523 -0.2185  0.1828
  169MPD1    H6 2639   2.194   4.543   8.906  0.1972  0.6334  0.8793
  169MPD1    H7 2640   2.211   4.656   8.775  0.4437  0.2828  0.4685
  170MPD1     C 2641   1.786   0.878  12.861  0.3119  0.6215  0.3641
  170MPD1    C1 2642   1.796   0.814  12.979  0.1063  0.2328  0.5928
  170MPD1    C2 2643   1.729   0.871  13.084 -0.7288  0.4256 -0.3852
  170MPD1    C3 2644   1.666   0.998  13.079  0.2031 -0.0727  0.4675
  170MPD1    C4 2645   1.661   1.054  12.953 -0.2930 -0.2269  0.7493
  170MPD1    C5 2646   1.718   0.996  12.849 -0.6726 -0.3270 -0.5901
  170MPD1     H 2647   1.736   0.834  13.185  2.5678 -0.5812 -0.9954
  170MPD1    H1 2648   1.615   1.151  12.943  2.5698  0.8528 -1.8481
  170MPD1    H2 2649   1.826   0.844  12.766 -1.9387  1.1138 -0.7628
  170MPD1    H3 2650   1.703   1.031  12.748 -0.0465 -0.5486 -0.7633
  170MPD1     N 2651   1.607   1.057  13.199 -0.4289 -0.2433 -0.5101
  170MPD1    H5 2652   1.610   0.994  13.279 -0.3736 -2.4022 -2.2273
  170MPD1    N1 2653   1.854   0.686  12.995  0.4213 -0.4233 -0.0410
  170MPD1    H6 2654   1.933   0.670  12.932  1.4671 -0.9531  1.4033
  170MPD1    H7 2655   1.865   0.642  13.086  0.3864 -1.1326 -0.3864
  171MPD1     C 2656   4.170   2.141  15.452 -0.0347 -0.3344 -0.4203
  171MPD1    C1 2657   4.187   2.188  15.582  1.0643  0.1138 -0.6513
  171MPD1    C2 2658   4.302   2.172  15.653  0.4112 -0.4050 -0.3602
  171MPD1    C3 2659   4.420   2.135  15.587 -0.1856 -0.3497 -0.2218
  171MPD1    C4 2660   4.406   2.095  15.455  0.4654 -0.1568 -0.3632
  171MPD1    C5 2661   4.284   2.094  15.393  0.0559 -0.3068 -0.2604
  171MPD1     H 2662   4.299   2.198  15.758  1.0269 -2.3102  0.1390
  171MPD1    H1 2663   4.485   2.052  15.395  1.4524 -0.9020  1.4692
  171MPD1    H2 2664   4.078   2.141  15.394  0.3105  3.7282 -0.9353
  171MPD1    H3 2665   4.273   2.062  15.290 -2.7291  1.0611 -0.3795
  171MPD1     N 2666   4.537   2.115  15.660  0.6149 -0.1503 -0.2092
  171MPD1    H5 2667   4.614   2.069  15.612  0.8426 -0.3724  0.3688
  171MPD1    N1 2668   4.075   2.228  15.658  0.7697 -0.0614  0.1270
  171MPD1    H6 2669   4.093   2.296  15.732 -3.5645  0.2310  0.9070
  171MPD1    H7 2670   4.003   2.273  15.602  0.7110  0.6745  0.7818
  172MPD1     C 2671   3.414   1.681   0.564 -0.6655  0.2279  0.1533
  172MPD1    C1 2672   3.390   1.752   0.448  0.8900  0.6286 -0.4204
  172MPD1    C2 2673   3.425   1.883   0.449 -0.2097 -0.6570  0.1715
  172MPD1    C3 2674   3.472   1.944   0.565 -0.5812 -0.5773  1.1227
  172MPD1    C4 2675   3.475   1.876   0.682  0.6759 -1.0411 -1.2425
  172MPD1    C5 2676   3.450   1.743   0.680 -0.5356 -0.2217  0.2254
  172MPD1     H 2677   3.406   1.952   0.368  2.2230 -0.4072 -0.1829
  172MPD1    H1 2678   3.498   1.928   0.774 -1.9669 -1.0463 -0.5732
  172MPD1    H2 2679   3.395   1.575   0.563 -1.6145  0.3797  0.8461
  172MPD1    H3 2680   3.469   1.683   0.768 -0.0358  2.2666  1.8303
  172MPD1     N 2681   3.518   2.082   0.567 -0.3853  0.6146  0.3285
  172MPD1    H5 2682   3.576   2.105   0.647 -1.7759 -0.3257  1.6366
  172MPD1    N1 2683   3.361   1.687   0.324  0.1346  0.3298 -0.8358
  172MPD1    H6 2684   3.297   1.610   0.344 -0.3061  0.8859 -0.0719
  172MPD1    H7 2685   3.329   1.757   0.257 -0.6068 -0.1012 -0.9374
  173MPD1     C 2686   1.187   1.305  14.168 -0.7547  0.4625 -0.8102
  173MPD1    C1 2687   1.158   1.214  14.269 -0.1365  0.1435  0.0670
  173MPD1    C2 2688   1.030   1.224  14.322  0.2726  0.2059 -0.4553
  173MPD1    C3 2689   0.930   1.312  14.280  0.5571  0.2803 -0.5383
  173MPD1    C4 2690   0.963   1.384  14.167 -0.3844  0.3804 -0.1622
  173MPD1    C5 2691   1.089   1.380  14.112 -0.2847  0.6412 -0.3041
  173MPD1     H 2692   1.001   1.145  14.391  3.0955 -1.0628 -0.7594
  173MPD1    H1 2693   0.884   1.443  14.122  1.1579  1.4832 -1.3971
  173MPD1    H2 2694   1.290   1.302  14.133 -0.5555  1.5644 -0.3103
  173MPD1    H3 2695   1.109   1.450  14.032  2.1265 -0.3998 -0.5920
  173MPD1     N 2696   0.811   1.319  14.349 -0.3659 -0.3401 -0.5010
  173MPD1    H5 2697   0.794   1.254  14.424 -0.0746  0.7550  0.5066
  173MPD1    N1 2698   1.258   1.132  14.322  0.3704 -0.3968  0.3369
  173MPD1    H6 2699   1.226   1.040  14.350  0.8054 -0.6663 -0.0475
  173MPD1    H7 2700   1.335   1.125  14.256  0.0839 -0.7088  0.0313
  174MPD1     C 2701   0.110   0.753  14.782 -0.6627 -0.4172  0.3050
  174MPD1    C1 2702   0.243   0.776  14.814 -0.1797  0.1804 -0.3746
  174MPD1    C2 2703   0.307   0.870  14.733 -0.2417 -0.6083  0.6984
  174MPD1    C3 2704   0.263   0.914  14.613  0.2724 -0.5420  0.9264
  174MPD1    C4 2705   0.136   0.869  14.575 -0.7198 -0.8953  0.4718
  174MPD1    C5 2706   0.062   0.787  14.658  0.2354 -0.1601  0.3291
  174MPD1     H 2707   0.403   0.904  14.772 -0.1519 -0.8627  0.7027
  174MPD1    H1 2708   0.088   0.905  14.485 -0.9265  2.7955  2.0350
  174MPD1    H2 2709   0.044   0.697  14.847  0.7194 -3.2201 -0.6936
  174MPD1    H3 2710   4.695   0.767  14.635  0.2750 -0.1035  0.0926
  174MPD1     N 2711   0.305   1.021  14.539  0.4841 -0.2806 -0.5730
  174MPD1    H5 2712   0.240   1.055  14.469 -0.9004 -2.3852 -0.3399
  174MPD1    N1 2713   0.281   0.749  14.948 -0.0256  0.1972 -0.4241
  174MPD1    H6 2714   0.249   0.657  14.978 -0.1820 -0.2190 -1.8597
  174MPD1    H7 2715   0.381   0.755  14.968  0.0349  0.6697 -0.8593
  175MPD1     C 2716   3.595   2.134  16.009 -0.3328  0.3176 -0.5426
  175MPD1    C1 2717   3.504   2.231  15.963 -0.5786 -0.9788  0.0295
  175MPD1    C2 2718   3.392   2.264  16.036 -0.1976 -0.2034 -0.1797
  175MPD1    C3 2719   3.350   2.184  16.136  0.4713  0.3106 -0.1965
  175MPD1    C4 2720   3.437   2.082  16.183 -0.3936  0.1535  0.2479
  175MPD1    C5 2721   3.555   2.065  16.117  0.1637  0.3341  0.1228
  175MPD1     H 2722   3.329   2.347  16.010  0.4077 -0.1805 -1.5898
  175MPD1    H1 2723   3.419   2.018  16.269 -1.4017 -0.2236 -0.2366
  175MPD1    H2 2724   3.684   2.098  15.958  1.1884 -0.3863  2.6013
  175MPD1    H3 2725   3.623   1.988  16.151  0.5186  1.0879  1.1095
  175MPD1     N 2726   3.229   2.209  16.211  0.2075  0.3146  0.3965
  175MPD1    H5 2727   3.213   2.159  16.298  2.0143 -2.6338 -0.9750
  175MPD1    N1 2728   3.550   2.320  15.854 -0.0675 -0.3090  0.2364
  175MPD1    H6 2729   3.467   2.345  15.802 -0.2461 -0.8786  0.2481
  175MPD1    H7 2730   3.608   2.266  15.791 -0.6713 -0.8974  0.1870
  176MPD1     C 2731   4.079   4.676  17.251  0.3775 -0.2334  0.7106
  176MPD1    C1 2732   4.058   0.041  17.339 -0.0398 -0.5238  0.0880
  176MPD1    C2 2733   4.165   0.090  17.408  0.1649 -0.6489  0.5811
  176MPD1    C3 2734   4.297   0.058  17.375 -0.2885 -0.8379 -0.0784
  176MPD1    C4 2735   4.314   4.702  17.277  0.0805  0.2913  0.3508
  176MPD1    C5 2736   4.209   4.643  17.224  0.3147 -0.2696 -0.3175
  176MPD1     H 2737   4.151   0.168  17.483 -1.9543 -0.7952  0.3276
  176MPD1    H1 2738   4.411   4.664  17.245 -1.0560 -3.8855  1.9334
  176MPD1    H2 2739   4.000   4.619  17.203 -0.0209 -0.4514  1.6229
  176MPD1    H3 2740   4.236   4.564  17.155  3.1081  0.3407  0.0863
  176MPD1     N 2741   4.405   0.125  17.440 -0.5328 -0.2721 -0.4384
  176MPD1    H5 2742   4.384   0.210  17.492 -0.9069  0.2884 -1.5157
  176MPD1    N1 2743   3.925   0.061  17.390  0.2260 -0.5284  0.3815
  176MPD1    H6 2744   3.847   0.053  17.325 -0.4959  0.9069  1.0768
  176MPD1    H7 2745   3.917   0.149  17.440  1.3334 -0.2420  0.0696
  177MPD1     C 2746   3.597   4.713   9.544 -0.1703  0.0617 -0.2690
  177MPD1    C1 2747   3.465   4.693   9.567 -0.1377  0.2995  0.7775
  177MPD1    C2 2748   3.374   0.059   9.532  0.8898  0.3709  0.7905
  177MPD1    C3 2749   3.414   0.159   9.442  0.7749  0.4047 -0.4778
  177MPD1    C4 2750   3.547   0.171   9.418 -0.3364  0.8404  0.2784
  177MPD1    C5 2751   3.638   0.083   9.473 -0.4034  0.5002  0.0072
  177MPD1     H 2752   3.270   0.039   9.556  0.6672 -3.0717 -3.1350
  177MPD1    H1 2753   3.591   0.241   9.347  2.1364  0.2463  1.2172
  177MPD1    H2 2754   3.666   4.631   9.561 -0.0222  0.0764 -0.7992
  177MPD1    H3 2755   3.742   0.086   9.445 -0.7661 -1.9859 -1.6041
  177MPD1     N 2756   3.313   0.236   9.392 -0.0526 -0.7751  0.4502
  177MPD1    H5 2757   3.219   0.214   9.423 -0.2416  0.2035  0.5776
  177MPD1    N1 2758   3.433   4.589   9.656 -0.1955 -0.9242  0.0566
  177MPD1    H6 2759   3.346   4.546   9.626 -0.8616  0.1591  0.4394
  177MPD1    H7 2760   3.506   4.519   9.646  0.8828  0.2710 -0.5451
  178MPD1     C 2761   0.757   1.464   0.144 -0.4722  1.1598 -0.0141
  178MPD1    C1 2762   0.806   1.337   0.191 -0.1144 -0.2034  0.1523
  178MPD1    C2 2763   0.886   1.257   0.107  1.2162 -0.1172 -0.0918
  178MPD1    C3 2764   0.923   1.317  17.729  0.7693  0.5456 -0.1839
  178MPD1    C4 2765   0.866   1.435  17.681  1.4916 -0.1810  0.3952
  178MPD1    C5 2766   0.787   1.509   0.018 -0.5867 -0.7106  0.0407
  178MPD1     H 2767   0.938   1.173   0.152  2.2132  1.2560  1.3418
  178MPD1    H1 2768   0.895   1.482  17.588 -2.1231  1.6909  0.2164
  178MPD1    H2 2769   0.678   1.503   0.208 -1.1141 -0.5427  0.2273
  178MPD1    H3 2770   0.734   1.595  17.724  2.2776  0.7364 -0.6418
  178MPD1     N 2771   1.016   1.244  17.648 -0.0836  0.2483 -0.3918
  178MPD1    H5 2772   1.056   1.284  17.563 -0.7543  1.9652  0.0971
  178MPD1    N1 2773   0.770   1.283   0.307  0.6278 -0.8224  0.4605
  178MPD1    H6 2774   0.788   1.351   0.381  1.5604  0.6082 -1.0832
  178MPD1    H7 2775   0.817   1.197   0.334  1.4482 -0.6632 -0.4495
  179MPD1     C 2776   0.409   3.560  15.373 -0.0097  0.7119 -0.8188
  179MPD1    C1 2777   0.514   3.587  15.464 -0.3216  0.1102  0.2744
  179MPD1    C2 2778   0.510   3.534  15.593 -0.0419 -0.4517  0.1568
  179MPD1    C3 2779   0.388   3.487  15.637  0.1644  0.4289  0.1394
  179MPD1    C4 2780   0.278   3.474  15.556 -0.2339  0.6529  0.4185
  179MPD1    C5 2781   0.294   3.495  15.421 -0.4642  0.1412  0.0235
  179MPD1     H 2782   0.605   3.527  15.643 -0.2258 -0.9600  0.4344
  179MPD1    H1 2783   0.192   3.418  15.587  0.2251 -0.8294 -0.9854
  179MPD1    H2 2784   0.420   3.581  15.268 -2.5681 -0.4908 -1.3429
  179MPD1    H3 2785   0.215   3.459  15.356  0.1690 -1.7674  0.3156
  179MPD1     N 2786   0.367   3.446  15.767  0.1384 -0.7965  0.6557
  179MPD1    H5 2787   0.279   3.403  15.793  0.3532 -0.5422  1.8371
  179MPD1    N1 2788   0.637   3.631  15.412 -0.9494  0.6201  0.3412
  179MPD1    H6 2789   0.634   3.698  15.336  1.4508  0.5232  0.1788
  179MPD1    H7 2790   0.708   3.666  15.476  0.4421 -1.9459  0.2102
  180MPD1     C 2791   4.651   0.532  15.039  0.1813 -0.0108  0.1992
  180MPD1    C1 2792   0.035   0.473  14.998 -0.4091 -0.0160  0.5404
  180MPD1    C2 2793   0.048   0.427  14.872 -0.0487  0.2358 -0.4366
  180MPD1    C3 2794   4.679   0.436  14.783  0.2397 -0.6411  0.4519
  180MPD1    C4 2795   4.558   0.488  14.822 -0.8846 -0.4238  0.0824
  180MPD1    C5 2796   4.544   0.534  14.950 -0.1785  0.0257 -0.1542
  180MPD1     H 2797   0.149   0.391  14.852  0.0038  0.7789 -1.1259
  180MPD1    H1 2798   4.473   0.491  14.755  0.4960 -0.4865 -1.6481
  180MPD1    H2 2799   4.632   0.579  15.135 -0.8784 -0.6115  0.2838
  180MPD1    H3 2800   4.447   0.576  14.976 -0.0378 -0.1081  0.5697
  180MPD1     N 2801   4.712   0.404  14.648 -0.0263  0.5418 -0.1381
  180MPD1    H5 2802   0.063   0.356  14.634 -0.1668  0.3747 -0.4380
  180MPD1    N1 2803   0.143   0.469  15.085 -0.4248  0.5371  0.0259
  180MPD1    H6 2804   0.235   0.444  15.049 -2.3250 -5.0363 -0.9396
  180MPD1    H7 2805   0.133   0.551  15.145 -0.9531  1.0944 -0.8278
  181MPD1     C 2806   1.968   3.021   9.625  0.0146 -0.9557 -0.0720
  181MPD1    C1 2807   2.059   3.116   9.674  0.2427  0.2356 -0.2724
  181MPD1    C2 2808   2.119   3.101   9.803  0.3185  0.3634 -0.0479
  181MPD1    C3 2809   2.082   2.981   9.872 -0.2068 -0.6396  0.4725
  181MPD1    C4 2810   1.993   2.889   9.819  0.0368  0.9224 -0.8451
  181MPD1    C5 2811   1.936   2.910   9.695  0.1565  0.2574  0.6998
  181MPD1     H 2812   2.195   3.169   9.838 -2.6516  2.8870  1.4546
  181MPD1    H1 2813   1.956   2.815   9.890 -1.3597 -0.9316 -3.4919
  181MPD1    H2 2814   1.941   3.041   9.522 -0.9308 -0.4750  0.2610
  181MPD1    H3 2815   1.856   2.845   9.663 -0.3081 -0.1749  2.7385
  181MPD1     N 2816   2.136   2.956  10.000  0.1412 -0.2586  0.0960
  181MPD1    H5 2817   2.133   2.860  10.032  0.3068  0.4629  2.2778
  181MPD1    N1 2818   2.107   3.214   9.588 -0.2798 -0.0389  0.0528
  181MPD1    H6 2819   2.146   3.299   9.629  1.5711 -0.5066 -0.7336
  181MPD1    H7 2820   2.049   3.241   9.509  1.0352 -0.9267 -1.2206
  182MPD1     C 2821   3.137   2.132   1.341 -0.1512  0.1098  0.4738
  182MPD1    C1 2822   3.089   2.223   1.245  0.2537 -0.3309 -0.4518
  182MPD1    C2 2823   3.038   2.168   1.129 -0.8193 -0.0343  0.1469
  182MPD1    C3 2824   3.028   2.029   1.119  0.4867 -0.0462  0.4534
  182MPD1    C4 2825   3.075   1.949   1.220  0.0543  0.5239  0.6802
  182MPD1    C5 2826   3.129   1.998   1.339 -0.0365 -0.2108 -0.4584
  182MPD1     H 2827   3.000   2.218   1.041  0.3146 -0.3009 -0.4958
  182MPD1    H1 2828   3.076   1.841   1.211 -0.0865  0.6714 -1.1401
  182MPD1    H2 2829   3.206   2.174   1.413  0.7458  1.1564 -0.9964
  182MPD1    H3 2830   3.172   1.931   1.412 -0.3583  1.6863  1.4719
  182MPD1     N 2831   2.952   1.977   1.005  0.3565  0.1275  0.1748
  182MPD1    H5 2832   2.956   1.875   0.997 -1.2802 -0.2203  3.4429
  182MPD1    N1 2833   3.114   2.361   1.247 -0.7935 -0.7913 -0.5162
  182MPD1    H6 2834   3.041   2.403   1.191 -0.0392  1.3003  0.0792
  182MPD1    H7 2835   3.110   2.404   1.339 -1.8721 -1.7946 -0.0903
  183MPD1     C 2836   3.963   2.767   9.868  0.2519 -0.0216  0.5226
  183MPD1    C1 2837   3.986   2.627   9.854  0.2116 -0.2721 -0.0330
  183MPD1    C2 2838   3.907   2.544   9.938  0.1620 -0.5854  0.0407
  183MPD1    C3 2839   3.799   2.590  10.011 -0.1440  0.0850  0.0644
  183MPD1    C4 2840   3.781   2.725  10.021  0.0202 -0.4932  0.1165
  183MPD1    C5 2841   3.863   2.810   9.957  0.3439 -0.6008  0.4573
  183MPD1     H 2842   3.925   2.437   9.933  0.2611 -0.5433 -0.5178
  183MPD1    H1 2843   3.704   2.770  10.083  0.2346 -0.0737  0.0745
  183MPD1    H2 2844   4.024   2.843   9.820 -1.6174  1.3779  0.3346
  183MPD1    H3 2845   3.852   2.915   9.981  2.1939 -0.3531  0.2117
  183MPD1     N 2846   3.709   2.499  10.082  0.1974 -0.0381 -0.2835
  183MPD1    H5 2847   3.639   2.547  10.137  1.1421 -1.0237  1.7715
  183MPD1    N1 2848   4.097   2.577   9.783 -0.4188  0.0946  0.1943
  183MPD1    H6 2849   4.100   2.640   9.704  2.4713 -2.0452 -1.3876
  183MPD1    H7 2850   4.072   2.494   9.731  1.2150  1.7535 -3.2239
  184MPD1     C 2851   2.391   0.479  10.327  0.6115 -0.7799 -0.6731
  184MPD1    C1 2852   2.332   0.537  10.216 -0.4486  0.5097  0.0110
  184MPD1    C2 2853   2.386   0.506  10.085 -0.2650  0.5384 -0.8393
  184MPD1    C3 2854   2.514   0.460  10.074  0.8121 -0.8008 -0.3854
  184MPD1    C4 2855   2.578   0.406  10.186 -0.3088 -0.1264 -0.1567
  184MPD1    C5 2856   2.513   0.418  10.312  0.1426  0.4980 -0.0186
  184MPD1     H 2857   2.315   0.534  10.007 -0.4752  1.0648 -0.4552
  184MPD1    H1 2858   2.674   0.356  10.177  0.1404  0.7472 -0.2280
  184MPD1    H2 2859   2.348   0.473  10.426 -0.6944 -0.2931 -1.2094
  184MPD1    H3 2860   2.553   0.377  10.404  1.2043  1.6519  0.0170
  184MPD1     N 2861   2.582   0.461   9.947  0.3515 -0.3400  0.2870
  184MPD1    H5 2862   2.682   0.444   9.946  0.4347  0.1420  0.8868
  184MPD1    N1 2863   2.203   0.599  10.226 -0.3252 -0.5546 -0.4387
  184MPD1    H6 2864   2.178   0.633  10.319  1.0418 -1.2781  0.2000
  184MPD1    H7 2865   2.193   0.675  10.160 -0.1769 -0.1465  0.0083
  185MPD1     C 2866   2.282   0.869   9.113  0.0175  0.0690  0.0093
  185MPD1    C1 2867   2.407   0.822   9.059 -0.0833 -0.1473  0.1793
  185MPD1    C2 2868   2.480   0.737   9.145  0.8310  0.2848  0.5609
  185MPD1    C3 2869   2.427   0.684   9.255  0.2911 -0.1066 -0.0301
  185MPD1    C4 2870   2.294   0.712   9.290 -0.7017 -0.3003 -0.4028
  185MPD1    C5 2871   2.225   0.805   9.221 -0.0223 -0.0268 -0.2343
  185MPD1     H 2872   2.577   0.702   9.112  0.6298 -1.1432  1.4919
  185MPD1    H1 2873   2.267   0.677   9.389  1.9944 -1.1963  0.0059
  185MPD1    H2 2874   2.226   0.950   9.066 -3.1323 -1.4535  1.1895
  185MPD1    H3 2875   2.131   0.838   9.262  0.2514 -0.6160  0.8718
  185MPD1     N 2876   2.501   0.609   9.352 -0.0319  0.1294  0.1945
  185MPD1    H5 2877   2.451   0.574   9.433  1.7173 -1.3407  0.6395
  185MPD1    N1 2878   2.466   0.883   8.951  0.2052 -0.0368 -0.1503
  185MPD1    H6 2879   2.395   0.911   8.884  0.3256  0.6764  0.0171
  185MPD1    H7 2880   2.536   0.825   8.905  1.1207 -0.0849  1.2913
  186MPD1     C 2881   0.791   3.931  15.784  0.7766 -0.6120  0.1681
  186MPD1    C1 2882   0.914   3.899  15.836  0.6007  0.1973  0.9184
  186MPD1    C2 2883   0.960   3.958  15.954  0.4306  0.1784  0.4939
  186MPD1    C3 2884   0.890   4.069  16.002  0.3652 -0.3928 -0.1182
  186MPD1    C4 2885   0.768   4.103  15.940 -0.4059 -0.4607  0.1362
  186MPD1    C5 2886   0.720   4.035  15.833 -0.2606 -0.2230  0.0361
  186MPD1     H 2887   1.053   3.935  16.005 -0.7848  0.7363  2.9476
  186MPD1    H1 2888   0.713   4.190  15.975  0.4586 -0.2599  0.9910
  186MPD1    H2 2889   0.752   3.888  15.693 -0.0987 -0.3638  0.4303
  186MPD1    H3 2890   0.629   4.078  15.795  0.0837  0.8417  0.4117
  186MPD1     N 2891   0.935   4.139  16.117 -0.1713 -0.8526  0.5575
  186MPD1    H5 2892   0.876   4.213  16.154 -1.9949 -1.0768 -1.9474
  186MPD1    N1 2893   0.983   3.790  15.784 -0.4954 -0.0538  0.4086
  186MPD1    H6 2894   1.083   3.792  15.804 -0.3572 -2.6122  0.0514
  186MPD1    H7 2895   0.960   3.780  15.685  0.8735 -0.4888  0.1274
  187MPD1     C 2896   0.430   0.849   0.523  0.2280 -0.0353  0.4425
  187MPD1    C1 2897   0.358   0.755   0.449  0.1623 -0.1857  0.3396
  187MPD1    C2 2898   0.361   0.768   0.309 -0.2641 -0.2363  0.3359
  187MPD1    C3 2899   0.421   0.869   0.241  0.2742 -0.3699 -0.1735
  187MPD1    C4 2900   0.500   0.959   0.321  0.5219  0.1134  0.6521
  187MPD1    C5 2901   0.497   0.950   0.460  0.3018 -0.2827 -0.0284
  187MPD1     H 2902   0.305   0.699   0.246  1.1519 -0.5348 -0.5884
  187MPD1    H1 2903   0.563   1.036   0.278  1.0468 -0.8787 -0.3659
  187MPD1    H2 2904   0.423   0.844   0.631  1.1175  2.2078  0.5910
  187MPD1    H3 2905   0.558   1.017   0.520  1.2923 -0.4819 -0.8091
  187MPD1     N 2906   0.406   0.898   0.104  0.1614  0.9120 -0.2457
  187MPD1    H5 2907   0.452   0.983   0.073  2.9838  0.5835  3.0171
  187MPD1    N1 2908   0.274   0.667   0.518  0.1115 -0.1328 -0.2828
  187MPD1    H6 2909   0.271   0.573   0.478 -1.5613 -0.0704 -0.3111
  187MPD1    H7 2910   0.248   0.665   0.616  2.6452 -0.9652  0.3679
  188MPD1     C 2911   4.585   1.220   9.660 -0.3669  0.3287  0.4523
  188MPD1    C1 2912   4.718   1.196   9.675 -0.0367  0.1678 -0.1140
  188MPD1    C2 2913   0.006   1.111   9.779 -0.5426  0.0045 -0.0843
  188MPD1    C3 2914   4.648   1.033   9.841  0.1477  0.4440 -0.3807
  188MPD1    C4 2915   4.520   1.061   9.825 -0.4320  0.2062 -0.5169
  188MPD1    C5 2916   4.489   1.162   9.738  0.0914  0.4547  0.5036
  188MPD1     H 2917   0.109   1.097   9.811 -0.7286  2.2382  1.5053
  188MPD1    H1 2918   4.443   1.022   9.891 -0.8453  1.9231  0.0031
  188MPD1    H2 2919   4.548   1.307   9.606 -0.0498  0.3517  0.2695
  188MPD1    H3 2920   4.387   1.196   9.733 -0.1865 -0.8198 -2.2404
  188MPD1     N 2921   4.667   0.932   9.932  0.6755 -0.5698 -0.5084
  188MPD1    H5 2922   4.584   0.893   9.977  0.1096  2.0848  0.7290
  188MPD1    N1 2923   0.072   1.284   9.620  0.1173 -0.1456 -0.2208
  188MPD1    H6 2924   0.157   1.231   9.603  0.6543  1.1705 -1.6384
  188MPD1    H7 2925   0.030   1.307   9.530 -1.3438  0.7784  0.6893
  189MPD1     C 2926   2.021   2.657   0.936 -0.0352  0.2415 -0.2702
  189MPD1    C1 2927   1.916   2.740   0.955 -0.5634 -0.1383  0.5654
  189MPD1    C2 2928   1.805   2.710   0.882 -0.2626  0.2569 -0.1994
  189MPD1    C3 2929   1.794   2.587   0.816 -0.3231 -0.3959 -0.5644
  189MPD1    C4 2930   1.897   2.491   0.814  0.1260  0.0639 -0.3551
  189MPD1    C5 2931   2.013   2.537   0.866  0.3687  0.2144  0.3267
  189MPD1     H 2932   1.715   2.770   0.883 -1.1514 -1.0944 -0.7430
  189MPD1    H1 2933   1.906   2.396   0.763 -0.6601 -0.9610  1.4136
  189MPD1    H2 2934   2.117   2.676   0.984  1.4372 -1.0193 -2.7052
  189MPD1    H3 2935   2.108   2.489   0.851 -0.0451  0.0742 -1.8093
  189MPD1     N 2936   1.671   2.558   0.753  0.1132 -0.7158  0.0636
  189MPD1    H5 2937   1.601   2.631   0.761  1.5626  0.8158 -1.2890
  189MPD1    N1 2938   1.934   2.869   1.004 -0.2451  0.5818  0.4772
  189MPD1    H6 2939   1.996   2.876   1.084  1.0934 -0.3451 -0.4613
  189MPD1    H7 2940   1.841   2.900   1.033  0.0640  2.5937 -0.6610
  190MPD1     C 2941   0.944   1.068  15.988 -0.2154 -0.5413 -0.1250
  190MPD1    C1 2942   0.842   0.981  15.965 -0.0535 -0.1212 -0.0894
  190MPD1    C2 2943   0.879   0.865  15.903  0.6006  0.1298 -0.1314
  190MPD1    C3 2944   1.010   0.839  15.872  0.3162  0.5880  0.0717
  190MPD1    C4 2945   1.108   0.932  15.881  0.3415  0.0285 -0.4440
  190MPD1    C5 2946   1.071   1.049  15.942  0.1045 -0.0601 -0.3016
  190MPD1     H 2947   0.804   0.787  15.896 -0.0454  0.8078 -0.7055
  190MPD1    H1 2948   1.212   0.917  15.854  0.7406 -0.8375  1.5716
  190MPD1    H2 2949   0.937   1.168  16.030 -1.3536  0.3182 -2.3486
  190MPD1    H3 2950   1.143   1.127  15.962 -0.2467  0.5121 -1.3018
  190MPD1     N 2951   1.034   0.708  15.816  0.1514 -0.1370 -0.4019
  190MPD1    H5 2952   0.954   0.646  15.819 -0.1951  0.3875  1.1125
  190MPD1    N1 2953   0.712   1.004  16.014  0.1510 -0.3123 -0.5620
  190MPD1    H6 2954   0.628   0.957  15.982 -0.1827  0.1785 -0.4140
  190MPD1    H7 2955   0.689   1.103  16.009  1.5487 -0.0791 -2.4043
  191MPD1     C 2956   0.387   2.147  13.603  0.1770  0.7389  0.0426
  191MPD1    C1 2957   0.486   2.193  13.513 -0.8064 -0.1806 -0.0140
  191MPD1    C2 2958   0.449   2.197  13.381  0.2277  0.1909 -0.3807
  191MPD1    C3 2959   0.323   2.178  13.338 -0.1253 -0.6714  0.0953
  191MPD1    C4 2960   0.230   2.134  13.429  1.3496 -0.1097 -0.4366
  191MPD1    C5 2961   0.261   2.121  13.555  0.8262  0.4549 -0.2148
  191MPD1     H 2962   0.527   2.197  13.305  0.1861  1.3414 -0.4230
  191MPD1    H1 2963   0.128   2.112  13.398  1.2407  0.0076 -0.1628
  191MPD1    H2 2964   0.392   2.141  13.711 -1.6315 -1.7140 -0.0114
  191MPD1    H3 2965   0.198   2.067  13.625 -1.3115  1.5916 -1.2745
  191MPD1     N 2966   0.291   2.218  13.204 -0.0977 -0.1836 -0.2059
  191MPD1    H5 2967   0.369   2.228  13.139  0.3655  1.4559  0.6240
  191MPD1    N1 2968   0.624   2.194  13.547 -0.3164 -0.4518 -0.2653
  191MPD1    H6 2969   0.648   2.207  13.645 -0.2869  0.1849 -0.3610
  191MPD1    H7 2970   0.685   2.243  13.482 -0.4048  0.2742  0.2032
  192MPD1     C 2971   4.304   2.161  12.366 -0.0954 -1.1314 -0.3539
  192MPD1    C1 2972   4.291   2.133  12.497 -0.0175  0.4950  0.3498
  192MPD1    C2 2973   4.390   2.161  12.587 -0.6548  0.6129  0.2753
  192MPD1    C3 2974   4.508   2.221  12.548 -0.3972  0.0004 -0.1280
  192MPD1    C4 2975   4.523   2.242  12.412  0.1893  0.6627 -0.3742
  192MPD1    C5 2976   4.423   2.212  12.327 -0.7670 -0.1282 -0.0314
  192MPD1     H 2977   4.373   2.164  12.694  0.9648 -1.6900  0.6139
  192MPD1    H1 2978   4.614   2.281  12.368  0.6345 -0.2897 -0.2841
  192MPD1    H2 2979   4.227   2.141  12.292 -2.7886  2.8211  1.3422
  192MPD1    H3 2980   4.432   2.232  12.221  0.0908  0.6137  0.1909
  192MPD1     N 2981   4.617   2.253  12.632 -0.4978  0.3045 -0.2766
  192MPD1    H5 2982   4.696   2.292  12.581 -1.1126 -0.1225 -1.5577
  192MPD1    N1 2983   4.179   2.052  12.533 -0.3640  0.1125 -0.0273
  192MPD1    H6 2984   4.098   2.076  12.477 -0.5273  0.4471  0.3514
  192MPD1    H7 2985   4.149   2.038  12.629  0.9969  0.6023  0.4733
  193MPD1     C 2986   4.247   2.124  17.452  0.2968  0.3342  0.4002
  193MPD1    C1 2987   4.152   2.206  17.387 -0.4634 -0.2723 -0.2605
  193MPD1    C2 2988   4.193   2.296  17.290 -0.1668 -0.4055  0.7243
  193MPD1    C3 2989   4.328   2.298  17.254 -0.5923 -0.0083  0.2559
  193MPD1    C4 2990   4.409   2.196  17.292 -0.4584  0.0623 -0.8404
  193MPD1    C5 2991   4.366   2.110  17.391 -0.8060 -0.2393 -0.6418
  193MPD1     H 2992   4.125   2.377  17.269 -1.5549 -1.9562 -0.7073
  193MPD1    H1 2993   4.503   2.183  17.239 -1.3084 -0.4942 -2.2139
  193MPD1    H2 2994   4.225   2.070  17.544  1.1173 -0.4816  0.1230
  193MPD1    H3 2995   4.438   2.039  17.432 -0.0828 -0.1223 -1.7063
  193MPD1     N 2996   4.379   2.396  17.165 -0.2955  0.6690 -0.1985
  193MPD1    H5 2997   4.471   2.386  17.123 -0.6367  0.7699 -0.9730
  193MPD1    N1 2998   4.025   2.223  17.442  0.0119 -0.2711 -0.1060
  193MPD1    H6 2999   3.992   2.131  17.472  0.9217  0.4485  3.1225
  193MPD1    H7 3000   3.953   2.259  17.380 -0.5477 -1.7519 -0.3386
  194MPD1     C 3001   2.015   4.693  17.096 -0.3031 -0.2249 -0.4976
  194MPD1    C1 3002   2.069   4.634  17.209 -0.1460 -0.1802  0.0424
  194MPD1    C2 3003   2.102   4.498  17.206  0.7668 -0.4083 -0.3982
  194MPD1    C3 3004   2.074   4.422  17.096 -0.4299 -0.2782  0.2125
  194MPD1    C4 3005   2.019   4.486  16.983 -0.5661  0.2308 -0.4365
  194MPD1    C5 3006   1.994   4.622  16.977  0.3289  0.5097  0.5944
  194MPD1     H 3007   2.152   4.457  17.294  1.5840 -1.3578 -1.3080
  194MPD1    H1 3008   1.968   4.426  16.909  0.8056 -2.2137  0.5916
  194MPD1    H2 3009   1.987   0.061  17.094  0.7636  0.0764  0.2130
  194MPD1    H3 3010   1.955   4.668  16.887 -0.2899 -1.1874 -0.0167
  194MPD1     N 3011   2.100   4.282  17.095 -0.4532 -0.2746  0.7653
  194MPD1    H5 3012   2.074   4.221  17.019  0.2876 -1.1363  1.1970
  194MPD1    N1 3013   2.099   4.712  17.316 -0.0092 -0.4927 -0.3542
  194MPD1    H6 3014   2.091   4.664  17.405  0.2642 -0.3802 -0.2692
  194MPD1    H7 3015   2.052   0.065  17.326  1.3561 -0.1653  2.9855
  195MPD1     C 3016   0.685   1.581   0.675 -0.3114 -0.1969  0.4716
  195MPD1    C1 3017   0.645   1.532   0.790  0.2018 -0.0833  0.1500
  195MPD1    C2 3018   0.543   1.432   0.788 -0.5139 -0.3998  0.5805
  195MPD1    C3 3019   0.509   1.372   0.670 -0.2715  0.1937 -0.2811
  195MPD1    C4 3020   0.572   1.407   0.555 -0.3625  0.5120  0.3522
  195MPD1    C5 3021   0.654   1.510   0.561 -0.6037  0.3318 -0.5646
  195MPD1     H 3022   0.496   1.411   0.883  1.3123 -0.4349  1.4696
  195MPD1    H1 3023   0.542   1.362   0.460 -0.3126 -1.9055  1.4787
  195MPD1    H2 3024   0.746   1.671   0.674  0.8009 -0.9320  1.1772
  195MPD1    H3 3025   0.690   1.556   0.469  1.2840 -1.8836 -0.9222
  195MPD1     N 3026   0.409   1.273   0.650  0.1554  0.4350 -0.0785
  195MPD1    H5 3027   0.396   1.248   0.553 -4.7962  1.9699  0.1724
  195MPD1    N1 3028   0.657   1.614   0.911 -0.4131 -0.3608  0.0873
  195MPD1    H6 3029   0.650   1.561   0.997 -2.6476  0.0860  0.1991
  195MPD1    H7 3030   0.749   1.657   0.911 -0.0028 -1.2611  2.6714
  196MPD1     C 3031   3.577   0.500   0.505  0.0600  0.0337 -0.9331
  196MPD1    C1 3032   3.697   0.574   0.545  0.5807 -0.8590  0.0038
  196MPD1    C2 3033   3.706   0.624   0.671  0.0624 -0.1294  1.3933
  196MPD1    C3 3034   3.593   0.615   0.753 -0.4400 -0.5359  0.1124
  196MPD1    C4 3035   3.479   0.556   0.712 -0.1382  0.0310 -0.1002
  196MPD1    C5 3036   3.473   0.497   0.592  0.1818 -0.5916 -0.1003
  196MPD1     H 3037   3.802   0.659   0.707 -0.2668  4.1301 -1.7570
  196MPD1    H1 3038   3.402   0.535   0.785  0.8532 -1.1417  0.6308
  196MPD1    H2 3039   3.563   0.453   0.409  0.6120  0.5324 -1.2581
  196MPD1    H3 3040   3.392   0.432   0.562  0.3191 -0.9249  0.2620
  196MPD1     N 3041   3.596   0.643   0.890 -0.2469  0.3398 -0.2747
  196MPD1    H5 3042   3.515   0.619   0.946 -1.6588 -1.5169 -3.1305
  196MPD1    N1 3043   3.814   0.561   0.468  0.1725 -0.7144 -0.0894
  196MPD1    H6 3044   3.795   0.559   0.369  1.0555 -1.7270 -0.2441
  196MPD1    H7 3045   3.893   0.624   0.483 -0.4282  0.1103 -0.4277
  197MPD1     C 3046   3.025   2.171  17.632 -0.5332 -0.4337  0.5690
  197MPD1    C1 3047   3.110   2.262  17.691  0.2119  0.5863 -0.2861
  197MPD1    C2 3048   3.131   2.386  17.630  0.0993  0.3222 -0.4010
  197MPD1    C3 3049   3.094   2.405  17.494  0.0316 -0.1400  0.6664
  197MPD1    C4 3050   3.016   2.306  17.441 -0.2368  0.2345  0.0466
  197MPD1    C5 3051   2.972   2.194  17.510 -0.1399  0.1654 -0.6001
  197MPD1     H 3052   3.189   2.458  17.687  0.7888  0.3293 -1.1098
  197MPD1    H1 3053   2.969   2.307  17.343  1.2852 -0.7080 -0.6803
  197MPD1    H2 3054   3.007   2.083  17.692  3.4523 -1.3228  0.4624
  197MPD1    H3 3055   2.892   2.137  17.465 -0.9226  0.3041  0.6151
  197MPD1     N 3056   3.133   2.523  17.422  0.4141 -0.1026  0.4220
  197MPD1    H5 3057   3.105   2.531  17.325  1.9432 -2.3367 -0.2089
  197MPD1    N1 3058   3.141   2.251   0.081  0.1586 -0.0884  0.1736
  197MPD1    H6 3059   3.160   2.155   0.106  0.8025 -0.1002 -0.3682
  197MPD1    H7 3060   3.223   2.304   0.110 -1.0337  1.8573 -0.0055
  198MPD1     C 3061   0.443   1.049  15.029  0.3774  0.7680 -0.2471
  198MPD1    C1 3062   0.563   1.112  15.007 -0.6430  0.3939 -0.0559
  198MPD1    C2 3063   0.638   1.158  15.111 -0.5606 -0.3898  0.4096
  198MPD1    C3 3064   0.597   1.140  15.245 -0.3991 -0.6813  0.2109
  198MPD1    C4 3065   0.479   1.065  15.263  0.9968 -0.0082 -0.2458
  198MPD1    C5 3066   0.405   1.015  15.157 -0.5769 -0.3740 -0.0289
  198MPD1     H 3067   0.727   1.212  15.079  0.9665 -1.8921  2.1236
  198MPD1    H1 3068   0.437   1.052  15.362  1.9854  1.0608  0.3078
  198MPD1    H2 3069   0.375   1.032  14.946  0.0565  0.6023  0.0482
  198MPD1    H3 3070   0.308   0.972  15.176  0.4640 -2.2497  1.0807
  198MPD1     N 3071   0.676   1.175  15.356  0.5680 -0.5430 -0.2661
  198MPD1    H5 3072   0.763   1.224  15.341 -0.0202  0.0320 -1.8077
  198MPD1    N1 3073   0.594   1.152  14.876 -0.2105  0.4533  0.3302
  198MPD1    H6 3074   0.694   1.146  14.857 -0.6522  0.0865 -1.9426
  198MPD1    H7 3075   0.548   1.090  14.809  2.0975 -1.4281  0.5182
  199MPD1     C 3076   2.764   3.361   9.625 -0.0243  1.1648 -0.2397
  199MPD1    C1 3077   2.651   3.345   9.702 -0.5905 -0.3234 -0.0598
  199MPD1    C2 3078   2.533   3.394   9.653 -0.7932 -0.5913  0.2038
  199MPD1    C3 3079   2.530   3.466   9.528  0.0193  0.5329  0.0602
  199MPD1    C4 3080   2.646   3.476   9.455  0.4428  0.2059 -0.2214
  199MPD1    C5 3081   2.754   3.433   9.512 -0.1430 -0.0444 -0.5917
  199MPD1     H 3082   2.445   3.387   9.716 -0.4246 -1.4991  0.6232
  199MPD1    H1 3083   2.646   3.526   9.359  1.0307  2.9064  1.1642
  199MPD1    H2 3084   2.860   3.317   9.650 -1.3014 -0.2401  2.2667
  199MPD1    H3 3085   2.845   3.444   9.455  1.2589  1.9723  2.0636
  199MPD1     N 3086   2.413   3.534   9.477  0.5228 -0.3872 -0.1891
  199MPD1    H5 3087   2.429   3.587   9.392  0.3402  1.8659  1.2024
  199MPD1    N1 3088   2.652   3.261   9.815  0.1978 -0.0189  0.4335
  199MPD1    H6 3089   2.744   3.276   9.857  0.7077  2.9274 -1.7572
  199MPD1    H7 3090   2.576   3.286   9.878 -0.9361 -0.0368 -0.9486
  200MPD1     C 3091   1.432   2.451  15.460 -0.6063  0.1110  0.4238
  200MPD1    C1 3092   1.359   2.405  15.350 -0.1866 -0.3259  0.5822
  200MPD1    C2 3093   1.423   2.365  15.237 -0.5852 -0.3502 -0.1941
  200MPD1    C3 3094   1.557   2.387  15.238  0.9046  0.2615  0.1706
  200MPD1    C4 3095   1.627   2.433  15.344  0.2146  0.1079  0.3250
  200MPD1    C5 3096   1.564   2.463  15.455  0.0497  0.0720  0.1929
  200MPD1     H 3097   1.374   2.309  15.158 -1.9932 -0.0452  0.4701
  200MPD1    H1 3098   1.731   2.464  15.345  0.9809 -2.5909  2.1575
  200MPD1    H2 3099   1.384   2.489  15.549  0.5502  0.8266  0.7465
  200MPD1    H3 3100   1.617   2.507  15.538 -0.4551 -1.0159  1.0830
  200MPD1     N 3101   1.614   2.376  15.108  0.2597 -0.2019 -0.0544
  200MPD1    H5 3102   1.551   2.332  15.041 -1.3390  0.1001  1.2632
  200MPD1    N1 3103   1.221   2.387  15.356  0.6078  0.7369  0.2499
  200MPD1    H6 3104   1.172   2.389  15.267 -1.8356 -1.7134  1.5500
  200MPD1    H7 3105   1.171   2.436  15.430  2.3539  1.1197  1.1916
  201MPD1     C 3106   3.210   1.523  13.761 -0.3470  0.3040  0.2138
  201MPD1    C1 3107   3.206   1.418  13.858  0.2136 -0.0190  0.2900
  201MPD1    C2 3108   3.266   1.294  13.829  0.3785 -0.2057 -0.0401
  201MPD1    C3 3109   3.356   1.280  13.724  0.2053  0.0047 -0.5405
  201MPD1    C4 3110   3.362   1.391  13.632 -0.2801  0.7721 -0.4488
  201MPD1    C5 3111   3.295   1.504  13.659  0.4235 -0.2627  0.3319
  201MPD1     H 3112   3.237   1.206  13.884  3.4752  0.3809  2.5492
  201MPD1    H1 3113   3.424   1.395  13.543 -2.1154 -1.6004 -1.8435
  201MPD1    H2 3114   3.145   1.609  13.755  1.4645  1.6421 -0.0827
  201MPD1    H3 3115   3.298   1.587  13.588  1.3168  0.3313  1.0736
  201MPD1     N 3116   3.428   1.156  13.708 -0.7162  0.4781  0.3265
  201MPD1    H5 3117   3.402   1.076  13.765  0.4342  0.1675  0.4193
  201MPD1    N1 3118   3.112   1.427  13.959 -1.0200 -0.2875 -0.1689
  201MPD1    H6 3119   3.113   1.356  14.032  0.1324  0.7338  0.7895
  201MPD1    H7 3120   3.107   1.517  14.006 -0.3614 -1.3307  1.8800
  202MPD1     C 3121   4.680   1.731   9.542  0.3684  0.2040  0.1737
  202MPD1    C1 3122   4.547   1.781   9.534 -0.3459 -0.1995  0.3906
  202MPD1    C2 3123   4.444   1.716   9.609 -0.0912  0.0811  0.4647
  202MPD1    C3 3124   4.481   1.628   9.710  0.6050 -0.5104 -0.2235
  202MPD1    C4 3125   4.616   1.609   9.730 -0.5459  0.2708 -0.2864
  202MPD1    C5 3126   4.717   1.653   9.643  0.4781 -0.6596  0.5179
  202MPD1     H 3127   4.343   1.728   9.572 -0.9754  1.2668  3.2597
  202MPD1    H1 3128   4.642   1.552   9.818  0.2514  0.1437 -0.6015
  202MPD1    H2 3129   0.017   1.777   9.479 -0.2843  1.5146  0.3521
  202MPD1    H3 3130   0.084   1.632   9.663  0.5758 -1.4051 -0.7828
  202MPD1     N 3131   4.387   1.558   9.788 -0.2715  0.1531  0.1923
  202MPD1    H5 3132   4.421   1.479   9.841 -1.8758 -0.0802  0.8868
  202MPD1    N1 3133   4.512   1.838   9.415 -0.0600 -0.1363  0.3092
  202MPD1    H6 3134   4.423   1.887   9.418  0.3056  0.6823 -1.8306
  202MPD1    H7 3135   4.586   1.895   9.373 -0.9246  0.6042 -0.2135
  203MPD1     C 3136   2.476   1.788  12.681  0.6846  0.0882  0.3499
  203MPD1    C1 3137   2.486   1.673  12.604  0.6000  0.4082  0.0882
  203MPD1    C2 3138   2.570   1.572  12.635 -0.1512  0.1040 -0.7562
  203MPD1    C3 3139   2.636   1.568  12.754 -0.9406 -0.0442  0.5070
  203MPD1    C4 3140   2.623   1.679  12.833 -0.4743  0.3403  0.6859
  203MPD1    C5 3141   2.546   1.788  12.794  0.1653 -0.3546  0.4027
  203MPD1     H 3142   2.582   1.492  12.563  0.0833 -0.5091 -0.0296
  203MPD1    H1 3143   2.680   1.687  12.925 -1.0541  1.6535  0.9350
  203MPD1    H2 3144   2.415   1.871  12.648  1.4858  0.4402 -0.2529
  203MPD1    H3 3145   2.538   1.878  12.854  1.8496 -0.3707  0.6743
  203MPD1     N 3146   2.719   1.459  12.786  0.5311 -0.3232  0.0344
  203MPD1    H5 3147   2.723   1.385  12.717 -1.1630 -0.7235  0.3545
  203MPD1    N1 3148   2.427   1.676  12.477 -0.0632  0.1914 -0.4862
  203MPD1    H6 3149   2.345   1.736  12.476  0.9005  1.4991 -0.6249
  203MPD1    H7 3150   2.404   1.587  12.434  1.6340  0.1260 -1.2480
  204MPD1     C 3151   2.004   3.606  17.489  0.0861  0.1328  0.8587
  204MPD1    C1 3152   2.018   3.549  17.366  0.1578 -0.8587  0.1725
  204MPD1    C2 3153   2.087   3.432  17.351 -0.1033 -0.9593 -0.0316
  204MPD1    C3 3154   2.133   3.364  17.464 -0.6890 -0.2742  0.4207
  204MPD1    C4 3155   2.118   3.421  17.593 -0.1551  0.1925  0.1780
  204MPD1    C5 3156   2.038   3.539  17.601 -0.9709  0.3755  0.1411
  204MPD1     H 3157   2.109   3.391  17.254  2.8779  2.2275 -0.6805
  204MPD1    H1 3158   2.147   3.374  17.686 -1.2819  0.0233  0.4515
  204MPD1    H2 3159   1.942   3.694  17.502 -0.2511  0.0823 -0.3464
  204MPD1    H3 3160   2.029   3.594  17.694 -0.1069 -0.3177  0.6274
  204MPD1     N 3161   2.188   3.233  17.437  0.3109 -0.3091  0.1229
  204MPD1    H5 3162   2.170   3.203  17.342  1.0999  0.6969 -0.3452
  204MPD1    N1 3163   1.966   3.622  17.254  0.2686  0.0892 -0.0677
  204MPD1    H6 3164   1.907   3.701  17.276  0.5126  0.2245  0.1015
  204MPD1    H7 3165   1.959   3.583  17.160 -2.4482  0.4799 -0.0161
  205MPD1     C 3166   1.714   2.038  16.879  0.2380  0.3166  0.3060
  205MPD1    C1 3167   1.768   1.919  16.919 -0.2174 -0.5391 -0.3035
  205MPD1    C2 3168   1.795   1.903  17.053  0.6138  0.2674 -0.4899
  205MPD1    C3 3169   1.763   2.000  17.154 -0.0532  0.1052  0.5154
  205MPD1    C4 3170   1.698   2.114  17.108  0.6419 -0.1925  0.1593
  205MPD1    C5 3171   1.681   2.133  16.975  0.4824 -0.1297 -0.6095
  205MPD1     H 3172   1.840   1.810  17.084  0.8842  0.1243 -1.2998
  205MPD1    H1 3173   1.676   2.195  17.176 -1.7665 -0.3902 -0.3933
  205MPD1    H2 3174   1.702   2.058  16.773 -2.7220 -0.0019  0.5718
  205MPD1    H3 3175   1.653   2.233  16.942 -0.6876 -0.5653 -0.9472
  205MPD1     N 3176   1.823   2.003  17.282 -0.3472 -1.2375  0.2691
  205MPD1    H5 3177   1.808   2.080  17.346  3.4258 -0.0007 -0.3509
  205MPD1    N1 3178   1.821   1.819  16.834  0.3555  0.2437 -1.1186
  205MPD1    H6 3179   1.773   1.807  16.745  1.8210  2.0209 -2.1404
  205MPD1    H7 3180   1.836   1.729  16.880  1.1199  1.6049  1.3032
  206MPD1     C 3181   2.603   4.140  17.318  0.1868 -0.3501 -0.5649
  206MPD1    C1 3182   2.590   4.272  17.303  0.3411 -0.6774  0.2937
  206MPD1    C2 3183   2.560   4.315  17.170 -0.5221 -0.0972 -0.1627
  206MPD1    C3 3184   2.538   4.224  17.066  0.0146  0.1329 -0.4228
  206MPD1    C4 3185   2.554   4.088  17.092  0.0176 -0.2006  0.4716
  206MPD1    C5 3186   2.589   4.045  17.222 -0.0331 -0.4097  0.5315
  206MPD1     H 3187   2.550   4.422  17.157  0.2410 -0.0020  0.0097
  206MPD1    H1 3188   2.545   4.021  17.007 -0.4649  1.5532 -0.8581
  206MPD1    H2 3189   2.625   4.110  17.421 -0.7921  0.2147 -0.1993
  206MPD1    H3 3190   2.607   3.940  17.245  0.2649 -0.3275  0.6779
  206MPD1     N 3191   2.514   4.262  16.933  0.3792 -0.8355  0.5487
  206MPD1    H5 3192   2.472   4.188  16.877  0.1752  0.7464 -1.3611
  206MPD1    N1 3193   2.617   4.365  17.406 -0.2015  0.4614  0.2735
  206MPD1    H6 3194   2.544   4.435  17.404 -0.0078  0.6027 -1.9666
  206MPD1    H7 3195   2.609   4.314  17.494 -2.0662 -3.1173 -1.9394
  207MPD1     C 3196   0.265   2.101   9.365 -0.3854  0.0378 -0.6471
  207MPD1    C1 3197   0.312   1.993   9.435 -0.2621 -0.1804 -0.7725
  207MPD1    C2 3198   0.389   2.024   9.544  0.4713 -0.7691 -0.3881
  207MPD1    C3 3199   0.401   2.152   9.600 -0.0808 -0.0703 -0.0128
  207MPD1    C4 3200   0.337   2.256   9.540  0.4943  0.0946 -0.1487
  207MPD1    C5 3201   0.271   2.228   9.417 -0.2719  0.1990 -0.4110
  207MPD1     H 3202   0.443   1.954   9.607 -2.4458 -2.3251  0.3478
  207MPD1    H1 3203   0.334   2.357   9.578  1.7469  0.5875 -1.3462
  207MPD1    H2 3204   0.203   2.091   9.277 -2.1842 -0.4180  0.6582
  207MPD1    H3 3205   0.214   2.302   9.363 -0.9218 -0.4318 -0.5884
  207MPD1     N 3206   0.495   2.187   9.702  0.1449 -0.3904 -0.5619
  207MPD1    H5 3207   0.503   2.285   9.728 -0.2331 -0.9545  1.6928
  207MPD1    N1 3208   0.302   1.860   9.390 -0.4172 -0.0459  0.1583
  207MPD1    H6 3209   0.228   1.849   9.320  1.3845  0.5314 -1.8396
  207MPD1    H7 3210   0.299   1.796   9.469 -0.4238 -0.3770 -0.1124
  208MPD1     C 3211   3.049   0.392   0.156  0.5076  0.2626  0.5352
  208MPD1    C1 3212   3.105   0.506   0.215 -0.0629  0.8677  0.0615
  208MPD1    C2 3213   3.038   0.623   0.225  0.2300 -0.9228 -0.0279
  208MPD1    C3 3214   2.910   0.635   0.176 -0.1486 -0.3556 -0.0849
  208MPD1    C4 3215   2.852   0.520   0.121 -0.3350  0.7513  1.0993
  208MPD1    C5 3216   2.925   0.405   0.099 -0.3062 -0.1971  0.2178
  208MPD1     H 3217   3.079   0.713   0.270 -0.9925  0.1420 -1.0411
  208MPD1    H1 3218   2.764   0.521   0.058  0.9910 -0.6994 -0.7954
  208MPD1    H2 3219   3.120   0.314   0.133 -2.0446 -1.2844 -2.0430
  208MPD1    H3 3220   2.883   0.326   0.039  2.1682  1.0661 -3.1326
  208MPD1     N 3221   2.840   0.760   0.173 -0.2598  0.5714 -0.2876
  208MPD1    H5 3222   2.883   0.842   0.213  0.3076  0.1780 -0.1009
  208MPD1    N1 3223   3.229   0.487   0.283 -0.6680 -0.5799  0.4532
  208MPD1    H6 3224   3.288   0.570   0.284  0.4400 -1.3590 -0.7515
  208MPD1    H7 3225   3.287   0.406   0.264  0.2257  0.0528  0.5046
  209MPD1     C 3226   0.811   1.026  10.826 -0.0570 -0.1313  0.1294
  209MPD1    C1 3227   0.838   1.080  10.703  0.1373 -0.2744 -0.3114
  209MPD1    C2 3228   0.892   1.204  10.700 -0.0588 -0.9682  0.2398
  209MPD1    C3 3229   0.915   1.272  10.819  0.5719  0.0360 -0.4063
  209MPD1    C4 3230   0.885   1.225  10.942  0.2990 -0.3732  0.5111
  209MPD1    C5 3231   0.845   1.091  10.942  0.1400  0.6236 -0.2955
  209MPD1     H 3232   0.923   1.239  10.602  0.0369  1.6556  1.2104
  209MPD1    H1 3233   0.903   1.265  11.041 -1.4499  0.5691  0.4607
  209MPD1    H2 3234   0.768   0.927  10.838 -1.1021  0.1191 -1.5013
  209MPD1    H3 3235   0.817   1.049  11.038  0.5616 -0.4680 -0.6501
  209MPD1     N 3236   0.961   1.404  10.822  0.2879  0.6911  0.1598
  209MPD1    H5 3237   0.956   1.442  10.728 -1.8788 -3.3807 -1.3611
  209MPD1    N1 3238   0.794   1.014  10.586 -0.0851  0.2025 -0.1790
  209MPD1    H6 3239   0.808   0.914  10.581  1.1277  0.2473  2.3779
  209MPD1    H7 3240   0.821   1.061  10.500 -1.4052 -1.5863 -1.5586
  210MPD1     C 3241   1.471   2.290  11.269  0.1159  0.2915  0.7291
  210MPD1    C1 3242   1.368   2.217  11.320 -0.5258  0.5829 -0.1610
  210MPD1    C2 3243   1.303   2.120  11.242 -0.0993 -0.6074  0.0418
  210MPD1    C3 3244   1.334   2.106  11.108 -0.2246 -0.7489 -0.1389
  210MPD1    C4 3245   1.418   2.201  11.055  0.1942  0.0561 -0.2631
  210MPD1    C5 3246   1.487   2.290  11.136 -0.0267  0.1902  0.1673
  210MPD1     H 3247   1.230   2.055  11.289  0.1907 -1.0347 -0.1083
  210MPD1    H1 3248   1.445   2.203  10.950 -0.6226 -0.0622 -0.4782
  210MPD1    H2 3249   1.532   2.351  11.335  0.6242  1.5291 -0.8547
  210MPD1    H3 3250   1.559   2.359  11.093 -1.6289  1.2641 -0.7915
  210MPD1     N 3251   1.271   2.017  11.025 -0.5122  0.9996  0.0932
  210MPD1    H5 3252   1.298   2.020  10.927  0.0261  2.0193  0.2729
  210MPD1    N1 3253   1.339   2.233  11.460 -0.4118 -0.1606  0.1823
  210MPD1    H6 3254   1.343   2.326  11.500 -1.0352 -0.1456  0.2055
  210MPD1    H7 3255   1.267   2.167  11.491  0.2216 -0.3223  1.3235
  211MPD1     C 3256   2.805   1.453  16.597  0.6191  0.1373 -0.0480
  211MPD1    C1 3257   2.701   1.447  16.519  0.6868 -0.1760  0.2890
  211MPD1    C2 3258   2.624   1.563  16.503 -0.1169 -0.3752  0.9509
  211MPD1    C3 3259   2.654   1.684  16.565 -0.4790  0.2230  0.1569
  211MPD1    C4 3260   2.764   1.685  16.649  0.1528  0.2184  0.6093
  211MPD1    C5 3261   2.833   1.570  16.665  0.1828  0.3570  0.3788
  211MPD1     H 3262   2.535   1.557  16.440 -0.2092 -1.0386  1.1436
  211MPD1    H1 3263   2.794   1.765  16.716  0.2051  1.2498 -0.6439
  211MPD1    H2 3264   2.866   1.364  16.607 -0.9353 -0.6315  2.3367
  211MPD1    H3 3265   2.911   1.572  16.740 -0.0552  0.5901  0.6242
  211MPD1     N 3266   2.564   1.796  16.554 -0.2479  0.0938  0.0897
  211MPD1    H5 3267   2.477   1.787  16.503  0.4494 -0.2688 -1.0387
  211MPD1    N1 3268   2.675   1.343  16.430 -0.3520  0.2893  0.4143
  211MPD1    H6 3269   2.575   1.345  16.408 -0.0464  1.9114 -0.8654
  211MPD1    H7 3270   2.706   1.250  16.456  1.1744  0.2227 -1.5660
  212MPD1     C 3271   2.060   4.638   0.187  0.1808 -0.2348 -0.0938
  212MPD1    C1 3272   2.022   0.004   0.109 -0.1718  0.0737  0.1134
  212MPD1    C2 3273   1.966   4.700  17.733 -0.0709 -0.2178 -0.1486
  212MPD1    C3 3274   1.932   4.562  17.700 -0.2440 -0.1217  0.3194
  212MPD1    C4 3275   1.978   4.471   0.039 -0.5765  0.0695 -0.6257
  212MPD1    C5 3276   2.039   4.509   0.155 -0.0902 -0.3222 -0.2887
  212MPD1     H 3277   1.949   0.037  17.656  1.4553 -0.5715 -0.8148
  212MPD1    H1 3278   1.972   4.366   0.010 -0.1384  0.0087 -0.4962
  212MPD1    H2 3279   2.117   4.656   0.278 -0.0440 -0.9234  0.1833
  212MPD1    H3 3280   2.081   4.428   0.214 -0.1175 -0.1612 -0.0513
  212MPD1     N 3281   1.865   4.527  17.576 -0.4983 -0.1224 -0.6382
  212MPD1    H5 3282   1.857   4.429  17.550  1.0133 -0.4876  0.2886
  212MPD1    N1 3283   2.063   0.138   0.123  0.4210 -0.0454 -0.8428
  212MPD1    H6 3284   2.070   0.160   0.222  0.2784 -1.1139 -0.5948
  212MPD1    H7 3285   2.009   0.208   0.071 -1.2565  0.7764  2.0216
  213MPD1     C 3286   4.506   1.490  15.903 -0.0950  1.0384 -0.5961
  213MPD1    C1 3287   4.553   1.388  15.977  0.3410 -0.0352 -0.8155
  213MPD1    C2 3288   4.554   1.263  15.911  0.4344 -0.0573 -0.2078
  213MPD1    C3 3289   4.526   1.259  15.778  0.4349  0.0781  0.3815
  213MPD1    C4 3290   4.498   1.367  15.705 -0.6613 -0.0224  0.7252
  213MPD1    C5 3291   4.475   1.481  15.770 -0.1342 -0.7443 -0.1182
  213MPD1     H 3292   4.581   1.173  15.965  0.3573  0.3931  0.5958
  213MPD1    H1 3293   4.465   1.358  15.602  2.6069  1.0438 -0.4127
  213MPD1    H2 3294   4.479   1.582  15.954 -0.7929  0.9960 -0.8877
  213MPD1    H3 3295   4.431   1.566  15.719 -2.2239 -1.4769  0.4702
  213MPD1     N 3296   4.523   1.142  15.705  0.4116  0.1550 -0.0249
  213MPD1    H5 3297   4.506   1.158  15.606  0.1858  2.9337  0.4555
  213MPD1    N1 3298   4.548   1.394  16.113 -0.2060 -0.3828 -0.1294
  213MPD1    H6 3299   4.614   1.338  16.166  0.6507  0.6483 -0.0955
  213MPD1    H7 3300   4.561   1.491  16.143 -3.1504  0.1777 -0.6641
  214MPD1     C 3301   4.700   0.083  15.533  0.1027 -0.2988 -0.6695
  214MPD1    C1 3302   4.623   0.110  15.645  0.2541  0.8036  0.2375
  214MPD1    C2 3303   4.577   0.244  15.652  0.2953 -0.5413 -0.5478
  214MPD1    C3 3304   4.625   0.344  15.565  0.4054  0.5197 -0.4170
  214MPD1    C4 3305   4.704   0.305  15.462 -0.0069  0.1448  0.5270
  214MPD1    C5 3306   0.004   0.175  15.439 -0.5476 -0.3758 -0.5522
  214MPD1     H 3307   4.515   0.280  15.734  0.3428 -0.9522 -0.3301
  214MPD1    H1 3308   4.731   0.376  15.386 -0.2512 -1.1410 -0.7647
  214MPD1    H2 3309   0.004   4.720  15.522  2.2378  0.3884  0.9681
  214MPD1    H3 3310   0.067   0.148  15.355  0.6906  0.6111  0.0603
  214MPD1     N 3311   4.594   0.480  15.568 -0.0467  0.5520  0.2799
  214MPD1    H5 3312   4.639   0.546  15.505  1.6981 -2.2745 -1.4297
  214MPD1    N1 3313   4.601   0.016  15.749  0.3789  0.4313 -0.1325
  214MPD1    H6 3314   4.518   0.028  15.806  0.7170 -0.0606  0.4604
  214MPD1    H7 3315   4.625   4.655  15.735  0.4567  0.8689 -3.1354
  215MPD1     C 3316   0.929   1.276  10.084  0.3701  0.0545  0.6495
  215MPD1    C1 3317   0.880   1.398  10.037 -0.9961 -0.4230 -0.3628
  215MPD1    C2 3318   0.819   1.482  10.130  0.0145  0.5114 -0.3312
  215MPD1    C3 3319   0.832   1.456  10.268 -0.0775 -0.1561 -0.6521
  215MPD1    C4 3320   0.874   1.334  10.307 -0.4605  0.1059  0.1116
  215MPD1    C5 3321   0.935   1.251  10.216 -0.2092  0.1803  0.4938
  215MPD1     H 3322   0.756   1.566  10.104  0.3634  1.6484  2.4975
  215MPD1    H1 3323   0.882   1.311  10.413 -1.5559  2.3840  0.6868
  215MPD1    H2 3324   0.966   1.205  10.012 -0.8791 -0.9848  1.0439
  215MPD1    H3 3325   0.964   1.151  10.249  0.6067 -0.9973 -3.8422
  215MPD1     N 3326   0.787   1.561  10.358  0.2516 -0.9739 -0.0469
  215MPD1    H5 3327   0.725   1.634  10.325  0.0916 -1.0181  0.1554
  215MPD1    N1 3328   0.853   1.406   9.898 -0.6007  0.0096 -0.1147
  215MPD1    H6 3329   0.919   1.353   9.842  1.5150  0.3698  2.0516
  215MPD1    H7 3330   0.847   1.502   9.864 -1.7566 -0.8417 -2.3041
  216MPD1     C 3331   1.847   0.516  17.677  0.3165 -0.0267  0.3362
  216MPD1    C1 3332   1.779   0.438  17.581  0.0336 -0.1510  0.0675
  216MPD1    C2 3333   1.743   0.309  17.611 -0.3276  0.1892 -0.2122
  216MPD1    C3 3334   1.751   0.272  17.747 -0.1241 -1.0332  0.4467
  216MPD1    C4 3335   1.797   0.354   0.100 -0.1758  0.1387 -0.9301
  216MPD1    C5 3336   1.843   0.481   0.064 -0.3913 -0.3696 -0.0139
  216MPD1     H 3337   1.704   0.242  17.535 -0.2525 -0.1662  0.0611
  216MPD1    H1 3338   1.790   0.331   0.206 -0.5452  0.8039 -0.8076
  216MPD1    H2 3339   1.885   0.614  17.649  1.2686  0.2483  2.5597
  216MPD1    H3 3340   1.886   0.539   0.145  0.0411  0.9965 -1.2148
  216MPD1     N 3341   1.704   0.141   0.030  0.7940  0.0607 -0.4488
  216MPD1    H5 3342   1.693   0.078  17.698 -0.6889  0.4956 -0.5817
  216MPD1    N1 3343   1.792   0.468  17.449 -0.2924  0.2463  0.1254
  216MPD1    H6 3344   1.719   0.418  17.399 -0.0878  2.4024 -2.3649
  216MPD1    H7 3345   1.774   0.568  17.445  0.8992  0.4515 -0.1295
  217MPD1     C 3346   2.441   1.292   8.453  0.0467 -0.0313  0.0585
  217MPD1    C1 3347   2.375   1.410   8.472  0.8140  0.9631  0.1601
  217MPD1    C2 3348   2.411   1.485   8.588  0.2223 -0.0054  0.6113
  217MPD1    C3 3349   2.506   1.438   8.678  0.2944  0.3433 -0.5067
  217MPD1    C4 3350   2.558   1.307   8.654 -0.0441  0.7585  0.1395
  217MPD1    C5 3351   2.525   1.240   8.541  0.4676  0.0931  0.5105
  217MPD1     H 3352   2.359   1.577   8.614 -0.7867 -0.6353  0.8173
  217MPD1    H1 3353   2.626   1.265   8.727  1.3123  0.1731 -1.4521
  217MPD1    H2 3354   2.413   1.232   8.367 -1.0491  1.1121 -0.3844
  217MPD1    H3 3355   2.560   1.137   8.540  0.4652  0.1122 -1.1890
  217MPD1     N 3356   2.557   1.508   8.792 -0.1245  0.0081  0.3123
  217MPD1    H5 3357   2.646   1.466   8.818 -0.0918  0.7906  1.4823
  217MPD1    N1 3358   2.300   1.458   8.366 -0.3964 -0.2505 -0.5851
  217MPD1    H6 3359   2.235   1.527   8.403 -0.5472 -1.1373  0.7821
  217MPD1    H7 3360   2.256   1.378   8.321 -0.6207 -0.8655  0.7399
  218MPD1     C 3361   3.889   1.513  12.666 -0.3260 -0.1825  0.2608
  218MPD1    C1 3362   3.946   1.602  12.757 -0.1684 -0.2570 -0.2063
  218MPD1    C2 3363   4.068   1.660  12.723 -0.8627  0.1221  0.7345
  218MPD1    C3 3364   4.111   1.662  12.590 -0.2972  0.4232  0.8210
  218MPD1    C4 3365   4.049   1.578  12.501  0.0648 -0.2143  0.6365
  218MPD1    C5 3366   3.940   1.501  12.538 -0.9752 -0.3337 -0.3274
  218MPD1     H 3367   4.122   1.721  12.794  1.4597 -0.5989 -0.3924
  218MPD1    H1 3368   4.088   1.550  12.405 -0.2210  1.6380 -0.0199
  218MPD1    H2 3369   3.811   1.443  12.693  0.5585 -1.3000 -0.0923
  218MPD1    H3 3370   3.897   1.431  12.467  2.2876 -3.0014  0.3398
  218MPD1     N 3371   4.227   1.738  12.558 -0.6804 -0.0162  0.1557
  218MPD1    H5 3372   4.269   1.788  12.636  0.2151  0.2776 -0.5123
  218MPD1    N1 3373   3.904   1.604  12.889 -0.3608  0.4988 -0.3935
  218MPD1    H6 3374   3.804   1.596  12.903 -0.2328  0.6482  0.6205
  218MPD1    H7 3375   3.923   1.696  12.928  0.1636 -0.3831  1.4528
  219MPD1     C 3376   0.046   1.836  11.709 -0.7435  0.7705 -0.0684
  219MPD1    C1 3377   0.103   1.923  11.796  0.5767  0.0372  0.0528
  219MPD1    C2 3378   0.043   1.933  11.920 -0.4275 -0.2943  0.0882
  219MPD1    C3 3379   4.676   1.849  11.961  0.3683  0.6923  0.5862
  219MPD1    C4 3380   4.628   1.756  11.871 -0.2722 -0.3925 -0.1034
  219MPD1    C5 3381   4.680   1.751  11.746  0.0155 -0.3857 -0.0162
  219MPD1     H 3382   0.079   2.016  11.981  3.1178  0.8900 -3.6202
  219MPD1    H1 3383   4.552   1.680  11.884 -0.0831 -0.5716 -0.0493
  219MPD1    H2 3384   0.090   1.836  11.610 -0.2984 -0.6494  0.1374
  219MPD1    H3 3385   4.635   1.688  11.669 -0.7093 -0.8037  0.7407
  219MPD1     N 3386   4.614   1.850  12.087  0.1839  0.2319 -0.1612
  219MPD1    H5 3387   4.540   1.785  12.112 -0.9834  2.1895  1.4504
  219MPD1    N1 3388   0.211   1.998  11.748 -0.4474  0.4848  0.3071
  219MPD1    H6 3389   0.278   2.028  11.819  0.4630 -1.8792  0.4566
  219MPD1    H7 3390   0.267   1.955  11.674  0.4092  0.7549  0.8041
  220MPD1     C 3391   4.101   2.374   9.478  0.0281  0.1885 -0.3958
  220MPD1    C1 3392   4.086   2.295   9.589  0.3142  0.0187 -0.0401
  220MPD1    C2 3393   4.199   2.240   9.638 -0.5587  0.1371 -0.1498
  220MPD1    C3 3394   4.329   2.249   9.588  1.0032 -0.4687 -1.0379
  220MPD1    C4 3395   4.338   2.329   9.472 -0.8524  0.6029 -0.2805
  220MPD1    C5 3396   4.225   2.394   9.430 -0.6743 -0.0789 -0.2645
  220MPD1     H 3397   4.186   2.184   9.730  0.1789 -2.3001 -1.5218
  220MPD1    H1 3398   4.435   2.350   9.428 -1.3564 -0.3652 -1.8628
  220MPD1    H2 3399   4.024   2.437   9.433  0.8126  0.5459 -1.2449
  220MPD1    H3 3400   4.235   2.474   9.357 -1.0605 -0.1974 -0.4515
  220MPD1     N 3401   4.436   2.190   9.656 -0.5658  0.7447 -0.2650
  220MPD1    H5 3402   4.408   2.134   9.735  2.5237 -1.7884 -0.9290
  220MPD1    N1 3403   3.966   2.305   9.671 -0.4509  0.1408 -0.0704
  220MPD1    H6 3404   3.885   2.324   9.612 -0.7826  1.2967  0.7677
  220MPD1    H7 3405   3.939   2.220   9.721 -1.8002  1.9405  2.2864
  221MPD1     C 3406   1.818   1.420  16.605  0.3758  0.5871 -0.7367
  221MPD1    C1 3407   1.872   1.422  16.733  0.1556 -0.2626 -0.4573
  221MPD1    C2 3408   1.996   1.367  16.744 -0.2344 -0.0666 -0.3788
  221MPD1    C3 3409   2.066   1.312  16.638  0.6777 -0.9741 -0.2858
  221MPD1    C4 3410   2.008   1.319  16.508 -1.2661 -0.0006  0.3088
  221MPD1    C5 3411   1.887   1.380  16.497 -0.7048 -0.1548 -0.5341
  221MPD1     H 3412   2.040   1.363  16.843 -0.2155  0.9198 -0.3517
  221MPD1    H1 3413   2.066   1.288  16.422  1.3618  2.2070  1.2882
  221MPD1    H2 3414   1.720   1.463  16.590  1.2904  2.6903 -0.7127
  221MPD1    H3 3415   1.846   1.383  16.397 -0.0931 -0.1482 -0.7863
  221MPD1     N 3416   2.203   1.271  16.646 -0.3940  0.2747  0.0893
  221MPD1    H5 3417   2.256   1.265  16.559 -1.4683  2.0196 -0.6855
  221MPD1    N1 3418   1.808   1.492  16.840  0.1657  0.3736 -0.0825
  221MPD1    H6 3419   1.707   1.486  16.826  0.2226  0.5058 -0.5382
  221MPD1    H7 3420   1.837   1.452  16.929 -0.5532  0.6042  0.2554
  222MPD1     C 3421   1.304   0.520  16.887  0.0791  0.1594  0.8702
  222MPD1    C1 3422   1.426   0.462  16.932 -0.1630 -0.0589 -0.4271
  222MPD1    C2 3423   1.449   0.458  17.068 -0.4484 -0.0073  0.7772
  222MPD1    C3 3424   1.362   0.518  17.164 -0.0201 -0.1989  0.4309
  222MPD1    C4 3425   1.248   0.570  17.121 -0.0032  0.2220  0.4928
  222MPD1    C5 3426   1.220   0.575  16.983 -0.4802  0.1438 -0.1900
  222MPD1     H 3427   1.542   0.413  17.101  0.0748  0.5478  0.0605
  222MPD1    H1 3428   1.177   0.605  17.195  1.4847  0.0134  2.0250
  222MPD1    H2 3429   1.272   0.518  16.784  0.8356  1.1678  0.6167
  222MPD1    H3 3430   1.128   0.615  16.942  0.6127 -0.2223 -2.9997
  222MPD1     N 3431   1.383   0.513  17.305 -0.6007  0.9977 -0.7028
  222MPD1    H5 3432   1.315   0.567  17.357  1.0461  1.4232  1.0046
  222MPD1    N1 3433   1.504   0.390  16.839  0.5434 -0.3368  0.5376
  222MPD1    H6 3434   1.503   0.420  16.741  0.4501  0.8254  0.8966
  222MPD1    H7 3435   1.598   0.365  16.867  0.3752 -0.4077  1.0340
  223MPD1     C 3436   1.207   4.594   0.281 -0.4630 -0.0106 -0.6922
  223MPD1    C1 3437   1.183   4.586   0.145  0.3853  0.6518 -0.4844
  223MPD1    C2 3438   1.230   4.692   0.067  0.2287  0.2664 -0.6318
  223MPD1    C3 3439   1.307   0.056   0.115 -0.1193 -1.0671 -0.7948
  223MPD1    C4 3440   1.352   0.044   0.245  0.4007 -0.6215  0.8597
  223MPD1    C5 3441   1.302   4.681   0.322  0.3359 -0.1901  0.5711
  223MPD1     H 3442   1.198   4.694  17.710 -0.5280  0.6552 -0.3956
  223MPD1    H1 3443   1.419   0.114   0.294 -0.2417 -0.1517  1.0713
  223MPD1    H2 3444   1.163   4.527   0.353 -2.5739  1.0918 -0.9580
  223MPD1    H3 3445   1.329   4.678   0.427  1.3195 -3.0054  0.2335
  223MPD1     N 3446   1.336   0.165   0.026  0.5353 -0.1290  0.3308
  223MPD1    H5 3447   1.307   0.155  17.676  1.8740 -2.1197  0.1425
  223MPD1    N1 3448   1.099   4.489   0.088 -0.0676  0.8507  0.3670
  223MPD1    H6 3449   1.108   4.394   0.122 -0.8319 -0.2924 -2.6682
  223MPD1    H7 3450   1.122   4.485  17.736  0.0848  0.3877  0.4196
  224MPD1     C 3451   3.422   2.699   9.859  0.9498  0.0438  0.5192
  224MPD1    C1 3452   3.455   2.565   9.843 -0.2391  0.6873 -0.5526
  224MPD1    C2 3453   3.377   2.463   9.897 -0.1308  0.7356  0.6228
  224MPD1    C3 3454   3.268   2.498   9.973  0.1969 -0.1785 -0.3281
  224MPD1    C4 3455   3.241   2.628   9.995 -0.3222 -0.6667  0.1033
  224MPD1    C5 3456   3.310   2.728   9.923 -0.4098  0.2476  0.1243
  224MPD1     H 3457   3.405   2.361   9.873 -1.9813  0.3084  0.2841
  224MPD1    H1 3458   3.160   2.662  10.059 -0.6405 -3.8173  1.3503
  224MPD1    H2 3459   3.484   2.777   9.817  0.9171  0.8609  2.0070
  224MPD1    H3 3460   3.287   2.829   9.952  0.8142  0.3369  0.7954
  224MPD1     N 3461   3.179   2.409  10.026  0.4314  0.3454  0.6021
  224MPD1    H5 3462   3.113   2.449  10.091  2.0104  0.1819  2.3070
  224MPD1    N1 3463   3.557   2.535   9.751  0.0032  0.1943 -0.2485
  224MPD1    H6 3464   3.601   2.446   9.774  2.3403  0.4691 -3.6660
  224MPD1    H7 3465   3.628   2.608   9.748  0.6080 -0.3006  1.5078
  225MPD1     C 3466   0.095   2.661  12.556  0.0021  0.4942  0.7463
  225MPD1    C1 3467   0.043   2.610  12.444  0.0540  0.4837  0.4851
  225MPD1    C2 3468   4.642   2.601  12.432  0.2686 -0.1706 -0.2986
  225MPD1    C3 3469   4.559   2.629  12.548  0.1553  0.4957  0.4594
  225MPD1    C4 3470   4.624   2.664  12.665  0.4299 -0.0789  0.4927
  225MPD1    C5 3471   0.021   2.677  12.673  0.3600 -0.3157  0.1998
  225MPD1     H 3472   4.596   2.574  12.339  0.6519 -0.7428 -0.3268
  225MPD1    H1 3473   4.561   2.678  12.752 -1.9104  1.8506 -1.5116
  225MPD1    H2 3474   0.201   2.683  12.556 -0.1434  1.2419  2.1049
  225MPD1    H3 3475   0.068   2.702  12.767  1.7255  0.3096 -0.6501
  225MPD1     N 3476   4.415   2.614  12.543 -0.0938 -0.1308  0.1728
  225MPD1    H5 3477   4.358   2.622  12.627  0.6915 -2.4252  0.9269
  225MPD1    N1 3478   0.119   2.595  12.323 -0.2045 -0.1494  0.4114
  225MPD1    H6 3479   0.068   2.526  12.269  0.6585 -0.6300  0.2179
  225MPD1    H7 3480   0.215   2.565  12.341  0.0312  1.6056  2.1466
  226MPD1     C 3481   2.551   2.846   9.961 -0.3524 -0.1954 -0.6437
  226MPD1    C1 3482   2.607   2.743  10.032  0.3415 -0.4913 -0.2632
  226MPD1    C2 3483   2.671   2.765  10.155 -0.0927 -0.3228 -0.3191
  226MPD1    C3 3484   2.680   2.888  10.210  0.0712  0.2666  0.2283
  226MPD1    C4 3485   2.616   2.996  10.135  0.1361  0.2753 -0.3109
  226MPD1    C5 3486   2.567   2.977  10.012 -0.4693 -0.3122 -0.1122
  226MPD1     H 3487   2.703   2.675  10.206  1.1526  0.3006  0.0002
  226MPD1    H1 3488   2.629   3.098  10.170 -0.7425  0.0502  0.6608
  226MPD1    H2 3489   2.501   2.825   9.867  2.4110 -0.5729 -2.0226
  226MPD1    H3 3490   2.538   3.060   9.949  0.8365  1.3215  1.4267
  226MPD1     N 3491   2.750   2.902  10.332  0.0350 -0.4313  0.7415
  226MPD1    H5 3492   2.789   2.820  10.379 -0.6197 -0.8396  0.5763
  226MPD1    N1 3493   2.612   2.617   9.966 -0.0070 -0.9653  0.2492
  226MPD1    H6 3494   2.631   2.545  10.035 -0.4124 -0.6028  0.7389
  226MPD1    H7 3495   2.535   2.597   9.903 -0.4842  1.0124  0.1842
  227MPD1     C 3496   2.933   3.746  10.884  0.0874  0.0130  0.3975
  227MPD1    C1 3497   2.845   3.710  10.787  0.7462  0.7445 -0.0827
  227MPD1    C2 3498   2.821   3.579  10.743  0.0286 -0.5549  0.5550
  227MPD1    C3 3499   2.891   3.479  10.803 -0.1609 -0.6331  0.7696
  227MPD1    C4 3500   2.955   3.511  10.922  0.1584 -0.4737 -0.0638
  227MPD1    C5 3501   2.996   3.641  10.952 -0.1493  0.0693  0.0838
  227MPD1     H 3502   2.760   3.566  10.655 -1.0395 -4.1991  1.8440
  227MPD1    H1 3503   2.995   3.435  10.988 -1.5930  0.5344  2.1537
  227MPD1    H2 3504   2.958   3.846  10.915 -1.9735 -0.0754  2.3176
  227MPD1    H3 3505   3.067   3.652  11.033  0.5958 -3.1776 -0.1023
  227MPD1     N 3506   2.871   3.347  10.756 -0.7550  0.7402 -0.0852
  227MPD1    H5 3507   2.815   3.342  10.671  1.5849 -1.2017 -1.5445
  227MPD1    N1 3508   2.786   3.818  10.714  0.0736 -0.2957 -0.4417
  227MPD1    H6 3509   2.692   3.813  10.677 -0.7385 -0.3116  1.6016
  227MPD1    H7 3510   2.796   3.911  10.755  1.7477 -0.0855 -1.3023
  228MPD1     C 3511   1.432   0.213  13.014 -0.5190 -0.3180  0.3505
  228MPD1    C1 3512   1.363   0.249  12.903  0.0816  0.1609 -0.4619
  228MPD1    C2 3513   1.236   0.210  12.881  0.6219  0.1165 -0.3900
  228MPD1    C3 3514   1.170   0.129  12.972  0.4424  0.2306  1.3072
  228MPD1    C4 3515   1.241   0.099  13.087  0.4454  0.2760  0.2139
  228MPD1    C5 3516   1.366   0.140  13.111 -0.0992 -0.0566 -0.2155
  228MPD1     H 3517   1.194   0.237  12.785  1.0709 -0.4807 -0.7548
  228MPD1    H1 3518   1.196   0.030  13.158  1.8659  0.0900  0.9205
  228MPD1    H2 3519   1.539   0.232  13.024 -0.3782 -1.7809  1.6603
  228MPD1    H3 3520   1.428   0.094  13.188 -1.5959 -0.5709  0.6949
  228MPD1     N 3521   1.031   0.097  12.936 -0.8481  0.4424 -0.2063
  228MPD1    H5 3522   1.000   0.125  12.844  0.0126 -1.6911 -1.1377
  228MPD1    N1 3523   1.435   0.301  12.794 -0.3716 -0.1001 -0.4305
  228MPD1    H6 3524   1.376   0.364  12.739 -0.1640  1.3115  0.9700
  228MPD1    H7 3525   1.503   0.367  12.832 -0.2399 -1.5828  1.8520
  229MPD1     C 3526   0.781   4.145  15.152 -0.1236 -0.6535  0.5381
  229MPD1    C1 3527   0.805   4.117  15.284  0.4917 -0.4513 -0.4625
  229MPD1    C2 3528   0.866   4.001  15.326 -0.6504  0.8890 -0.5354
  229MPD1    C3 3529   0.916   3.912  15.234  0.3985 -0.1608  0.4046
  229MPD1    C4 3530   0.902   3.943  15.098 -0.2330  0.5229  0.1925
  229MPD1    C5 3531   0.832   4.060  15.056  0.3066 -0.2807 -0.0295
  229MPD1     H 3532   0.872   3.978  15.432  1.0209 -0.2421 -0.8750
  229MPD1    H1 3533   0.935   3.870  15.025  1.9125  1.1751  0.5067
  229MPD1    H2 3534   0.736   4.236  15.112  0.7534 -0.9545 -1.1222
  229MPD1    H3 3535   0.821   4.081  14.950 -0.1362  1.2249  0.3118
  229MPD1     N 3536   0.990   3.799  15.262 -0.0479  0.1834 -0.1881
  229MPD1    H5 3537   1.038   3.755  15.184 -1.5120  0.5917 -1.3247
  229MPD1    N1 3538   0.736   4.189  15.384  0.7227  0.0840  0.1227
  229MPD1    H6 3539   0.722   4.283  15.348  1.7108  0.7345  1.4098
  229MPD1    H7 3540   0.802   4.178  15.461  1.3714  0.7119 -0.3408
  230MPD1     C 3541   1.649   3.257  15.950 -0.3753 -0.5007 -0.5601
  230MPD1    C1 3542   1.578   3.157  15.880  0.4403 -0.6976  0.5589
  230MPD1    C2 3543   1.479   3.200  15.792  0.2743  0.3647 -0.2089
  230MPD1    C3 3544   1.453   3.328  15.765  0.6108  0.3947  0.5726
  230MPD1    C4 3545   1.535   3.424  15.829 -0.0780 -0.5731  0.5441
  230MPD1    C5 3546   1.630   3.388  15.923 -0.2538  0.1110  0.0633
  230MPD1     H 3547   1.415   3.128  15.743 -0.0438  0.9501 -0.6621
  230MPD1    H1 3548   1.518   3.528  15.805  0.0186 -0.9538 -1.1860
  230MPD1    H2 3549   1.714   3.233  16.034 -0.8576 -2.2501 -0.6951
  230MPD1    H3 3550   1.692   3.463  15.971 -2.3919  0.8554  1.7233
  230MPD1     N 3551   1.355   3.358  15.669 -0.0567 -0.2384 -0.9881
  230MPD1    H5 3552   1.338   3.284  15.601 -2.9782 -0.3130 -0.1771
  230MPD1    N1 3553   1.582   3.022  15.914  0.4276 -0.2757  0.5061
  230MPD1    H6 3554   1.576   2.967  15.828  0.2381 -0.8343  0.8762
  230MPD1    H7 3555   1.669   2.997  15.961  1.3787  2.0117 -0.0492
  231MPD1     C 3556   3.981   0.921  15.622 -1.3555  0.2834 -0.0638
  231MPD1    C1 3557   3.921   0.940  15.502  0.5820  0.2461  0.6872
  231MPD1    C2 3558   4.011   0.980  15.401 -0.3408  0.2687 -0.2511
  231MPD1    C3 3559   4.139   1.024  15.427 -0.3245  1.0411 -0.4766
  231MPD1    C4 3560   4.182   1.028  15.556  0.4825 -0.0375  0.6857
  231MPD1    C5 3561   4.110   0.956  15.650  0.3743  0.1269 -0.4876
  231MPD1     H 3562   3.981   0.981  15.297 -0.6331  0.4086 -0.1638
  231MPD1    H1 3563   4.277   1.071  15.584 -0.4094  1.8545  0.7896
  231MPD1    H2 3564   3.927   0.872  15.703  0.4311 -0.6665  0.5594
  231MPD1    H3 3565   4.148   0.940  15.750 -0.5706  0.2379 -0.1099
  231MPD1     N 3566   4.217   1.069  15.318 -0.3403 -0.0430  0.2616
  231MPD1    H5 3567   4.183   1.039  15.227  1.0312  0.2020 -0.3210
  231MPD1    N1 3568   3.793   0.888  15.477  0.1344 -0.1517  0.0947
  231MPD1    H6 3569   3.720   0.909  15.544  0.2293 -1.0835  0.4870
  231MPD1    H7 3570   3.756   0.924  15.389  0.3518 -0.0640  0.0394
  232MPD1     C 3571   1.033   3.447   0.164 -0.1302  0.1989  0.7636
  232MPD1    C1 3572   0.920   3.415   0.089  0.4895  0.3702  0.8703
  232MPD1    C2 3573   0.850   3.305   0.121  0.1666 -0.0088 -0.1250
  232MPD1    C3 3574   0.869   3.252   0.249  0.5684  0.2595 -0.2994
  232MPD1    C4 3575   0.978   3.278   0.326 -0.1900  0.5674 -0.3090
  232MPD1    C5 3576   1.049   3.390   0.287 -0.9225 -0.0387  0.0398
  232MPD1     H 3577   0.770   3.270   0.057  0.7330 -0.3171 -0.6600
  232MPD1    H1 3578   0.991   3.228   0.421  0.2512  2.1309  0.4479
  232MPD1    H2 3579   1.103   3.521   0.126  0.5014 -0.9180 -0.2477
  232MPD1    H3 3580   1.145   3.411   0.333 -0.5873 -3.4168  0.8986
  232MPD1     N 3581   0.783   3.148   0.283 -0.0265  0.4277  0.8607
  232MPD1    H5 3582   0.731   3.103   0.209 -0.4330  2.0360  0.1687
  232MPD1    N1 3583   0.894   3.482  17.718  0.3048  0.0608 -0.2145
  232MPD1    H6 3584   0.915   3.580  17.735 -0.0600  0.2275 -0.7144
  232MPD1    H7 3585   0.797   3.476  17.688 -0.3852 -0.1036  2.0401
  233MPD1     C 3586   1.656   2.201  17.527  0.0463  0.1787  0.4627
  233MPD1    C1 3587   1.593   2.078  17.538 -0.3212  0.2628  0.4524
  233MPD1    C2 3588   1.631   1.994  17.640 -0.5165  0.2868 -0.3843
  233MPD1    C3 3589   1.709   2.037  17.745  0.3436 -0.1640 -0.0213
  233MPD1    C4 3590   1.752   2.167  17.742 -0.0792 -0.5783 -0.6530
  233MPD1    C5 3591   1.742   2.241  17.628 -0.7117  0.4781  0.9515
  233MPD1     H 3592   1.606   1.889  17.630  1.6634 -0.2131 -0.5433
  233MPD1    H1 3593   1.787   2.204   0.090 -0.8766  0.1938 -0.6571
  233MPD1    H2 3594   1.646   2.266  17.441  0.4093  0.2166  0.4463
  233MPD1    H3 3595   1.771   2.345  17.617 -3.5772  1.0034 -1.5264
  233MPD1     N 3596   1.738   1.968   0.120  0.5515  0.6210 -0.3249
  233MPD1    H5 3597   1.813   1.997   0.182  1.2223 -2.2707  0.2061
  233MPD1    N1 3598   1.523   2.035  17.425  0.1852 -0.0663 -0.5085
  233MPD1    H6 3599   1.475   2.114  17.382  0.1851  1.3924  2.1646
  233MPD1    H7 3600   1.461   1.957  17.445  0.0904 -0.3452 -1.9230
  234MPD1     C 3601   4.202   1.179   9.545  0.0196  0.3036  0.7609
  234MPD1    C1 3602   4.154   1.259   9.440  0.4681 -0.2520  0.3343
  234MPD1    C2 3603   4.030   1.303   9.446 -0.2894  0.3243  0.6612
  234MPD1    C3 3604   3.934   1.254   9.539 -0.0012 -0.4342 -0.0956
  234MPD1    C4 3605   3.990   1.181   9.645  0.7939  0.4174 -0.6951
  234MPD1    C5 3606   4.119   1.146   9.647  0.7343  0.0456 -0.4072
  234MPD1     H 3607   3.999   1.369   9.366 -0.9735 -1.1237 -0.2770
  234MPD1    H1 3608   3.935   1.144   9.731  3.5338 -1.2799  0.3156
  234MPD1    H2 3609   4.303   1.143   9.537  0.2512  1.4715 -1.8672
  234MPD1    H3 3610   4.158   1.087   9.730  0.8813 -0.9073 -1.1530
  234MPD1     N 3611   3.798   1.291   9.534  0.3641 -0.2029 -0.7353
  234MPD1    H5 3612   3.773   1.379   9.490  1.1770  0.5162  0.2430
  234MPD1    N1 3613   4.240   1.297   9.338  0.5408  0.0834 -0.5650
  234MPD1    H6 3614   4.187   1.329   9.256 -0.3571 -1.7254 -0.6855
  234MPD1    H7 3615   4.309   1.226   9.313  0.6779  0.4625 -1.2806
  235MPD1     C 3616   0.588   2.465  10.929  0.3777 -0.2793  0.8399
  235MPD1    C1 3617   0.612   2.594  10.964  0.0817  0.1078  0.3201
  235MPD1    C2 3618   0.617   2.685  10.859 -0.0296  0.1636 -0.3002
  235MPD1    C3 3619   0.615   2.644  10.728 -0.1501 -0.1404  0.4448
  235MPD1    C4 3620   0.600   2.510  10.697  0.2935  0.2241  0.1756
  235MPD1    C5 3621   0.572   2.426  10.798 -0.7244  0.3454  0.1474
  235MPD1     H 3622   0.622   2.791  10.883 -0.1091  0.4853 -1.7325
  235MPD1    H1 3623   0.583   2.479  10.594  0.2463 -0.6675  0.4467
  235MPD1    H2 3624   0.567   2.395  11.009 -1.7179  1.3456  1.7333
  235MPD1    H3 3625   0.552   2.322  10.779 -1.7069  0.5859 -0.1111
  235MPD1     N 3626   0.651   2.744  10.634  0.4373 -0.8789 -0.4980
  235MPD1    H5 3627   0.664   2.839  10.669 -0.7769 -0.0284 -2.3073
  235MPD1    N1 3628   0.580   2.640  11.095 -0.6761 -0.4634  0.1900
  235MPD1    H6 3629   0.620   2.733  11.109  1.4372 -1.4061  0.5080
  235MPD1    H7 3630   0.624   2.580  11.165  1.7079  0.5664 -0.4059
  236MPD1     C 3631   4.495   3.523   9.751  0.0609  0.3979 -0.5049
  236MPD1    C1 3632   4.595   3.429   9.765  0.3525  0.4611 -0.6776
  236MPD1    C2 3633   4.674   3.433   9.875  0.0197  0.0049 -0.4055
  236MPD1    C3 3634   4.662   3.534   9.970 -0.7513 -0.4840 -0.6774
  236MPD1    C4 3635   4.574   3.638   9.949 -0.3095  0.1935 -0.4473
  236MPD1    C5 3636   4.487   3.625   9.848  0.2578  0.6230 -0.0356
  236MPD1     H 3637   0.010   3.356   9.900 -0.2661 -0.2020 -0.2065
  236MPD1    H1 3638   4.571   3.720  10.020 -0.3157 -0.0486 -0.1695
  236MPD1    H2 3639   4.414   3.521   9.680 -2.2563  1.7493  2.0854
  236MPD1    H3 3640   4.408   3.698   9.834 -0.5001 -0.2859 -0.4502
  236MPD1     N 3641   0.008   3.541  10.085  0.4172  0.4320  0.1779
  236MPD1    H5 3642   4.736   3.629  10.135  0.3372  1.2944 -1.3459
  236MPD1    N1 3643   4.606   3.321   9.676  0.1757  0.3495 -0.0685
  236MPD1    H6 3644   4.588   3.353   9.581  0.9786 -0.6852 -0.5647
  236MPD1    H7 3645   4.700   3.282   9.685  1.1103  2.2264 -1.6139
  237MPD1     C 3646   4.699   1.942  16.338 -0.0860  0.6286  0.0394
  237MPD1    C1 3647   0.014   1.897  16.217  0.2525 -0.1007  0.7264
  237MPD1    C2 3648   4.665   1.885  16.105  0.5607 -0.0503 -0.3699
  237MPD1    C3 3649   4.533   1.929  16.122  0.9443  0.3310  0.0777
  237MPD1    C4 3650   4.491   1.987  16.235 -0.8524  0.1837 -0.7119
  237MPD1    C5 3651   4.576   1.999  16.342  0.1836 -0.4519  0.2138
  237MPD1     H 3652   4.695   1.837  16.013  0.4720  2.0047 -1.4737
  237MPD1    H1 3653   4.399   2.044  16.237  0.9965  3.0886  0.4337
  237MPD1    H2 3654   0.018   1.930  16.430  0.9025  2.7124 -0.2967
  237MPD1    H3 3655   4.534   2.045  16.431  0.4833 -1.1378  0.7049
  237MPD1     N 3656   4.432   1.906  16.021  0.3359  0.3631  0.1863
  237MPD1    H5 3657   4.336   1.926  16.045  0.1946 -0.2353  0.1208
  237MPD1    N1 3658   0.140   1.838  16.214  0.0150 -0.0333  0.4207
  237MPD1    H6 3659   0.188   1.849  16.124 -0.1838  0.5348  0.3838
  237MPD1    H7 3660   0.192   1.880  16.290 -0.1905 -0.9973  1.0879
  238MPD1     C 3661   1.075   1.057  15.092 -0.3821  0.5255 -0.3824
  238MPD1    C1 3662   1.098   1.035  14.963 -0.3198  0.0940 -0.1986
  238MPD1    C2 3663   1.007   0.967  14.883  0.8254 -0.3475  0.3052
  238MPD1    C3 3664   0.896   0.903  14.945 -0.2748  0.4813 -0.0514
  238MPD1    C4 3665   0.881   0.917  15.080 -0.4629 -0.7233 -0.0920
  238MPD1    C5 3666   0.962   1.002  15.148  1.0567  0.0472 -0.3139
  238MPD1     H 3667   1.033   0.939  14.782  1.0013 -2.1393  0.8423
  238MPD1    H1 3668   0.803   0.871  15.139 -1.0900  0.9832  0.4063
  238MPD1    H2 3669   1.149   1.105  15.156  0.5385 -2.8157  1.0793
  238MPD1    H3 3670   0.950   1.011  15.255 -1.4499 -0.6074 -0.5274
  238MPD1     N 3671   0.805   0.820  14.875 -0.2177  0.3192 -0.1985
  238MPD1    H5 3672   0.735   0.779  14.936 -2.3992  2.9476 -0.9444
  238MPD1    N1 3673   1.201   1.102  14.909  0.4284  0.3237 -0.0637
  238MPD1    H6 3674   1.289   1.098  14.960 -0.0176 -0.8400  0.6157
  238MPD1    H7 3675   1.219   1.073  14.813  0.7657  1.8617 -0.4574
  239MPD1     C 3676   1.612   0.988  15.038 -0.1839 -0.0504  0.4428
  239MPD1    C1 3677   1.545   1.102  15.069 -0.0767  0.2538  0.3897
  239MPD1    C2 3678   1.506   1.180  14.965  1.1568  0.0838  0.4563
  239MPD1    C3 3679   1.543   1.160  14.836 -0.6223 -0.2579 -0.6693
  239MPD1    C4 3680   1.618   1.049  14.809  0.1520  0.1661 -0.2948
  239MPD1    C5 3681   1.660   0.970  14.915  0.1218  0.4681 -0.0953
  239MPD1     H 3682   1.455   1.272  14.991  1.4925  0.5925 -0.7207
  239MPD1    H1 3683   1.654   1.026  14.710  1.2223  3.4209 -0.6634
  239MPD1    H2 3684   1.634   0.912  15.112  2.3533 -0.1374 -0.4036
  239MPD1    H3 3685   1.724   0.884  14.900  0.0688  0.0209  2.2084
  239MPD1     N 3686   1.490   1.228  14.722  0.4932  0.6674 -0.0737
  239MPD1    H5 3687   1.525   1.209  14.629 -0.3751  2.1704 -0.6993
  239MPD1    N1 3688   1.486   1.121  15.195  0.3284  0.7431  0.1725
  239MPD1    H6 3689   1.455   1.217  15.201  0.4235  0.7875 -0.0477
  239MPD1    H7 3690   1.545   1.103  15.276  0.5011  3.2608  0.6092
  240MPD1     C 3691   4.336   1.615  13.723  0.0873 -0.1403 -0.3733
  240MPD1    C1 3692   4.359   1.482  13.739 -0.3031 -0.1066  0.3866
  240MPD1    C2 3693   4.474   1.438  13.806 -0.5147  0.3757 -0.7436
  240MPD1    C3 3694   4.573   1.525  13.849 -0.8510 -0.6341 -0.0174
  240MPD1    C4 3695   4.548   1.660  13.839 -0.2610  0.1064  0.2994
  240MPD1    C5 3696   4.429   1.690  13.780 -0.2351 -0.3246 -0.3605
  240MPD1     H 3697   4.487   1.333  13.829 -3.2492  0.3263  0.5984
  240MPD1    H1 3698   4.600   1.747  13.878 -0.7402 -0.2730  1.7797
  240MPD1    H2 3699   4.250   1.650  13.667 -1.3647 -0.8508  1.4041
  240MPD1    H3 3700   4.416   1.797  13.769  1.9331 -0.1004 -0.6796
  240MPD1     N 3701   4.675   1.479  13.928 -0.2913  0.4945  0.2654
  240MPD1    H5 3702   4.676   1.378  13.939  1.5252  0.4756 -0.2019
  240MPD1    N1 3703   4.282   1.382  13.668  0.3095  0.1346  0.1621
  240MPD1    H6 3704   4.182   1.399  13.660  0.3478 -1.2216 -3.3204
  240MPD1    H7 3705   4.296   1.287  13.703  0.2336 -0.6298 -1.8763
  241MPD1     C 3706   0.939   1.251  13.797 -0.2659  0.0279 -0.8002
  241MPD1    C1 3707   0.887   1.380  13.809  0.1463  0.5702 -0.1956
  241MPD1    C2 3708   0.772   1.402  13.887 -0.4460  0.3908  0.5746
  241MPD1    C3 3709   0.706   1.294  13.934 -0.3616  0.2149 -0.5153
  241MPD1    C4 3710   0.755   1.170  13.921  0.1117  0.0297  0.0313
  241MPD1    C5 3711   0.874   1.145  13.858 -0.2009 -0.2587  0.6461
  241MPD1     H 3712   0.735   1.502  13.901  0.6648  1.0537 -1.2421
  241MPD1    H1 3713   0.700   1.084  13.959 -1.0886  0.5614 -0.4873
  241MPD1    H2 3714   1.024   1.221  13.737 -2.3674  0.1888 -3.8658
  241MPD1    H3 3715   0.911   1.045  13.841  2.0718  1.1456 -2.7216
  241MPD1     N 3716   0.580   1.314  13.997 -0.2614  0.2588 -0.2039
  241MPD1    H5 3717   0.540   1.228  14.033 -2.2599  1.7760  1.2317
  241MPD1    N1 3718   0.964   1.483  13.757 -0.4811  0.3263 -0.3287
  241MPD1    H6 3719   0.900   1.562  13.745  2.0746  2.5074  0.5386
  241MPD1    H7 3720   1.021   1.462  13.675  0.5876  2.9907 -0.2577
  242MPD1     C 3721   0.690   0.354  15.876 -0.3589 -0.0841  0.8981
  242MPD1    C1 3722   0.725   0.441  15.774 -0.1049 -0.4745  0.8410
  242MPD1    C2 3723   0.757   0.365  15.657 -1.0841  0.2527 -0.6520
  242MPD1    C3 3724   0.732   0.225  15.644  0.0158  0.4218 -0.6319
  242MPD1    C4 3725   0.679   0.156  15.756  0.2612  0.2367  0.9172
  242MPD1    C5 3726   0.655   0.223  15.870 -0.4647 -0.1610  0.3294
  242MPD1     H 3727   0.826   0.412  15.588 -1.5154  0.3964 -0.9828
  242MPD1    H1 3728   0.658   0.050  15.749  1.1742  0.0746  0.6364
  242MPD1    H2 3729   0.666   0.387  15.977 -2.6566  0.5313  0.1462
  242MPD1    H3 3730   0.603   0.181  15.956 -2.7815  0.4707 -0.7664
  242MPD1     N 3731   0.761   0.150  15.531  0.6728 -0.4681 -0.2273
  242MPD1    H5 3732   0.756   0.049  15.534  0.8242 -0.4428  1.2828
  242MPD1    N1 3733   0.759   0.576  15.797 -0.0611 -0.2823  0.0281
  242MPD1    H6 3734   0.693   0.613  15.864  1.1909  1.4308  0.3242
  242MPD1    H7 3735   0.749   0.625  15.709  2.8417 -1.8513 -1.1850
  243MPD1     C 3736   1.603   3.800  17.639 -0.7017  0.0328 -0.4286
  243MPD1    C1 3737   1.602   3.756  17.510 -0.3431  0.1607 -0.0035
  243MPD1    C2 3738   1.661   3.631  17.488  0.1804 -0.2379  0.2424
  243MPD1    C3 3739   1.686   3.542  17.601 -1.2689 -0.9715  0.5264
  243MPD1    C4 3740   1.672   3.594  17.727  0.1644 -0.0734 -0.2330
  243MPD1    C5 3741   1.637   3.725   0.001  0.4504 -0.0557 -0.0180
  243MPD1     H 3742   1.675   3.587  17.390  0.3280  1.0557 -0.3203
  243MPD1    H1 3743   1.693   3.530   0.065  0.8271  3.2325  2.0891
  243MPD1    H2 3744   1.558   3.897  17.657 -0.9439 -0.3060  0.7842
  243MPD1    H3 3745   1.633   3.765   0.102  0.3122 -0.1540  0.0158
  243MPD1     N 3746   1.736   3.411  17.581  0.0231  0.4039 -0.1916
  243MPD1    H5 3747   1.738   3.384  17.483  1.6563  1.0734 -0.3327
  243MPD1    N1 3748   1.582   3.843  17.397 -0.2017  0.8233 -0.6605
  243MPD1    H6 3749   1.510   3.911  17.422  1.5454  1.8186  1.7089
  243MPD1    H7 3750   1.563   3.795  17.310  0.8031  0.3736 -0.6316
  244MPD1     C 3751   1.993   2.709   0.534 -0.1332  0.7945  0.3648
  244MPD1    C1 3752   2.057   2.835   0.516  0.5900 -0.3393  0.3495
  244MPD1    C2 3753   2.034   2.900   0.395 -0.3726  0.3251 -0.7098
  244MPD1    C3 3754   1.956   2.854   0.293 -0.2750 -0.0632  0.2652
  244MPD1    C4 3755   1.903   2.732   0.313  0.5344 -0.9786  0.6394
  244MPD1    C5 3756   1.909   2.665   0.433  0.3025  0.4157  0.1493
  244MPD1     H 3757   2.078   2.999   0.387  0.8458 -0.2724 -1.3366
  244MPD1    H1 3758   1.836   2.690   0.238 -1.1027  2.1777  0.3378
  244MPD1    H2 3759   1.991   2.650   0.625 -1.3142  0.2169 -0.0487
  244MPD1    H3 3760   1.860   2.569   0.447  2.1854 -0.7917 -1.4950
  244MPD1     N 3761   1.943   2.929   0.178 -0.6193  0.8465  0.1791
  244MPD1    H5 3762   1.977   3.024   0.179  1.9766 -0.0766  0.5891
  244MPD1    N1 3763   2.138   2.900   0.611 -0.1459  0.4864 -0.5227
  244MPD1    H6 3764   2.210   2.959   0.569 -0.4960  1.1142 -0.2479
  244MPD1    H7 3765   2.186   2.828   0.664 -1.9019 -0.2416  0.0774
  245MPD1     C 3766   3.953   3.255  12.839 -0.3629 -0.4316 -0.7163
  245MPD1    C1 3767   3.887   3.373  12.848  0.7229 -0.0424 -0.1739
  245MPD1    C2 3768   3.892   3.450  12.969  0.6125  0.1936  0.2586
  245MPD1    C3 3769   3.972   3.418  13.071 -0.0081  0.5659  0.2570
  245MPD1    C4 3770   4.039   3.294  13.062  0.2746 -0.3213  0.9744
  245MPD1    C5 3771   4.034   3.218  12.949  0.0679 -0.0594 -0.1186
  245MPD1     H 3772   3.843   3.547  12.968  1.8487  0.8056 -0.0052
  245MPD1    H1 3773   4.113   3.269  13.137  1.7685 -0.6504 -0.5801
  245MPD1    H2 3774   3.958   3.202  12.744  1.0928 -0.0145 -0.8694
  245MPD1    H3 3775   4.087   3.125  12.932  0.5545  0.5134 -1.7672
  245MPD1     N 3776   3.979   3.511  13.182 -0.0708  0.3566  0.1815
  245MPD1    H5 3777   3.919   3.593  13.186 -0.2816  0.1979  0.2787
  245MPD1    N1 3778   3.799   3.415  12.746 -0.2159  0.2506  0.3077
  245MPD1    H6 3779   3.834   3.377  12.658  0.0936  1.2021  0.0213
  245MPD1    H7 3780   3.797   3.516  12.754  1.2926  0.2182  1.0756
  246MPD1     C 3781   0.656   1.006  10.197 -0.0288  0.1671  0.0500
  246MPD1    C1 3782   0.578   0.895  10.222  0.2832 -0.1632  0.3365
  246MPD1    C2 3783   0.541   0.815  10.115  0.7239  0.5097 -0.4067
  246MPD1    C3 3784   0.599   0.835   9.990 -0.0343 -0.3218  0.0356
  246MPD1    C4 3785   0.669   0.955   9.969 -0.0256  0.3438 -0.7675
  246MPD1    C5 3786   0.691   1.046  10.068 -0.4613 -1.0053 -0.0201
  246MPD1     H 3787   0.484   0.726  10.141  0.0882  1.6757  2.1700
  246MPD1    H1 3788   0.733   0.965   9.882 -0.5604  0.5740 -1.1365
  246MPD1    H2 3789   0.675   1.080  10.274 -0.4496 -0.0486  0.3604
  246MPD1    H3 3790   0.752   1.133  10.049 -2.4505  0.5603  0.6812
  246MPD1     N 3791   0.564   0.751   9.875  0.1472  0.3568 -0.0370
  246MPD1    H5 3792   0.498   0.676   9.892  0.2687  0.0961 -0.7273
  246MPD1    N1 3793   0.516   0.866  10.347 -0.5942  0.0124  0.5192
  246MPD1    H6 3794   0.553   0.902  10.435  0.1926  0.3323  0.0611
  246MPD1    H7 3795   0.511   0.766  10.363 -0.0739  0.4158  3.1392
  247MPD1     C 3796   3.325   3.876  17.285  0.7465 -0.3594 -0.1335
  247MPD1    C1 3797   3.328   3.931  17.162 -0.1516  0.5127 -0.7650
  247MPD1    C2 3798   3.330   3.843  17.053  0.9245  0.2667 -0.0235
  247MPD1    C3 3799   3.347   3.706  17.066 -0.4743  0.4059  0.3779
  247MPD1    C4 3800   3.360   3.653  17.193 -0.7124  0.1157 -0.3221
  247MPD1    C5 3801   3.343   3.736  17.301  0.4867 -0.0663  0.1363
  247MPD1     H 3802   3.320   3.893  16.958  0.4363 -1.0378 -0.6503
  247MPD1    H1 3803   3.380   3.548  17.211  1.7158  0.4221 -1.2716
  247MPD1    H2 3804   3.329   3.943  17.371  2.2481 -2.2524  1.2560
  247MPD1    H3 3805   3.359   3.694  17.400  0.1908  0.6757  0.4961
  247MPD1     N 3806   3.350   3.616  16.955  0.2113 -0.0444  0.5533
  247MPD1    H5 3807   3.364   3.518  16.979  2.4194  0.1241 -0.0870
  247MPD1    N1 3808   3.301   4.069  17.140  0.1384 -0.9508  0.3193
  247MPD1    H6 3809   3.335   4.100  17.049  0.5574 -0.2449  0.7122
  247MPD1    H7 3810   3.338   4.125  17.216 -0.4659 -1.1183  0.7371
  248MPD1     C 3811   3.061   3.646  17.612 -0.4305  0.4746 -0.2259
  248MPD1    C1 3812   2.971   3.698  17.696  0.3036  0.0130 -0.1970
  248MPD1    C2 3813   2.900   3.617   0.035 -0.8223 -0.1764 -0.3482
  248MPD1    C3 3814   2.929   3.484   0.041  0.7148 -0.4311  0.3051
  248MPD1    C4 3815   3.028   3.432  17.700 -0.4396  0.3043 -0.7401
  248MPD1    C5 3816   3.094   3.514  17.610  0.6548  0.2600  0.3166
  248MPD1     H 3817   2.827   3.654   0.106  1.1557  3.0230  0.0146
  248MPD1    H1 3818   3.039   3.324  17.691  1.2904  0.4677 -0.5680
  248MPD1    H2 3819   3.101   3.710  17.534 -3.5909  1.5026 -1.0053
  248MPD1    H3 3820   3.171   3.480  17.543  0.4748  0.9240 -0.2205
  248MPD1     N 3821   2.865   3.399   0.139  0.4825 -0.1626  0.2152
  248MPD1    H5 3822   2.795   3.442   0.200 -2.3990 -2.6629 -1.3493
  248MPD1    N1 3823   2.944   3.833  17.703 -0.3879  0.2223  0.2554
  248MPD1    H6 3824   3.024   3.889  17.674 -0.0218  1.9165  4.5103
  248MPD1    H7 3825   2.928   3.858   0.054 -0.1969  1.4007 -0.0131
  249MPD1     C 3826   1.614   3.521   9.895  0.0326  0.2185 -0.6927
  249MPD1    C1 3827   1.698   3.523  10.009 -0.6005 -0.3876 -0.5206
  249MPD1    C2 3828   1.671   3.415  10.097  0.7960  0.6745  0.0941
  249MPD1    C3 3829   1.569   3.319  10.071  0.2717  0.3107  1.0122
  249MPD1    C4 3830   1.490   3.332   9.965  0.1386 -0.2025  0.5495
  249MPD1    C5 3831   1.517   3.427   9.872 -0.7999  0.1852  0.4680
  249MPD1     H 3832   1.743   3.400  10.176 -0.6941  0.2020  1.3553
  249MPD1    H1 3833   1.402   3.269   9.958  0.6244 -0.7544 -0.5966
  249MPD1    H2 3834   1.616   3.597   9.818  1.4739  0.3378 -0.5306
  249MPD1    H3 3835   1.460   3.436   9.780  0.1400  0.6859 -0.0596
  249MPD1     N 3836   1.557   3.216  10.165 -0.1843 -0.1709  0.0910
  249MPD1    H5 3837   1.618   3.217  10.246  2.3513  0.0218 -1.8088
  249MPD1    N1 3838   1.822   3.592  10.007 -0.1298  0.1721  0.5055
  249MPD1    H6 3839   1.803   3.668   9.942  1.5943 -0.2542 -0.5040
  249MPD1    H7 3840   1.860   3.620  10.097 -1.2796  2.7842  0.2017
  250MPD2     C 3841   2.565   1.941  13.307 -0.3946  1.0220 -0.6687
  250MPD2    C1 3842   2.444   1.986  13.262 -0.4256 -0.6534  0.3325
  250MPD2    C2 3843   2.365   1.906  13.181 -0.2094 -0.3891  0.0409
  250MPD2    C3 3844   2.406   1.778  13.152 -0.5158  0.0388 -0.7252
  250MPD2    C4 3845   2.508   1.733  13.219 -0.4589  0.0238  0.4126
  250MPD2    C5 3846   2.596   1.807  13.293 -0.3988 -0.7860 -0.3405
  250MPD2     H 3847   2.278   1.953  13.137  0.9685  1.6364 -0.1211
  250MPD2    H1 3848   2.526   1.626  13.209  1.4619  0.6382 -2.5721
  250MPD2    H2 3849   2.613   2.009  13.376  1.5293 -0.2788 -0.7341
  250MPD2    H3 3850   2.686   1.765  13.335 -0.1078  0.9798  0.8132
  250MPD2     N 3851   2.337   1.685  13.071  0.3163 -0.3748  0.1819
  250MPD2    H5 3852   2.381   1.596  13.054  0.3912 -0.0309 -1.3903
  250MPD2    N1 3853   2.407   2.119  13.298  0.6205  0.4327 -0.1963
  250MPD2    H7 3854   2.479   2.171  13.347  1.6601 -1.9521  0.7952
  251TMC3    C1 3855   2.281   2.314  13.281 -0.4991  0.9776  0.3785
  251TMC3    C2 3856   2.164   2.373  13.316 -0.7545 -0.3072 -0.0158
  251TMC3    C3 3857   2.142   2.504  13.288 -0.0402  0.3590  0.0780
  251TMC3    C4 3858   2.381   2.389  13.225 -0.9728 -1.0655 -0.1589
  251TMC3    C5 3859   2.355   2.524  13.198 -0.1380  0.2671  0.1675
  251TMC3    C6 3860   2.241   2.588  13.239 -0.4603 -0.0233  0.0654
  251TMC3     C 3861   2.282   2.169  13.276  0.7967  0.5705 -0.5186
  251TMC3     O 3862   2.173   2.112  13.266  0.4585  0.0696 -0.2923
  251TMC3     H 3863   2.079   2.317  13.356  0.6215 -3.2405 -1.1961
  251TMC3    H1 3864   2.457   2.340  13.166 -0.7382  0.5533 -1.2075
  251TMC3    H2 3865   2.225   2.695  13.236 -1.9377 -0.1555  3.3142
  251TMC3    C7 3866   2.464   2.602  13.152 -0.0133  0.3318  0.0355
  251TMC3    C8 3867   2.013   2.557  13.322 -0.2654 -0.0842 -0.5737
  251TMC3    O1 3868   2.570   2.546  13.170 -0.0400 -0.2713  0.1458
  251TMC3    O2 3869   1.950   2.497  13.405 -0.4459  0.0090  0.3436
  252TMC3    C1 3870   2.717   4.532   9.384 -0.4855 -0.3601 -0.4040
  252TMC3    C2 3871   2.826   4.561   9.456 -0.3013 -0.1927  0.2535
  252TMC3    C3 3872   2.829   4.528   9.590 -0.3884  0.1919 -0.6540
  252TMC3    C4 3873   2.602   4.489   9.447 -0.2394 -0.1356  0.2923
  252TMC3    C5 3874   2.613   4.462   9.589  0.3416 -0.0036  0.0195
  252TMC3    C6 3875   2.726   4.478   9.660 -0.2859 -0.4404 -0.4323
  252TMC3     C 3876   2.700   4.617   9.264 -0.0537 -0.1232  0.2891
  252TMC3     O 3877   2.796   4.681   9.227 -0.0712  0.0878  0.3770
  252TMC3     H 3878   2.913   4.603   9.406 -1.2695  1.1414 -0.2974
  252TMC3    H1 3879   2.509   4.472   9.393  1.4127 -0.1067 -2.5444
  252TMC3    H2 3880   2.722   4.454   9.765 -0.5709 -2.5573 -0.9316
  252TMC3    C7 3881   2.499   4.411   9.659  0.4213  1.1104  0.1532
  252TMC3    C8 3882   2.948   4.564   9.662  0.1228 -0.7291  0.3624
  252TMC3    O1 3883   2.484   4.428   9.778 -0.5181 -0.4629 -0.2197
  252TMC3    O2 3884   3.029   4.625   9.592  0.1976 -0.1937 -0.2061
  253MPD2     C 3885   3.478   1.741  15.279  1.1224 -0.2873  0.2640
  253MPD2    C1 3886   3.347   1.755  15.278 -0.2380  1.3297 -0.0742
  253MPD2    C2 3887   3.280   1.746  15.399  0.2166 -1.2452  0.7174
  253MPD2    C3 3888   3.349   1.735  15.523 -0.0448  0.5792 -0.6537
  253MPD2    C4 3889   3.487   1.713  15.512 -0.6039 -0.0296  0.7487
  253MPD2    C5 3890   3.546   1.718  15.392  0.1086  0.1235  0.5922
  253MPD2     H 3891   3.175   1.768  15.387  0.5523 -1.2451 -2.2186
  253MPD2    H1 3892   3.553   1.680  15.592 -0.3952  0.7480  0.8982
  253MPD2    H2 3893   3.535   1.732  15.186 -0.3252  0.5342 -0.6945
  253MPD2    H3 3894   3.650   1.687  15.387 -0.0514 -0.1645 -1.0447
  253MPD2     N 3895   3.282   1.739  15.646  0.1965 -0.1516 -0.1590
  253MPD2    H5 3896   3.349   1.753  15.721 -0.7270  0.9319  0.4511
  253MPD2    N1 3897   3.283   1.790  15.156 -0.5279  0.2026 -0.2489
  253MPD2    H7 3898   3.182   1.795  15.160 -0.3720  2.2969  1.0558
  254TMC3    C1 3899   3.144   1.823  15.810 -0.0419  0.5633 -0.4351
  254TMC3    C2 3900   3.036   1.903  15.840  0.2768  0.2769  0.4995
  254TMC3    C3 3901   3.030   1.937  15.973 -0.1804 -0.3395 -0.3723
  254TMC3    C4 3902   3.245   1.786  15.900 -0.5956 -0.3773  0.1122
  254TMC3    C5 3903   3.215   1.809  16.029  0.1853  0.2931  0.4411
  254TMC3    C6 3904   3.114   1.893  16.069  0.5095  0.0056 -0.4620
  254TMC3     C 3905   3.156   1.784  15.668  0.4320 -0.5888  0.8794
  254TMC3     O 3906   3.069   1.796  15.583 -0.3100  0.3869  0.2995
  254TMC3     H 3907   2.962   1.933  15.767  0.9012  1.9959  0.5686
  254TMC3    H1 3908   3.327   1.722  15.869 -2.4324 -3.6087  1.9509
  254TMC3    H2 3909   3.113   1.931  16.171  0.7417 -1.1142 -0.0330
  254TMC3    C7 3910   3.295   1.746  16.136 -0.2539  0.2907 -0.4309
  254TMC3    C8 3911   2.921   2.019  16.010 -0.2622  0.6866  0.0747
  254TMC3    O1 3912   3.417   1.711  16.130 -0.1288 -0.2804 -0.5436
  254TMC3    O2 3913   2.901   2.018  16.132 -0.1733  0.2418  0.4643
  255MPD2     C 3914   1.547   0.120  10.500 -0.0750  0.0771 -0.0441
  255MPD2    C1 3915   1.608   0.240  10.525 -0.3045 -0.5802  0.1404
  255MPD2    C2 3916   1.726   0.266  10.451  0.0326  0.5189  0.9210
  255MPD2    C3 3917   1.766   0.182  10.351 -0.0691  0.5735  0.2477
  255MPD2    C4 3918   1.710   0.052  10.348  0.0579  0.6243 -0.1186
  255MPD2    C5 3919   1.598   0.021  10.418 -0.4318  0.8205 -0.7862
  255MPD2     H 3920   1.787   0.352  10.477 -1.0285  1.3154  0.7473
  255MPD2    H1 3921   1.751   4.713  10.282 -0.0251  0.6278 -0.1749
  255MPD2    H2 3922   1.460   0.093  10.558  0.1435 -0.5009  0.0194
  255MPD2    H3 3923   1.533   4.672  10.419 -0.4762  0.8521 -0.9577
  255MPD2     N 3924   1.872   0.222  10.269  0.3473  0.5157  0.2018
  255MPD2    H5 3925   1.916   0.310  10.294  0.2673  0.5742  0.1369
  255MPD2    N1 3926   1.542   0.335  10.606  0.4607  0.5344 -0.1264
  255MPD2    H7 3927   1.444   0.314  10.616  0.3630  1.2440  0.3625
  256TMC3    C1 3928   1.492   0.555  10.578 -0.3479 -0.1620 -0.1600
  256TMC3    C2 3929   1.525   0.685  10.611 -0.4270  0.3704 -0.5887
  256TMC3    C3 3930   1.497   0.786  10.523  0.4068  0.6167  0.0435
  256TMC3    C4 3931   1.437   0.533  10.459  0.5631  0.0218  0.1985
  256TMC3    C5 3932   1.398   0.633  10.374  0.0089 -0.4679 -0.1487
  256TMC3    C6 3933   1.430   0.768  10.404  0.9094 -0.7505 -0.0332
  256TMC3     C 3934   1.585   0.457  10.628 -0.3233 -0.0621  0.1267
  256TMC3     O 3935   1.699   0.502  10.642 -0.4485  0.1004  0.3004
  256TMC3     H 3936   1.573   0.698  10.707 -1.4968  1.1097 -0.1588
  256TMC3    H1 3937   1.418   0.430  10.429 -1.9056  0.8725 -1.2233
  256TMC3    H2 3938   1.388   0.851  10.348  2.5447  0.1344  0.0532
  256TMC3    C7 3939   1.342   0.592  10.243  0.6916 -0.5971  0.0453
  256TMC3    C8 3940   1.549   0.920  10.564 -0.6838  0.2699  0.3732
  256TMC3    O1 3941   1.314   0.477  10.220 -0.5267  0.1609 -0.3064
  256TMC3    O2 3942   1.583   0.924  10.682  0.2067  0.2498 -0.4810
  257MPD2     C 3943   1.026   1.898  13.384  0.7055  0.0010  0.2814
  257MPD2    C1 3944   1.140   1.891  13.303  0.2476 -0.2425 -0.7268
  257MPD2    C2 3945   1.229   1.784  13.310 -0.1066  0.0412 -0.2441
  257MPD2    C3 3946   1.207   1.684  13.407  0.1027 -0.0599  0.0157
  257MPD2    C4 3947   1.097   1.704  13.494 -0.1539 -0.4495 -0.3441
  257MPD2    C5 3948   1.010   1.810  13.485  0.3867  0.2301 -0.3519
  257MPD2     H 3949   1.314   1.771  13.244 -0.9876  0.4151 -1.4724
  257MPD2    H1 3950   1.072   1.641  13.579  1.2562  0.2512  0.5822
  257MPD2    H2 3951   0.968   1.988  13.368  1.4304  0.5262  0.6657
  257MPD2    H3 3952   0.927   1.820  13.555 -0.0401  1.3972 -1.0168
  257MPD2     N 3953   1.283   1.562  13.401  0.2853 -0.2347 -0.5192
  257MPD2    H5 3954   1.359   1.561  13.333 -0.4868 -1.4594 -1.3525
  257MPD2    N1 3955   1.150   2.002  13.207  0.0354 -1.0453 -0.4651
  257MPD2    H7 3956   1.076   2.071  13.210  1.1381  0.0927  0.1655
  258TMC3    C1 3957   1.355   1.340  13.467  0.3685  0.0014 -0.1653
  258TMC3    C2 3958   1.412   1.316  13.347 -0.2183 -0.6019  0.3542
  258TMC3    C3 3959   1.506   1.213  13.341  0.5376 -0.4068  0.1105
  258TMC3    C4 3960   1.382   1.255  13.570 -0.0845  0.7051 -0.6816
  258TMC3    C5 3961   1.473   1.157  13.561 -0.0381  0.3431 -0.5497
  258TMC3    C6 3962   1.541   1.133  13.445 -0.0851 -0.3614  0.2471
  258TMC3     C 3963   1.267   1.454  13.486 -1.1148 -0.1403  0.1854
  258TMC3     O 3964   1.200   1.447  13.584  0.0552  0.0857  0.7480
  258TMC3     H 3965   1.391   1.387  13.268  0.1173 -0.7427  0.1426
  258TMC3    H1 3966   1.357   1.284  13.672  0.0647 -2.8311  0.3607
  258TMC3    H2 3967   1.629   1.070  13.439  0.4264  0.2777  1.1247
  258TMC3    C7 3968   1.523   1.110  13.685 -0.9053  0.2890 -0.2137
  258TMC3    C8 3969   1.545   1.178  13.205 -0.1986 -0.2162 -0.3974
  258TMC3    O1 3970   1.522   1.178  13.790  0.2519 -0.0030 -0.4381
  258TMC3    O2 3971   1.518   1.257  13.118 -0.2167 -0.6587  0.6538
  259MPD2     C 3972   4.324   3.748   0.204 -0.3317  0.2003 -0.0386
  259MPD2    C1 3973   4.352   3.644   0.288 -0.0120  0.6507  0.0835
  259MPD2    C2 3974   4.473   3.582   0.276  0.2841 -0.6024 -0.6144
  259MPD2    C3 3975   4.575   3.635   0.196  0.3044  0.0487  0.2824
  259MPD2    C4 3976   4.550   3.743   0.122  0.3961 -0.1355  0.7661
  259MPD2    C5 3977   4.423   3.797   0.124  0.3801 -0.2797  0.0964
  259MPD2     H 3978   4.503   3.517   0.358 -1.3152  0.2213  0.6187
  259MPD2    H1 3979   4.618   3.785   0.049  1.5849 -1.5891  1.0187
  259MPD2    H2 3980   4.229   3.799   0.210 -0.0354  0.4769  2.2779
  259MPD2    H3 3981   4.416   3.888   0.064 -0.9920 -0.0210  0.6537
  259MPD2     N 3982   4.703   3.567   0.212 -0.2657  0.2669  0.1116
  259MPD2    H5 3983   4.717   3.488   0.274  0.1284 -1.2665 -1.9367
  259MPD2    N1 3984   4.260   3.623   0.393 -0.6604  0.1938  0.3076
  259MPD2    H7 3985   4.194   3.696   0.414 -0.3564  0.4546  0.3516
  260TMC3    C1 3986   0.191   3.510   0.194 -0.5537 -0.4300 -0.3820
  260TMC3    C2 3987   0.313   3.510   0.125  0.4653  0.9041  0.8920
  260TMC3    C3 3988   0.427   3.449   0.166  0.6074  0.1260 -0.0985
  260TMC3    C4 3989   0.182   3.438   0.311  0.2962  0.2433  0.5982
  260TMC3    C5 3990   0.303   3.386   0.354 -0.2282 -0.1620 -0.3742
  260TMC3    C6 3991   0.431   3.396   0.292  0.5927 -0.3065 -0.4949
  260TMC3     C 3992   0.082   3.602   0.150  0.7554 -0.5429 -0.5496
  260TMC3     O 3993   0.115   3.682   0.062 -0.5303 -0.5811  0.3643
  260TMC3     H 3994   0.319   3.553   0.026  0.0889 -0.8456  0.0908
  260TMC3    H1 3995   0.094   3.428   0.374  0.1543  0.3159  0.4127
  260TMC3    H2 3996   0.518   3.349   0.336  2.3631  0.7095 -2.9639
  260TMC3    C7 3997   0.282   3.251   0.396 -0.2497  0.0213  0.0881
  260TMC3    C8 3998   0.488   3.369   0.067 -0.1069  0.3770  0.5386
  260TMC3    O1 3999   0.368   3.172   0.358 -0.1288  0.3937  0.4548
  260TMC3    O2 4000   0.557   3.420  17.725  0.0841 -0.5587  0.4967
  261MPD2     C 4001   1.690   1.696  12.506  0.1992 -0.1589 -0.9354
  261MPD2    C1 4002   1.811   1.767  12.504 -0.1094  0.1261  0.0135
  261MPD2    C2 4003   1.826   1.879  12.432 -0.0605  0.2030  0.3711
  261MPD2    C3 4004   1.730   1.915  12.335  0.5350  0.2179 -1.0678
  261MPD2    C4 4005   1.610   1.841  12.329  0.0281 -0.2213  0.0166
  261MPD2    C5 4006   1.592   1.734  12.422  0.0515  0.1866 -0.0633
  261MPD2     H 4007   1.918   1.931  12.455  0.2390 -0.2404  0.1842
  261MPD2    H1 4008   1.531   1.851  12.256 -0.9163  2.1137  1.3545
  261MPD2    H2 4009   1.665   1.614  12.573 -0.8001  1.1570  0.3137
  261MPD2    H3 4010   1.501   1.675  12.419  0.0397  0.1923  0.1732
  261MPD2     N 4011   1.754   2.037  12.268  0.4623  0.3644 -0.0237
  261MPD2    H5 4012   1.847   2.077  12.265  0.8156 -0.4448  0.2717
  261MPD2    N1 4013   1.921   1.731  12.585  0.5044  0.3550  0.3916
  261MPD2    H7 4014   1.995   1.801  12.584  0.1374  0.7116 -2.2475
  262TMC3    C1 4015   1.706   2.233  12.163  0.2290 -0.3225 -0.6298
  262TMC3    C2 4016   1.614   2.327  12.135  0.4528  0.4269 -0.1959
  262TMC3    C3 4017   1.659   2.436  12.061 -0.0657  0.6724 -0.6657
  262TMC3    C4 4018   1.834   2.238  12.117 -0.7417  0.3627  0.8121
  262TMC3    C5 4019   1.869   2.345  12.039  0.1356 -0.1602 -0.2035
  262TMC3    C6 4020   1.784   2.452  12.013 -0.4756 -0.1897 -1.1183
  262TMC3     C 4021   1.656   2.112  12.208  0.3938 -0.1797  0.6723
  262TMC3     O 4022   1.537   2.084  12.216  0.7023 -0.3977  0.5568
  262TMC3     H 4023   1.511   2.316  12.165  0.8347  0.0573  0.9840
  262TMC3    H1 4024   1.895   2.149  12.126 -1.6491 -0.3040  0.3278
  262TMC3    H2 4025   1.822   2.547  11.977 -1.4693  1.1323  1.3456
  262TMC3    C7 4026   2.002   2.342  11.987  0.1069 -0.6802 -0.0069
  262TMC3    C8 4027   1.566   2.544  12.026 -0.0076 -0.2563  0.5958
  262TMC3    O1 4028   2.065   2.237  11.990 -0.4161  0.2679  0.0400
  262TMC3    O2 4029   1.475   2.561  12.108  0.3927 -0.9136  0.0523
  263MPD2     C 4030   2.878   1.462  11.743 -0.2185  0.6741  0.1606
  263MPD2    C1 4031   3.001   1.440  11.691 -0.7227  0.6534  0.0188
  263MPD2    C2 4032   3.027   1.484  11.565 -0.0150  0.0213 -0.8011
  263MPD2    C3 4033   2.931   1.551  11.487 -0.4811  0.6049 -0.0372
  263MPD2    C4 4034   2.803   1.562  11.535 -0.1062 -0.2543  0.3307
  263MPD2    C5 4035   2.783   1.520  11.661 -0.2308  0.0954 -0.6048
  263MPD2     H 4036   3.126   1.476  11.523  1.0566 -0.6208  1.7962
  263MPD2    H1 4037   2.734   1.625  11.481  1.0549  0.1298 -0.7060
  263MPD2    H2 4038   2.848   1.417  11.838  1.1752  0.5595  0.5457
  263MPD2    H3 4039   2.681   1.536  11.695 -0.5758 -4.1542  0.3343
  263MPD2     N 4040   2.950   1.603  11.354 -0.4657  0.0737  0.2860
  263MPD2    H5 4041   2.868   1.635  11.303 -1.6810 -0.3792  1.9806
  263MPD2    N1 4042   3.087   1.361  11.769  0.2582 -0.1495 -0.1173
  263MPD2    H7 4043   3.055   1.340  11.863  0.2545  3.1354  0.5965
  264TMC3    C1 4044   3.042   1.641  11.137  1.2057  0.6399  0.2887
  264TMC3    C2 4045   2.948   1.742  11.123 -0.0827 -0.0992 -0.4281
  264TMC3    C3 4046   2.957   1.823  11.009 -0.0099  0.5286 -0.0827
  264TMC3    C4 4047   3.150   1.637  11.051  0.0106  0.7103 -0.0441
  264TMC3    C5 4048   3.159   1.722  10.945  0.4230 -0.3324 -0.0614
  264TMC3    C6 4049   3.061   1.810  10.920  0.0350  0.5017 -0.2884
  264TMC3     C 4050   3.057   1.579  11.271 -0.8991  0.0227  0.8924
  264TMC3     O 4051   3.154   1.508  11.299 -0.0877 -0.1051  0.1179
  264TMC3     H 4052   2.857   1.739  11.182  0.8845  0.9425  1.1207
  264TMC3    H1 4053   3.223   1.561  11.075  0.5359  0.3193 -2.9430
  264TMC3    H2 4054   3.069   1.866  10.827 -0.9158  1.2510  0.0865
  264TMC3    C7 4055   3.275   1.713  10.852  0.0025  0.8140  0.2847
  264TMC3    C8 4056   2.894   1.958  11.013  0.3302 -0.2874  0.8704
  264TMC3    O1 4057   3.321   1.603  10.827 -0.1136 -0.0815  0.2335
  264TMC3    O2 4058   2.932   2.027  10.918 -0.1818  0.0742 -0.5220
  265MPD2     C 4059   0.315   1.632  15.775  0.4980 -0.8307  0.6824
  265MPD2    C1 4060   0.261   1.729  15.689 -0.8676 -0.1748 -0.2347
  265MPD2    C2 4061   0.268   1.702  15.554 -0.1062  0.6037  0.0604
  265MPD2    C3 4062   0.335   1.595  15.495  0.1249 -0.7912 -0.5089
  265MPD2    C4 4063   0.393   1.503  15.578  0.1383  0.1736  0.6242
  265MPD2    C5 4064   0.380   1.527  15.715  0.0702 -0.3102 -0.0601
  265MPD2     H 4065   0.214   1.772  15.491 -1.2021 -0.4147 -0.1368
  265MPD2    H1 4066   0.454   1.420  15.544 -0.8029  0.3112 -1.4013
  265MPD2    H2 4067   0.316   1.639  15.884 -2.3833  1.4959  0.5658
  265MPD2    H3 4068   0.432   1.456  15.778  0.5198 -0.9794 -1.1864
  265MPD2     N 4069   0.340   1.581  15.351 -0.3105 -0.0522  0.0675
  265MPD2    H5 4070   0.270   1.630  15.297 -0.0979 -1.0851 -1.1284
  265MPD2    N1 4071   0.203   1.852  15.728  0.0103  0.4572 -0.0839
  265MPD2    H7 4072   0.170   1.905  15.649  0.1178 -1.8951 -1.7106
  266TMC3    C1 4073   0.143   2.023  15.868  0.4470 -0.0350 -0.0056
  266TMC3    C2 4074   0.164   2.090  15.979  0.1726 -0.8776 -0.1872
  266TMC3    C3 4075   0.087   2.198  16.013  0.2831 -0.5353  0.4189
  266TMC3    C4 4076   0.030   2.042  15.788 -0.5808 -0.5565  0.1123
  266TMC3    C5 4077   4.686   2.145  15.833 -0.4698 -0.9917  0.0635
  266TMC3    C6 4078   4.719   2.225  15.937 -0.7770 -0.8322 -0.3377
  266TMC3     C 4079   0.207   1.899  15.858  0.2507 -0.8008  0.1950
  266TMC3     O 4080   0.257   1.855  15.963  0.3611 -0.0901  0.6974
  266TMC3     H 4081   0.249   2.067  16.041 -0.8104 -0.2088  1.4210
  266TMC3    H1 4082   4.732   1.972  15.713 -0.2778 -1.1379  0.5125
  266TMC3    H2 4083   4.660   2.312  15.965  2.5395  1.6820 -1.1380
  266TMC3    C7 4084   4.551   2.162  15.788 -0.0833  0.4871 -1.0804
  266TMC3    C8 4085   0.165   2.314  16.039 -0.4051  0.0570 -0.5703
  266TMC3    O1 4086   4.482   2.220  15.872 -0.9387  0.3260  0.0592
  266TMC3    O2 4087   0.257   2.329  15.962  0.3099 -0.1191  0.1811
  267MPD2     C 4088   2.081   4.251   0.685  0.1289  0.7876 -0.2004
  267MPD2    C1 4089   2.054   4.176   0.573  0.7417 -0.2571  0.4485
  267MPD2    C2 4090   1.963   4.240   0.491  0.1896 -0.6761  0.0941
  267MPD2    C3 4091   1.901   4.363   0.514  0.3126 -0.0526 -0.5478
  267MPD2    C4 4092   1.949   4.437   0.622 -0.6890 -0.4334  0.2053
  267MPD2    C5 4093   2.032   4.377   0.712  0.3584 -0.0794  0.4940
  267MPD2     H 4094   1.943   4.183   0.401 -0.9548  0.7500 -0.5508
  267MPD2    H1 4095   1.907   4.533   0.652  0.0883 -0.3412  0.9876
  267MPD2    H2 4096   2.155   4.228   0.760  1.6115  0.7172 -1.6990
  267MPD2    H3 4097   2.074   4.427   0.798 -0.6058  0.4751  0.6412
  267MPD2     N 4098   1.823   4.430   0.427 -0.2690 -0.2157 -0.6148
  267MPD2    H5 4099   1.800   4.527   0.448 -0.6872 -0.6512  0.9605
  267MPD2    N1 4100   2.105   4.045   0.566 -0.2859  0.5544  0.3932
  267MPD2    H7 4101   2.159   4.014   0.646 -1.7377  0.7981  1.4690
  268TMC3    C1 4102   2.139   3.826   0.491  0.4151  0.0562 -0.4446
  268TMC3    C2 4103   2.164   3.747   0.383  0.0720 -0.6573  0.3434
  268TMC3    C3 4104   2.256   3.648   0.408  0.2414 -0.2238 -1.2444
  268TMC3    C4 4105   2.166   3.781   0.615 -0.4509 -0.1015 -0.7825
  268TMC3    C5 4106   2.235   3.665   0.635 -0.1791  0.4725 -0.0935
  268TMC3    C6 4107   2.291   3.602   0.530  0.8751  0.1945 -0.0238
  268TMC3     C 4108   2.076   3.954   0.465  0.0902  0.3115  0.6022
  268TMC3     O 4109   2.014   3.962   0.358 -0.2531 -0.0611 -0.1004
  268TMC3     H 4110   2.152   3.793   0.286  0.2581 -0.6129  0.3417
  268TMC3    H1 4111   2.144   3.842   0.702 -1.7415 -0.1241 -1.0978
  268TMC3    H2 4112   2.360   3.518   0.539  2.2112  1.6000  3.0202
  268TMC3    C7 4113   2.231   3.598   0.766  1.2526  0.7081  0.3878
  268TMC3    C8 4114   2.319   3.571   0.300 -0.5967 -0.6942  0.0254
  268TMC3    O1 4115   2.309   3.508   0.772 -0.8070  0.6009 -0.4353
  268TMC3    O2 4116   2.368   3.460   0.322 -0.4844  0.5618 -0.4993
  269MPD2     C 4117   2.454   2.440  15.655  0.2221 -1.0284 -0.0464
  269MPD2    C1 4118   2.388   2.453  15.771 -0.5744  0.3746 -0.0461
  269MPD2    C2 4119   2.351   2.573  15.832  0.5781  0.1735 -0.0539
  269MPD2    C3 4120   2.385   2.695  15.769  0.0024 -0.0960  0.1501
  269MPD2    C4 4121   2.457   2.672  15.649 -0.1447 -0.0053 -0.0650
  269MPD2    C5 4122   2.487   2.549  15.589  0.7427  1.1386  0.0113
  269MPD2     H 4123   2.287   2.578  15.919 -1.0229  2.7370 -1.3613
  269MPD2    H1 4124   2.487   2.758  15.591  0.8083 -1.0398 -1.1151
  269MPD2    H2 4125   2.488   2.343  15.620  0.2738 -0.6903 -0.9341
  269MPD2    H3 4126   2.535   2.547  15.493  0.4870  0.9574 -0.1153
  269MPD2     N 4127   2.342   2.819  15.813 -0.3866  0.1407  0.0666
  269MPD2    H5 4128   2.285   2.815  15.898 -1.8464 -0.8056 -0.9557
  269MPD2    N1 4129   2.363   2.326  15.820 -0.2527 -0.0431 -0.2065
  269MPD2    H7 4130   2.415   2.255  15.769  0.6130 -1.2831  2.4000
  270TMC3    C1 4131   2.292   2.137  15.935  0.1910  0.4682 -0.9498
  270TMC3    C2 4132   2.176   2.075  15.903 -0.7717 -0.1323 -0.3229
  270TMC3    C3 4133   2.178   1.954  15.865  0.4509  0.4846 -0.0329
  270TMC3    C4 4134   2.414   2.073  15.919  0.0788  0.9338 -1.1222
  270TMC3    C5 4135   2.415   1.952  15.868 -0.0838  0.4875 -0.4408
  270TMC3    C6 4136   2.298   1.887  15.837  0.4747 -0.4808  0.3471
  270TMC3     C 4137   2.288   2.285  15.926 -0.5361  0.3470 -0.3657
  270TMC3     O 4138   2.198   2.343  15.982  0.1447  0.3170 -0.5728
  270TMC3     H 4139   2.078   2.121  15.915  0.9572  2.9881  1.7046
  270TMC3    H1 4140   2.512   2.112  15.943 -1.0286  2.1404  1.3655
  270TMC3    H2 4141   2.304   1.783  15.806 -0.6176 -0.2153 -0.7542
  270TMC3    C7 4142   2.541   1.887  15.885  0.0805 -0.3761 -0.4200
  270TMC3    C8 4143   2.058   1.899  15.795  0.1902  0.1454 -0.3313
  270TMC3    O1 4144   2.625   1.929  15.968 -0.3978  0.5585  0.3124
  270TMC3    O2 4145   1.952   1.944  15.829  0.3805  0.0312 -0.5861
  271MPD2     C 4146   1.381   1.919  14.010 -0.3079  0.1123  0.6022
  271MPD2    C1 4147   1.357   1.972  14.129 -0.2995  0.5642 -0.5384
  271MPD2    C2 4148   1.225   2.012  14.161 -0.0431 -0.0454 -0.2132
  271MPD2    C3 4149   1.128   2.000  14.061 -0.0910 -0.4519 -0.3965
  271MPD2    C4 4150   1.159   1.953  13.939  0.0052  0.1499 -0.2600
  271MPD2    C5 4151   1.289   1.912  13.911  0.0198 -0.1181 -0.1527
  271MPD2     H 4152   1.212   2.050  14.262 -0.1905 -0.5289 -0.0517
  271MPD2    H1 4153   1.083   1.962  13.863 -0.1074  2.4657  0.1447
  271MPD2    H2 4154   1.481   1.890  13.979 -0.5410  0.1721 -0.2192
  271MPD2    H3 4155   1.321   1.876  13.814 -0.7117 -2.0258  0.2970
  271MPD2     N 4156   0.995   2.040  14.084 -0.8638  0.0799  0.2997
  271MPD2    H5 4157   0.927   2.019  14.011 -0.3879 -0.5772  0.0461
  271MPD2    N1 4158   1.458   1.989  14.225  0.3425  0.2020 -0.6331
  271MPD2    H7 4159   1.429   2.026  14.315 -1.4633  0.0866 -1.1665
  272TMC3    C1 4160   1.668   1.944  14.342 -0.3269 -0.1397 -0.3395
  272TMC3    C2 4161   1.805   1.920  14.332 -0.2937  0.3249  0.0639
  272TMC3    C3 4162   1.866   1.849  14.436  0.6657 -0.8360  0.0591
  272TMC3    C4 4163   1.599   1.917  14.451  0.1818 -0.4355  0.4851
  272TMC3    C5 4164   1.660   1.854  14.554  0.0112 -0.3316  0.8132
  272TMC3    C6 4165   1.797   1.820  14.547 -0.5636  0.0336 -0.8529
  272TMC3     C 4166   1.595   1.963  14.216  0.6733  0.4510  0.0764
  272TMC3     O 4167   1.660   1.955  14.112  0.7284  0.8526  0.1415
  272TMC3     H 4168   1.851   1.922  14.234  2.3228 -1.5289  1.2392
  272TMC3    H1 4169   1.497   1.944  14.472  0.0869 -0.6034  0.2423
  272TMC3    H2 4170   1.841   1.767  14.631  1.1174 -1.3033 -2.5541
  272TMC3    C7 4171   1.597   1.879  14.681 -0.0966 -0.2406 -0.0116
  272TMC3    C8 4172   1.994   1.793  14.409 -0.6363 -0.1561 -0.1384
  272TMC3    O1 4173   1.475   1.879  14.687 -0.4377  0.0734 -0.1026
  272TMC3    O2 4174   2.061   1.833  14.315 -0.5213  0.1848 -0.0188
  273MPD2     C 4175   3.043   0.230  11.739 -0.4026 -0.6836 -0.0093
  273MPD2    C1 4176   3.171   0.264  11.766  0.6108 -0.2137 -0.2558
  273MPD2    C2 4177   3.255   0.268  11.655 -0.5586  0.1821  0.3842
  273MPD2    C3 4178   3.207   0.284  11.531  0.0150 -0.5522  0.1960
  273MPD2    C4 4179   3.078   0.259  11.507  0.3945 -0.2349 -0.3370
  273MPD2    C5 4180   2.997   0.222  11.612 -0.6390 -0.5800 -0.0002
  273MPD2     H 4181   3.361   0.271  11.678 -0.6320  1.0836  0.5948
  273MPD2    H1 4182   3.022   0.260  11.414 -1.2081 -3.4552  0.5759
  273MPD2    H2 4183   2.973   0.218  11.821 -0.9314 -0.4329 -0.4283
  273MPD2    H3 4184   2.894   0.187  11.605 -0.8532  0.0750 -0.1143
  273MPD2     N 4185   3.292   0.320  11.422  0.0042  0.2469  0.1160
  273MPD2    H5 4186   3.239   0.330  11.336  0.7138  1.3176 -0.1974
  273MPD2    N1 4187   3.214   0.281  11.901 -0.9137 -0.2187 -0.5561
  273MPD2    H7 4188   3.141   0.260  11.969 -2.9597 -0.7836 -2.9195
  274TMC3    C1 4189   3.493   0.388  11.294  0.7538 -0.9850  0.3416
  274TMC3    C2 4190   3.411   0.400  11.179  0.2509 -0.4459  0.0003
  274TMC3    C3 4191   3.452   0.485  11.072  0.5947 -0.3268 -0.1534
  274TMC3    C4 4192   3.608   0.470  11.307  0.2429 -0.1729 -0.3445
  274TMC3    C5 4193   3.634   0.557  11.204 -0.0495 -0.3521 -0.3582
  274TMC3    C6 4194   3.560   0.569  11.086  0.0939  0.9452  0.3156
  274TMC3     C 4195   3.429   0.354  11.423  0.8305  0.3995  0.5367
  274TMC3     O 4196   3.498   0.368  11.521  0.2190  0.1872  0.5058
  274TMC3     H 4197   3.320   0.342  11.172 -0.5638  0.8238  0.0099
  274TMC3    H1 4198   3.672   0.451  11.392  0.1601  1.4007  0.0620
  274TMC3    H2 4199   3.578   0.647  11.014  1.1735  1.3419  1.0133
  274TMC3    C7 4200   3.717   0.676  11.241 -0.2782 -0.7076 -0.3727
  274TMC3    C8 4201   3.348   0.527  10.978 -0.1625  0.0658  0.4324
  274TMC3    O1 4202   3.770   0.730  11.144  0.1207 -0.3915 -0.3242
  274TMC3    O2 4203   3.234   0.486  11.012  0.0760 -0.3951  0.4810
  275MPD2     C 4204   3.042   3.039  14.570 -0.3624 -0.0322 -0.4177
  275MPD2    C1 4205   3.045   2.953  14.675  0.5081  0.0460 -0.0942
  275MPD2    C2 4206   2.944   2.863  14.704 -0.7888  0.3988 -0.3885
  275MPD2    C3 4207   2.827   2.863  14.621  0.2438 -0.1265 -0.5920
  275MPD2    C4 4208   2.833   2.949  14.515  0.1837 -0.4161 -0.0040
  275MPD2    C5 4209   2.933   3.030  14.485  0.0024 -0.8170 -0.5789
  275MPD2     H 4210   2.951   2.787  14.781  1.5971  1.2932  0.2579
  275MPD2    H1 4211   2.738   2.958  14.464  1.1819  0.2939 -1.7186
  275MPD2    H2 4212   3.121   3.112  14.555 -0.0778 -0.2548 -0.0294
  275MPD2    H3 4213   2.936   3.092  14.396 -0.6163  0.9706  0.6291
  275MPD2     N 4214   2.725   2.767  14.639 -0.1475 -0.1441  0.2130
  275MPD2    H5 4215   2.647   2.765  14.574  1.5508  1.5760 -1.8577
  275MPD2    N1 4216   3.150   2.967  14.770  0.1567  0.9805 -0.3366
  275MPD2    H7 4217   3.148   2.901  14.848  0.2147  1.2377 -0.1157
  276TMC3    C1 4218   3.337   3.039  14.905 -0.0831 -0.0090 -0.9383
  276TMC3    C2 4219   3.303   2.938  14.991 -0.5769  0.3524 -0.5952
  276TMC3    C3 4220   3.372   2.934  15.108 -0.0843  0.4064 -0.1268
  276TMC3    C4 4221   3.448   3.112  14.921 -0.5565  1.0886 -0.1269
  276TMC3    C5 4222   3.517   3.099  15.029  0.2542  0.1639 -0.2093
  276TMC3    C6 4223   3.482   3.012  15.135 -0.1060  0.0601  0.5636
  276TMC3     C 4224   3.260   3.054  14.778  0.3999  0.2240 -0.8547
  276TMC3     O 4225   3.294   3.135  14.693  0.2161 -0.3623 -0.6739
  276TMC3     H 4226   3.210   2.884  14.981 -0.8835  0.8028 -0.2009
  276TMC3    H1 4227   3.491   3.178  14.846 -1.6667  1.5488 -0.3586
  276TMC3    H2 4228   3.542   2.998  15.224  0.8675 -0.0129 -0.1079
  276TMC3    C7 4229   3.638   3.171  15.045 -0.2676 -0.0994 -0.0479
  276TMC3    C8 4230   3.353   2.825  15.201  0.7063 -0.7886 -0.0376
  276TMC3    O1 4231   3.698   3.188  14.942 -0.0641 -0.8841  0.1608
  276TMC3    O2 4232   3.400   2.826  15.317  0.2429 -0.2734 -0.7488
  277MPD2     C 4233   0.020   2.206  13.796 -0.0738  0.4963  0.4729
  277MPD2    C1 4234   4.624   2.210  13.771  0.1061 -0.1393  0.6328
  277MPD2    C2 4235   4.535   2.138  13.848 -0.4066  0.9030 -0.3305
  277MPD2    C3 4236   4.577   2.048  13.944 -0.5834  0.6396 -0.1791
  277MPD2    C4 4237   4.715   2.026  13.963 -0.9236 -0.3818 -0.3379
  277MPD2    C5 4238   0.060   2.106  13.881  0.3463  0.5374  0.8358
  277MPD2     H 4239   4.428   2.137  13.830 -0.3033 -0.2968 -0.9297
  277MPD2    H1 4240   0.021   1.958  14.035 -0.4309 -0.2572 -0.5189
  277MPD2    H2 4241   0.097   2.275  13.762 -1.0127  1.8867  1.1792
  277MPD2    H3 4242   0.167   2.100  13.893  0.3257 -0.5465  0.5419
  277MPD2     N 4243   4.480   1.966  14.012 -0.0085  0.0262  0.0404
  277MPD2    H5 4244   4.387   1.964  13.971 -0.6116 -3.1925  1.6323
  277MPD2    N1 4245   4.575   2.309  13.677 -0.0284  0.2456 -0.3750
  277MPD2    H7 4246   4.645   2.350  13.617 -0.4167 -0.7332 -1.5148
  278TMC3    C1 4247   4.388   1.799  14.142 -0.1474  0.2267 -0.3637
  278TMC3    C2 4248   4.399   1.665  14.121 -0.4716 -0.6245 -0.0143
  278TMC3    C3 4249   4.288   1.592  14.107 -0.2777 -0.3404 -0.8388
  278TMC3    C4 4250   4.265   1.859  14.141  0.1901 -0.2863 -0.8065
  278TMC3    C5 4251   4.154   1.779  14.129 -0.2951  0.5843 -0.3770
  278TMC3    C6 4252   4.161   1.640  14.110  0.1196  0.6741  0.1329
  278TMC3     C 4253   4.504   1.885  14.121  0.6829 -0.6572  1.2815
  278TMC3     O 4254   4.605   1.855  14.187  0.0091  0.0219  0.0908
  278TMC3     H 4255   4.496   1.618  14.111  0.1944  0.7264 -0.0055
  278TMC3    H1 4256   4.243   1.964  14.155  0.7739 -0.2386 -0.2896
  278TMC3    H2 4257   4.072   1.578  14.120  0.3621  0.3503  0.2893
  278TMC3    C7 4258   4.030   1.856  14.126 -0.2440  0.2763 -0.1276
  278TMC3    C8 4259   4.305   1.445  14.085 -0.3512  0.3085 -0.7563
  278TMC3    O1 4260   4.024   1.972  14.165  0.5503  0.5340 -0.1774
  278TMC3    O2 4261   4.411   1.399  14.124 -0.3161  0.5350  0.1786
  279MPD2     C 4262   3.952   2.100   0.276  0.6034 -0.5159 -0.8739
  279MPD2    C1 4263   3.944   2.236   0.294 -0.4617 -0.2881  0.2994
  279MPD2    C2 4264   3.954   2.330   0.190 -0.1375 -1.0657 -0.4466
  279MPD2    C3 4265   3.990   2.280   0.065 -0.4818  0.4549  0.7504
  279MPD2    C4 4266   3.990   2.147   0.046 -0.0067  0.3529 -0.6111
  279MPD2    C5 4267   3.972   2.058   0.149  0.1353  0.1771 -1.0695
  279MPD2     H 4268   3.933   2.435   0.209 -1.2798 -1.1338 -1.3531
  279MPD2    H1 4269   4.016   2.117  17.692  0.6621  0.1627 -0.3814
  279MPD2    H2 4270   3.925   2.027   0.352  0.3636  0.3464 -0.1292
  279MPD2    H3 4271   3.970   1.952   0.127  1.1175  0.0480 -0.5098
  279MPD2     N 4272   3.984   2.369  17.694  0.0720  0.7253  0.0603
  279MPD2    H5 4273   3.977   2.320  17.605 -0.9669  0.7812  0.1179
  279MPD2    N1 4274   3.907   2.276   0.424 -0.8147  0.2717 -0.1509
  279MPD2    H7 4275   3.875   2.204   0.488  0.8211  0.6030  1.0403
  280TMC3    C1 4276   3.757   2.411   0.547  0.0174  0.1800  0.0960
  280TMC3    C2 4277   3.685   2.300   0.535  1.3563 -0.2060 -0.3334
  280TMC3    C3 4278   3.556   2.305   0.501  0.3464 -0.3736  0.0850
  280TMC3    C4 4279   3.699   2.530   0.536 -0.1257  0.7052  0.2075
  280TMC3    C5 4280   3.569   2.535   0.503  0.0884 -0.4620  0.0285
  280TMC3    C6 4281   3.492   2.423   0.485  0.5904  0.1171 -0.3770
  280TMC3     C 4282   3.869   2.402   0.457  0.7405 -0.2491 -0.3112
  280TMC3     O 4283   3.900   2.507   0.407  0.3238 -0.3870  0.5852
  280TMC3     H 4284   3.720   2.200   0.554  1.3488 -0.5026 -1.8750
  280TMC3    H1 4285   3.757   2.620   0.549  1.1906 -0.1174 -0.0041
  280TMC3    H2 4286   3.384   2.418   0.474  0.8050 -2.0554 -1.4359
  280TMC3    C7 4287   3.506   2.666   0.486  0.3468  0.0284 -0.6535
  280TMC3    C8 4288   3.489   2.180   0.477 -0.4456  0.1519  0.1604
  280TMC3    O1 4289   3.558   2.758   0.547 -0.3074 -0.6794 -0.6322
  280TMC3    O2 4290   3.404   2.186   0.395 -0.4484 -0.2581  0.2580
  281TMC3    C1 4291   2.799   2.622  13.408 -0.1691  0.7578  0.4837
  281TMC3    C2 4292   2.818   2.734  13.330 -0.1428  0.2467 -0.4733
  281TMC3    C3 4293   2.906   2.716  13.229  0.2434 -0.2950  0.3704
  281TMC3    C4 4294   2.877   2.508  13.409  0.4826  0.4239 -0.0812
  281TMC3    C5 4295   2.964   2.495  13.300  0.2380 -0.2750  0.3605
  281TMC3    C6 4296   2.979   2.602  13.219 -0.6779  0.2694  0.0902
  281TMC3     C 4297   2.683   2.605  13.491  0.1224  0.0561  0.4543
  281TMC3     O 4298   2.687   2.518  13.575 -0.1067  0.7751 -0.4655
  281TMC3     H 4299   2.773   2.833  13.330 -1.0325 -0.1574  2.5896
  281TMC3    H1 4300   2.833   2.420  13.453  1.1315 -0.6640 -1.5979
  281TMC3    H2 4301   3.056   2.589  13.144 -0.6087 -2.0436  0.5391
  281TMC3    C7 4302   3.038   2.367  13.272 -1.1340  0.0390  0.7547
  281TMC3    C8 4303   2.961   2.836  13.164  0.5623  0.5152 -0.3926
  281TMC3    O1 4304   3.122   2.370  13.183  0.6559  0.6128  0.1521
  281TMC3    O2 4305   3.084   2.827  13.151 -0.2153  0.4070 -0.1977
  282MPD2     C 4306   4.406   3.201  15.051 -0.4284  0.3891 -0.2165
  282MPD2    C1 4307   4.370   3.334  15.052 -0.2016 -0.3457 -0.1218
  282MPD2    C2 4308   4.361   3.403  14.938 -0.9040  0.3084  0.4368
  282MPD2    C3 4309   4.376   3.342  14.817  0.0940  0.0003 -0.3535
  282MPD2    C4 4310   4.411   3.209  14.810  0.6810 -0.6338  0.0674
  282MPD2    C5 4311   4.435   3.140  14.931 -0.1947  0.4351 -0.1205
  282MPD2     H 4312   4.350   3.511  14.942  1.9966  0.5947  0.5163
  282MPD2    H1 4313   4.434   3.166  14.713  0.6952 -1.5546  0.4772
  282MPD2    H2 4314   4.427   3.139  15.138 -3.1136 -2.1527 -1.3776
  282MPD2    H3 4315   4.478   3.041  14.927  0.5686  0.8382 -1.7011
  282MPD2     N 4316   4.347   3.411  14.695  0.0148  0.1575 -0.0441
  282MPD2    H5 4317   4.322   3.509  14.701 -1.2927  0.0523 -3.5679
  282MPD2    N1 4318   4.345   3.401  15.172  0.3878  0.1641  0.1907
  282MPD2    H7 4319   4.326   3.500  15.168 -0.7217 -0.0146  0.8577
  283TMC3    C1 4320   4.333   3.439  15.409  0.4498 -0.1956 -0.1029
  283TMC3    C2 4321   4.385   3.566  15.395  1.1649  0.2741 -0.0307
  283TMC3    C3 4322   4.379   3.647  15.502 -0.2570  0.2541 -0.5261
  283TMC3    C4 4323   4.268   3.392  15.518 -0.0670  0.4779  0.1135
  283TMC3    C5 4324   4.274   3.474  15.628  0.2876  0.3452 -0.4062
  283TMC3    C6 4325   4.329   3.601  15.626  0.1636  0.6392  0.5084
  283TMC3     C 4326   4.337   3.345  15.301 -0.2520 -0.5976 -0.1466
  283TMC3     O 4327   4.318   3.225  15.330  0.7030  0.0923 -0.2907
  283TMC3     H 4328   4.434   3.593  15.302 -0.0099  3.5122  0.2604
  283TMC3    H1 4329   4.237   3.288  15.528  2.0270 -0.2313 -0.7227
  283TMC3    H2 4330   4.340   3.658  15.718 -0.5472  0.4932  0.6793
  283TMC3    C7 4331   4.188   3.444  15.742  0.4766  0.0568 -0.5197
  283TMC3    C8 4332   4.504   3.712  15.532  0.4078  0.1425 -0.3308
  283TMC3    O1 4333   4.199   3.510  15.846 -0.5101  0.1697  1.0052
  283TMC3    O2 4334   4.550   3.689  15.645  0.1614  0.0257 -0.5436
  284MPD2     C 4335   2.621   3.022  12.172 -0.8862 -0.8528  0.1688
  284MPD2    C1 4336   2.748   3.011  12.122  0.2580  0.2056  0.4513
  284MPD2    C2 4337   2.843   2.924  12.175 -0.1154 -0.2745  0.5477
  284MPD2    C3 4338   2.818   2.858  12.288  0.3681 -0.1248 -0.4400
  284MPD2    C4 4339   2.695   2.886  12.351 -0.2912 -0.2329 -0.4578
  284MPD2    C5 4340   2.598   2.951  12.287 -0.4237  0.3321 -0.2774
  284MPD2     H 4341   2.942   2.915  12.131 -1.2488 -2.0224 -1.6696
  284MPD2    H1 4342   2.686   2.850  12.453  1.2280 -0.5922 -0.4405
  284MPD2    H2 4343   2.538   3.083  12.139 -1.1680 -2.2948 -1.7821
  284MPD2    H3 4344   2.502   2.954  12.337 -0.6224  0.4687 -0.6651
  284MPD2     N 4345   2.925   2.780  12.338  0.5128 -0.1125 -0.0115
  284MPD2    H5 4346   3.011   2.787  12.285 -0.6119  0.6690 -1.7270
  284MPD2    N1 4347   2.788   3.090  12.011  0.5193  0.6338 -0.3688
  284MPD2    H7 4348   2.884   3.073  11.981  1.1918  1.5395  1.2188
  285TMC3    C1 4349   2.791   3.251  11.835 -1.3131  0.0849  0.4256
  285TMC3    C2 4350   2.875   3.187  11.746  0.3222 -0.3926  1.0349
  285TMC3    C3 4351   2.963   3.265  11.673  0.2446 -0.5197 -0.0955
  285TMC3    C4 4352   2.786   3.390  11.845 -0.3956 -0.8890  0.0273
  285TMC3    C5 4353   2.863   3.460  11.755 -0.6428 -0.6423 -0.1177
  285TMC3    C6 4354   2.956   3.405  11.681  0.6301 -0.1605  0.6598
  285TMC3     C 4355   2.709   3.172  11.934  0.0809 -0.2272 -0.1948
  285TMC3     O 4356   2.589   3.202  11.940 -0.0761 -0.2284  0.3207
  285TMC3     H 4357   2.876   3.079  11.742 -1.8734 -0.3068 -1.5166
  285TMC3    H1 4358   2.711   3.436  11.908 -1.4012 -0.5996 -1.3946
  285TMC3    H2 4359   3.013   3.456  11.606  0.0313 -1.0313 -0.3894
  285TMC3    C7 4360   2.855   3.608  11.753 -0.3040 -0.8903  0.1996
  285TMC3    C8 4361   3.039   3.194  11.568  0.0251 -0.4467  0.2619
  285TMC3    O1 4362   2.952   3.660  11.706 -0.6609 -0.3438  0.2372
  285TMC3    O2 4363   3.008   3.074  11.547  0.5658  0.1113 -0.5415
  286MPD2     C 4364   3.051   2.026   1.812  0.2867 -0.4120  0.3122
  286MPD2    C1 4365   3.039   1.967   1.687  0.1599 -0.8142  0.2171
  286MPD2    C2 4366   3.109   1.851   1.663  0.1317  1.1237  0.7026
  286MPD2    C3 4367   3.176   1.788   1.761 -1.3358  0.6581  0.1760
  286MPD2    C4 4368   3.180   1.840   1.883  0.1727  1.1900 -0.0421
  286MPD2    C5 4369   3.122   1.960   1.904 -0.1036 -0.2846  0.2343
  286MPD2     H 4370   3.117   1.811   1.563 -1.5819  2.7282 -0.0716
  286MPD2    H1 4371   3.231   1.800   1.970 -0.3000  0.7083  0.0103
  286MPD2    H2 4372   3.002   2.116   1.847  1.6029  0.4810 -0.1580
  286MPD2    H3 4373   3.127   2.004   2.003 -3.0180  1.3177 -0.3118
  286MPD2     N 4374   3.255   1.668   1.743 -0.3438 -1.0450  0.0016
  286MPD2    H5 4375   3.302   1.633   1.826  0.3670 -3.1538 -1.3030
  286MPD2    N1 4376   2.944   2.012   1.585  0.1298 -0.3160 -0.4062
  286MPD2    H7 4377   2.921   1.946   1.512  1.7897 -0.0253 -1.1896
  287TMC3    C1 4378   3.356   1.487   1.635  0.7678 -0.9281 -0.5931
  287TMC3    C2 4379   3.362   1.410   1.525  0.1411  0.6873  0.7438
  287TMC3    C3 4380   3.468   1.328   1.516 -0.0808 -0.3749 -0.9178
  287TMC3    C4 4381   3.438   1.465   1.742  0.0779 -0.0211  0.5281
  287TMC3    C5 4382   3.535   1.370   1.738 -0.2528  0.4309  0.5438
  287TMC3    C6 4383   3.555   1.306   1.618 -0.0581  1.0344  0.7524
  287TMC3     C 4384   3.257   1.595   1.627  0.5083  0.1928 -0.0049
  287TMC3     O 4385   3.177   1.594   1.534 -0.2470 -0.7576 -0.1007
  287TMC3     H 4386   3.285   1.420   1.450  2.2143 -0.8801 -1.6199
  287TMC3    H1 4387   3.423   1.527   1.829  2.5250  1.1217  0.1301
  287TMC3    H2 4388   3.642   1.246   1.595 -0.4603  1.6786 -2.4007
  287TMC3    C7 4389   3.650   1.393   1.822  0.4302  0.2552 -0.2631
  287TMC3    C8 4390   3.485   1.261   1.382 -0.1298 -0.8283  0.2114
  287TMC3    O1 4391   3.644   1.501   1.885  0.0378  0.2061 -0.1874
  287TMC3    O2 4392   3.381   1.243   1.315  0.0272 -0.4585  0.2307
  288TMC3    C1 4393   0.441   1.211  14.484 -0.3764  0.1739  0.5108
  288TMC3    C2 4394   0.345   1.309  14.506  0.4122  0.1820  0.5806
  288TMC3    C3 4395   0.369   1.441  14.470 -0.3577  1.0840  0.3970
  288TMC3    C4 4396   0.563   1.247  14.433 -0.2589 -0.4497  0.3573
  288TMC3    C5 4397   0.580   1.380  14.388 -0.0065 -0.3095  0.3206
  288TMC3    C6 4398   0.487   1.478  14.404 -0.2575  0.0100 -0.0759
  288TMC3     C 4399   0.425   1.085  14.559  0.4205  0.3674  0.5373
  288TMC3     O 4400   0.529   1.037  14.606 -0.2402  0.5076  0.7218
  288TMC3     H 4401   0.261   1.278  14.567  0.1112  0.5013  0.3216
  288TMC3    H1 4402   0.634   1.165  14.429  0.4149  0.2286 -1.3384
  288TMC3    H2 4403   0.506   1.583  14.382  1.6870 -0.5421 -1.0545
  288TMC3    C7 4404   0.709   1.411  14.331  0.4707  0.5844  0.4103
  288TMC3    C8 4405   0.290   1.546  14.528  0.3165 -0.0327  0.3612
  288TMC3    O1 4406   0.708   1.509  14.261 -0.6675  0.5627 -0.1942
  288TMC3    O2 4407   0.343   1.658  14.524  0.3553 -0.4564  0.0309
  289MPD2     C 4408   0.091   0.850  14.224  0.1075  0.4877 -0.2780
  289MPD2    C1 4409   0.014   0.961  14.197 -0.4315 -0.0438 -0.2847
  289MPD2    C2 4410   4.615   0.940  14.190 -0.0697  0.3210  0.8745
  289MPD2    C3 4411   4.561   0.812  14.195 -0.3885 -0.0155  0.9835
  289MPD2    C4 4412   4.646   0.703  14.196 -0.3408 -0.0307 -0.0371
  289MPD2    C5 4413   0.041   0.724  14.214 -0.3132  0.5819 -0.2875
  289MPD2     H 4414   4.552   1.028  14.182  0.5242  0.7623  1.1023
  289MPD2    H1 4415   4.616   0.599  14.205  2.0909 -0.6003  1.5677
  289MPD2    H2 4416   0.197   0.859  14.247  0.1747 -0.8650 -0.0450
  289MPD2    H3 4417   0.113   0.644  14.219 -0.6824  0.3730  1.7785
  289MPD2     N 4418   4.422   0.781  14.202  0.4573 -0.1825 -0.4153
  289MPD2    H5 4419   4.394   0.685  14.186  1.2097 -0.9487  2.9039
  289MPD2    N1 4420   0.053   1.098  14.187 -0.0343  0.4028  0.5857
  289MPD2    H7 4421   4.721   1.167  14.158  0.7454  0.3212 -1.5122
  290TMC3    C1 4422   4.192   0.839  14.227 -0.1848 -0.3574 -0.4919
  290TMC3    C2 4423   4.110   0.943  14.260 -0.1012  0.1198  0.3899
  290TMC3    C3 4424   3.986   0.953  14.204 -0.5366 -0.2106  0.0939
  290TMC3    C4 4425   4.151   0.749  14.139  0.1040 -0.6066 -0.0783
  290TMC3    C5 4426   4.033   0.768  14.078 -0.2054 -0.3808  0.3223
  290TMC3    C6 4427   3.942   0.865  14.114 -1.1297 -0.0595  0.4593
  290TMC3     C 4428   4.331   0.883  14.223 -0.3092  0.1344  0.0621
  290TMC3     O 4429   4.347   0.998  14.248 -0.4059  0.2277  0.0087
  290TMC3     H 4430   4.141   0.998  14.349  0.5540  2.5221 -1.3226
  290TMC3    H1 4431   4.219   0.672  14.105 -0.0373  0.2270 -2.2949
  290TMC3    H2 4432   3.845   0.873  14.066  0.1121  0.2256 -1.9802
  290TMC3    C7 4433   3.984   0.664  13.990 -0.5696 -0.2728  0.4571
  290TMC3    C8 4434   3.909   1.079  14.211 -0.2221  0.5480 -0.2583
  290TMC3    O1 4435   3.883   0.688  13.924  0.5105  0.1897 -0.2834
  290TMC3    O2 4436   3.798   1.094  14.164  0.0366  0.5802 -0.1190
  291MPD2     C 4437   4.396   0.742   1.140 -0.7997  0.0322  0.2060
  291MPD2    C1 4438   4.393   0.701   1.007 -0.4201 -0.3333 -0.4710
  291MPD2    C2 4439   4.492   0.755   0.924 -0.6399  0.3631 -1.0619
  291MPD2    C3 4440   4.589   0.844   0.968 -0.4092 -0.0062  0.5601
  291MPD2    C4 4441   4.586   0.874   1.105 -1.1722  0.2089  0.0018
  291MPD2    C5 4442   4.491   0.829   1.187  0.2781 -0.3943 -0.7090
  291MPD2     H 4443   4.496   0.723   0.820 -1.7267  0.7356 -1.2146
  291MPD2    H1 4444   4.664   0.933   1.151 -3.4856  3.2779  0.0339
  291MPD2    H2 4445   4.325   0.695   1.207 -0.7566  0.4381  0.5351
  291MPD2    H3 4446   4.504   0.859   1.291 -0.7870 -0.4412 -0.5704
  291MPD2     N 4447   4.688   0.911   0.895  0.5668 -0.0690  0.0431
  291MPD2    H5 4448   4.724   0.992   0.945  1.7470 -0.4836 -0.1461
  291MPD2    N1 4449   4.298   0.599   0.966 -0.3408  0.1534  0.6019
  291MPD2    H7 4450   4.235   0.560   1.035 -0.9735 -0.4860 -0.3444
  292TMC3    C1 4451   4.169   0.470   0.829 -0.1068 -0.1460  0.5053
  292TMC3    C2 4452   4.056   0.509   0.904 -0.0468  0.1747 -0.3934
  292TMC3    C3 4453   3.941   0.434   0.898 -0.1400  0.2805 -0.1293
  292TMC3    C4 4454   4.161   0.367   0.737 -0.5979 -0.3166 -0.2576
  292TMC3    C5 4455   4.042   0.295   0.735 -0.2082 -0.4014  0.3281
  292TMC3    C6 4456   3.936   0.322   0.816  0.5232 -0.5952 -0.8959
  292TMC3     C 4457   4.289   0.544   0.838 -0.1454  0.3890  0.3910
  292TMC3     O 4458   4.368   0.550   0.743 -0.2504  0.3631  0.3089
  292TMC3     H 4459   4.048   0.607   0.950  3.1130 -0.0524  0.6871
  292TMC3    H1 4460   4.244   0.348   0.670  0.9929 -1.5415  2.0575
  292TMC3    H2 4461   3.869   0.237   0.826  1.1327 -0.6001  3.1038
  292TMC3    C7 4462   4.024   0.196   0.626  0.4893 -0.3121  1.1203
  292TMC3    C8 4463   3.858   0.436   1.011 -0.0382 -0.3150 -0.1971
  292TMC3    O1 4464   4.124   0.136   0.595 -0.6112 -0.1107  0.0820
  292TMC3    O2 4465   3.900   0.502   1.106 -0.8001 -0.1790 -0.3840
  293MPD2     C 4466   1.696   2.028  12.706 -0.2554  0.0748 -0.1662
  293MPD2    C1 4467   1.567   2.006  12.745 -0.5845 -0.2938 -0.3182
  293MPD2    C2 4468   1.546   1.956  12.874  0.1191 -0.1000 -0.4322
  293MPD2    C3 4469   1.656   1.932  12.960  0.0504  0.0001  0.4389
  293MPD2    C4 4470   1.786   1.957  12.915 -0.5144 -0.5554  0.6631
  293MPD2    C5 4471   1.805   2.010  12.792 -0.5895  0.4481  0.0001
  293MPD2     H 4472   1.448   1.942  12.917 -0.1854 -2.8915 -2.0787
  293MPD2    H1 4473   1.873   1.945  12.979  1.2016 -2.4447 -1.9627
  293MPD2    H2 4474   1.724   2.048  12.604  2.1611  0.9344  0.6742
  293MPD2    H3 4475   1.898   2.043  12.748  0.2559 -0.7003  0.9418
  293MPD2     N 4476   1.627   1.901  13.100 -0.2153 -0.8612 -0.1300
  293MPD2    H5 4477   1.529   1.902  13.125 -0.0091  0.8403  0.6438
  293MPD2    N1 4478   1.461   2.029  12.652 -0.0872 -0.3442  0.3219
  293MPD2    H7 4479   1.496   2.071  12.566 -0.7752 -0.4011  0.0193
  294TMC3    C1 4480   1.246   2.047  12.556 -0.4136  0.0834  0.6210
  294TMC3    C2 4481   1.128   2.091  12.598  0.3642  0.1051 -0.1524
  294TMC3    C3 4482   1.035   2.116  12.499  0.2611  0.2980 -0.2588
  294TMC3    C4 4483   1.288   2.048  12.423  0.2746 -0.6230 -0.1576
  294TMC3    C5 4484   1.190   2.074  12.333 -0.9929 -0.2216 -0.4722
  294TMC3    C6 4485   1.065   2.106  12.370  0.0499  0.1546 -0.1026
  294TMC3     C 4486   1.328   1.990  12.663 -0.3077 -0.3877  0.6498
  294TMC3     O 4487   1.282   1.944  12.766 -0.2583  0.6626  0.4399
  294TMC3     H 4488   1.094   2.063  12.697  0.8435 -0.8289 -0.2507
  294TMC3    H1 4489   1.385   2.009  12.395 -0.4362 -1.9620 -0.7667
  294TMC3    H2 4490   0.995   2.140  12.295 -0.7540  0.0843  0.6189
  294TMC3    C7 4491   1.184   1.975  12.220 -0.0857  0.2012 -0.3144
  294TMC3    C8 4492   0.904   2.048  12.530  0.2576  0.0041  0.5133
  294TMC3    O1 4493   1.077   1.920  12.213  0.4356 -0.4290  0.0871
  294TMC3    O2 4494   0.873   2.041  12.648 -0.0064  0.4962 -0.3910
  295MPD2     C 4495   1.168   0.866   0.818 -0.0036 -0.1848  0.6623
  295MPD2    C1 4496   1.192   0.993   0.873  0.3529 -0.0052  0.1700
  295MPD2    C2 4497   1.142   1.032   0.997  0.5404  0.5457 -0.4606
  295MPD2    C3 4498   1.065   0.938   1.062  0.3622  0.4555 -0.0922
  295MPD2    C4 4499   1.054   0.812   1.012 -0.5325  0.5148  0.6445
  295MPD2    C5 4500   1.105   0.774   0.892 -0.7101 -0.2544  0.0751
  295MPD2     H 4501   1.167   1.129   1.038 -1.9043  0.3561  1.4264
  295MPD2    H1 4502   1.004   0.732   1.066  2.5525 -1.7518  0.1484
  295MPD2    H2 4503   1.221   0.835   0.729 -0.9528  0.7473 -0.2272
  295MPD2    H3 4504   1.105   0.673   0.853  0.1949  0.3390 -1.4651
  295MPD2     N 4505   1.016   0.944   1.190 -0.0473  0.0409  0.2631
  295MPD2    H5 4506   0.974   0.858   1.224  0.6494 -0.4723 -0.1787
  295MPD2    N1 4507   1.282   1.070   0.788  0.0489 -0.4547 -0.4404
  295MPD2    H7 4508   1.324   1.020   0.711 -0.5427  0.0754 -1.0961
  296TMC3    C1 4509   0.920   1.043   1.380  0.1863 -0.4527  0.0064
  296TMC3    C2 4510   0.858   1.153   1.432 -0.4489 -0.2094  0.5466
  296TMC3    C3 4511   0.770   1.136   1.536 -0.5277  0.7499  0.0088
  296TMC3    C4 4512   0.908   0.917   1.440  0.0836 -0.2216  0.6164
  296TMC3    C5 4513   0.823   0.907   1.543 -0.3406  0.6590  0.0434
  296TMC3    C6 4514   0.755   1.013   1.590  0.1321  0.3870  0.5769
  296TMC3     C 4515   0.999   1.055   1.259 -0.0286  0.0107 -0.2431
  296TMC3     O 4516   1.033   1.172   1.230 -0.5888  0.1463 -0.7794
  296TMC3     H 4517   0.853   1.246   1.375 -2.2622  0.4163  1.7408
  296TMC3    H1 4518   0.935   0.825   1.389  1.5963  0.9342 -0.6922
  296TMC3    H2 4519   0.674   0.995   1.659 -2.2864  0.0497 -2.3553
  296TMC3    C7 4520   0.771   0.774   1.572 -0.5476 -0.3633 -0.5900
  296TMC3    C8 4521   0.671   1.235   1.571 -0.7007 -0.2622  0.3756
  296TMC3    O1 4522   0.654   0.771   1.602 -0.0782 -0.0718  0.4761
  296TMC3    O2 4523   0.569   1.196   1.626  0.3971  0.1315 -0.3043
  297MPD2     C 4524   3.405   2.464  16.833 -0.1152  0.2705 -0.0814
  297MPD2    C1 4525   3.419   2.464  16.698 -0.3565 -0.2123 -0.3753
  297MPD2    C2 4526   3.542   2.507  16.638 -0.2368  0.6781  0.7813
  297MPD2    C3 4527   3.648   2.543  16.716 -0.2668 -0.0284 -0.6272
  297MPD2    C4 4528   3.629   2.546  16.852 -0.0856  0.3970  0.1254
  297MPD2    C5 4529   3.508   2.510  16.909 -1.0622  0.0215  0.5472
  297MPD2     H 4530   3.549   2.509  16.530  1.4852  1.4863  0.9105
  297MPD2    H1 4531   3.704   2.564  16.928 -0.5915  0.7237  0.5564
  297MPD2    H2 4532   3.319   2.425  16.885  0.3759 -1.2042 -0.3437
  297MPD2    H3 4533   3.485   2.514  17.015  3.3062 -0.2652  1.5459
  297MPD2     N 4534   3.765   2.603  16.669  0.8033 -0.0148 -0.2337
  297MPD2    H5 4535   3.818   2.644  16.745  1.0324 -3.0989  1.2891
  297MPD2    N1 4536   3.307   2.427  16.613 -0.0560 -1.0776  0.1466
  297MPD2    H7 4537   3.326   2.408  16.516 -2.0139 -1.9516 -0.0773
  298TMC3    C1 4538   3.082   2.407  16.542 -0.2922 -0.3759 -0.4890
  298TMC3    C2 4539   3.140   2.339  16.439 -0.0302 -0.0420 -0.1825
  298TMC3    C3 4540   3.074   2.340  16.313  0.1969 -0.1010 -0.1168
  298TMC3    C4 4541   2.980   2.494  16.524 -0.4610 -0.2435  0.7544
  298TMC3    C5 4542   2.932   2.510  16.395  0.0259  0.5842  0.1303
  298TMC3    C6 4543   2.962   2.420  16.294 -0.6584 -0.3165 -0.4813
  298TMC3     C 4544   3.173   2.433  16.652  0.6008  0.4773  0.1677
  298TMC3     O 4545   3.124   2.484  16.750  0.2512 -0.1895 -0.1179
  298TMC3     H 4546   3.217   2.265  16.459 -0.0944 -0.4979 -1.5991
  298TMC3    H1 4547   2.961   2.570  16.599 -1.7848 -0.3320  0.5030
  298TMC3    H2 4548   2.906   2.425  16.202  0.6609  1.0296 -1.2072
  298TMC3    C7 4549   2.831   2.609  16.379 -0.3841 -0.1360 -0.0662
  298TMC3    C8 4550   3.136   2.307  16.189 -0.1984 -0.5113 -0.5501
  298TMC3    O1 4551   2.770   2.642  16.483  0.2119 -0.3622  0.2662
  298TMC3    O2 4552   3.122   2.392  16.098  0.1972  0.0196  0.7699
  299MPD2     C 4553   4.728   2.309  10.344  0.7236 -0.4667 -0.2534
  299MPD2    C1 4554   4.719   2.445  10.383 -0.6517  0.9452 -0.2700
  299MPD2    C2 4555   4.601   2.512  10.345  0.2381 -0.8576  1.0505
  299MPD2    C3 4556   4.509   2.456  10.256  0.3590 -0.2837 -0.2755
  299MPD2    C4 4557   4.529   2.321  10.219  0.8102 -0.4668  0.2999
  299MPD2    C5 4558   4.636   2.254  10.256  0.0727 -0.6804  0.1656
  299MPD2     H 4559   4.592   2.617  10.370  1.7245 -0.4962  0.0488
  299MPD2    H1 4560   4.460   2.264  10.159 -0.6246 -1.2639  2.7121
  299MPD2    H2 4561   0.071   2.249  10.385  0.7992 -1.0106 -1.2095
  299MPD2    H3 4562   4.645   2.150  10.226  0.5277 -0.4047 -0.6561
  299MPD2     N 4563   4.390   2.521  10.217 -0.5676  0.5562 -0.3802
  299MPD2    H5 4564   4.327   2.476  10.152 -0.5935  0.0384  0.0067
  299MPD2    N1 4565   0.077   2.491  10.473 -0.5791 -0.1463  0.3563
  299MPD2    H7 4566   0.142   2.422  10.510  0.6663  1.0987  0.4849
  300TMC3    C1 4567   4.213   2.676  10.224  0.0861 -0.1913  0.5241
  300TMC3    C2 4568   4.181   2.804  10.215  0.8538 -1.1129  0.2292
  300TMC3    C3 4569   4.050   2.840  10.247 -0.2105 -1.0095  0.0390
  300TMC3    C4 4570   4.127   2.579  10.268  0.0452  0.0070 -0.5196
  300TMC3    C5 4571   4.003   2.621  10.307  0.6474  1.0747 -0.3187
  300TMC3    C6 4572   3.967   2.743  10.300 -0.2078  0.3751  0.2131
  300TMC3     C 4573   4.353   2.653  10.242 -0.4010 -0.0947  0.8495
  300TMC3     O 4574   4.427   2.743  10.279 -0.4721  0.1211 -0.3921
  300TMC3     H 4575   4.260   2.871  10.184  1.9061 -2.9941 -1.1541
  300TMC3    H1 4576   4.147   2.472  10.266  0.5958  0.0959  0.9140
  300TMC3    H2 4577   3.871   2.776  10.338  0.1650  0.6723  0.9005
  300TMC3    C7 4578   3.919   2.528  10.371 -0.1690 -0.1774 -0.1234
  300TMC3    C8 4579   4.027   2.978  10.283  0.2144  0.5096 -0.6984
  300TMC3    O1 4580   3.950   2.413  10.347  0.1222 -0.1998 -0.1685
  300TMC3    O2 4581   3.927   3.006  10.349 -0.0606  0.1173  0.2284
  301MPD2     C 4582   1.705   3.972   1.443  0.0282 -0.0834  0.0051
  301MPD2    C1 4583   1.625   3.941   1.335 -0.4824 -0.0358 -0.2342
  301MPD2    C2 4584   1.590   3.813   1.304  0.3672  0.6530  0.2505
  301MPD2    C3 4585   1.634   3.710   1.382  0.4136 -0.3859 -0.1440
  301MPD2    C4 4586   1.709   3.741   1.495  0.2138 -0.5403  0.3511
  301MPD2    C5 4587   1.745   3.871   1.530 -0.2065  0.1876 -0.7659
  301MPD2     H 4588   1.520   3.808   1.221 -0.0767  0.4120  0.6397
  301MPD2    H1 4589   1.737   3.668   1.570  3.3089  0.5803  0.2843
  301MPD2    H2 4590   1.739   4.074   1.457 -0.2306  0.1219 -0.8687
  301MPD2    H3 4591   1.807   3.891   1.617 -1.6045 -0.2521  0.3230
  301MPD2     N 4592   1.601   3.574   1.361  0.5500  0.0672 -0.1835
  301MPD2    H5 4593   1.620   3.509   1.437 -1.4941  2.1854  2.1671
  301MPD2    N1 4594   1.564   4.032   1.244  0.1029 -0.0917  0.1225
  301MPD2    H7 4595   1.515   3.999   1.162  0.6930  0.6773 -0.5465
  302TMC3    C1 4596   1.502   3.385   1.256 -0.7625 -0.3134 -0.7114
  302TMC3    C2 4597   1.599   3.306   1.323  0.4529 -0.0630  0.4358
  302TMC3    C3 4598   1.582   3.173   1.318  0.4042  0.2559 -0.2225
  302TMC3    C4 4599   1.404   3.336   1.181  0.5633  0.3702  0.0451
  302TMC3    C5 4600   1.394   3.204   1.177  0.2477  0.2201  0.2996
  302TMC3    C6 4601   1.476   3.124   1.252  0.0260  0.5034  0.1669
  302TMC3     C 4602   1.512   3.526   1.269 -0.4430 -0.3467 -0.1436
  302TMC3     O 4603   1.453   3.594   1.184  0.1347 -0.0584  0.3708
  302TMC3     H 4604   1.687   3.346   1.373 -0.1489  1.1730  0.4949
  302TMC3    H1 4605   1.352   3.403   1.114 -0.4577 -0.1850  0.2769
  302TMC3    H2 4606   1.458   3.017   1.257 -1.3311  0.7247  0.2109
  302TMC3    C7 4607   1.297   3.134   1.092 -0.5806 -0.4321 -0.3293
  302TMC3    C8 4608   1.639   3.092   1.418 -0.2636 -0.3419 -0.5760
  302TMC3    O1 4609   1.337   3.029   1.043 -0.4886  0.1007  0.4997
  302TMC3    O2 4610   1.670   2.977   1.384 -0.0086 -0.5985  0.2106
  303MPD2     C 4611   1.932   3.045  10.387  0.1964 -0.2389  0.3427
  303MPD2    C1 4612   1.914   2.911  10.360 -0.5150 -0.4633 -0.0994
  303MPD2    C2 4613   1.835   2.877  10.258  0.2738 -0.5983  0.5932
  303MPD2    C3 4614   1.807   2.966  10.159  0.0899 -0.3801 -0.0171
  303MPD2    C4 4615   1.847   3.095  10.175 -0.1759 -0.6263 -0.4444
  303MPD2    C5 4616   1.908   3.143  10.291 -0.3424 -0.0584 -0.1652
  303MPD2     H 4617   1.817   2.771  10.245 -1.1780 -0.2122 -0.6238
  303MPD2    H1 4618   1.841   3.165  10.093  0.1991  0.4089  0.3988
  303MPD2    H2 4619   1.982   3.078  10.477  0.8479  1.0541 -0.4891
  303MPD2    H3 4620   1.934   3.247  10.308 -0.3990  0.1921 -1.5711
  303MPD2     N 4621   1.733   2.942  10.038  0.1129  0.1004 -0.3445
  303MPD2    H5 4622   1.709   3.017   9.973 -1.7122  0.2783  0.5422
  303MPD2    N1 4623   1.971   2.819  10.457  0.1906  0.5537  0.4250
  303MPD2    H7 4624   2.017   2.852  10.541  3.1808  0.9971 -1.3891
  304TMC3    C1 4625   2.015   2.616  10.558 -0.0066  0.0526  0.0917
  304TMC3    C2 4626   1.936   2.633  10.669 -0.2584 -0.0319 -0.2985
  304TMC3    C3 4627   1.916   2.530  10.760  0.3768 -0.2098  0.6439
  304TMC3    C4 4628   2.076   2.496  10.535  0.5985  0.0507 -0.5011
  304TMC3    C5 4629   2.048   2.389  10.623 -0.0434  0.0648 -0.4181
  304TMC3    C6 4630   1.980   2.412  10.741  0.1925 -0.2604  0.1274
  304TMC3     C 4631   1.979   2.682  10.440 -0.1968  0.2965 -0.3053
  304TMC3     O 4632   1.945   2.606  10.348 -0.6570  0.3667  0.0634
  304TMC3     H 4633   1.874   2.721  10.681  0.8530  0.6473  0.5015
  304TMC3    H1 4634   2.113   2.476  10.435  0.0085  1.3389 -0.9727
  304TMC3    H2 4635   1.971   2.330  10.811 -2.7781  2.3197  2.8296
  304TMC3    C7 4636   2.006   2.265  10.562 -0.4826 -0.5271  0.0604
  304TMC3    C8 4637   1.778   2.507  10.790 -0.7482  0.3551 -0.9520
  304TMC3    O1 4638   1.909   2.209  10.616  0.0276  0.3395 -0.2301
  304TMC3    O2 4639   1.715   2.607  10.816 -0.0172  0.5837  0.3879
  305MPD2     C 4640   4.722   4.388  14.005 -0.1125 -0.1010 -0.0673
  305MPD2    C1 4641   0.013   4.307  14.110 -0.7894  0.1466 -0.1428
  305MPD2    C2 4642   0.021   4.166  14.085 -0.1503 -0.4939 -0.2622
  305MPD2    C3 4643   4.734   4.112  13.962  0.1238  0.3892 -0.2889
  305MPD2    C4 4644   4.695   4.197  13.862  0.0983  0.6174  0.2813
  305MPD2    C5 4645   4.688   4.332  13.880 -0.1566  0.4293  0.3063
  305MPD2     H 4646   0.028   4.096  14.168 -2.5303 -1.9610 -1.2862
  305MPD2    H1 4647   4.685   4.162  13.760 -1.9978  1.1238  0.3111
  305MPD2    H2 4648   4.728   4.496  14.007 -0.8029 -0.0547 -0.8721
  305MPD2    H3 4649   4.658   4.404  13.805  0.4798  2.9000  2.3708
  305MPD2     N 4650   0.003   3.978  13.923  0.1640  0.7031 -0.2215
  305MPD2    H5 4651   4.723   3.961  13.824 -0.9822  1.4240 -0.1446
  305MPD2    N1 4652   0.033   4.362  14.242  0.4530  0.5268 -0.0164
  305MPD2    H7 4653   0.037   4.463  14.253  0.0729  0.4208  1.1326
  306TMC3    C1 4654   0.078   4.334  14.475 -0.6197 -0.1472 -0.6673
  306TMC3    C2 4655   0.075   4.248  14.580  0.5704  0.0543 -0.8727
  306TMC3    C3 4656   0.184   4.246  14.661  0.2679  0.1081 -0.4622
  306TMC3    C4 4657   0.185   4.415  14.451  0.4916 -0.0901  0.7415
  306TMC3    C5 4658   0.292   4.409  14.540  0.1886  0.1169  0.1261
  306TMC3    C6 4659   0.293   4.329  14.654 -0.2113  0.1478  0.5128
  306TMC3     C 4660   0.018   4.277  14.358 -0.2141 -0.0133  0.2006
  306TMC3     O 4661   4.704   4.168  14.375  0.1433 -0.1766 -0.1302
  306TMC3     H 4662   4.728   4.182  14.598  1.0405  0.2389  2.0373
  306TMC3    H1 4663   0.198   4.479  14.364  0.5216 -1.5225 -0.2951
  306TMC3    H2 4664   0.376   4.316  14.723 -0.7247 -0.6249  0.9829
  306TMC3    C7 4665   0.390   4.522  14.527 -0.4415  0.0171 -0.0951
  306TMC3    C8 4666   0.193   4.131  14.747  0.4640 -0.3930  0.3627
  306TMC3    O1 4667   0.419   4.562  14.413  0.3358  0.0296 -0.3678
  306TMC3    O2 4668   0.299   4.071  14.751  0.4307 -0.0207 -0.0170
  307MPD2     C 4669   2.442   2.742   0.713 -0.0023 -0.1832  0.0507
  307MPD2    C1 4670   2.485   2.609   0.724 -0.9254  0.4128 -0.0047
  307MPD2    C2 4671   2.493   2.552   0.848 -0.6819 -0.4790 -0.1304
  307MPD2    C3 4672   2.459   2.628   0.962 -0.0331  0.0450  0.4484
  307MPD2    C4 4673   2.417   2.751   0.944  0.1470 -0.0652  0.4746
  307MPD2    C5 4674   2.404   2.806   0.821 -0.4378  0.6550 -0.4282
  307MPD2     H 4675   2.531   2.451   0.851  2.4500  0.6870 -0.4420
  307MPD2    H1 4676   2.382   2.812   1.026  3.3976  1.1162  0.9986
  307MPD2    H2 4677   2.428   2.780   0.612 -0.2325  0.2758  0.2521
  307MPD2    H3 4678   2.359   2.904   0.814 -2.1244 -0.1582 -1.1334
  307MPD2     N 4679   2.457   2.574   1.095  0.7922  0.0498  0.0860
  307MPD2    H5 4680   2.475   2.477   1.118  2.2880  0.0761 -0.9678
  307MPD2    N1 4681   2.530   2.555   0.599 -0.5239 -0.6096 -0.7270
  307MPD2    H7 4682   2.527   2.612   0.515  1.0431 -1.1376 -1.1290
  308TMC3    C1 4683   2.198   2.446   1.316 -0.4070 -0.2814 -0.2130
  308TMC3    C2 4684   2.139   2.540   1.401  0.3710 -0.0295 -0.6474
  308TMC3    C3 4685   2.210   2.649   1.435  0.0895 -0.0872  0.0589
  308TMC3    C4 4686   2.334   2.452   1.297 -0.2161  0.4281 -0.3883
  308TMC3    C5 4687   2.403   2.569   1.331  0.4216 -0.0466  0.4619
  308TMC3    C6 4688   2.341   2.662   1.409 -0.1327  0.9311 -0.4325
  308TMC3     C 4689   2.122   2.371   1.216 -0.0584  0.4578  0.0646
  308TMC3     O 4690   2.181   2.324   1.118  0.4004  0.0822 -0.1826
  308TMC3     H 4691   2.032   2.539   1.420  0.9717 -1.8709  2.5920
  308TMC3    H1 4692   2.389   2.375   1.245 -1.6017 -0.2407 -0.8495
  308TMC3    H2 4693   2.399   2.747   1.441  0.3938 -0.5872  2.6172
  308TMC3    C7 4694   2.446   2.648   1.217 -0.4363 -0.0844  0.3537
  308TMC3    C8 4695   2.141   2.770   1.425 -0.0803 -0.3768 -0.3547
  308TMC3    O1 4696   2.432   2.770   1.228 -0.3655 -0.2192  0.0021
  308TMC3    O2 4697   2.039   2.787   1.489 -0.0058 -0.8557 -0.6328
  309MPD2     C 4698   1.627   2.601  17.542  0.5369 -0.3151  1.6094
  309MPD2    C1 4699   1.576   2.709  17.474 -0.0759  0.6230 -0.1573
  309MPD2    C2 4700   1.534   2.822  17.544 -0.2692  0.3911  0.1935
  309MPD2    C3 4701   1.520   2.817  17.685  0.5170  0.2425 -0.1337
  309MPD2    C4 4702   1.553   2.697  17.744  0.3063 -0.0973  0.7378
  309MPD2    C5 4703   1.609   2.593  17.675  0.5042 -0.4619 -0.3250
  309MPD2     H 4704   1.486   2.905  17.493  0.5275  1.3398  1.0007
  309MPD2    H1 4705   1.541   2.686   0.104  0.9274 -1.4245  0.6795
  309MPD2    H2 4706   1.674   2.523  17.484 -0.2232  0.2207  0.2672
  309MPD2    H3 4707   1.665   2.514  17.723 -1.3650 -0.5800  1.6368
  309MPD2     N 4708   1.465   2.919   0.015  0.1240 -0.2082  0.4734
  309MPD2    H5 4709   1.429   2.896   0.107  0.8201  1.7386  1.2406
  309MPD2    N1 4710   1.571   2.697  17.334 -0.0921  0.6293 -0.4142
  309MPD2    H7 4711   1.613   2.619  17.284  0.9473  1.5120 -0.8892
  310TMC3    C1 4712   1.528   2.748  17.111 -0.1038  0.2289 -0.4820
  310TMC3    C2 4713   1.446   2.798  17.018 -0.0491 -0.0529  0.1716
  310TMC3    C3 4714   1.453   2.743  16.893  0.0612  0.1388  1.0831
  310TMC3    C4 4715   1.628   2.650  17.082  0.0878 -0.1870 -0.2059
  310TMC3    C5 4716   1.638   2.616  16.950  0.0262 -1.1585  0.0829
  310TMC3    C6 4717   1.551   2.655  16.853 -1.1686  0.5621  0.4598
  310TMC3     C 4718   1.510   2.785  17.255 -0.6382 -0.3831 -0.2369
  310TMC3     O 4719   1.451   2.890  17.272 -0.1633 -0.1901  0.7179
  310TMC3     H 4720   1.371   2.874  17.036 -0.9577 -0.4595 -2.0117
  310TMC3    H1 4721   1.701   2.608  17.150  0.8470  1.9657  0.2994
  310TMC3    H2 4722   1.548   2.615  16.752  1.6924  1.3840  0.0494
  310TMC3    C7 4723   1.769   2.601  16.894 -0.0228 -0.2098 -0.1031
  310TMC3    C8 4724   1.398   2.815  16.781  0.3401  0.5144 -0.0911
  310TMC3    O1 4725   1.774   2.589  16.770 -0.1908 -0.1920  0.5418
  310TMC3    O2 4726   1.293   2.871  16.777  0.1761 -0.0795  0.0754
  311MPD2     C 4727   3.570   3.619  12.605 -0.0376 -0.3536 -0.0136
  311MPD2    C1 4728   3.517   3.702  12.700 -0.0102  0.0880 -0.4670
  311MPD2    C2 4729   3.393   3.681  12.754 -0.2661 -0.0653 -0.2950
  311MPD2    C3 4730   3.314   3.575  12.706  0.1018  0.0009  0.0237
  311MPD2    C4 4731   3.366   3.491  12.608  0.1060  0.2159 -0.8540
  311MPD2    C5 4732   3.493   3.514  12.560  0.6953  0.6378 -0.3318
  311MPD2     H 4733   3.351   3.747  12.829 -0.3225  1.0126 -1.2713
  311MPD2    H1 4734   3.316   3.404  12.565 -0.1730 -0.1332  0.1798
  311MPD2    H2 4735   3.676   3.628  12.584 -0.3182  0.3837 -1.1260
  311MPD2    H3 4736   3.544   3.443  12.496 -1.5810  1.6696 -3.2572
  311MPD2     N 4737   3.193   3.554  12.772  1.1206 -0.8117  0.7780
  311MPD2    H5 4738   3.187   3.597  12.863 -1.1182  0.5032  0.0042
  311MPD2    N1 4739   3.599   3.808  12.747 -0.3571 -0.0827  0.0228
  311MPD2    H7 4740   3.534   3.872  12.792 -0.1063 -0.7482  1.3315
  312TMC3    C1 4741   3.000   3.425  12.819 -0.4368  0.0416 -0.4487
  312TMC3    C2 4742   2.883   3.368  12.762  0.1442  0.0860 -0.0421
  312TMC3    C3 4743   2.773   3.355  12.846 -1.0339 -0.4197  0.5730
  312TMC3    C4 4744   3.006   3.467  12.949  0.7404 -0.5464  0.0266
  312TMC3    C5 4745   2.892   3.461  13.026 -0.5645 -0.5951 -0.0662
  312TMC3    C6 4746   2.779   3.404  12.972  0.3005  0.2238 -0.1589
  312TMC3     C 4747   3.100   3.463  12.725  0.2662  0.4456 -0.6961
  312TMC3     O 4748   3.085   3.427  12.610  0.2855 -0.1516  0.1137
  312TMC3     H 4749   2.886   3.335  12.658 -0.2725  0.1113 -0.0602
  312TMC3    H1 4750   3.098   3.504  12.990  1.7053 -2.0028 -0.8146
  312TMC3    H2 4751   2.693   3.383  13.034 -0.0031  2.3956  0.1325
  312TMC3    C7 4752   2.909   3.446  13.170  0.5413 -0.2626  0.0514
  312TMC3    C8 4753   2.637   3.300  12.796 -0.6303  0.3110  0.4149
  312TMC3    O1 4754   2.828   3.366  13.217 -0.1846 -0.0453 -0.0314
  312TMC3    O2 4755   2.638   3.224  12.701 -0.2469 -0.1197  0.3723
  313MPD2     C 4756   2.482   3.396  11.597 -0.1497  0.1837 -0.3899
  313MPD2    C1 4757   2.595   3.398  11.515 -0.4948  0.2016  0.0966
  313MPD2    C2 4758   2.673   3.281  11.496 -0.1425  0.2643 -0.0586
  313MPD2    C3 4759   2.618   3.161  11.538 -0.2908 -0.9155  1.3546
  313MPD2    C4 4760   2.512   3.162  11.628 -0.1109 -0.2872 -0.1108
  313MPD2    C5 4761   2.450   3.280  11.664  0.0731 -0.3677  0.0704
  313MPD2     H 4762   2.768   3.280  11.443 -0.9753  0.8888 -1.5418
  313MPD2    H1 4763   2.478   3.069  11.673  1.0488 -0.0211  1.3055
  313MPD2    H2 4764   2.427   3.488  11.614  1.0754  1.0421 -1.0604
  313MPD2    H3 4765   2.367   3.288  11.734 -0.9322 -2.8436 -0.8673
  313MPD2     N 4766   2.687   3.044  11.500 -0.0608  0.0570  0.2987
  313MPD2    H5 4767   2.766   3.051  11.437  0.1623 -1.3089  0.4379
  313MPD2    N1 4768   2.643   3.511  11.449  0.6653 -0.3992 -0.2088
  313MPD2    H7 4769   2.740   3.510  11.420  0.9748  1.4178  0.7266
  314TMC3    C1 4770   2.641   3.749  11.390 -0.7304 -0.0160  0.2923
  314TMC3    C2 4771   2.778   3.759  11.418  0.1940 -0.6198  0.3707
  314TMC3    C3 4772   2.844   3.876  11.383 -0.0932  0.2742  0.9223
  314TMC3    C4 4773   2.576   3.852  11.325 -0.3243  0.3366  0.7016
  314TMC3    C5 4774   2.644   3.952  11.278 -1.0882  0.3192 -0.1945
  314TMC3    C6 4775   2.776   3.973  11.315 -0.0933 -1.6326 -0.1584
  314TMC3     C 4776   2.567   3.632  11.435 -0.8536  0.4822  0.1844
  314TMC3     O 4777   2.446   3.645  11.452  0.4501  0.7502 -0.3289
  314TMC3     H 4778   2.832   3.683  11.473  2.5177  1.6910  1.2950
  314TMC3    H1 4779   2.472   3.832  11.301  0.1455  0.2613 -1.2432
  314TMC3    H2 4780   2.820   4.071  11.303 -3.6825 -0.0972 -0.6748
  314TMC3    C7 4781   2.599   4.009  11.151  0.1301  0.9353  0.3576
  314TMC3    C8 4782   2.986   3.885  11.384 -0.5500  0.3286 -0.3355
  314TMC3    O1 4783   2.485   3.987  11.117 -0.0289 -0.5041 -0.1667
  314TMC3    O2 4784   3.021   3.950  11.284  0.1644 -0.1916 -0.0971
  315MPD2     C 4785   2.623   2.191  17.638 -0.3061 -0.6965 -0.3392
  315MPD2    C1 4786   2.707   2.246  17.731 -0.1959  0.0476  0.0718
  315MPD2    C2 4787   2.748   2.379  17.719 -0.6471 -0.2261  0.3413
  315MPD2    C3 4788   2.726   2.447  17.596 -0.3273  0.3137 -0.4208
  315MPD2    C4 4789   2.639   2.387  17.507  0.3290  0.3493 -0.0781
  315MPD2    C5 4790   2.583   2.262  17.530 -0.3630 -0.3300 -0.8050
  315MPD2     H 4791   2.808   2.419   0.054 -1.9806 -1.4951  1.9203
  315MPD2    H1 4792   2.604   2.441  17.420 -0.6452 -1.0724 -0.5613
  315MPD2    H2 4793   2.588   2.090  17.655  1.1804 -1.2671 -0.6839
  315MPD2    H3 4794   2.512   2.212  17.464 -1.6126 -0.3932  0.5757
  315MPD2     N 4795   2.786   2.577  17.585 -0.1017 -0.2257 -0.9288
  315MPD2    H5 4796   2.839   2.615  17.663  0.8793 -0.3281 -1.5340
  315MPD2    N1 4797   2.757   2.179   0.100 -0.3172 -0.0442  0.0006
  315MPD2    H7 4798   2.821   2.232   0.159 -0.0855 -2.0365  1.5224
  316TMC3    C1 4799   2.861   2.781  17.476  0.3153 -0.1950  0.0702
  316TMC3    C2 4800   2.951   2.801  17.579  0.4789  0.5606  0.8159
  316TMC3    C3 4801   2.992   2.934  17.596  0.2744  0.7808  0.1077
  316TMC3    C4 4802   2.820   2.884  17.394  0.0904  0.6130  0.3800
  316TMC3    C5 4803   2.861   3.007  17.424 -0.3186  0.3805  0.9398
  316TMC3    C6 4804   2.942   3.032  17.522 -0.9575  0.2886  0.1815
  316TMC3     C 4805   2.787   2.654  17.465  0.2144 -0.1645 -0.2285
  316TMC3     O 4806   2.726   2.639  17.357  0.4809 -0.3222  0.6870
  316TMC3     H 4807   2.988   2.719  17.639 -2.9351 -1.0365  0.7699
  316TMC3    H1 4808   2.748   2.867  17.315 -1.4077 -0.6864  2.0277
  316TMC3    H2 4809   2.961   3.132  17.559 -0.4405  0.0619  0.5419
  316TMC3    C7 4810   2.756   3.112  17.390  0.5277 -0.1059 -0.4919
  316TMC3    C8 4811   3.106   2.969  17.680 -0.2089 -0.5551 -0.2526
  316TMC3    O1 4812   2.750   3.205  17.471 -0.1896 -0.3179  0.1803
  316TMC3    O2 4813   3.182   3.059  17.645 -0.4863  0.3475  0.1872
  317MPD2     C 4814   0.151   0.957  13.075 -0.9112  0.4357 -0.5048
  317MPD2    C1 4815   0.168   0.857  12.981 -0.4290 -1.1141 -0.4255
  317MPD2    C2 4816   0.170   0.724  13.019  0.2606  1.2016  0.1397
  317MPD2    C3 4817   0.141   0.695  13.144 -0.6235 -0.0532 -0.2406
  317MPD2    C4 4818   0.116   0.792  13.239 -0.0879  0.2144  0.0133
  317MPD2    C5 4819   0.123   0.922  13.198  0.9731 -0.1453  0.8770
  317MPD2     H 4820   0.190   0.646  12.946  1.6592  0.4458  1.3353
  317MPD2    H1 4821   0.090   0.759  13.339  1.8723 -2.6725 -0.4440
  317MPD2    H2 4822   0.148   1.065  13.063  0.0281  0.1652 -3.2974
  317MPD2    H3 4823   0.109   1.006  13.266  2.2123 -0.0280  0.9763
  317MPD2     N 4824   0.128   0.557  13.175  0.1982 -0.0426  0.2184
  317MPD2    H5 4825   0.148   0.494  13.098  1.3153 -1.2077  1.4627
  317MPD2    N1 4826   0.201   0.886  12.846  0.0444 -0.4663  0.6252
  317MPD2    H7 4827   0.231   0.808  12.789 -1.7588 -2.3441  2.2417
  318TMC3    C1 4828   0.068   0.364  13.282  0.0391  0.1390 -0.2420
  318TMC3    C2 4829   4.721   0.331  13.178 -0.1811  0.1298  0.1809
  318TMC3    C3 4830   4.710   0.199  13.152  0.3267 -0.6822  0.1790
  318TMC3    C4 4831   0.129   0.269  13.366  0.5447  0.6583 -0.0896
  318TMC3    C5 4832   0.104   0.138  13.335 -0.5865 -0.1065  0.1370
  318TMC3    C6 4833   0.039   0.102  13.217  0.1670 -0.4901  0.4752
  318TMC3     C 4834   0.103   0.501  13.299  0.2562 -0.4487  0.1950
  318TMC3     O 4835   0.139   0.536  13.413  0.2199  0.0423  0.1450
  318TMC3     H 4836   4.664   0.412  13.132  0.7325  1.1846  0.8997
  318TMC3    H1 4837   0.186   0.300  13.453  0.9804 -0.3869  0.0052
  318TMC3    H2 4838   0.029   4.736  13.183 -0.8254 -1.0373  2.4049
  318TMC3    C7 4839   0.116   0.034  13.440  0.1542  0.0600  0.0450
  318TMC3    C8 4840   4.663   0.170  13.020  0.4882  0.4820 -0.3816
  318TMC3    O1 4841   0.038   4.677  13.435 -0.4448  0.3468 -0.3709
  318TMC3    O2 4842   4.703   0.064  12.972 -0.4059  0.0969 -0.1221
  319MPD2     C 4843   1.200   2.362  16.424 -0.3643 -0.3985  0.5501
  319MPD2    C1 4844   1.087   2.318  16.493  0.0753  0.3555  0.1786
  319MPD2    C2 4845   0.989   2.249  16.422  0.2566  0.6487  0.4332
  319MPD2    C3 4846   1.003   2.207  16.293 -0.0199 -0.0557 -0.3630
  319MPD2    C4 4847   1.118   2.252  16.227  0.2751 -0.0902  0.1244
  319MPD2    C5 4848   1.211   2.328  16.290 -0.5349 -0.1060 -0.2917
  319MPD2     H 4849   0.904   2.223  16.482  0.1007 -0.0275 -0.0801
  319MPD2    H1 4850   1.131   2.215  16.126  0.0275  0.5797 -0.1534
  319MPD2    H2 4851   1.285   2.419  16.461 -0.0265 -0.0926 -0.6862
  319MPD2    H3 4852   1.298   2.362  16.235 -0.6294 -0.8204 -0.8865
  319MPD2     N 4853   0.907   2.121  16.226  0.0200  0.1901 -0.1702
  319MPD2    H5 4854   0.935   2.094  16.133  2.6807  1.1529  0.3608
  319MPD2    N1 4855   1.052   2.364  16.620  0.0645  0.1929  1.1976
  319MPD2    H7 4856   0.959   2.337  16.651  0.3897  0.1948  2.1782
  320TMC3    C1 4857   0.746   1.942  16.210  0.5271 -0.1961  0.8678
  320TMC3    C2 4858   0.746   1.952  16.078 -0.3717 -0.6062  0.2773
  320TMC3    C3 4859   0.685   1.855  16.010  0.4134 -0.5241 -0.2503
  320TMC3    C4 4860   0.675   1.848  16.278  0.4061 -0.0597 -0.8083
  320TMC3    C5 4861   0.594   1.764  16.206 -0.6979 -0.1153 -0.6567
  320TMC3    C6 4862   0.606   1.762  16.070 -0.4122  0.0850  0.0204
  320TMC3     C 4863   0.802   2.053  16.287 -0.5623  0.0609 -0.4576
  320TMC3     O 4864   0.757   2.070  16.399 -0.1736 -0.3250  0.1599
  320TMC3     H 4865   0.806   2.025  16.025 -2.1358  1.5737  1.3088
  320TMC3    H1 4866   0.655   1.868  16.383  2.1758 -1.7612 -0.1428
  320TMC3    H2 4867   0.554   1.689  16.009  0.0373 -0.0275 -0.2272
  320TMC3    C7 4868   0.512   1.657  16.269 -0.7759 -0.0915 -0.1885
  320TMC3    C8 4869   0.646   1.867  15.871  0.4085  0.2278  0.0740
  320TMC3    O1 4870   0.448   1.584  16.198  0.6083  0.1019  0.0137
  320TMC3    O2 4871   0.643   1.769  15.802 -0.6235 -0.1555 -0.5299
  321TMC3    C1 4872   1.059   2.474  16.825 -0.7115 -0.0970 -0.7727
  321TMC3    C2 4873   0.960   2.389  16.874 -0.1356 -0.8073  1.0789
  321TMC3    C3 4874   0.882   2.424  16.983 -0.3767  0.3888  0.0087
  321TMC3    C4 4875   1.081   2.585  16.894  0.3481 -0.0761 -0.0459
  321TMC3    C5 4876   1.011   2.623  17.006 -0.4378 -0.0776  0.1705
  321TMC3    C6 4877   0.901   2.546  17.044 -0.3682  0.0755 -0.0874
  321TMC3     C 4878   1.127   2.443  16.701 -0.0770  0.2784 -0.2138
  321TMC3     O 4879   1.227   2.508  16.684 -0.1112 -0.0236  0.5110
  321TMC3     H 4880   0.939   2.294  16.826 -0.1556 -0.4268  0.3416
  321TMC3    H1 4881   1.176   2.637  16.883 -0.3169  0.5169 -2.9189
  321TMC3    H2 4882   0.837   2.566  17.129  0.4202 -0.7343  0.6933
  321TMC3    C7 4883   1.092   2.654  17.119  0.3159  0.2442 -0.6394
  321TMC3    C8 4884   0.884   2.330  17.094 -0.2055 -0.7722 -0.1749
  321TMC3    O1 4885   1.205   2.619  17.117 -0.1823  0.2919 -0.0247
  321TMC3    O2 4886   0.870   2.369  17.214  0.2955  0.2216  0.0925
  322MPD2     C 4887   4.480   3.432  14.081 -0.1812 -0.5565  0.0804
  322MPD2    C1 4888   4.506   3.336  14.175  0.4741 -0.3205  0.0318
  322MPD2    C2 4889   4.467   3.206  14.153 -0.2109  0.4379 -0.0194
  322MPD2    C3 4890   4.400   3.161  14.037  1.3865 -0.2502  0.0089
  322MPD2    C4 4891   4.379   3.257  13.946  0.1756 -0.1269  0.0691
  322MPD2    C5 4892   4.413   3.390  13.968 -0.0825  0.5757  0.1870
  322MPD2     H 4893   4.489   3.127  14.225  2.5295  1.2643  0.0342
  322MPD2    H1 4894   4.325   3.241  13.854 -0.2115  2.2873 -0.1375
  322MPD2    H2 4895   4.500   3.538  14.092 -1.0599 -0.3182 -0.5899
  322MPD2    H3 4896   4.396   3.455  13.883 -0.9868  0.6108  0.4012
  322MPD2     N 4897   4.382   3.021  14.009 -0.5211 -0.2871  0.6836
  322MPD2    H5 4898   4.403   2.959  14.088  0.7649  0.1111  0.6495
  322MPD2    N1 4899   4.591   3.358  14.291  0.2055  0.2155 -0.2285
  322MPD2    H7 4900   4.632   3.273  14.327  2.3273  0.8635 -1.1107
  323TMC3    C1 4901   4.686   3.488  14.473  0.3704  0.6435 -0.1144
  323TMC3    C2 4902   0.004   3.601  14.510 -0.7620  0.2187  0.5551
  323TMC3    C3 4903   0.053   3.609  14.634  0.0575  0.1407 -0.1070
  323TMC3    C4 4904   4.673   3.379  14.553  0.0963 -0.4559 -0.0243
  323TMC3    C5 4905   4.699   3.394  14.685  0.4793  0.7468  0.0786
  323TMC3    C6 4906   0.017   3.515  14.727 -0.1620 -0.2146  0.0909
  323TMC3     C 4907   4.629   3.481  14.334  0.4618 -0.3022  0.1121
  323TMC3     O 4908   4.594   3.590  14.292  0.5055 -0.3201 -0.2194
  323TMC3     H 4909   0.037   3.673  14.436 -0.7302 -0.2625  0.1052
  323TMC3    H1 4910   4.649   3.281  14.513  1.2196 -0.7869  0.1253
  323TMC3    H2 4911   0.047   3.513  14.831 -0.8170  0.1510  0.2782
  323TMC3    C7 4912   0.042   3.286  14.739  0.3808  0.5266 -0.1504
  323TMC3    C8 4913   0.193   3.647  14.653  0.6466  0.4698  0.2229
  323TMC3    O1 4914   4.720   3.189  14.790 -0.2650  0.5662 -0.0617
  323TMC3    O2 4915   0.257   3.569  14.724 -0.2262 -0.0761  0.3724
  324MPD2     C 4916   1.540   4.134  14.610 -0.4945  0.4427 -0.1236
  324MPD2    C1 4917   1.530   4.271  14.626  0.0982  0.6617  0.7758
  324MPD2    C2 4918   1.421   4.340  14.577  0.2969  1.7056  0.1402
  324MPD2    C3 4919   1.311   4.271  14.528  0.7529  0.4870 -0.5318
  324MPD2    C4 4920   1.319   4.138  14.520 -0.1375 -1.2270  0.3454
  324MPD2    C5 4921   1.426   4.072  14.569 -0.2114  0.0780 -0.6123
  324MPD2     H 4922   1.412   4.447  14.588 -0.1510  1.8582 -1.7925
  324MPD2    H1 4923   1.234   4.082  14.482 -1.3445 -0.5525  2.0880
  324MPD2    H2 4924   1.622   4.066  14.630  1.6536  3.2882  0.7895
  324MPD2    H3 4925   1.444   3.966  14.562 -1.0428 -0.2190  1.7050
  324MPD2     N 4926   1.183   4.330  14.500  0.4363 -0.1194  0.4323
  324MPD2    H5 4927   1.108   4.265  14.478  0.2127  0.6532 -1.0500
  324MPD2    N1 4928   1.634   4.349  14.683 -0.1638 -0.2069  0.2279
  324MPD2    H7 4929   1.630   4.449  14.669  2.0902 -0.0775  0.4846
  325TMC3    C1 4930   1.028   4.493  14.463  0.1046  0.0218 -0.0241
  325TMC3    C2 4931   0.925   4.410  14.502  0.8870  0.0273  0.1476
  325TMC3    C3 4932   0.791   4.447  14.471 -0.1809  0.1751  0.2831
  325TMC3    C4 4933   1.005   4.615  14.399  0.3863 -0.6825 -0.0596
  325TMC3    C5 4934   0.874   4.652  14.382 -0.1706 -0.1322 -0.3818
  325TMC3    C6 4935   0.766   4.569  14.414  0.5146  0.1776  0.1932
  325TMC3     C 4936   1.166   4.465  14.497  0.7902 -0.7389  0.4575
  325TMC3     O 4937   1.243   4.557  14.496 -0.6155 -0.1558  0.1765
  325TMC3     H 4938   0.947   4.311  14.540  3.1316  0.8746  1.0427
  325TMC3    H1 4939   1.089   4.684  14.400  0.0849 -0.3480  2.3966
  325TMC3    H2 4940   0.671   4.608  14.380  0.9141  1.1440  0.1728
  325TMC3    C7 4941   0.852   0.038  14.299  0.3200  0.3568 -0.1831
  325TMC3    C8 4942   0.712   4.329  14.440  0.2142  0.2916  0.3184
  325TMC3    O1 4943   0.944   0.079  14.233  0.1605 -0.5735  0.1587
  325TMC3    O2 4944   0.746   4.221  14.483  0.0847  0.0534  0.3699
  326MPD2     C 4945   2.812   1.109  11.271  0.2768 -0.3284 -0.6474
  326MPD2    C1 4946   2.895   1.100  11.161 -0.0635  0.1948 -0.3443
  326MPD2    C2 4947   3.031   1.130  11.190  0.6834  0.1476  0.0514
  326MPD2    C3 4948   3.074   1.181  11.309  0.2671  0.7356 -0.1309
  326MPD2    C4 4949   2.982   1.196  11.408  0.4248  0.6257 -0.6194
  326MPD2    C5 4950   2.858   1.150  11.393 -0.0368 -0.1199  0.2032
  326MPD2     H 4951   3.106   1.111  11.114  1.6905  2.4134  0.4721
  326MPD2    H1 4952   2.998   1.231  11.509  1.7422 -0.4687 -0.4367
  326MPD2    H2 4953   2.713   1.065  11.265 -0.5106  1.4335 -0.6980
  326MPD2    H3 4954   2.776   1.157  11.464  0.9344 -0.8784  1.3982
  326MPD2     N 4955   3.212   1.212  11.343 -0.0653  0.2724  0.2069
  326MPD2    H5 4956   3.231   1.225  11.442 -3.7163  2.9499  0.5622
  326MPD2    N1 4957   2.853   1.051  11.033  0.1452  0.1937 -0.7762
  326MPD2    H7 4958   2.926   1.035  10.963  0.1153 -2.4194 -0.2252
  327TMC3    C1 4959   2.707   0.971  10.872 -0.1822  0.0102  0.3660
  327TMC3    C2 4960   2.611   1.035  10.799 -0.1022 -0.7891  0.3464
  327TMC3    C3 4961   2.610   1.008  10.662  0.3324 -0.2818 -0.0790
  327TMC3    C4 4962   2.807   0.896  10.814 -0.0044 -0.1325  0.5384
  327TMC3    C5 4963   2.810   0.884  10.674  0.2409 -0.1979 -0.2678
  327TMC3    C6 4964   2.709   0.939  10.600  0.1549 -0.1590  0.1519
  327TMC3     C 4965   2.724   1.029  11.004  0.3889 -0.1799  0.2849
  327TMC3     O 4966   2.625   1.087  11.051  0.5167  0.4513 -0.2003
  327TMC3     H 4967   2.540   1.099  10.849  2.1750  2.2212 -0.2943
  327TMC3    H1 4968   2.880   0.844  10.874 -0.0358 -1.9429 -0.9872
  327TMC3    H2 4969   2.706   0.929  10.492  2.1811 -0.5692  0.1406
  327TMC3    C7 4970   2.939   0.857  10.614 -0.4305  0.0765  0.2973
  327TMC3    C8 4971   2.529   1.096  10.580 -0.0407  0.4310 -0.6947
  327TMC3    O1 4972   2.940   0.888  10.496  0.4894 -0.6559  0.6382
  327TMC3    O2 4973   2.572   1.123  10.470  0.8475 -0.2003  0.2078
  328MPD2     C 4974   0.456   0.521  17.551 -0.2799  0.0607  0.1704
  328MPD2    C1 4975   0.386   0.443  17.468 -0.7291  0.7478  0.0105
  328MPD2    C2 4976   0.381   0.470  17.332  0.0876  1.0549 -0.2365
  328MPD2    C3 4977   0.429   0.595  17.283  0.0876 -0.1845  0.1074
  328MPD2    C4 4978   0.504   0.669  17.368  0.6210 -0.1370  0.0513
  328MPD2    C5 4979   0.520   0.631  17.495  0.2894 -0.1875  0.0833
  328MPD2     H 4980   0.319   0.410  17.267  1.4929  2.2814 -2.6935
  328MPD2    H1 4981   0.546   0.763  17.335 -1.4897 -0.2492 -2.9193
  328MPD2    H2 4982   0.467   0.506  17.658  0.4253  1.2756  0.2669
  328MPD2    H3 4983   0.579   0.687  17.566 -0.8847  0.3179  0.6547
  328MPD2     N 4984   0.391   0.639  17.154 -0.0945 -0.1469 -0.2771
  328MPD2    H5 4985   0.428   0.729  17.125  0.8648 -0.3841  0.2125
  328MPD2    N1 4986   0.303   0.341  17.533  0.3624  0.1525 -0.4385
  328MPD2    H7 4987   0.302   0.335  17.634 -3.5405  0.3387 -0.4983
  329TMC3    C1 4988   0.118   0.213  17.558  0.4966  0.0163 -0.3442
  329TMC3    C2 4989   0.078   0.320  17.636  0.1280  0.4592  0.9339
  329TMC3    C3 4990   4.679   0.348  17.638  0.0803  0.2746  0.7259
  329TMC3    C4 4991   0.023   0.133  17.500  0.9943 -0.1394  0.3099
  329TMC3    C5 4992   4.627   0.164  17.519 -0.2206 -0.8100  0.1268
  329TMC3    C6 4993   4.581   0.277  17.579 -0.4566 -0.5609 -0.0507
  329TMC3     C 4994   0.223   0.244  17.469 -0.3510  0.2816  0.7204
  329TMC3     O 4995   0.216   0.215  17.351  0.2944 -0.1845 -0.3865
  329TMC3     H 4996   0.143   0.388  17.689  0.1288  0.5903  0.7618
  329TMC3    H1 4997   0.065   0.046  17.452  0.3978 -0.1077 -0.2652
  329TMC3    H2 4998   4.477   0.290  17.604 -1.0982 -1.8366 -2.0401
  329TMC3    C7 4999   4.540   0.080  17.439 -0.4102  0.8358  0.4205
  329TMC3    C8 5000   4.625   0.475  17.687  0.0043  0.1347 -0.1758
  329TMC3    O1 5001   4.592   4.725  17.380  0.3783 -0.4325  0.0280
  329TMC3    O2 5002   4.515   0.513  17.647 -0.0541  0.0427  0.4189
  330TMC3    C1 5003   3.059   0.546   9.160 -0.2332 -0.2514 -0.1723
  330TMC3    C2 5004   2.944   0.482   9.202 -0.4818 -0.1096  0.3584
  330TMC3    C3 5005   2.956   0.356   9.265  0.1298  0.4860  0.2007
  330TMC3    C4 5006   3.180   0.484   9.174 -0.4274  1.1607  0.1984
  330TMC3    C5 5007   3.192   0.371   9.246  0.1000  0.6068  0.1694
  330TMC3    C6 5008   3.079   0.302   9.295  0.0535 -0.2564 -0.1665
  330TMC3     C 5009   3.055   0.685   9.135 -0.7063  0.7489 -0.4754
  330TMC3     O 5010   3.167   0.729   9.118 -0.3394 -0.4877  0.3078
  330TMC3     H 5011   2.844   0.516   9.180 -0.5656  0.6768  1.9330
  330TMC3    H1 5012   3.261   0.528   9.117  0.5238 -0.9077 -0.0418
  330TMC3    H2 5013   3.083   0.199   9.328  0.2580  0.2210  1.2943
  330TMC3    C7 5014   3.322   0.326   9.284 -0.4093 -1.0713  0.2913
  330TMC3    C8 5015   2.835   0.286   9.316  0.3072  0.0444 -0.0583
  330TMC3    O1 5016   3.422   0.378   9.237 -0.2290 -0.1463  0.1105
  330TMC3    O2 5017   2.743   0.314   9.237  0.1499  0.3715  0.1289
  331MPD2     C 5018   1.299   3.592  13.353  0.0592 -0.0960 -0.0309
  331MPD2    C1 5019   1.311   3.588  13.219  0.0291  0.0562  0.5479
  331MPD2    C2 5020   1.216   3.517  13.147 -0.3858  0.7581 -0.0308
  331MPD2    C3 5021   1.127   3.431  13.205 -0.2702 -0.1876 -0.8188
  331MPD2    C4 5022   1.116   3.434  13.344 -0.0503 -0.0797 -1.1058
  331MPD2    C5 5023   1.209   3.513  13.409  0.4559  0.2409  0.4515
  331MPD2     H 5024   1.225   3.520  13.039 -1.1645  1.0937 -0.0886
  331MPD2    H1 5025   1.041   3.384  13.404  1.3580  0.0928  0.8024
  331MPD2    H2 5026   1.372   3.643  13.415 -0.7017  0.8700  0.0614
  331MPD2    H3 5027   1.193   3.517  13.516 -1.4969  0.8210  0.1370
  331MPD2     N 5028   1.040   3.354  13.125  0.1233 -0.2351  0.2399
  331MPD2    H5 5029   1.055   3.370  13.026  0.0109  2.0125  0.5878
  331MPD2    N1 5030   1.412   3.670  13.158  0.0407  0.0905 -0.2350
  331MPD2    H7 5031   1.471   3.734  13.211  0.4658 -0.1593 -0.4125
  332TMC3    C1 5032   0.904   3.178  13.055 -0.8496  0.4192  0.5885
  332TMC3    C2 5033   0.903   3.235  12.926  0.0363 -0.5294  0.5135
  332TMC3    C3 5034   0.934   3.155  12.817 -0.6661 -0.1767 -0.5381
  332TMC3    C4 5035   0.928   3.049  13.075 -0.8924  0.1856 -1.1271
  332TMC3    C5 5036   0.963   2.973  12.968 -0.2048  0.2390 -0.5114
  332TMC3    C6 5037   0.974   3.025  12.836 -0.1056  0.0492  0.2762
  332TMC3     C 5038   0.947   3.264  13.169 -1.1243 -0.0145  0.3507
  332TMC3     O 5039   0.929   3.214  13.279 -0.1187 -0.1864 -0.0830
  332TMC3     H 5040   0.880   3.341  12.922 -0.0086 -0.5455  0.3530
  332TMC3    H1 5041   0.953   3.014  13.175 -1.1726 -0.5600 -1.3181
  332TMC3    H2 5042   1.001   2.956  12.757 -0.2580  0.3855 -0.0665
  332TMC3    C7 5043   1.035   2.858  13.008 -0.2975 -0.6263  0.3158
  332TMC3    C8 5044   0.957   3.223  12.690 -0.0379  0.4791 -0.1848
  332TMC3    O1 5045   0.992   2.814  13.113 -0.0494  0.6181  0.0251
  332TMC3    O2 5046   0.946   3.346  12.695 -0.7199  0.3083  0.0745
  333MPD2     C 5047   1.200   4.243  11.268 -0.1302 -1.2500  0.0683
  333MPD2    C1 5048   1.319   4.193  11.220 -0.2044 -0.6712  0.0744
  333MPD2    C2 5049   1.357   4.065  11.258 -0.4557 -0.0784 -0.1068
  333MPD2    C3 5050   1.285   3.993  11.347  0.0357 -0.1137  0.1110
  333MPD2    C4 5051   1.169   4.047  11.394  0.7203  0.0788 -0.3962
  333MPD2    C5 5052   1.123   4.171  11.349  0.4692 -0.0066  0.1463
  333MPD2     H 5053   1.449   4.026  11.216 -0.0043 -0.6544  1.4161
  333MPD2    H1 5054   1.103   3.993  11.460 -1.0578  0.9187 -1.4787
  333MPD2    H2 5055   1.170   4.345  11.248  1.4526 -0.7452  0.2608
  333MPD2    H3 5056   1.030   4.206  11.392 -0.3399  0.8466 -2.2673
  333MPD2     N 5057   1.325   3.864  11.383  0.1817 -0.0431 -0.0184
  333MPD2    H5 5058   1.414   3.834  11.343 -0.1021  1.0929 -1.4850
  333MPD2    N1 5059   1.409   4.273  11.143 -0.5780  0.5163  0.2562
  333MPD2    H7 5060   1.501   4.231  11.129 -0.4981  0.5866  0.5618
  334TMC3    C1 5061   1.505   4.451  11.026  0.3403  0.3045  0.4252
  334TMC3    C2 5062   1.617   4.377  11.005  0.7217 -0.5892 -0.3440
  334TMC3    C3 5063   1.735   4.447  10.992  0.1394  0.1101 -0.4157
  334TMC3    C4 5064   1.513   4.595  11.013  0.2272  0.2865  0.2311
  334TMC3    C5 5065   1.639   4.661  10.995 -0.3022  0.7499  0.2801
  334TMC3    C6 5066   1.750   4.585  10.985  0.6092  0.4362  0.0622
  334TMC3     C 5067   1.388   4.403  11.100  0.0948  0.5028  0.3660
  334TMC3     O 5068   1.288   4.477  11.100 -0.0922  0.1138 -0.3195
  334TMC3     H 5069   1.618   4.271  10.985 -0.6909 -0.7498  0.4243
  334TMC3    H1 5070   1.429   4.659  11.037 -0.5588 -0.5560 -0.2986
  334TMC3    H2 5071   1.846   4.635  10.984  0.3963  0.8449  0.0406
  334TMC3    C7 5072   1.659   0.065  11.014  0.4502 -0.2863 -0.4918
  334TMC3    C8 5073   1.851   4.373  11.017  0.0319 -0.3923 -0.0288
  334TMC3    O1 5074   1.776   0.099  11.033 -0.2650  0.1716  0.4868
  334TMC3    O2 5075   1.826   4.270  11.079  0.5189  0.2379  0.8183
  335TMC3    C1 5076   1.151   1.082  17.566 -0.0938  0.0776 -0.4889
  335TMC3    C2 5077   1.108   0.977  17.489 -0.3982  0.2116  0.1902
  335TMC3    C3 5078   1.165   0.969  17.363 -0.4060 -0.2330 -0.8157
  335TMC3    C4 5079   1.220   1.185  17.520 -0.6588 -0.4044 -0.0291
  335TMC3    C5 5080   1.279   1.173  17.390 -0.0133 -0.8393  0.1973
  335TMC3    C6 5081   1.251   1.063  17.312  0.3776 -0.3427 -0.1157
  335TMC3     C 5082   1.057   1.114  17.672  0.2531  0.0388 -0.8036
  335TMC3     O 5083   0.990   1.023  17.723 -0.3220  0.4442 -0.3557
  335TMC3     H 5084   1.021   0.923  17.523 -1.3174  1.2904 -0.4374
  335TMC3    H1 5085   1.258   1.257  17.591  0.5717 -0.3991 -0.6857
  335TMC3    H2 5086   1.296   1.056  17.213  1.2484  2.0011  0.0973
  335TMC3    C7 5087   1.408   1.228  17.355  0.1440 -0.7720 -0.2284
  335TMC3    C8 5088   1.117   0.876  17.267  0.6518 -0.0055 -0.0263
  335TMC3    O1 5089   1.471   1.166  17.269  0.0891 -0.2227 -0.3845
  335TMC3    O2 5090   1.158   0.875  17.150  0.3486  0.4034  0.3332
  336MPD2     C 5091   0.554   3.153  16.527 -0.3060  0.0997 -0.0975
  336MPD2    C1 5092   0.538   3.135  16.388 -0.3845 -0.3555 -0.9563
  336MPD2    C2 5093   0.549   3.005  16.339  0.2038 -0.0613 -0.0267
  336MPD2    C3 5094   0.570   2.902  16.426  0.3080 -0.0473  0.5448
  336MPD2    C4 5095   0.581   2.924  16.561  0.1779  0.3959  0.3407
  336MPD2    C5 5096   0.587   3.052  16.610  0.2059 -0.2609 -0.8714
  336MPD2     H 5097   0.552   2.992  16.231  0.8680 -2.0715  0.2411
  336MPD2    H1 5098   0.593   2.840  16.630  2.1064 -0.9787 -1.6498
  336MPD2    H2 5099   0.529   3.245  16.578  1.1736  0.5389 -0.1923
  336MPD2    H3 5100   0.587   3.074  16.716 -2.1043  0.8801 -1.1018
  336MPD2     N 5101   0.568   2.770  16.387 -0.1019 -0.4126 -0.3706
  336MPD2    H5 5102   0.564   2.697  16.458  2.0982  0.4277  0.6222
  336MPD2    N1 5103   0.504   3.236  16.302  0.2846  0.7260 -0.0613
  336MPD2    H7 5104   0.488   3.200  16.209 -0.9585  2.0128 -0.3367
  337TMC3    C1 5105   0.428   3.439  16.228 -0.3614  0.8211 -0.6681
  337TMC3    C2 5106   0.308   3.506  16.244 -0.3367 -0.0412  0.5685
  337TMC3    C3 5107   0.231   3.533  16.134 -0.1425  0.3082 -1.2212
  337TMC3    C4 5108   0.469   3.399  16.101 -0.1325 -0.1259  0.4341
  337TMC3    C5 5109   0.388   3.434  15.992  0.7530 -0.6367 -0.4510
  337TMC3    C6 5110   0.266   3.495  16.007  0.2443  0.1146 -0.2459
  337TMC3     C 5111   0.473   3.364  16.341 -0.0722 -0.6888  0.2592
  337TMC3     O 5112   0.451   3.406  16.453  0.4824  0.0273 -0.0646
  337TMC3     H 5113   0.271   3.520  16.345 -0.3115 -2.7553  0.9524
  337TMC3    H1 5114   0.562   3.350  16.076  0.7262  1.9980 -0.5133
  337TMC3    H2 5115   0.202   3.520  15.923 -2.6093 -0.6733  1.7221
  337TMC3    C7 5116   0.459   3.442  15.867  0.7848 -0.8387 -0.8552
  337TMC3    C8 5117   0.085   3.537  16.162  0.4088 -0.3226  0.6637
  337TMC3    O1 5118   0.579   3.480  15.878 -0.5067 -0.3166  0.0639
  337TMC3    O2 5119   0.062   3.590  16.268  0.5217 -0.1881  0.4347
  338MPD2     C 5120   1.295   2.937   1.453 -0.7781  0.2407 -0.9848
  338MPD2    C1 5121   1.205   2.935   1.349 -0.4519  0.2731 -0.3141
  338MPD2    C2 5122   1.092   3.016   1.346  0.4605 -0.1038  0.5470
  338MPD2    C3 5123   1.060   3.106   1.446  0.0898  0.4811  0.3604
  338MPD2    C4 5124   1.150   3.117   1.550  0.1733  0.3029 -0.6058
  338MPD2    C5 5125   1.259   3.035   1.549  0.3264 -0.4094  0.3720
  338MPD2     H 5126   1.016   2.997   1.271  0.9620 -0.7201  0.1862
  338MPD2    H1 5127   1.133   3.195   1.624  0.4914 -2.1462  2.0404
  338MPD2    H2 5128   1.393   2.890   1.458 -0.2425  1.4544  0.0261
  338MPD2    H3 5129   1.331   3.060   1.627  0.1587 -1.1083  0.7519
  338MPD2     N 5130   0.947   3.184   1.434  0.2246 -0.2772  0.1226
  338MPD2    H5 5131   0.901   3.164   1.346 -1.1649 -2.1972  1.2593
  338MPD2    N1 5132   1.219   2.842   1.248 -0.1143  1.0410 -0.3358
  338MPD2    H7 5133   1.146   2.835   1.178 -0.9703 -1.0232  0.7711
  339TMC3    C1 5134   0.786   3.352   1.468  0.0510  0.0224 -0.1464
  339TMC3    C2 5135   0.700   3.383   1.575 -0.5599 -0.9724  0.4009
  339TMC3    C3 5136   0.563   3.350   1.552  0.7546 -0.3287 -0.4427
  339TMC3    C4 5137   0.737   3.298   1.344 -0.6693 -0.3684 -0.3237
  339TMC3    C5 5138   0.597   3.290   1.330 -0.9971  0.5049 -0.6553
  339TMC3    C6 5139   0.506   3.312   1.431 -0.3164 -0.3141  0.3633
  339TMC3     C 5140   0.904   3.288   1.517  0.1554 -0.2415 -0.4732
  339TMC3     O 5141   0.952   3.319   1.625 -1.3221  0.8521 -0.2419
  339TMC3     H 5142   0.739   3.426   1.667 -0.5496 -0.4624  0.1600
  339TMC3    H1 5143   0.797   3.306   1.254  0.1664 -0.0890  0.2606
  339TMC3    H2 5144   0.401   3.315   1.407 -0.3827  0.9016  0.8090
  339TMC3    C7 5145   0.569   3.211   1.215  0.3027  0.1308  0.2550
  339TMC3    C8 5146   0.469   3.384   1.661  1.0565 -0.3864  0.1360
  339TMC3    O1 5147   0.658   3.186   1.133 -0.8305 -0.2393 -0.2256
  339TMC3    O2 5148   0.509   3.462   1.747 -0.1738 -0.1776  0.0241
  340MPD2     C 5149   1.233   0.662   9.750 -0.2083  0.9924  0.9592
  340MPD2    C1 5150   1.248   0.551   9.826  0.1974  0.4181  0.4071
  340MPD2    C2 5151   1.284   0.554   9.962  0.2744  0.4841 -0.3235
  340MPD2    C3 5152   1.313   0.672  10.017 -0.1497 -0.5688  0.1108
  340MPD2    C4 5153   1.302   0.783   9.940 -0.9996 -0.5282 -0.0080
  340MPD2    C5 5154   1.264   0.781   9.805  0.3645 -0.2215 -0.2658
  340MPD2     H 5155   1.300   0.463  10.019  1.9050 -0.6220 -2.5519
  340MPD2    H1 5156   1.293   0.881   9.984 -1.0227 -1.0534  1.1429
  340MPD2    H2 5157   1.193   0.664   9.649  2.4913  0.7596 -0.0994
  340MPD2    H3 5158   1.255   0.870   9.743 -0.2883 -1.2220 -1.6109
  340MPD2     N 5159   1.344   0.692  10.151  0.0537  0.1146  0.2543
  340MPD2    H5 5160   1.369   0.784  10.184  1.6391 -0.3141  0.2079
  340MPD2    N1 5161   1.225   0.428   9.759  0.0918 -0.2899 -0.1810
  340MPD2    H7 5162   1.208   0.443   9.660 -0.7398 -3.3271 -0.5019
  341TMC3    C1 5163   1.194   0.205   9.706  0.2539  0.1042  0.5569
  341TMC3    C2 5164   1.154   0.073   9.742  0.1015  0.7449  0.2265
  341TMC3    C3 5165   1.131   4.727   9.633 -0.1157 -0.9082  0.6555
  341TMC3    C4 5166   1.210   0.239   9.574 -0.4062  0.0475 -0.2838
  341TMC3    C5 5167   1.185   0.148   9.468 -0.5126 -1.2320  0.1975
  341TMC3    C6 5168   1.133   0.025   9.496  0.0591 -0.7916 -0.8349
  341TMC3     C 5169   1.227   0.298   9.813 -0.0518  0.7408 -0.8020
  341TMC3     O 5170   1.260   0.255   9.926  0.4869  0.0985  0.3696
  341TMC3     H 5171   1.128   0.040   9.842  0.1005  0.4071  0.1127
  341TMC3    H1 5172   1.261   0.328   9.540  1.8070 -0.7115  1.0733
  341TMC3    H2 5173   1.122   4.697   9.410 -0.8425  0.4034 -1.6227
  341TMC3    C7 5174   1.280   0.156   9.356  0.4892 -0.2527 -0.2314
  341TMC3    C8 5175   1.125   4.584   9.653 -0.0346 -0.2494 -0.0102
  341TMC3    O1 5176   1.380   0.231   9.369  0.3253  0.1815  0.2672
  341TMC3    O2 5177   1.113   4.514   9.554 -0.5789 -0.0087  0.3455
  342MPD2     C 5178   3.652   3.606   0.166 -0.0367  0.3218  0.4787
  342MPD2    C1 5179   3.757   3.618   0.075  0.2029 -0.0591  0.4889
  342MPD2    C2 5180   3.831   3.733   0.068  0.2101 -0.4884  0.3035
  342MPD2    C3 5181   3.805   3.829   0.156 -0.2852  0.1731  0.6111
  342MPD2    C4 5182   3.699   3.825   0.240  0.9409  0.2814 -1.1153
  342MPD2    C5 5183   3.611   3.715   0.240  0.2043 -0.4142  0.0401
  342MPD2     H 5184   3.914   3.743  17.746 -0.5910 -0.1738 -0.6231
  342MPD2    H1 5185   3.677   3.913   0.298  1.7150 -0.9352  1.0289
  342MPD2    H2 5186   3.601   3.514   0.193  0.0426  0.2924  0.5271
  342MPD2    H3 5187   3.523   3.712   0.303  0.8109 -0.0894  0.9176
  342MPD2     N 5188   3.891   3.942   0.160 -0.6942 -0.6219 -0.5211
  342MPD2    H5 5189   3.868   4.010   0.231  2.7634 -0.2096  0.2063
  342MPD2    N1 5190   3.791   3.511  17.745 -0.0305 -0.1947  0.1166
  342MPD2    H7 5191   3.879   3.522  17.694 -0.5449  0.8150 -0.5486
  343TMC3    C1 5192   3.782   3.292  17.641 -0.1829 -0.6335 -0.1167
  343TMC3    C2 5193   3.868   3.339  17.547  0.0573  0.7578  0.2550
  343TMC3    C3 5194   3.881   3.264  17.433  0.1143  0.6703  0.2052
  343TMC3    C4 5195   3.727   3.170  17.631 -0.4704  0.7063  0.3280
  343TMC3    C5 5196   3.748   3.093  17.518 -0.0937 -0.4317 -0.0525
  343TMC3    C6 5197   3.824   3.136  17.417  0.7383  0.6042 -0.4498
  343TMC3     C 5198   3.734   3.387  17.742  0.1419  0.2364  0.0021
  343TMC3     O 5199   3.650   3.343   0.068  0.1124  0.2909  0.0541
  343TMC3     H 5200   3.923   3.431  17.561 -0.7989  1.2647  0.3118
  343TMC3    H1 5201   3.661   3.131  17.708  0.3681  0.8402  1.1057
  343TMC3    H2 5202   3.826   3.081  17.323  0.2446 -1.0096  0.4696
  343TMC3    C7 5203   3.690   2.960  17.516 -0.2794  0.4486  0.2258
  343TMC3    C8 5204   3.977   3.311  17.330 -0.5620  0.4438  0.5341
  343TMC3    O1 5205   3.669   2.915  17.405 -0.7243 -0.0118 -0.0045
  343TMC3    O2 5206   4.006   3.427  17.334  0.0188  0.4290 -0.1469
  344MPD2     C 5207   0.454   3.161  10.892 -0.4212  0.0192  0.2798
  344MPD2    C1 5208   0.451   3.103  10.767  0.3167 -0.1282  0.3200
  344MPD2    C2 5209   0.503   3.163  10.649  0.6888 -0.2172  0.8417
  344MPD2    C3 5210   0.569   3.288  10.671  0.6099  0.2615 -0.2077
  344MPD2    C4 5211   0.584   3.337  10.794 -0.5034  0.5269 -0.2792
  344MPD2    C5 5212   0.525   3.279  10.907 -0.1079 -0.7312  0.5035
  344MPD2     H 5213   0.484   3.129  10.548 -0.6766 -0.3700  1.1397
  344MPD2    H1 5214   0.632   3.434  10.806 -0.4153  0.2484  1.5414
  344MPD2    H2 5215   0.391   3.134  10.976 -1.0511  0.6471  0.0058
  344MPD2    H3 5216   0.529   3.324  11.005  1.0072 -2.0502  1.0693
  344MPD2     N 5217   0.617   3.366  10.565  0.2625 -0.0875 -0.3004
  344MPD2    H5 5218   0.652   3.457  10.592  1.8505 -0.6021 -0.5927
  344MPD2    N1 5219   0.369   2.983  10.745  0.8109  0.2105  0.5948
  344MPD2    H7 5220   0.339   2.970  10.649  1.5467 -2.1455  0.6935
  345TMC3    C1 5221   0.690   3.435  10.354  0.4843 -0.4716 -0.1162
  345TMC3    C2 5222   0.791   3.507  10.405 -0.4377 -1.1609  0.1904
  345TMC3    C3 5223   0.846   3.598  10.325  0.3851  0.4288  0.2675
  345TMC3    C4 5224   0.640   3.460  10.227 -0.4488 -0.1523 -0.3260
  345TMC3    C5 5225   0.689   3.571  10.161  0.2559 -0.0131  0.2221
  345TMC3    C6 5226   0.805   3.631  10.204  0.7435 -0.3249 -0.0407
  345TMC3     C 5227   0.621   3.336  10.434 -0.0496  0.4719  0.7221
  345TMC3     O 5228   0.566   3.246  10.371 -0.7845  0.8062  0.4454
  345TMC3     H 5229   0.834   3.484  10.502  1.7576 -1.2682 -0.8059
  345TMC3    H1 5230   0.546   3.410  10.205 -0.2891 -0.6195  0.0775
  345TMC3    H2 5231   0.845   3.714  10.147  1.3522  1.4231  2.9429
  345TMC3    C7 5232   0.578   3.665  10.141 -0.0131 -0.1847  0.1124
  345TMC3    C8 5233   0.912   3.701  10.396 -0.0400 -0.4241 -0.1112
  345TMC3    O1 5234   0.613   3.779  10.159  0.0022 -0.4718 -0.1567
  345TMC3    O2 5235   0.885   3.719  10.511  0.2764  0.0278  0.6970
  346MPD2     C 5236   4.324   0.006  13.724 -0.4270 -0.1374 -0.3218
  346MPD2    C1 5237   4.440   4.673  13.757  0.3966 -0.4241  0.5649
  346MPD2    C2 5238   4.530   4.728  13.846  0.1940 -0.2698  0.4529
  346MPD2    C3 5239   4.501   0.115  13.900  0.4623  0.5304 -0.2323
  346MPD2    C4 5240   4.380   0.179  13.867 -0.4012 -0.4318  0.4568
  346MPD2    C5 5241   4.291   0.117  13.784  0.1751 -0.2275  0.0357
  346MPD2     H 5242   4.624   4.678  13.868  1.0720  0.6886 -1.1551
  346MPD2    H1 5243   4.341   0.267  13.916 -1.5022  0.2628 -1.6604
  346MPD2    H2 5244   4.260   4.715  13.641 -1.7709  2.4374 -0.1489
  346MPD2    H3 5245   4.197   0.164  13.757  1.2407  2.8869  1.6621
  346MPD2     N 5246   4.581   0.168  14.005  0.0975 -0.1417  0.3711
  346MPD2    H5 5247   4.670   0.120  14.022 -0.5520 -1.8825 -1.1427
  346MPD2    N1 5248   4.460   4.546  13.697 -0.2378 -0.1875  0.0162
  346MPD2    H7 5249   4.554   4.512  13.684 -0.2857  1.1413 -3.6504
  347TMC3    C1 5250   4.645   0.291  14.201 -0.1755  0.1649  0.0631
  347TMC3    C2 5251   0.039   0.269  14.184 -0.8096  0.1712 -0.2949
  347TMC3    C3 5252   0.123   0.321  14.286 -0.2820  0.4876  0.0233
  347TMC3    C4 5253   4.592   0.340  14.316  0.3924  0.5550 -0.4954
  347TMC3    C5 5254   4.678   0.381  14.415  0.1890 -0.3602  0.5474
  347TMC3    C6 5255   0.076   0.376  14.402  0.2938  0.1520  0.2092
  347TMC3     C 5256   4.544   0.266  14.097  0.1045 -0.1909  0.1218
  347TMC3     O 5257   4.435   0.317  14.119 -0.8165  0.6682  0.6340
  347TMC3     H 5258   0.079   0.225  14.093  0.0583  2.0011 -0.8096
  347TMC3    H1 5259   4.486   0.357  14.332  0.3143 -2.5682  2.2389
  347TMC3    H2 5260   0.149   0.414  14.472  0.0756  1.8553 -0.4838
  347TMC3    C7 5261   4.620   0.401  14.544  0.0515 -0.2266  0.3454
  347TMC3    C8 5262   0.258   0.270  14.285  0.5140 -0.2933 -0.4198
  347TMC3    O1 5263   4.504   0.406  14.559 -0.7304 -0.0514 -0.0071
  347TMC3    O2 5264   0.297   0.232  14.396 -0.4004  0.1335 -0.2117
  348MPD2     C 5265   3.526   4.577  12.231 -0.5826 -0.0148  0.3461
  348MPD2    C1 5266   3.652   4.568  12.174  0.6175 -0.2924 -0.7232
  348MPD2    C2 5267   3.676   4.637  12.049 -0.3444  0.1061 -0.0661
  348MPD2    C3 5268   3.567   4.687  11.983  0.3316  0.1064  0.3987
  348MPD2    C4 5269   3.442   4.685  12.036 -0.2260  0.2837 -0.2433
  348MPD2    C5 5270   3.428   4.639  12.164  0.3541 -0.3726  0.3857
  348MPD2     H 5271   3.775   4.636  12.005 -1.5832  2.0440 -2.8928
  348MPD2    H1 5272   3.364   0.002  11.985  0.0190  0.4997 -0.3894
  348MPD2    H2 5273   3.491   4.543  12.328  3.0399 -3.1360  0.5990
  348MPD2    H3 5274   3.330   4.648  12.210  0.6905 -0.6145  1.1492
  348MPD2     N 5275   3.600   0.007  11.856  0.2370 -0.3711 -0.2474
  348MPD2    H5 5276   3.697   0.012  11.827  0.9307  0.9159  2.3381
  348MPD2    N1 5277   3.755   4.498  12.230 -0.0088 -0.3887 -0.0160
  348MPD2    H7 5278   3.848   4.487  12.191 -0.7219 -0.2204 -1.7409
  349TMC3    C1 5279   3.829   4.294  12.309 -0.3450  0.4562 -0.1370
  349TMC3    C2 5280   3.810   4.197  12.400 -0.4163  0.2887 -0.2031
  349TMC3    C3 5281   3.764   4.080  12.351 -0.1582 -0.1004  0.4922
  349TMC3    C4 5282   3.846   4.271  12.173 -0.5250 -0.5905 -0.4540
  349TMC3    C5 5283   3.792   4.158  12.131  0.2948 -0.2081  0.8691
  349TMC3    C6 5284   3.751   4.056  12.212  0.0241  0.3768  0.6518
  349TMC3     C 5285   3.737   4.405  12.333  0.8641  0.1305  0.4428
  349TMC3     O 5286   3.648   4.381  12.414  0.2054  0.6427  0.5951
  349TMC3     H 5287   3.802   4.225  12.505 -1.1106 -0.9429  0.0794
  349TMC3    H1 5288   3.863   4.347  12.098  0.3702  0.9257  1.2601
  349TMC3    H2 5289   3.701   3.971  12.168  1.4012 -0.6522  1.0971
  349TMC3    C7 5290   3.713   4.171  12.004 -0.0310 -0.5360  0.0478
  349TMC3    C8 5291   3.824   3.968  12.420  0.2509  0.4048 -0.9152
  349TMC3    O1 5292   3.609   4.108  12.004 -0.0025  0.1851 -0.3090
  349TMC3    O2 5293   3.909   3.993  12.507  0.1012 -0.1872  0.3420
  350MPD2     C 5294   2.454   3.144  10.799  0.2268  0.4818  0.3383
  350MPD2    C1 5295   2.509   3.029  10.741 -0.3688 -0.2554  0.6479
  350MPD2    C2 5296   2.585   2.948  10.817  0.1124  0.5856 -0.2843
  350MPD2    C3 5297   2.619   2.986  10.947 -0.7091  0.9256  0.4057
  350MPD2    C4 5298   2.563   3.101  11.003  0.6609  0.2248  0.0227
  350MPD2    C5 5299   2.486   3.182  10.925  0.4501  0.1873  0.1544
  350MPD2     H 5300   2.615   2.851  10.777  1.2480  1.1990 -0.8996
  350MPD2    H1 5301   2.585   3.128  11.106  1.7993  0.6062 -0.3141
  350MPD2    H2 5302   2.375   3.199  10.750  1.7781  2.0395 -0.4232
  350MPD2    H3 5303   2.438   3.268  10.971 -0.9436 -1.5965  1.9886
  350MPD2     N 5304   2.708   2.905  11.020  0.7060 -0.0417 -1.2565
  350MPD2    H5 5305   2.733   2.820  10.971 -0.2898 -1.1198  0.1055
  350MPD2    N1 5306   2.469   2.975  10.616  0.1112 -0.4379 -0.1758
  350MPD2    H7 5307   2.492   2.877  10.599  1.3164 -0.0553 -0.7527
  351TMC3    C1 5308   2.351   2.974  10.417  0.3235 -0.1986 -0.1966
  351TMC3    C2 5309   2.332   2.841  10.426 -0.3705 -0.1822  1.0331
  351TMC3    C3 5310   2.280   2.773  10.319  0.3499  0.1736  0.0813
  351TMC3    C4 5311   2.312   3.049  10.305  0.6582 -0.1248  0.2124
  351TMC3    C5 5312   2.273   2.974  10.196  0.5275 -0.2831  0.5080
  351TMC3    C6 5313   2.251   2.839  10.200  0.0473  0.3724 -0.6142
  351TMC3     C 5314   2.402   3.050  10.524 -0.6186  0.0827 -0.0106
  351TMC3     O 5315   2.397   3.169  10.513  0.2673 -0.1731  0.1036
  351TMC3     H 5316   2.368   2.794  10.517  0.6138  1.3750  1.4524
  351TMC3    H1 5317   2.344   3.152  10.294 -0.4683  0.2790  0.7708
  351TMC3    H2 5318   2.226   2.776  10.116  1.6449  1.6082 -1.9922
  351TMC3    C7 5319   2.200   3.045  10.083  0.1226 -0.9710 -0.0174
  351TMC3    C8 5320   2.327   2.643  10.301 -0.5695 -0.4908  0.2252
  351TMC3    O1 5321   2.224   3.163  10.074  0.5225 -0.5594  0.0150
  351TMC3    O2 5322   2.413   2.615  10.384 -0.7446 -0.1234 -0.6629
  352MPD2     C 5323   1.324   0.287   1.336 -0.0774  0.5184 -0.3534
  352MPD2    C1 5324   1.228   0.233   1.256  0.0115 -0.2892 -0.5649
  352MPD2    C2 5325   1.242   0.099   1.210 -0.7475  0.0578 -0.4955
  352MPD2    C3 5326   1.343   0.018   1.260 -0.2156 -0.5840  0.4778
  352MPD2    C4 5327   1.432   0.071   1.348 -0.2296 -0.0583 -0.3161
  352MPD2    C5 5328   1.429   0.208   1.375  0.0259 -1.3214 -0.6154
  352MPD2     H 5329   1.168   0.064   1.138 -0.0907  1.6223 -1.9272
  352MPD2    H1 5330   1.507   0.003   1.386 -1.1976 -0.8224  0.2512
  352MPD2    H2 5331   1.326   0.387   1.376 -2.1115  1.3367 -2.2741
  352MPD2    H3 5332   1.500   0.255   1.442  0.7782 -0.4784 -2.0210
  352MPD2     N 5333   1.363   4.620   1.223  0.7267  0.3777 -0.6531
  352MPD2    H5 5334   1.442   4.573   1.267  0.5824  0.5343 -0.2265
  352MPD2    N1 5335   1.122   0.317   1.221 -0.1831  0.0557 -0.2894
  352MPD2    H7 5336   1.138   0.416   1.239  1.9947 -0.7771  2.2184
  353TMC3    C1 5337   1.301   4.403   1.160  0.2039 -0.9421  0.4307
  353TMC3    C2 5338   1.423   4.347   1.167 -0.7848  0.1042 -0.1881
  353TMC3    C3 5339   1.444   4.211   1.178 -0.4191 -0.2492  0.2772
  353TMC3    C4 5340   1.197   4.322   1.124  0.0812  0.2526 -0.3583
  353TMC3    C5 5341   1.218   4.181   1.125  0.5099  0.1786 -0.3195
  353TMC3    C6 5342   1.339   4.124   1.158 -0.1772 -0.1414 -0.1868
  353TMC3     C 5343   1.281   4.545   1.145 -0.1573  0.2382 -0.5965
  353TMC3     O 5344   1.178   4.578   1.092 -0.2412  0.0525  0.0182
  353TMC3     H 5345   1.505   4.409   1.200 -1.7346 -0.9409  4.1579
  353TMC3    H1 5346   1.101   4.371   1.115 -0.2574 -0.1953  0.8096
  353TMC3    H2 5347   1.334   4.017   1.177  0.7540 -0.2906 -0.8021
  353TMC3    C7 5348   1.105   4.090   1.109  0.0676 -0.1150 -0.0557
  353TMC3    C8 5349   1.560   4.167   1.257 -0.9084 -0.3063 -0.4144
  353TMC3    O1 5350   1.135   3.972   1.090  0.1932  0.4217 -0.1820
  353TMC3    O2 5351   1.604   4.239   1.345  0.4420  0.0929 -0.5639
  354TMC3    C1 5352   2.617   0.508  13.751 -0.2574 -0.3382 -0.8128
  354TMC3    C2 5353   2.726   0.592  13.776 -0.0544 -0.0701 -0.1770
  354TMC3    C3 5354   2.802   0.636  13.667 -0.0431 -0.2898 -0.6830
  354TMC3    C4 5355   2.594   0.453  13.632  0.3875 -0.5727  0.1980
  354TMC3    C5 5356   2.683   0.479  13.534  0.2483  0.1138 -0.6074
  354TMC3    C6 5357   2.785   0.570  13.544  0.2249  0.3103 -0.3710
  354TMC3     C 5358   2.556   0.430  13.864  0.1672  0.2072 -0.9878
  354TMC3     O 5359   2.446   0.376  13.833 -0.1338 -0.1142 -0.3367
  354TMC3     H 5360   2.735   0.649  13.868 -0.1913 -2.2353  1.1726
  354TMC3    H1 5361   2.512   0.384  13.613  0.8475 -1.6849  2.1952
  354TMC3    H2 5362   2.858   0.589  13.467 -0.7815  0.5326 -1.2724
  354TMC3    C7 5363   2.679   0.383  13.430 -0.0626  0.0857  0.7218
  354TMC3    C8 5364   2.879   0.764  13.677  0.5007 -0.0034 -0.6841
  354TMC3    O1 5365   2.639   0.270  13.453 -0.9263 -0.5875  0.0455
  354TMC3    O2 5366   2.907   0.801  13.790 -0.4574 -0.0669 -0.0684
  355MPD2     C 5367   2.976   1.651  12.032 -0.2921  0.1717 -0.1615
  355MPD2    C1 5368   3.052   1.696  11.926 -0.3237 -0.1604 -0.9581
  355MPD2    C2 5369   3.192   1.663  11.927  0.8624  0.3556  0.4000
  355MPD2    C3 5370   3.247   1.584  12.031  0.3876 -0.3331  0.1823
  355MPD2    C4 5371   3.167   1.547  12.135  0.2008  0.4448  0.1684
  355MPD2    C5 5372   3.033   1.582  12.134  0.3947 -0.1243 -0.0341
  355MPD2     H 5373   3.260   1.708  11.855 -0.5339  0.2839 -0.9651
  355MPD2    H1 5374   3.202   1.482  12.213  1.1406  0.6887 -0.0572
  355MPD2    H2 5375   2.872   1.678  12.041  0.1849  1.5970  1.2088
  355MPD2    H3 5376   2.968   1.553  12.216 -0.1390  1.1577 -0.0076
  355MPD2     N 5377   3.382   1.553  12.050  0.1910 -0.2639  0.1993
  355MPD2    H5 5378   3.409   1.523  12.143 -0.1099 -2.3485 -0.3802
  355MPD2    N1 5379   2.993   1.792  11.840  0.3287  0.4084 -0.3360
  355MPD2    H7 5380   2.895   1.812  11.855 -0.3899 -1.5890 -2.4278
  356TMC3    C1 5381   3.620   1.564  12.003 -0.4027 -0.2896  0.3351
  356TMC3    C2 5382   3.720   1.589  11.913 -0.6352  0.8263 -0.3755
  356TMC3    C3 5383   3.837   1.643  11.955 -0.2780 -0.4882 -0.1186
  356TMC3    C4 5384   3.631   1.603  12.136 -0.2353  0.2073 -0.7733
  356TMC3    C5 5385   3.740   1.674  12.172  0.1149 -0.0318 -0.3921
  356TMC3    C6 5386   3.843   1.696  12.082 -0.2213 -0.0512 -0.4793
  356TMC3     C 5387   3.484   1.561  11.954  0.1487  0.3342  0.5619
  356TMC3     O 5388   3.468   1.587  11.834  0.0469  0.1237 -1.2069
  356TMC3     H 5389   3.714   1.580  11.805 -1.0652  0.0721 -0.2930
  356TMC3    H1 5390   3.558   1.568  12.209 -0.8841 -0.1979 -1.5978
  356TMC3    H2 5391   3.935   1.744  12.115  0.4318 -1.0817 -0.7922
  356TMC3    C7 5392   3.754   1.721  12.307 -0.6152 -0.2295  0.5277
  356TMC3    C8 5393   3.903   1.714  11.849 -0.7786 -0.1723 -0.3368
  356TMC3    O1 5394   3.697   1.643  12.382  0.9715  0.2267 -0.0351
  356TMC3    O2 5395   3.966   1.647  11.765  0.2381  0.1761  0.2022
  357MPD2     C 5396   2.259   2.276   0.665  0.7094 -0.0639  0.0534
  357MPD2    C1 5397   2.268   2.139   0.670  0.2947 -0.0044 -0.0438
  357MPD2    C2 5398   2.150   2.064   0.656 -0.3375  0.0272 -0.0892
  357MPD2    C3 5399   2.028   2.120   0.621  1.1977 -0.2929 -0.3457
  357MPD2    C4 5400   2.034   2.252   0.588  0.0977  0.1833 -0.4908
  357MPD2    C5 5401   2.147   2.329   0.611  0.1237 -0.2910  0.0715
  357MPD2     H 5402   2.159   1.956   0.649  0.6436  0.2414 -2.1300
  357MPD2    H1 5403   1.950   2.310   0.552 -0.2706 -0.2363 -0.3092
  357MPD2    H2 5404   2.345   2.340   0.679 -0.1509  1.6185 -2.5389
  357MPD2    H3 5405   2.157   2.435   0.590 -0.4809 -0.3339 -0.4437
  357MPD2     N 5406   1.906   2.049   0.581  0.3143  0.2316  0.3531
  357MPD2    H5 5407   1.843   2.095   0.516  0.1203 -1.5129 -0.6842
  357MPD2    N1 5408   2.400   2.087   0.703 -0.1767  0.1762 -0.0177
  357MPD2    H7 5409   2.472   2.155   0.724  0.7840 -1.1353  0.9421
  358TMC3    C1 5410   2.590   1.932   0.701  0.9940  0.7277  0.5027
  358TMC3    C2 5411   2.649   1.825   0.635 -0.3323  0.1171 -0.3620
  358TMC3    C3 5412   2.779   1.802   0.667 -0.0175 -0.1378  0.4543
  358TMC3    C4 5413   2.655   2.015   0.791 -0.3206  0.7168 -0.2459
  358TMC3    C5 5414   2.780   1.970   0.825 -0.8816 -0.6217 -0.5824
  358TMC3    C6 5415   2.840   1.851   0.777  0.2075 -0.5458  0.2500
  358TMC3     C 5416   2.445   1.961   0.670 -0.4519 -0.0557 -0.0370
  358TMC3     O 5417   2.385   1.875   0.614  0.2465 -0.2658 -0.0126
  358TMC3     H 5418   2.590   1.768   0.564 -0.2374  1.8737 -1.8661
  358TMC3    H1 5419   2.616   2.101   0.844 -0.1778  1.2629 -1.0144
  358TMC3    H2 5420   2.944   1.838   0.805  0.5653 -0.7636 -1.1672
  358TMC3    C7 5421   2.846   2.042   0.933  0.2986  0.2974  0.1890
  358TMC3    C8 5422   2.831   1.682   0.606 -0.2861  0.1512  0.3978
  358TMC3    O1 5423   2.796   2.149   0.969 -0.3490  0.1291 -0.0384
  358TMC3    O2 5424   2.785   1.658   0.498  0.0539  0.0214 -0.5197
  359MPD2     C 5425   2.812   0.447  12.372  0.7352 -0.1335  0.1136
  359MPD2    C1 5426   2.903   0.344  12.356 -0.5974  0.5302  0.3079
  359MPD2    C2 5427   2.857   0.212  12.352  0.6499  0.4192  0.2946
  359MPD2    C3 5428   2.724   0.189  12.380  0.1887 -0.6643  0.7346
  359MPD2    C4 5429   2.639   0.294  12.392 -0.1029  0.3887 -0.0612
  359MPD2    C5 5430   2.679   0.422  12.378 -0.0672 -0.3258  0.2444
  359MPD2     H 5431   2.930   0.133  12.338  0.0607 -0.2750  1.1839
  359MPD2    H1 5432   2.532   0.275  12.393  0.1647 -1.2199 -1.4964
  359MPD2    H2 5433   2.850   0.549  12.367  0.3442 -0.0209 -0.5225
  359MPD2    H3 5434   2.607   0.503  12.379  0.1707 -0.1607  3.2586
  359MPD2     N 5435   2.670   0.059  12.382 -0.2513  0.6102 -0.0727
  359MPD2    H5 5436   2.569   0.052  12.396 -0.4988  1.4589 -1.4080
  359MPD2    N1 5437   3.042   0.379  12.336 -0.1681  0.4075 -0.1987
  359MPD2    H7 5438   3.064   0.474  12.308  2.7074 -0.0788  0.4852
  360TMC3    C1 5439   3.262   0.328  12.298 -0.0445 -0.0647 -0.2722
  360TMC3    C2 5440   3.385   0.302  12.359 -0.1082  0.4002 -0.0391
  360TMC3    C3 5441   3.491   0.289  12.266  1.2937  0.1230 -0.1400
  360TMC3    C4 5442   3.246   0.360  12.166 -0.1062 -0.3426  0.4869
  360TMC3    C5 5443   3.350   0.349  12.082 -0.2209 -0.4397  0.0729
  360TMC3    C6 5444   3.477   0.326  12.133 -0.2679 -1.2298 -0.0701
  360TMC3     C 5445   3.138   0.286  12.353  0.8197 -0.3804 -0.3240
  360TMC3     O 5446   3.135   0.189  12.424  0.1141  0.7076  0.0986
  360TMC3     H 5447   3.381   0.245  12.452 -2.2158  0.4887 -0.0821
  360TMC3    H1 5448   3.150   0.384  12.121  0.2573  0.8270  0.3404
  360TMC3    H2 5449   3.559   0.309  12.064  0.5157  0.5761  0.4072
  360TMC3    C7 5450   3.342   0.315  11.940  0.2021  0.3046 -0.4754
  360TMC3    C8 5451   3.617   0.242  12.317 -0.0188  0.4018 -0.0573
  360TMC3    O1 5452   3.447   0.339  11.877  0.5441 -0.5200 -0.1559
  360TMC3    O2 5453   3.648   0.282  12.432 -0.1918 -0.2647 -0.0080
  361MPD2     C 5454   4.620   3.896  16.740  0.7848 -0.0175 -0.4533
  361MPD2    C1 5455   4.581   3.919  16.871  0.7573  0.6944  0.1916
  361MPD2    C2 5456   4.680   3.896  16.970  0.0022 -0.0134  0.5068
  361MPD2    C3 5457   0.077   3.872  16.931  0.0448  0.0078  0.1948
  361MPD2    C4 5458   0.114   3.862  16.800  0.8722 -0.4654 -0.0374
  361MPD2    C5 5459   0.012   3.866  16.715 -0.4564 -0.3576  0.2125
  361MPD2     H 5460   4.653   3.914  17.073  1.0662  0.8272  0.6390
  361MPD2    H1 5461   0.213   3.843  16.760  0.9887 -0.4292  0.2283
  361MPD2    H2 5462   4.554   3.912  16.656 -0.2338  1.0755  0.5528
  361MPD2    H3 5463   0.047   3.843  16.615 -0.5952 -0.4093  0.1763
  361MPD2     N 5464   0.183   3.850  17.026 -0.0754 -0.0851  0.3912
  361MPD2    H5 5465   0.276   3.826  16.993  0.4081  2.2832  0.0917
  361MPD2    N1 5466   4.454   3.969  16.912  0.6270 -0.1664 -0.0025
  361MPD2    H7 5467   4.442   3.984  17.011 -2.7664  0.2369 -0.4799
  362TMC3    C1 5468   4.220   4.015  16.876  0.3623 -1.0570 -0.6789
  362TMC3    C2 5469   4.199   4.025  17.014  0.0492 -0.2197  0.3187
  362TMC3    C3 5470   4.082   4.076  17.062 -0.8123  0.1906  0.8205
  362TMC3    C4 5471   4.116   4.046  16.787 -0.5750  0.2129  0.1958
  362TMC3    C5 5472   3.990   4.087  16.841 -0.0259 -0.9452 -0.8057
  362TMC3    C6 5473   3.982   4.111  16.981  0.6429 -0.0487  0.5891
  362TMC3     C 5474   4.351   3.984  16.821  0.3426 -0.0056  0.1900
  362TMC3     O 5475   4.347   3.986  16.700  0.0799  0.0616  0.2246
  362TMC3     H 5476   4.273   4.001  17.090  0.3181 -0.9148 -0.1670
  362TMC3    H1 5477   4.119   4.035  16.679  1.2519 -0.8685  0.3742
  362TMC3    H2 5478   3.892   4.152  17.026  0.0812 -1.5379  0.8103
  362TMC3    C7 5479   3.912   4.184  16.758  0.6158  0.2723  0.6981
  362TMC3    C8 5480   4.057   4.068  17.204 -0.0346  0.3819  0.2504
  362TMC3    O1 5481   3.861   4.274  16.824  0.5393  0.0423 -0.1222
  362TMC3    O2 5482   4.122   3.990  17.273  0.4498 -0.0669  0.1685
  363TMC3    C1 5483   3.625   2.296  10.183 -0.7321  0.3145 -0.5213
  363TMC3    C2 5484   3.611   2.163  10.165  0.2939  1.1942  0.2684
  363TMC3    C3 5485   3.501   2.110  10.227 -0.0396  0.5149 -0.2594
  363TMC3    C4 5486   3.553   2.376  10.263  0.4751 -0.5970 -0.2561
  363TMC3    C5 5487   3.426   2.317  10.304  0.9248  0.4437  0.5840
  363TMC3    C6 5488   3.406   2.180  10.291  0.2400 -0.8083  0.2831
  363TMC3     C 5489   3.713   2.360  10.086  0.0925  0.1374 -0.6722
  363TMC3     O 5490   3.776   2.281  10.009 -0.3388 -0.0781 -0.1377
  363TMC3     H 5491   3.666   2.100  10.097  2.7502  2.5784  0.9962
  363TMC3    H1 5492   3.565   2.483  10.276 -1.0955 -0.2122 -1.8754
  363TMC3    H2 5493   3.319   2.128  10.328 -0.3228  1.0771  1.6076
  363TMC3    C7 5494   3.344   2.397  10.396  0.7028 -0.6708  0.0675
  363TMC3    C8 5495   3.472   1.967  10.217 -0.0746  0.0690 -0.3308
  363TMC3    O1 5496   3.363   2.517  10.390  0.0977 -0.0003  1.1422
  363TMC3    O2 5497   3.363   1.930  10.254 -0.4370 -0.1610  0.7186
  364MPD2     C 5498   2.119   1.410  10.582  0.2146  0.6386 -0.9061
  364MPD2    C1 5499   2.220   1.403  10.493 -0.2881 -0.1084  0.6397
  364MPD2    C2 5500   2.316   1.303  10.503 -0.2270  0.4958 -0.9653
  364MPD2    C3 5501   2.311   1.216  10.609 -0.3638 -0.6474 -0.0643
  364MPD2    C4 5502   2.204   1.221  10.692  0.5159 -0.4734 -0.2572
  364MPD2    C5 5503   2.111   1.315  10.676 -0.3645  0.4933 -0.1502
  364MPD2     H 5504   2.399   1.298  10.433  1.0172 -0.3676  0.5554
  364MPD2    H1 5505   2.204   1.156  10.779  2.5528 -0.2394 -0.0852
  364MPD2    H2 5506   2.045   1.490  10.582  0.0991  0.5373  0.3094
  364MPD2    H3 5507   2.028   1.298  10.743 -1.1298 -1.6553 -1.6232
  364MPD2     N 5508   2.414   1.118  10.645  0.0337 -0.2505  0.4338
  364MPD2    H5 5509   2.397   1.070  10.732  2.3274  0.3688  1.2209
  364MPD2    N1 5510   2.231   1.521  10.414 -0.1202 -0.3076  0.4616
  364MPD2    H7 5511   2.171   1.600  10.436 -0.7715 -0.7048  0.1213
  365TMC3    C1 5512   2.327   1.670  10.277 -0.6728 -0.1162 -0.1750
  365TMC3    C2 5513   2.400   1.693  10.154 -0.2073  0.8039 -0.4239
  365TMC3    C3 5514   2.472   1.812  10.148  0.2721 -0.3034 -0.0250
  365TMC3    C4 5515   2.327   1.761  10.382 -0.2992 -0.1943 -0.4250
  365TMC3    C5 5516   2.405   1.877  10.363  0.1828 -0.5281  0.5547
  365TMC3    C6 5517   2.477   1.902  10.253  0.1166  0.6418  1.2824
  365TMC3     C 5518   2.312   1.536  10.306 -0.0599 -0.5569 -0.6275
  365TMC3     O 5519   2.397   1.458  10.264 -0.2297 -0.1170 -0.5075
  365TMC3     H 5520   2.418   1.608  10.089  0.0401  0.5227  0.0125
  365TMC3    H1 5521   2.310   1.741  10.487 -0.5008  1.3785 -0.1555
  365TMC3    H2 5522   2.520   1.999  10.234 -1.2398  0.5751 -2.2783
  365TMC3    C7 5523   2.406   1.977  10.472 -0.5124 -0.4139 -0.7227
  365TMC3    C8 5524   2.539   1.849  10.027 -0.0823  0.1909 -0.1342
  365TMC3    O1 5525   2.503   2.055  10.477 -0.6123 -1.1628 -0.0139
  365TMC3    O2 5526   2.590   1.963  10.021 -0.2626 -0.2249 -0.5500
  366MPD2     C 5527   0.431   2.091  15.127  0.3974 -0.1720 -0.3075
  366MPD2    C1 5528   0.498   2.155  15.228 -0.0395  0.5247 -0.2458
  366MPD2    C2 5529   0.615   2.102  15.286 -0.6962  0.1499  0.0526
  366MPD2    C3 5530   0.647   1.969  15.262 -0.2508 -0.4924 -0.5990
  366MPD2    C4 5531   0.575   1.902  15.165  0.2671  0.7823 -0.1936
  366MPD2    C5 5532   0.481   1.965  15.091  0.4215  0.6224 -0.7965
  366MPD2     H 5533   0.680   2.168  15.342  0.4263 -1.4979  0.6730
  366MPD2    H1 5534   0.605   1.800  15.143 -1.1616  0.3209  0.0211
  366MPD2    H2 5535   0.352   2.131  15.065  1.6399  0.9525 -1.1819
  366MPD2    H3 5536   0.433   1.913  15.009  1.4131 -1.1219 -0.2804
  366MPD2     N 5537   0.753   1.920  15.338  0.9199  0.3183 -0.4775
  366MPD2    H5 5538   0.802   1.991  15.390  1.2872  2.2022 -3.3692
  366MPD2    N1 5539   0.459   2.280  15.281  0.8270  0.5103 -0.3604
  366MPD2    H7 5540   0.520   2.328  15.346 -0.9105  4.1493 -1.4146
  367TMC3    C1 5541   0.325   2.460  15.331 -0.2262  0.5976  0.0118
  367TMC3    C2 5542   0.441   2.535  15.353 -0.4287 -0.3019  0.2722
  367TMC3    C3 5543   0.423   2.670  15.388 -0.2138  0.2178  0.1247
  367TMC3    C4 5544   0.205   2.524  15.309 -0.4860  0.3085 -0.2675
  367TMC3    C5 5545   0.199   2.657  15.337 -0.0905 -0.2081  0.0646
  367TMC3    C6 5546   0.312   2.737  15.369  0.1208 -0.0931  0.4451
  367TMC3     C 5547   0.340   2.342  15.252  0.1588 -1.2318  0.4262
  367TMC3     O 5548   0.242   2.298  15.200  0.2292  0.1022 -0.6094
  367TMC3     H 5549   0.542   2.494  15.358 -0.5707 -0.8184 -1.2698
  367TMC3    H1 5550   0.115   2.468  15.288 -0.4460 -0.2868  1.1259
  367TMC3    H2 5551   0.298   2.837  15.409 -3.2815  0.3988 -1.9488
  367TMC3    C7 5552   0.066   2.722  15.344 -0.1458 -0.6687 -0.0528
  367TMC3    C8 5553   0.523   2.730  15.469  0.0061 -0.4770 -0.2124
  367TMC3    O1 5554   0.069   2.821  15.419  0.1133 -0.2876  0.0064
  367TMC3    O2 5555   0.593   2.651  15.535  0.7143 -0.2726 -0.2412
  368MPD2     C 5556   1.958   3.836  13.600  0.6507 -0.4822  0.3642
  368MPD2    C1 5557   1.950   3.951  13.536  0.1591 -0.9947  0.3333
  368MPD2    C2 5558   1.983   3.950  13.402 -0.0271  0.0383  0.0619
  368MPD2    C3 5559   2.023   3.839  13.331 -0.3001  0.4997 -0.2675
  368MPD2    C4 5560   2.033   3.723  13.401  0.2466  0.6517 -0.3574
  368MPD2    C5 5561   1.991   3.721  13.534 -1.0228 -0.5847  0.0959
  368MPD2     H 5562   1.961   4.038  13.343 -0.6904  0.7281  1.3469
  368MPD2    H1 5563   2.059   3.630  13.352  0.8714  1.5446 -1.7415
  368MPD2    H2 5564   1.947   3.833  13.708  0.9030  2.4629  0.4749
  368MPD2    H3 5565   2.016   3.633  13.592 -2.4913 -0.4102  0.9935
  368MPD2     N 5566   2.043   3.835  13.192  0.4129 -0.1340  0.2846
  368MPD2    H5 5567   2.074   3.743  13.160  1.7492  0.8460 -1.2754
  368MPD2    N1 5568   1.896   4.063  13.601  0.1141  0.5409  0.0097
  368MPD2    H7 5569   1.833   4.042  13.677  0.3983  0.6456  0.2764
  369TMC3    C1 5570   1.806   4.285  13.590  0.2278  0.5832 -0.4648
  369TMC3    C2 5571   1.809   4.401  13.523 -0.0150 -0.2161 -0.4724
  369TMC3    C3 5572   1.695   4.470  13.494 -0.3660 -0.3235  1.0003
  369TMC3    C4 5573   1.687   4.223  13.628  0.7879 -0.6263 -0.1841
  369TMC3    C5 5574   1.572   4.290  13.588  0.1145  0.3232  0.3350
  369TMC3    C6 5575   1.575   4.413  13.524  0.0224  0.1551 -0.4290
  369TMC3     C 5576   1.909   4.188  13.545 -0.2422  0.0912  0.4520
  369TMC3     O 5577   2.011   4.234  13.494 -0.1207  0.2914  0.2288
  369TMC3     H 5578   1.908   4.436  13.494  1.2177 -2.5036  0.9712
  369TMC3    H1 5579   1.666   4.126  13.671 -2.8517  0.5873  0.7187
  369TMC3    H2 5580   1.488   4.469  13.490  0.4797  1.1362  0.0252
  369TMC3    C7 5581   1.449   4.236  13.614  0.1999  0.5963 -0.1075
  369TMC3    C8 5582   1.693   4.572  13.394 -0.0111  0.0427 -0.2494
  369TMC3    O1 5583   1.418   4.216  13.731  0.2619  0.0300  0.7404
  369TMC3    O2 5584   1.599   4.579  13.315 -0.0855 -0.6866  0.2338
  370TMC3    C1 5585   1.359   0.386  16.328  0.3696  0.9534 -0.4973
  370TMC3    C2 5586   1.253   0.339  16.396  0.0787 -0.5184 -0.5978
  370TMC3    C3 5587   1.199   0.214  16.372  0.3528  0.3084 -0.3980
  370TMC3    C4 5588   1.404   0.303  16.231  0.5337  0.1196  0.1901
  370TMC3    C5 5589   1.345   0.189  16.191 -0.6482 -0.9163  0.3612
  370TMC3    C6 5590   1.243   0.139  16.263  0.1869  0.1220 -0.0212
  370TMC3     C 5591   1.457   0.450  16.413 -0.0753  0.3755 -0.7428
  370TMC3     O 5592   1.434   0.440  16.533  0.1251  0.7494 -0.1807
  370TMC3     H 5593   1.204   0.408  16.462 -0.2543  0.7207 -2.1382
  370TMC3    H1 5594   1.504   0.323  16.195  0.5175  1.1950  0.7592
  370TMC3    H2 5595   1.210   0.036  16.254 -0.3177  0.3164 -0.4022
  370TMC3    C7 5596   1.409   0.107  16.097 -0.6786  0.3212 -0.5395
  370TMC3    C8 5597   1.131   0.137  16.475 -0.4192  0.3563  0.1066
  370TMC3    O1 5598   1.463   0.169  16.006 -0.5207  0.0557  0.2668
  370TMC3    O2 5599   1.130   0.012  16.467 -0.3013  0.4763 -0.0697
  371TMC3    C1 5600   2.287   3.067  15.797  0.3297 -0.2431 -0.3285
  371TMC3    C2 5601   2.231   3.063  15.924  0.0139  0.1133  0.2500
  371TMC3    C3 5602   2.211   3.178  15.995  0.0180  0.3309  0.0371
  371TMC3    C4 5603   2.330   3.185  15.739 -0.0624 -0.5808  0.5959
  371TMC3    C5 5604   2.298   3.299  15.807 -0.2584 -0.2965  0.1426
  371TMC3    C6 5605   2.237   3.301  15.931  0.5612 -0.1965 -0.0636
  371TMC3     C 5606   2.354   2.938  15.747  0.3026  0.6014 -0.4686
  371TMC3     O 5607   2.417   2.963  15.644 -0.3733  0.4626  0.7251
  371TMC3     H 5608   2.191   2.972  15.967 -0.4070  0.0283 -0.3243
  371TMC3    H1 5609   2.391   3.195  15.651 -0.8907  0.3506  0.1203
  371TMC3    H2 5610   2.224   3.398  15.978 -0.0628  0.9404 -2.5649
  371TMC3    C7 5611   2.356   3.428  15.760  0.0709 -0.1948 -0.3728
  371TMC3    C8 5612   2.102   3.174  16.094 -0.1446  0.2138 -0.3489
  371TMC3    O1 5613   2.387   3.507  15.847  0.3387  0.2181 -0.0537
  371TMC3    O2 5614   2.075   3.068  16.143 -0.2346 -0.1901 -0.5603
  372MPD2     C 5615   1.738   4.477  13.849 -0.2364 -0.2117 -0.2395
  372MPD2    C1 5616   1.876   4.444  13.872  0.0170  0.2260  0.1860
  372MPD2    C2 5617   1.902   4.331  13.947 -0.1182 -0.2064 -0.0887
  372MPD2    C3 5618   1.803   4.240  13.978  0.3515  0.4390  0.0062
  372MPD2    C4 5619   1.669   4.272  13.953 -0.1359 -0.1270  0.3353
  372MPD2    C5 5620   1.646   4.395  13.904 -0.9778  0.1615  0.1728
  372MPD2     H 5621   2.005   4.302  13.964 -0.4131  0.2080  2.3526
  372MPD2    H1 5622   1.590   4.209  13.991 -3.4948  2.3625 -2.6327
  372MPD2    H2 5623   1.710   4.571  13.805 -0.1715 -0.1422 -0.1337
  372MPD2    H3 5624   1.541   4.420  13.901 -1.0756 -0.2379  0.2814
  372MPD2     N 5625   1.846   4.119  14.037  0.1041  0.4810  0.2276
  372MPD2    H5 5626   1.945   4.107  14.055 -0.1527 -1.0562  0.6175
  372MPD2    N1 5627   1.987   4.514  13.823 -0.1656  0.1804 -0.4229
  372MPD2    H7 5628   2.083   4.483  13.834  0.0689  1.0168 -0.1371
  373TMC3    C1 5629   1.836   3.892  14.087 -0.1467  0.0324  0.9511
  373TMC3    C2 5630   1.957   3.910  14.154  0.1015  0.0020 -0.6590
  373TMC3    C3 5631   2.022   3.790  14.179  0.0763  0.0033 -0.5207
  373TMC3    C4 5632   1.779   3.774  14.048 -0.0314 -0.0053 -0.0744
  373TMC3    C5 5633   1.851   3.663  14.069 -0.3588  0.3225  0.1378
  373TMC3    C6 5634   1.976   3.670  14.131 -0.4058  0.1738  0.1530
  373TMC3     C 5635   1.762   4.010  14.063  0.0347  0.3162  0.2027
  373TMC3     O 5636   1.647   3.995  14.030  0.6598  0.7408 -0.1602
  373TMC3     H 5637   1.995   3.996  14.209  0.9855 -0.5867 -0.3536
  373TMC3    H1 5638   1.688   3.770  13.989  1.3783 -0.5457 -2.2424
  373TMC3    H2 5639   2.042   3.586  14.148 -0.9420 -0.3474 -0.3600
  373TMC3    C7 5640   1.835   3.556  13.972  0.4816  0.0682 -0.3746
  373TMC3    C8 5641   2.158   3.794  14.234  0.2248  0.3008  0.4142
  373TMC3    O1 5642   1.942   3.501  13.933  0.6443  0.3314 -0.7702
  373TMC3    O2 5643   2.217   3.900  14.235 -0.1926  0.0519  0.2805
  374TMC3    C1 5644   2.628   0.526   9.730  0.0921 -0.6965  0.8824
  374TMC3    C2 5645   2.755   0.538   9.769  0.0626 -0.2269 -0.7620
  374TMC3    C3 5646   2.844   0.557   9.664 -0.2932  0.3568 -0.6185
  374TMC3    C4 5647   2.577   0.530   9.599 -0.0829 -0.2696 -0.6754
  374TMC3    C5 5648   2.675   0.560   9.500  0.8536  0.2326  0.2262
  374TMC3    C6 5649   2.803   0.571   9.532  0.5292  0.2217 -0.4777
  374TMC3     C 5650   2.530   0.503   9.832  0.5092 -0.0603 -0.1438
  374TMC3     O 5651   2.414   0.502   9.806 -0.4436  0.1567  0.0854
  374TMC3     H 5652   2.782   0.564   9.871 -2.3699 -0.4710 -0.0663
  374TMC3    H1 5653   2.471   0.513   9.585  0.2267 -2.2962 -0.6068
  374TMC3    H2 5654   2.869   0.615   9.458  0.9164  3.0588  1.5584
  374TMC3    C7 5655   2.636   0.616   9.370  0.0114 -0.0743  0.2980
  374TMC3    C8 5656   2.984   0.519   9.679 -0.2641 -0.3069 -0.7968
  374TMC3    O1 5657   2.719   0.670   9.303  0.3927  0.7485 -0.4002
  374TMC3    O2 5658   3.059   0.528   9.579 -0.1656  0.2115  0.0420
  375MPD2     C 5659   2.752   1.081  17.176 -1.0572 -0.6133  0.4033
  375MPD2    C1 5660   2.644   1.015  17.126 -0.0333 -1.7788 -0.2552
  375MPD2    C2 5661   2.662   0.904  17.045 -0.2505 -0.3994  0.6471
  375MPD2    C3 5662   2.789   0.868  17.002 -0.7106 -0.1765 -0.3077
  375MPD2    C4 5663   2.896   0.943  17.049  0.1066 -0.2764  0.1630
  375MPD2    C5 5664   2.876   1.051  17.130  0.8357  0.0737  0.0570
  375MPD2     H 5665   2.580   0.845  17.007 -0.2358  0.3151 -0.4808
  375MPD2    H1 5666   2.998   0.929  17.015 -0.5791 -2.9015 -0.8130
  375MPD2    H2 5667   2.745   1.158  17.252  0.1299 -0.1917  0.0914
  375MPD2    H3 5668   2.970   1.100  17.155  1.0677  0.5458 -1.7197
  375MPD2     N 5669   2.821   0.759  16.912  0.2393 -0.8484  0.2789
  375MPD2    H5 5670   2.919   0.765  16.886 -0.1319 -1.5044 -1.2807
  375MPD2    N1 5671   2.513   1.030  17.172 -0.8297  0.2000 -0.6941
  375MPD2    H7 5672   2.444   0.964  17.136 -0.7784  1.3233 -2.8570
  376TMC3    C1 5673   2.800   0.554  16.805  0.0959  0.3567 -0.2393
  376TMC3    C2 5674   2.929   0.517  16.841  0.0323  0.1028 -0.5372
  376TMC3    C3 5675   2.986   0.401  16.793  0.2961 -0.1753 -0.0871
  376TMC3    C4 5676   2.722   0.474  16.720 -0.4669  0.3502 -0.3249
  376TMC3    C5 5677   2.778   0.358  16.682 -0.5477 -0.2966 -0.6081
  376TMC3    C6 5678   2.907   0.327  16.711  0.2698  0.8070  0.8732
  376TMC3     C 5679   2.734   0.670  16.856 -0.6116 -0.1644 -0.6197
  376TMC3     O 5680   2.611   0.668  16.851  0.1158  0.5932  0.0832
  376TMC3     H 5681   2.992   0.592  16.887 -1.0179  1.3864 -1.2188
  376TMC3    H1 5682   2.628   0.506  16.678 -0.7691 -0.5281 -0.3051
  376TMC3    H2 5683   2.947   0.245  16.652 -0.7639  1.7877 -1.1701
  376TMC3    C7 5684   2.768   0.357  16.537 -0.0162  0.0904  0.3978
  376TMC3    C8 5685   3.128   0.389  16.759 -0.4661  0.7573 -0.2009
  376TMC3    O1 5686   2.867   0.390  16.473 -0.3912  0.2705  0.3014
  376TMC3    O2 5687   3.181   0.496  16.719  0.2269  0.4619  0.4811
  377MPD2     C 5688   1.211   4.469  13.348  0.1717 -0.2201  0.4040
  377MPD2    C1 5689   1.171   4.420  13.226 -0.6593 -0.2177  0.2143
  377MPD2    C2 5690   1.076   4.324  13.229 -0.2520  0.3372  0.2709
  377MPD2    C3 5691   1.013   4.269  13.338 -0.2106 -0.5135  0.6500
  377MPD2    C4 5692   1.052   4.322  13.457  0.4049 -0.0473  0.6627
  377MPD2    C5 5693   1.144   4.431  13.462 -0.0947  0.0610 -0.4199
  377MPD2     H 5694   1.052   4.286  13.130 -0.3842  1.0895  0.0125
  377MPD2    H1 5695   1.003   4.288  13.547 -0.2987 -1.7315 -0.3534
  377MPD2    H2 5696   1.282   4.551  13.353 -0.8846  0.7467 -0.3357
  377MPD2    H3 5697   1.178   4.472  13.557  1.2566  2.5807 -2.0136
  377MPD2     N 5698   0.918   4.160  13.332  0.1389  0.6602  0.2861
  377MPD2    H5 5699   0.887   4.133  13.425 -0.5102 -0.3416 -0.2220
  377MPD2    N1 5700   1.226   4.459  13.109  0.0672 -0.5449 -0.6408
  377MPD2    H7 5701   1.303   4.525  13.111  0.4379 -0.9845 -0.2759
  378TMC3    C1 5702   1.190   4.527  12.635 -0.4532 -0.0797  0.2906
  378TMC3    C2 5703   1.142   4.540  12.769 -0.4139  0.5152 -0.1154
  378TMC3    C3 5704   1.227   4.511  12.874 -0.5240 -0.3123  0.2501
  378TMC3    C4 5705   1.318   4.481  12.607 -0.2080 -0.3200  0.0167
  378TMC3    C5 5706   1.386   4.437  12.725  0.8784  0.0714 -0.5975
  378TMC3    C6 5707   1.348   4.460  12.857  0.2716  0.2867 -0.7085
  378TMC3     C 5708   1.093   4.566  12.531 -0.1004 -0.5974  0.1131
  378TMC3     O 5709   0.977   4.587  12.572 -0.1288  0.2122  0.0725
  378TMC3     H 5710   1.044   4.578  12.795 -1.4006 -1.4989 -0.8834
  378TMC3    H1 5711   1.356   4.456  12.508 -0.3737  1.3875 -0.4743
  378TMC3    H2 5712   1.410   4.419  12.935  0.0005  1.8909  0.3549
  378TMC3    C7 5713   1.530   4.397  12.723 -0.0073  0.1026  0.6119
  378TMC3    C8 5714   1.156   4.470  12.993 -0.8346  0.6541  0.2578
  378TMC3    O1 5715   1.579   4.348  12.825 -0.1840  0.7032 -0.6034
  378TMC3    O2 5716   1.035   4.447  12.976  0.1195 -0.3622 -0.4376
  379MPD2     C 5717   1.560   2.998  16.321  0.1719  0.1022 -0.8548
  379MPD2    C1 5718   1.430   2.992  16.367  0.1604 -0.0930 -0.1964
  379MPD2    C2 5719   1.405   2.934  16.494  0.5090  0.9747 -0.1652
  379MPD2    C3 5720   1.511   2.887  16.565  0.7959  0.8990  0.7431
  379MPD2    C4 5721   1.634   2.884  16.509  0.0270 -0.1104  0.0580
  379MPD2    C5 5722   1.656   2.938  16.389  0.3472  0.3228  0.4048
  379MPD2     H 5723   1.309   2.920  16.542  0.5303  1.6718  0.0904
  379MPD2    H1 5724   1.710   2.826  16.560  2.8693  2.9956 -0.5916
  379MPD2    H2 5725   1.587   3.018  16.218 -1.6484 -2.0003 -1.7377
  379MPD2    H3 5726   1.754   2.929  16.342 -0.6753  2.1566 -2.0945
  379MPD2     N 5727   1.508   2.827  16.695 -0.0237  0.1322  0.2427
  379MPD2    H5 5728   1.597   2.795  16.731  0.7259 -0.9269 -2.5142
  379MPD2    N1 5729   1.324   3.029  16.278 -0.2795  0.1808 -0.1322
  379MPD2    H7 5730   1.347   3.070  16.188  0.9872  0.1785  0.1861
  380TMC3    C1 5731   1.118   3.026  16.167 -0.0159 -0.0341 -0.0642
  380TMC3    C2 5732   1.189   2.977  16.061  0.1512 -0.5725  0.3497
  380TMC3    C3 5733   1.129   2.913  15.957 -0.4683  0.1443 -0.5674
  380TMC3    C4 5734   0.981   3.008  16.170 -0.5586  0.0837 -0.2056
  380TMC3    C5 5735   0.925   2.957  16.047  0.1890 -0.0589  0.2574
  380TMC3    C6 5736   0.999   2.903  15.943  0.2539 -0.5748 -0.2191
  380TMC3     C 5737   1.190   3.017  16.298 -0.5940 -0.8854  0.4276
  380TMC3     O 5738   1.120   3.005  16.397  0.5333 -0.0247 -0.0884
  380TMC3     H 5739   1.292   3.005  16.041 -0.2782  1.5828  1.2020
  380TMC3    H1 5740   0.918   3.037  16.253 -1.9611 -3.0004 -0.2279
  380TMC3    H2 5741   0.969   2.847  15.855  2.3470  0.4655 -1.5895
  380TMC3    C7 5742   0.791   3.001  16.008  0.0394  0.2187  0.1388
  380TMC3    C8 5743   1.218   2.834  15.879  0.1679 -0.8453 -0.3778
  380TMC3    O1 5744   0.747   3.101  16.063  0.4142  0.3054  0.5521
  380TMC3    O2 5745   1.220   2.845  15.758 -0.1302  0.0367  0.2349
  381TMC3    C1 5746   1.084   4.229  16.273  0.6891  0.3213 -0.3273
  381TMC3    C2 5747   1.195   4.291  16.293  0.9843  0.3941  0.0004
  381TMC3    C3 5748   1.221   4.359  16.412 -0.3922 -0.0004 -0.3139
  381TMC3    C4 5749   0.986   4.222  16.368  0.4671 -0.1124  0.3093
  381TMC3    C5 5750   1.005   4.297  16.480  0.4674  0.3241  0.2409
  381TMC3    C6 5751   1.120   4.369  16.504 -0.3095 -0.2001 -0.3352
  381TMC3     C 5752   1.071   4.145  16.155  0.0014 -0.3517 -0.5889
  381TMC3     O 5753   1.178   4.093  16.122  0.2010 -0.0428 -0.5578
  381TMC3     H 5754   1.269   4.287  16.214  0.4369 -1.0345 -0.4319
  381TMC3    H1 5755   0.901   4.157  16.353 -1.0754  1.9686  0.1669
  381TMC3    H2 5756   1.133   4.424  16.596  0.6220 -1.8513  0.5164
  381TMC3    C7 5757   0.949   4.239  16.599  0.4501  0.2473 -0.8118
  381TMC3    C8 5758   1.350   4.413  16.423 -0.2851 -0.0219  0.6096
  381TMC3    O1 5759   0.933   4.115  16.597  0.2450  0.2329  0.1896
  381TMC3    O2 5760   1.443   4.343  16.388 -0.8187  0.6535 -0.1408
  382MPD2     C 5761   0.713   1.428  17.051 -1.1606  0.0900 -0.4877
  382MPD2    C1 5762   0.675   1.457  17.180  0.5940  0.0459 -0.9220
  382MPD2    C2 5763   0.606   1.356  17.254  0.2184  0.2033 -0.2035
  382MPD2    C3 5764   0.582   1.234  17.198  0.4139 -1.0251 -0.1450
  382MPD2    C4 5765   0.625   1.207  17.067  0.7734 -0.2462 -0.8255
  382MPD2    C5 5766   0.694   1.305  17.003 -0.4952 -1.4008  0.1750
  382MPD2     H 5767   0.549   1.380  17.343  1.2085  2.1558 -0.1014
  382MPD2    H1 5768   0.614   1.112  17.016 -1.8046 -0.1480 -0.4578
  382MPD2    H2 5769   0.769   1.496  16.987  0.7344  0.4519  1.5481
  382MPD2    H3 5770   0.738   1.284  16.906 -0.2216 -0.4806  0.0978
  382MPD2     N 5771   0.510   1.131  17.265  0.0665 -0.6065  0.3108
  382MPD2    H5 5772   0.483   1.056  17.202  0.3680  1.0755 -1.8201
  382MPD2    N1 5773   0.687   1.589  17.237  0.0163  0.7009 -0.0568
  382MPD2    H7 5774   0.638   1.602  17.325  2.7691  0.8146  1.4459
  383TMC3    C1 5775   0.405   1.005  17.450 -0.5285  1.0008  0.3996
  383TMC3    C2 5776   0.314   0.955  17.361  1.0339 -0.5058  0.0509
  383TMC3    C3 5777   0.219   0.870  17.415  1.2847 -0.7172  0.5227
  383TMC3    C4 5778   0.420   0.965  17.580 -0.0135  0.7020 -0.8860
  383TMC3    C5 5779   0.330   0.871  17.623  0.1759 -0.0057 -0.1536
  383TMC3    C6 5780   0.227   0.821  17.544  0.4306  0.3528  0.1361
  383TMC3     C 5781   0.487   1.120  17.406  0.5654 -0.3220  0.3498
  383TMC3     O 5782   0.537   1.190  17.493 -0.4280  0.8466  0.2355
  383TMC3     H 5783   0.316   0.984  17.257 -3.6972 -0.9173 -0.1572
  383TMC3    H1 5784   0.505   0.988  17.642  1.5698 -1.3304 -2.3016
  383TMC3    H2 5785   0.155   0.753  17.588  0.8982  0.2844  0.8086
  383TMC3    C7 5786   0.336   0.822   0.010 -0.3207  0.4666 -0.0203
  383TMC3    C8 5787   0.115   0.825  17.327  0.1106 -0.0813  0.0576
  383TMC3    O1 5788   0.281   0.711   0.026  0.9338 -0.0651 -0.8141
  383TMC3    O2 5789   0.082   0.898  17.235  0.1320  0.2475 -0.0924
  384MPD2     C 5790   2.671   2.473  12.252  0.3095 -0.4230 -0.0353
  384MPD2    C1 5791   2.546   2.420  12.245  0.1521 -0.2516 -0.4810
  384MPD2    C2 5792   2.520   2.321  12.146  0.1308 -0.6568 -0.8261
  384MPD2    C3 5793   2.619   2.284  12.054 -0.2102  0.2833 -0.4965
  384MPD2    C4 5794   2.745   2.336  12.065 -0.2936  0.1652  0.3123
  384MPD2    C5 5795   2.767   2.436  12.162 -0.1397 -0.0037  0.4644
  384MPD2     H 5796   2.416   2.295  12.127 -1.1415  2.4359  1.7642
  384MPD2    H1 5797   2.819   2.331  11.986  0.6066  2.1458  1.0221
  384MPD2    H2 5798   2.705   2.545  12.326  2.5578 -0.5243 -0.9634
  384MPD2    H3 5799   2.862   2.488  12.165 -0.4006  0.4662  0.6097
  384MPD2     N 5800   2.597   2.205  11.942  0.3890  0.2298  0.5552
  384MPD2    H5 5801   2.667   2.210  11.869  2.3762 -0.6743  2.4075
  384MPD2    N1 5802   2.453   2.457  12.339 -0.1387 -0.4409  0.0094
  384MPD2    H7 5803   2.482   2.519  12.414 -0.5472 -0.7358  0.4144
  385TMC3    C1 5804   2.391   2.079  12.002 -0.6047  0.1133  0.0524
  385TMC3    C2 5805   2.269   2.038  11.969  0.2230  0.3546 -0.1744
  385TMC3    C3 5806   2.189   1.966  12.057  0.2135  0.7660 -0.5586
  385TMC3    C4 5807   2.447   2.039  12.124 -0.0105  0.1144 -0.2029
  385TMC3    C5 5808   2.371   1.965  12.216  0.6158  0.0382 -0.2784
  385TMC3    C6 5809   2.240   1.939  12.185  0.2677  0.2297  0.5159
  385TMC3     C 5810   2.486   2.131  11.902 -0.0979 -0.7590 -0.4990
  385TMC3     O 5811   2.473   2.085  11.791 -0.2157  0.3402  0.6991
  385TMC3     H 5812   2.230   2.066  11.872 -2.5242 -0.6962  0.6202
  385TMC3    H1 5813   2.544   2.071  12.159 -0.3217  0.4452  0.3673
  385TMC3    H2 5814   2.175   1.883  12.251  0.6047 -0.8206 -0.0477
  385TMC3    C7 5815   2.389   2.007  12.348 -0.2063  0.8854  0.7798
  385TMC3    C8 5816   2.056   1.926  12.027 -0.5924  0.3154 -0.3455
  385TMC3    O1 5817   2.286   2.010  12.414  0.2373  0.4705 -0.4781
  385TMC3    O2 5818   1.978   1.895  12.118  0.1419 -0.2857  0.5359
  386TMC3    C1 5819   2.612   0.172  12.006 -0.0282 -0.6735 -0.0024
  386TMC3    C2 5820   2.654   0.283  11.941 -0.3961 -0.8994  0.0056
  386TMC3    C3 5821   2.569   0.389  11.943  0.4164 -1.1555  0.0585
  386TMC3    C4 5822   2.512   0.177  12.091 -0.0712 -0.0100 -0.0979
  386TMC3    C5 5823   2.434   0.284  12.098 -0.0798 -0.3785 -0.7526
  386TMC3    C6 5824   2.467   0.396  12.031 -0.0905 -0.2032  0.3828
  386TMC3     C 5825   2.695   0.060  11.990 -0.0764  0.3747  0.4784
  386TMC3     O 5826   2.815   0.072  11.968 -0.0553 -0.0509 -0.2061
  386TMC3     H 5827   2.737   0.283  11.872 -0.3031  2.0290  0.1214
  386TMC3    H1 5828   2.481   0.086  12.141 -0.6818 -0.0243 -0.4995
  386TMC3    H2 5829   2.413   0.489  12.039 -0.0138 -0.2235  1.1623
  386TMC3    C7 5830   2.298   0.263  12.147  1.1775 -0.7354  0.2286
  386TMC3    C8 5831   2.551   0.474  11.823  0.0548  0.2333  0.1369
  386TMC3    O1 5832   2.281   0.171  12.221 -0.7507  0.0555 -0.2580
  386TMC3    O2 5833   2.485   0.575  11.841  0.4207 -0.0549  0.0156
  387MPD2     C 5834   4.488   0.214  10.165 -0.0481 -0.4442  0.9534
  387MPD2    C1 5835   4.580   0.247  10.076 -1.0512  1.0788 -0.4599
  387MPD2    C2 5836   4.633   0.137  10.006  0.3283  0.9157  1.1065
  387MPD2    C3 5837   4.591   0.006  10.020  0.0260 -0.6844  0.2466
  387MPD2    C4 5838   4.471   4.728  10.079  0.8780 -0.2622  0.1421
  387MPD2    C5 5839   4.428   0.089  10.162 -0.2845  0.0502 -0.5409
  387MPD2     H 5840   4.720   0.155   9.944 -2.3976 -1.6093 -3.5031
  387MPD2    H1 5841   4.413   4.638  10.065 -0.7979  0.7855  0.2886
  387MPD2    H2 5842   4.441   0.288  10.229 -0.2037 -0.2962  0.6655
  387MPD2    H3 5843   4.348   0.064  10.230 -0.9483  0.5854 -1.1217
  387MPD2     N 5844   4.657   4.638   9.960  0.1615  0.4036 -0.1553
  387MPD2    H5 5845   0.012   4.663   9.926 -0.4047 -0.0953 -2.0376
  387MPD2    N1 5846   4.650   0.371  10.069  0.5438 -0.3176 -0.0132
  387MPD2    H7 5847   4.732   0.362  10.011  0.8264  0.4154  0.2863
  388TMC3    C1 5848   4.709   0.576  10.137 -0.9344  0.9846 -0.5646
  388TMC3    C2 5849   4.686   0.708  10.098 -0.7718  0.3424  0.1102
  388TMC3    C3 5850   0.066   0.780  10.070 -0.1671  0.6391  0.2581
  388TMC3    C4 5851   0.088   0.520  10.143  0.1681  0.3202  0.1153
  388TMC3    C5 5852   0.198   0.590  10.113  0.1647 -0.5845  0.3693
  388TMC3    C6 5853   0.190   0.717  10.062  0.1864  0.5100 -0.1449
  388TMC3     C 5854   4.605   0.490  10.126  0.2639 -0.4996 -0.3009
  388TMC3     O 5855   4.492   0.527  10.160  0.3425  0.3285  0.5985
  388TMC3     H 5856   4.585   0.744  10.083  0.3515  3.0635 -0.9471
  388TMC3    H1 5857   0.102   0.427  10.198  0.7302 -0.1292 -0.7835
  388TMC3    H2 5858   0.282   0.772  10.045  1.0704 -0.7237  0.6476
  388TMC3    C7 5859   0.300   0.518  10.038 -0.6798 -0.3558 -0.0668
  388TMC3    C8 5860   0.054   0.885   9.969 -0.2773 -0.2983  0.5308
  388TMC3    O1 5861   0.371   0.580   9.962  0.1389  0.6976 -0.2746
  388TMC3    O2 5862   0.165   0.927   9.923  0.9933 -0.0055  0.1111
  389MPD2     C 5863   3.773   2.962  10.905  0.9179 -0.0982 -0.3528
  389MPD2    C1 5864   3.791   3.071  10.989 -0.4976 -0.1053 -0.7361
  389MPD2    C2 5865   3.716   3.075  11.105 -0.9265 -0.1730  0.5743
  389MPD2    C3 5866   3.642   2.958  11.148  0.8883 -0.2907  0.1094
  389MPD2    C4 5867   3.622   2.857  11.055  1.0434  0.0726  0.3281
  389MPD2    C5 5868   3.679   2.864  10.931 -0.4411 -0.3414 -0.3638
  389MPD2     H 5869   3.736   3.160  11.170 -0.5644  0.8344 -0.8647
  389MPD2    H1 5870   3.560   2.770  11.072 -0.1349  1.0812  1.1579
  389MPD2    H2 5871   3.813   2.960  10.804  2.0743  2.3573  0.0465
  389MPD2    H3 5872   3.652   2.790  10.857  2.0000  0.0007 -1.5962
  389MPD2     N 5873   3.573   2.956  11.274  0.3893 -0.6331 -0.5003
  389MPD2    H5 5874   3.522   2.870  11.290  0.4543 -0.6056 -0.1509
  389MPD2    N1 5875   3.890   3.162  10.947 -0.7190  0.2913  0.2751
  389MPD2    H7 5876   3.937   3.148  10.858  0.1173  0.4341  0.6937
  390TMC3    C1 5877   3.493   3.030  11.486  0.1768  1.0682 -0.1944
  390TMC3    C2 5878   3.392   2.932  11.484 -0.5175 -0.0072  0.7773
  390TMC3    C3 5879   3.317   2.920  11.596  0.0357 -0.5478 -0.1291
  390TMC3    C4 5880   3.500   3.127  11.582  0.0480  0.6121  0.2434
  390TMC3    C5 5881   3.407   3.107  11.687 -0.9953  0.3900 -0.2825
  390TMC3    C6 5882   3.312   3.007  11.700  0.0695  0.4623 -0.1959
  390TMC3     C 5883   3.580   3.054  11.371 -0.1615  0.0103 -0.0345
  390TMC3     O 5884   3.650   3.157  11.383 -0.7120 -0.2379  0.4002
  390TMC3     H 5885   3.395   2.849  11.415 -0.6162  1.2518 -0.7470
  390TMC3    H1 5886   3.579   3.202  11.590  0.4764 -0.1297  3.2178
  390TMC3    H2 5887   3.235   2.993  11.774 -1.2739  0.3110 -1.6360
  390TMC3    C7 5888   3.458   3.150  11.818 -0.0213  0.3227 -0.0056
  390TMC3    C8 5889   3.219   2.808  11.592 -0.0520 -0.0859 -0.2652
  390TMC3    O1 5890   3.509   3.259  11.822  0.0365 -0.0034  0.0323
  390TMC3    O2 5891   3.247   2.703  11.529  0.1407  0.0089 -0.2271
  391MPD2     C 5892   3.184   0.008  11.186  0.2082 -0.2945 -0.0569
  391MPD2    C1 5893   3.320   0.027  11.170 -0.0534 -0.0058  0.7639
  391MPD2    C2 5894   3.363   0.082  11.051  0.1956 -0.3984  0.3668
  391MPD2    C3 5895   3.278   0.107  10.949 -0.2766  0.3035  0.1070
  391MPD2    C4 5896   3.143   0.096  10.973 -0.4260  0.1798 -0.0255
  391MPD2    C5 5897   3.096   0.056  11.091  0.0593  0.3006  0.7259
  391MPD2     H 5898   3.467   0.107  11.036 -0.7430  1.7725 -2.6186
  391MPD2    H1 5899   3.066   0.118  10.900  0.3340 -1.2878 -1.2714
  391MPD2    H2 5900   3.145   4.711  11.282  0.2891  0.8476  0.3814
  391MPD2    H3 5901   2.990   0.043  11.112 -0.0983  1.5432  0.7501
  391MPD2     N 5902   3.328   0.157  10.824 -0.2075 -0.3528 -0.1128
  391MPD2    H5 5903   3.429   0.158  10.822 -0.2137 -2.1514 -1.1713
  391MPD2    N1 5904   3.404   4.735  11.280 -0.7030 -0.6249 -0.3348
  391MPD2    H7 5905   3.361   4.680  11.354 -2.4959  0.1568 -0.8234
  392TMC3    C1 5906   3.327   0.243  10.598 -0.0600 -0.0505 -0.5917
  392TMC3    C2 5907   3.261   0.230  10.481 -0.3842  0.2606  0.1049
  392TMC3    C3 5908   3.332   0.257  10.363 -0.3239 -0.0979  0.2773
  392TMC3    C4 5909   3.460   0.272  10.610 -0.1909  0.2897  0.0073
  392TMC3    C5 5910   3.528   0.298  10.493  0.6747 -0.0150 -0.2931
  392TMC3    C6 5911   3.463   0.293  10.368  0.1165 -0.2994  0.3919
  392TMC3     C 5912   3.250   0.203  10.720  0.7186 -0.5659  0.1728
  392TMC3     O 5913   3.127   0.205  10.706 -0.3733 -0.2862 -0.3030
  392TMC3     H 5914   3.156   0.207  10.471 -1.1032  2.6717  2.1311
  392TMC3    H1 5915   3.503   0.278  10.709 -2.3779 -1.6257  1.0506
  392TMC3    H2 5916   3.510   0.327  10.276  0.6393  0.2673  0.8714
  392TMC3    C7 5917   3.652   0.372  10.506 -0.1303 -0.2072  0.1245
  392TMC3    C8 5918   3.251   0.287  10.245 -0.7932 -0.2287 -1.2133
  392TMC3    O1 5919   3.731   0.340  10.592  0.1317  0.2726  0.4417
  392TMC3    O2 5920   3.140   0.333  10.264 -0.2575  0.1229 -0.1905
  393TMC3    C1 5921   2.108   3.330  10.688  0.3717 -1.1085 -0.1312
  393TMC3    C2 5922   2.074   3.379  10.811 -0.4935  0.1444 -0.1260
  393TMC3    C3 5923   2.046   3.297  10.918 -0.3651 -0.0274  0.4043
  393TMC3    C4 5924   2.114   3.195  10.669  0.1307 -0.0964 -1.1045
  393TMC3    C5 5925   2.098   3.114  10.784  0.0436 -0.4385  0.0287
  393TMC3    C6 5926   2.059   3.162  10.905 -0.4739 -0.0493 -0.1335
  393TMC3     C 5927   2.134   3.426  10.582  0.5559 -0.2253 -0.2331
  393TMC3     O 5928   2.083   3.538  10.586 -0.3839 -0.8933 -0.2414
  393TMC3     H 5929   2.050   3.483  10.823 -0.8709  0.1955 -1.4023
  393TMC3    H1 5930   2.151   3.155  10.575  0.9095 -1.6942 -0.1314
  393TMC3    H2 5931   2.038   3.099  10.990 -1.5339  2.4009  1.4056
  393TMC3    C7 5932   2.124   2.975  10.773 -0.0988  0.2861 -0.3141
  393TMC3    C8 5933   2.012   3.348  11.049 -1.1040 -0.2712  0.2337
  393TMC3    O1 5934   2.105   2.932  10.658  0.1233  0.2650  0.0395
  393TMC3    O2 5935   1.954   3.276  11.128 -0.2217  0.1887 -0.4713
  394TMC3    C1 5936   4.046   3.336  10.968 -0.3230  0.1665  0.3316
  394TMC3    C2 5937   4.047   3.385  10.841 -0.6970  1.0300 -0.2415
  394TMC3    C3 5938   4.133   3.481  10.798 -0.0084  0.4784  0.2746
  394TMC3    C4 5939   4.136   3.382  11.058 -0.4528 -0.3018  0.0352
  394TMC3    C5 5940   4.234   3.464  11.012 -0.8209  0.1133 -0.1015
  394TMC3    C6 5941   4.224   3.529  10.883  0.6057 -0.4072  0.7873
  394TMC3     C 5942   3.932   3.265  11.025 -0.1015 -0.0352 -0.4987
  394TMC3     O 5943   3.917   3.291  11.146  0.3263  0.2079 -0.2222
  394TMC3     H 5944   3.957   3.358  10.786 -1.6813 -2.0844  2.9421
  394TMC3    H1 5945   4.150   3.318  11.144 -2.3129 -0.2448  0.3888
  394TMC3    H2 5946   4.290   3.607  10.846 -0.2785  0.4461  0.9921
  394TMC3    C7 5947   4.365   3.397  11.039  0.1084 -0.2893  0.6289
  394TMC3    C8 5948   4.188   3.474  10.661 -0.3296  0.0409 -0.2631
  394TMC3    O1 5949   4.366   3.302  11.116  0.1032 -0.5226 -0.6337
  394TMC3    O2 5950   4.287   3.543  10.632  0.0198  0.6245  0.1756
  395TMC3    C1 5951   4.224   0.127  14.855  0.2584 -0.1612  0.3792
  395TMC3    C2 5952   4.201   0.059  14.736  0.2138 -0.3045 -0.1730
  395TMC3    C3 5953   4.183   0.129  14.625 -1.1157  0.5544 -0.5941
  395TMC3    C4 5954   4.208   0.267  14.865 -0.7714  0.1208  0.5224
  395TMC3    C5 5955   4.194   0.335  14.748 -0.1762 -0.2233 -0.2688
  395TMC3    C6 5956   4.179   0.270  14.627 -1.2437 -0.0100 -0.3800
  395TMC3     C 5957   4.230   0.032  14.973 -0.3695  0.2025  0.1574
  395TMC3     O 5958   4.276   4.659  14.942  0.8547  0.3739 -0.0346
  395TMC3     H 5959   4.213   4.689  14.726 -0.4961 -0.3963 -0.0231
  395TMC3    H1 5960   4.254   0.330  14.941 -1.9607  1.1365  0.4021
  395TMC3    H2 5961   4.150   0.321  14.536  0.3631 -0.2140 -0.9935
  395TMC3    C7 5962   4.180   0.488  14.752 -0.5693  0.3584 -0.2925
  395TMC3    C8 5963   4.132   0.065  14.504  0.1408  0.2169  0.6319
  395TMC3    O1 5964   4.144   0.546  14.857 -0.2113  0.0178  0.4073
  395TMC3    O2 5965   4.134   0.127  14.396  0.3714 -0.0331  0.1382
  396MPD2     C 5966   3.665   1.263  17.409 -0.4988  0.3627  0.5034
  396MPD2    C1 5967   3.774   1.345  17.418  0.0939 -0.5143 -0.3042
  396MPD2    C2 5968   3.788   1.439  17.321  0.0014  0.9291 -0.6952
  396MPD2    C3 5969   3.710   1.444  17.212 -1.0820  0.0230  0.0694
  396MPD2    C4 5970   3.599   1.365  17.207 -0.7885  1.0202 -0.9172
  396MPD2    C5 5971   3.580   1.269  17.304 -0.6113  0.2238 -0.2502
  396MPD2     H 5972   3.875   1.504  17.325  0.6459 -0.2000  4.0163
  396MPD2    H1 5973   3.523   1.364  17.128 -1.1314 -0.2874 -0.5697
  396MPD2    H2 5974   3.636   1.193  17.486 -1.7847 -1.3832 -1.5668
  396MPD2    H3 5975   3.488   1.211  17.302  0.1322 -1.0006  2.2630
  396MPD2     N 5976   3.742   1.533  17.115  0.1551 -0.2957 -0.3377
  396MPD2    H5 5977   3.831   1.579  17.132 -0.4715  1.0466 -0.6411
  396MPD2    N1 5978   3.859   1.317  17.524 -0.1933  0.3536 -0.3757
  396MPD2    H7 5979   3.838   1.247  17.594  0.9559 -0.5790 -0.9752
  397TMC3    C1 5980   4.080   1.286  17.598 -0.5243 -0.3340 -0.5851
  397TMC3    C2 5981   4.172   1.274  17.495  0.1943 -0.3306  0.0793
  397TMC3    C3 5982   4.188   1.156  17.426 -0.0581  0.5153 -0.5034
  397TMC3    C4 5983   4.014   1.168  17.641  0.7834  0.0884 -0.1428
  397TMC3    C5 5984   4.046   1.047  17.578 -0.2167  0.0749  0.6689
  397TMC3    C6 5985   4.135   1.039  17.474  0.1691  0.3406  0.1475
  397TMC3     C 5986   3.983   1.378  17.538  0.0072  0.3105 -0.3138
  397TMC3     O 5987   4.035   1.472  17.475 -0.5552 -0.0010 -0.4337
  397TMC3     H 5988   4.217   1.365  17.457 -0.4986 -1.0543 -2.4832
  397TMC3    H1 5989   3.953   1.184  17.729 -0.8951  1.6513 -1.5848
  397TMC3    H2 5990   4.150   0.946  17.419 -1.1451  1.2979 -1.8512
  397TMC3    C7 5991   3.963   0.935  17.604 -0.1830  0.6351  0.2138
  397TMC3    C8 5992   4.168   1.158  17.281  0.2656  0.0345 -0.1842
  397TMC3    O1 5993   4.007   0.823  17.574 -0.5982 -0.7813  0.3393
  397TMC3    O2 5994   4.095   1.067  17.233  0.4739  0.3097  0.4376
  398MPD2     C 5995   1.578   3.064   0.320 -0.5868  0.2837  0.0451
  398MPD2    C1 5996   1.613   2.990   0.438 -0.1341  0.6212  0.1358
  398MPD2    C2 5997   1.705   3.048   0.521  0.0781  0.2563  0.0297
  398MPD2    C3 5998   1.774   3.164   0.494  0.5960  0.2408 -0.2384
  398MPD2    C4 5999   1.732   3.234   0.384  0.4070  0.0014  0.3757
  398MPD2    C5 6000   1.643   3.180   0.295  0.2875  0.0649 -0.3027
  398MPD2     H 6001   1.722   2.994   0.614 -0.3252  1.4631  0.8080
  398MPD2    H1 6002   1.765   3.335   0.364  1.3459  0.0413  2.1271
  398MPD2    H2 6003   1.506   3.022   0.251 -1.1769  0.2998  0.6581
  398MPD2    H3 6004   1.619   3.243   0.210  2.9348  0.3531 -0.8132
  398MPD2     N 6005   1.884   3.210   0.566 -0.0937  0.3871 -0.4558
  398MPD2    H5 6006   1.905   3.157   0.651  0.0546 -0.1309 -0.8122
  398MPD2    N1 6007   1.558   2.868   0.471 -0.1676 -0.2269 -0.5386
  398MPD2    H7 6008   1.578   2.822   0.559 -0.8856 -1.1877 -0.8746
  399TMC3    C1 6009   1.470   2.655   0.432  0.2130  0.5385  0.3857
  399TMC3    C2 6010   1.562   2.620   0.528  0.0795 -0.1358 -0.0120
  399TMC3    C3 6011   1.534   2.499   0.588  0.0871  0.5914  0.1909
  399TMC3    C4 6012   1.355   2.594   0.398 -0.7629  0.0575  0.1986
  399TMC3    C5 6013   1.330   2.479   0.473  0.6269 -0.4466  0.3553
  399TMC3    C6 6014   1.416   2.424   0.570 -0.3268  0.3117  0.2423
  399TMC3     C 6015   1.486   2.791   0.382  0.4972 -0.1538 -0.3460
  399TMC3     O 6016   1.422   2.818   0.279 -0.6458 -0.8623 -0.0438
  399TMC3     H 6017   1.658   2.670   0.537 -0.6604  1.3620 -0.2705
  399TMC3    H1 6018   1.284   2.635   0.326  0.2478 -0.0967 -0.8830
  399TMC3    H2 6019   1.413   2.324   0.611  1.7947  0.7068  1.3419
  399TMC3    C7 6020   1.225   2.387   0.436 -0.1106  0.4047  0.2850
  399TMC3    C8 6021   1.635   2.454   0.673  0.7341 -0.0324 -0.4722
  399TMC3    O1 6022   1.214   2.285   0.501 -0.6828 -0.3215  0.0983
  399TMC3    O2 6023   1.701   2.366   0.620 -0.4665 -0.8053  0.7869
  400TMC3    C1 6024   0.268   0.662  16.967 -0.1006 -0.5362  0.2478
  400TMC3    C2 6025   0.136   0.647  16.949 -0.2772  0.0970 -0.7132
  400TMC3    C3 6026   0.059   0.759  16.934  0.4332  0.3595  0.0459
  400TMC3    C4 6027   0.330   0.779  16.947 -0.1877  0.4584  0.0195
  400TMC3    C5 6028   0.247   0.894  16.927  0.2755  0.4856  0.1106
  400TMC3    C6 6029   0.111   0.882  16.923 -0.6960 -0.0313 -0.5841
  400TMC3     C 6030   0.314   0.573  17.061 -0.6335  0.4870 -0.0264
  400TMC3     O 6031   0.283   0.452  17.061  0.7805  0.2780  0.6067
  400TMC3     H 6032   0.096   0.547  16.961  0.5323 -0.2278 -0.7067
  400TMC3    H1 6033   0.438   0.783  16.936 -0.0172 -3.5914  0.1892
  400TMC3    H2 6034   0.050   0.966  16.890  1.9548  2.2065  0.2150
  400TMC3    C7 6035   0.303   1.027  16.950 -0.7647  0.2839 -0.2739
  400TMC3    C8 6036   4.650   0.742  16.903 -0.0634 -0.6633 -0.3519
  400TMC3    O1 6037   0.422   1.035  16.918 -0.5981 -0.1588 -0.0597
  400TMC3    O2 6038   4.582   0.842  16.908 -0.4856  0.6431 -0.3188
  401MPD2     C 6039   2.621   4.541   1.244 -0.3351 -0.5063 -0.5677
  401MPD2    C1 6040   2.708   4.439   1.203 -0.5400  0.0173 -0.9526
  401MPD2    C2 6041   2.676   4.308   1.229  0.1023 -0.0114 -0.3526
  401MPD2    C3 6042   2.553   4.266   1.280  0.1362  0.5070 -0.2171
  401MPD2    C4 6043   2.464   4.362   1.321  0.1114 -0.2856  0.0616
  401MPD2    C5 6044   2.503   4.500   1.297  0.2603  0.3413 -0.1957
  401MPD2     H 6045   2.749   4.237   1.192  0.9843  0.2617  0.8582
  401MPD2    H1 6046   2.376   4.331   1.377  0.0978 -0.2473  0.0615
  401MPD2    H2 6047   2.645   4.646   1.234  1.6512 -0.9872 -0.9904
  401MPD2    H3 6048   2.434   4.576   1.331 -0.4387 -0.6086  0.5083
  401MPD2     N 6049   2.541   4.126   1.300  0.4529  0.0214  0.1530
  401MPD2    H5 6050   2.625   4.074   1.276 -0.0312 -0.4252 -0.6044
  401MPD2    N1 6051   2.830   4.470   1.129  0.3922  0.3466 -0.4329
  401MPD2    H7 6052   2.874   4.398   1.072 -1.1847 -1.2073  0.3034
  402TMC3    C1 6053   2.459   3.918   1.346  0.0316 -0.1062 -0.3188
  402TMC3    C2 6054   2.589   3.887   1.384 -0.1125 -0.3208 -0.1085
  402TMC3    C3 6055   2.654   3.782   1.323  0.6631 -0.3846  0.0624
  402TMC3    C4 6056   2.414   3.859   1.232 -0.1635  0.1036 -0.0660
  402TMC3    C5 6057   2.487   3.771   1.157  0.3504  0.8191  0.3217
  402TMC3    C6 6058   2.613   3.730   1.203 -0.2106 -0.4789 -0.2335
  402TMC3     C 6059   2.428   4.056   1.345 -0.2414 -0.1930  0.7516
  402TMC3     O 6060   2.317   4.100   1.371 -0.4260  0.9761  0.0602
  402TMC3     H 6061   2.631   3.942   1.467 -0.8278 -0.3066  0.2411
  402TMC3    H1 6062   2.321   3.905   1.201  0.1539  1.6073  1.2235
  402TMC3    H2 6063   2.680   3.679   1.134 -0.8257 -0.1708 -1.0511
  402TMC3    C7 6064   2.494   3.810   1.017 -0.0324 -0.3174 -0.8065
  402TMC3    C8 6065   2.794   3.789   1.345 -0.0791 -0.0519 -0.0840
  402TMC3    O1 6066   2.466   3.928   0.988  0.1961  0.0041 -0.0389
  402TMC3    O2 6067   2.867   3.779   1.248  0.5041 -0.4174  0.1298
  403MPD2     C 6068   1.108   2.152  13.639 -0.0158 -0.1998  0.4801
  403MPD2    C1 6069   1.241   2.144  13.654 -0.2634 -0.4424 -0.4627
  403MPD2    C2 6070   1.296   2.210  13.759 -1.0238 -0.6122  0.2810
  403MPD2    C3 6071   1.219   2.294  13.844  0.2467  0.3038 -0.2002
  403MPD2    C4 6072   1.082   2.299  13.827 -0.2998  0.2948  0.0489
  403MPD2    C5 6073   1.022   2.223  13.731  0.0619 -0.0587  1.3183
  403MPD2     H 6074   1.404   2.210  13.774 -0.7889 -1.4958 -1.5296
  403MPD2    H1 6075   1.016   2.367  13.881  1.4597  2.6400 -0.7930
  403MPD2    H2 6076   1.056   2.105  13.556 -0.4016 -0.0996  0.6634
  403MPD2    H3 6077   0.917   2.234  13.709 -0.2730 -1.3913  2.2620
  403MPD2     N 6078   1.286   2.362  13.953  0.2713  0.4345 -0.3894
  403MPD2    H5 6079   1.387   2.363  13.947  0.3326  1.0211  0.6450
  403MPD2    N1 6080   1.313   2.069  13.562  0.1031 -0.2965 -0.0902
  403MPD2    H7 6081   1.262   2.010  13.497  0.4848 -0.0407 -0.6263
  404TMC3    C1 6082   1.489   1.933  13.491  0.1560 -0.2779  0.8756
  404TMC3    C2 6083   1.555   1.858  13.587 -0.0154 -0.3688  0.0047
  404TMC3    C3 6084   1.677   1.807  13.552 -0.8038 -0.5393 -0.2122
  404TMC3    C4 6085   1.542   1.939  13.361  0.3963 -0.0156  0.5619
  404TMC3    C5 6086   1.659   1.872  13.334 -0.2246  0.2711  0.5191
  404TMC3    C6 6087   1.731   1.805  13.427 -0.0195  0.5512 -0.5145
  404TMC3     C 6088   1.448   2.062  13.549 -0.2639  0.2357 -0.3615
  404TMC3     O 6089   1.536   2.120  13.610  0.3839 -0.5203  0.0424
  404TMC3     H 6090   1.511   1.863  13.686 -0.0379  3.3165 -0.2212
  404TMC3    H1 6091   1.492   2.010  13.296 -1.6811 -0.8625  1.2183
  404TMC3    H2 6092   1.830   1.767  13.409 -0.1407  1.0581 -2.2701
  404TMC3    C7 6093   1.717   1.872  13.199 -1.1698  0.0820 -0.6887
  404TMC3    C8 6094   1.763   1.756  13.660 -0.6239  0.0098 -0.0405
  404TMC3    O1 6095   1.834   1.848  13.182  0.2489 -0.8273  0.0351
  404TMC3    O2 6096   1.883   1.742  13.641 -0.0353 -0.7688  0.0121
  405MPD2     C 6097   1.993   2.947  14.969  0.4300 -0.5141  0.3736
  405MPD2    C1 6098   1.930   2.874  14.865 -0.3883 -0.3532  0.4739
  405MPD2    C2 6099   1.835   2.948  14.798 -0.0395  0.6681 -0.2598
  405MPD2    C3 6100   1.803   3.082  14.825  0.2870 -0.2198  0.0006
  405MPD2    C4 6101   1.874   3.153  14.926  0.4120  0.1031 -0.3538
  405MPD2    C5 6102   1.975   3.081  14.991  0.2138 -0.1873 -0.2646
  405MPD2     H 6103   1.784   2.901  14.715  0.8466 -0.2157 -0.3040
  405MPD2    H1 6104   1.850   3.254  14.957 -2.4520 -0.4803 -0.7264
  405MPD2    H2 6105   2.069   2.904  15.034 -0.3235 -2.6282 -0.1745
  405MPD2    H3 6106   2.047   3.130  15.056  0.6310 -0.9887 -0.1253
  405MPD2     N 6107   1.694   3.133  14.755 -0.1049 -0.1280  0.3184
  405MPD2    H5 6108   1.656   3.070  14.684 -1.6132  0.8397  0.2707
  405MPD2    N1 6109   1.951   2.731  14.842  0.0627 -0.4735  0.6221
  405MPD2    H7 6110   2.009   2.688  14.914  2.1456 -0.9717 -1.3634
  406TMC3    C1 6111   1.285   3.342  14.737  0.8387 -0.2843 -0.2195
  406TMC3    C2 6112   1.243   3.241  14.653  0.2430 -0.6689  0.2082
  406TMC3    C3 6113   1.337   3.163  14.587 -0.0090 -0.2254 -0.4194
  406TMC3    C4 6114   1.425   3.354  14.755 -0.5656  0.4188 -0.6249
  406TMC3    C5 6115   1.514   3.268  14.709  0.1697  0.2254  0.7756
  406TMC3    C6 6116   1.470   3.174  14.621  0.6181  0.3967 -0.1200
  406TMC3     C 6117   1.206   3.456  14.747 -0.6413 -0.1254 -0.6309
  406TMC3     O 6118   1.257   3.564  14.713 -0.3842 -0.4424  0.0843
  406TMC3     H 6119   1.137   3.222  14.638  0.2423 -2.1431  2.1390
  406TMC3    H1 6120   1.457   3.431  14.825 -0.1139 -1.3933  1.1584
  406TMC3    H2 6121   1.535   3.117  14.556 -1.5639 -0.8941 -1.1733
  406TMC3    C7 6122   1.639   3.262  14.773  0.0274 -0.1345 -1.2311
  406TMC3    C8 6123   1.285   3.038  14.540  0.4119 -0.0363  0.0664
  406TMC3    O1 6124   1.680   3.356  14.844  0.4077 -0.3013  0.0099
  406TMC3    O2 6125   1.184   3.035  14.476  0.2807  0.0713  0.6383
  407MPD2     C 6126   4.027   4.619  10.066 -0.6430  0.3984  0.1736
  407MPD2    C1 6127   4.112   4.725  10.034  0.2505 -0.5321  0.7124
  407MPD2    C2 6128   4.113   0.100  10.115 -0.0565  1.2960 -0.0924
  407MPD2    C3 6129   4.034   0.103  10.228  0.1534 -0.5666  0.3092
  407MPD2    C4 6130   3.960   4.727  10.260 -0.3292 -0.3655 -0.1543
  407MPD2    C5 6131   3.958   4.615  10.182  0.4852  0.4803  0.7221
  407MPD2     H 6132   4.173   0.183  10.079 -0.3031  0.3926 -2.5655
  407MPD2    H1 6133   3.901   4.718  10.351  2.0911  2.6854  1.7352
  407MPD2    H2 6134   3.998   4.529  10.012  0.2739  0.2640 -0.0893
  407MPD2    H3 6135   3.891   4.531  10.199  0.4291 -0.0561 -2.0022
  407MPD2     N 6136   4.036   0.213  10.314  0.1504  0.3167  0.7067
  407MPD2    H5 6137   4.012   0.194  10.410  0.2335 -2.7003  0.1344
  407MPD2    N1 6138   4.201   4.724   9.918  0.7903  0.0101 -0.2899
  407MPD2    H7 6139   4.260   0.069   9.906  1.3050 -0.4817 -1.1569
  408TMC3    C1 6140   4.342   4.619   9.776  0.5209  0.2995  0.6305
  408TMC3    C2 6141   4.403   4.503   9.731  0.0099 -0.0341  0.5694
  408TMC3    C3 6142   4.525   4.510   9.670  0.3333 -0.5040 -0.4197
  408TMC3    C4 6143   4.397   0.007   9.742  0.1991  0.3519  0.2118
  408TMC3    C5 6144   4.512   0.006   9.668  0.1862  0.4946  0.5413
  408TMC3    C6 6145   4.577   4.624   9.637  0.6590 -0.0030  0.7523
  408TMC3     C 6146   4.211   4.615   9.838  0.6997  0.3826  0.0927
  408TMC3     O 6147   4.148   4.507   9.844 -0.0858  0.0408 -0.8155
  408TMC3     H 6148   4.363   4.404   9.747 -1.2886  0.4482  0.3299
  408TMC3    H1 6149   4.334   0.095   9.741 -0.4831 -0.1351 -0.5703
  408TMC3    H2 6150   4.665   4.625   9.574  0.0661 -0.4818 -0.0843
  408TMC3    C7 6151   4.594   0.124   9.657  0.0517 -0.4984  0.0062
  408TMC3    C8 6152   4.599   4.389   9.643 -0.0519  0.8165  0.1417
  408TMC3    O1 6153   4.712   0.099   9.650  0.0826 -0.5710 -0.2600
  408TMC3    O2 6154   4.536   4.285   9.641  0.4894 -0.0914  0.0808
  409MPD2     C 6155   3.482   0.469  17.330  0.3214 -1.1125  0.3962
  409MPD2    C1 6156   3.606   0.451  17.378 -0.0940  0.2066  0.1894
  409MPD2    C2 6157   3.698   0.533  17.325 -0.7929  0.7166  0.5218
  409MPD2    C3 6158   3.680   0.620  17.221 -0.8102  0.4144  0.1582
  409MPD2    C4 6159   3.556   0.633  17.168  0.6836 -0.0119 -0.3276
  409MPD2    C5 6160   3.456   0.561  17.231 -0.4799  0.4172  0.2551
  409MPD2     H 6161   3.793   0.527  17.377 -0.0437 -0.2692 -0.9753
  409MPD2    H1 6162   3.533   0.716  17.103 -2.4132 -0.4476  0.2095
  409MPD2    H2 6163   3.401   0.405  17.363 -0.6375 -0.0738  0.0811
  409MPD2    H3 6164   3.350   0.570  17.207 -0.6501  0.7676  1.1119
  409MPD2     N 6165   3.785   0.691  17.163  0.1700 -0.7684  0.0959
  409MPD2    H5 6166   3.757   0.760  17.094  0.1015  0.0905  0.9886
  409MPD2    N1 6167   3.650   0.346  17.458 -0.2548  0.7949 -0.7259
  409MPD2    H7 6168   3.746   0.345  17.492  0.1295  1.3177 -1.8221
  410TMC3    C1 6169   4.012   0.755  17.121  0.4697 -1.3293  0.0157
  410TMC3    C2 6170   4.141   0.732  17.162  0.5515 -0.2394 -0.2038
  410TMC3    C3 6171   4.227   0.819  17.093 -0.5432 -0.6979  0.3914
  410TMC3    C4 6172   3.971   0.830  17.015 -0.8921 -0.5366 -0.1820
  410TMC3    C5 6173   4.066   0.914  16.959  0.0851 -0.0003 -0.3033
  410TMC3    C6 6174   4.198   0.906  16.994 -0.4043  0.4386  0.1267
  410TMC3     C 6175   3.915   0.671  17.190  0.4413 -0.1603 -0.0724
  410TMC3     O 6176   3.968   0.587  17.262 -0.2965  1.0618  0.0070
  410TMC3     H 6177   4.173   0.660  17.237 -1.9286  1.1497  2.2034
  410TMC3    H1 6178   3.867   0.847  16.992 -0.9170  0.6803  0.8351
  410TMC3    H2 6179   4.281   0.970  16.964 -0.2458 -0.4337 -1.2946
  410TMC3    C7 6180   4.035   0.965  16.832 -0.0373 -0.6612 -0.0098
  410TMC3    C8 6181   4.368   0.808  17.125  0.7274 -0.9264  0.5509
  410TMC3    O1 6182   3.924   0.934  16.789  0.3170  0.1139 -0.5455
  410TMC3    O2 6183   4.432   0.904  17.151  0.2763 -0.0536  0.4476
  411MPD2     C 6184   3.912   0.675  14.450 -0.4663  0.1583 -0.0372
  411MPD2    C1 6185   3.865   0.755  14.553  0.3399 -0.5798  0.3206
  411MPD2    C2 6186   3.814   0.685  14.660 -0.3182 -0.1344  0.1559
  411MPD2    C3 6187   3.816   0.544  14.660 -0.5808  0.2213 -0.2935
  411MPD2    C4 6188   3.861   0.468  14.555 -0.2470  0.3312  0.1481
  411MPD2    C5 6189   3.913   0.537  14.453 -0.1299  0.1228  0.1486
  411MPD2     H 6190   3.775   0.738  14.746 -0.0685 -1.6083  1.1777
  411MPD2    H1 6191   3.854   0.360  14.542  1.6751  0.3540 -1.1636
  411MPD2    H2 6192   3.952   0.721  14.361 -1.5449  0.2270 -0.4863
  411MPD2    H3 6193   3.953   0.485  14.366 -4.3869 -0.6531 -1.3303
  411MPD2     N 6194   3.760   0.466  14.769 -0.2045 -0.1066  0.1838
  411MPD2    H5 6195   3.754   0.369  14.741 -0.5202 -0.8368  2.7529
  411MPD2    N1 6196   3.865   0.895  14.535 -0.3265 -0.0995 -0.1185
  411MPD2    H7 6197   3.892   0.937  14.446 -1.0745  0.4878 -0.0703
  412TMC3    C1 6198   3.604   0.424  14.931  0.6296  0.5999 -0.0195
  412TMC3    C2 6199   3.492   0.470  15.001  0.2268 -0.1339  0.5488
  412TMC3    C3 6200   3.387   0.393  15.017  0.7510 -0.5307  1.0193
  412TMC3    C4 6201   3.600   0.295  14.873  0.3941  0.4869  0.0577
  412TMC3    C5 6202   3.480   0.235  14.870  0.0986 -0.1901  0.1480
  412TMC3    C6 6203   3.376   0.281  14.942 -0.0360 -0.5532  1.0326
  412TMC3     C 6204   3.696   0.515  14.880 -0.3103 -0.0448  0.0074
  412TMC3     O 6205   3.701   0.623  14.930  0.2372 -0.3776 -0.1649
  412TMC3     H 6206   3.490   0.571  15.041 -1.0802  0.5894 -1.3163
  412TMC3    H1 6207   3.684   0.253  14.819  0.6034  1.7490 -0.6068
  412TMC3    H2 6208   3.292   0.217  14.965 -1.4742  1.0791  0.3269
  412TMC3    C7 6209   3.440   0.238  14.731  0.0548  0.4200  0.3044
  412TMC3    C8 6210   3.259   0.458  15.007  0.3626  0.2092  0.2687
  412TMC3    O1 6211   3.326   0.281  14.709 -0.0402  0.0008  0.4749
  412TMC3    O2 6212   3.164   0.417  15.068 -0.5326  0.1852  0.0362
  413MPD2     C 6213   0.980   4.366  15.613  0.8867  0.2078 -0.2082
  413MPD2    C1 6214   1.036   4.390  15.494 -0.7024 -0.6376 -0.0887
  413MPD2    C2 6215   1.103   4.296  15.419  0.2888  0.0353 -0.6202
  413MPD2    C3 6216   1.130   4.176  15.485 -0.3790  0.3752 -0.6088
  413MPD2    C4 6217   1.077   4.149  15.604  0.2615  0.2981 -0.7355
  413MPD2    C5 6218   1.000   4.243  15.667 -0.4163 -0.4966  0.1590
  413MPD2     H 6219   1.145   4.316  15.321  0.4392 -0.9615 -0.7586
  413MPD2    H1 6220   1.103   4.056  15.654 -0.9884  0.5843  0.4675
  413MPD2    H2 6221   0.927   4.437  15.675 -1.4946 -1.5627 -0.2090
  413MPD2    H3 6222   0.959   4.214  15.763 -0.9776  0.0370  0.0836
  413MPD2     N 6223   1.213   4.081  15.419 -0.4189 -0.3353 -0.3740
  413MPD2    H5 6224   1.229   4.095  15.320 -2.6332 -1.8267 -0.9421
  413MPD2    N1 6225   1.012   4.515  15.436  0.2063 -0.0288  0.2358
  413MPD2    H7 6226   0.948   4.577  15.484  2.5046  1.4110  1.4203
  414TMC3    C1 6227   1.347   3.890  15.380 -0.3473  0.3516  0.2611
  414TMC3    C2 6228   1.440   3.795  15.427 -0.8906 -0.7261  0.2909
  414TMC3    C3 6229   1.495   3.701  15.344 -0.0848 -0.4047  0.1825
  414TMC3    C4 6230   1.303   3.884  15.248 -0.3224 -0.2504 -0.2384
  414TMC3    C5 6231   1.364   3.793  15.167  0.4985 -0.1618 -0.1485
  414TMC3    C6 6232   1.458   3.703  15.208  0.3355  0.6101 -0.1182
  414TMC3     C 6233   1.271   3.966  15.472 -0.0435 -0.2678  0.0278
  414TMC3     O 6234   1.278   3.942  15.592 -0.1386  0.4359 -0.5689
  414TMC3     H 6235   1.455   3.794  15.535  2.3390 -0.3641 -0.1573
  414TMC3    H1 6236   1.224   3.947  15.210  0.7827  0.4421 -1.3863
  414TMC3    H2 6237   1.497   3.632  15.136 -0.4740 -0.6898  0.7235
  414TMC3    C7 6238   1.295   3.770  15.038  0.4486 -0.6313  0.5279
  414TMC3    C8 6239   1.577   3.594  15.391  0.4013 -0.0366 -0.5841
  414TMC3    O1 6240   1.175   3.758  15.063  0.7518  0.1221 -0.3626
  414TMC3    O2 6241   1.584   3.496  15.315 -0.3615  0.1275 -0.2959
  415TMC3    C1 6242   1.571   2.831   9.902 -0.4728  0.2889 -0.4637
  415TMC3    C2 6243   1.557   2.951   9.830 -0.7730  0.5548 -0.4205
  415TMC3    C3 6244   1.438   2.975   9.776  0.5742 -0.2141  0.7062
  415TMC3    C4 6245   1.460   2.750   9.922  0.3733 -0.0479  0.0901
  415TMC3    C5 6246   1.339   2.786   9.876 -0.9613 -0.2770  0.2788
  415TMC3    C6 6247   1.334   2.890   9.789  0.1217  0.7460 -0.2232
  415TMC3     C 6248   1.667   2.823  10.010 -0.2951  0.1338 -0.3025
  415TMC3     O 6249   1.659   2.722  10.082  0.2686  0.3062  0.0015
  415TMC3     H 6250   1.650   2.996   9.799 -1.5182  0.9713 -2.0918
  415TMC3    H1 6251   1.473   2.663   9.986  0.9810  0.5024  0.7218
  415TMC3    H2 6252   1.246   2.921   9.735 -1.0630 -0.0201  1.2588
  415TMC3    C7 6253   1.245   2.678   9.850  0.8829  0.1496  0.1015
  415TMC3    C8 6254   1.426   3.085   9.681  0.1069 -0.4200  0.1809
  415TMC3    O1 6255   1.191   2.679   9.738  0.3607 -0.1582  0.2085
  415TMC3    O2 6256   1.321   3.090   9.618 -0.6792  0.5461 -0.4473
  416MPD2     C 6257   3.774   1.116  11.490  0.3421  0.5311 -0.6696
  416MPD2    C1 6258   3.709   1.035  11.579 -0.0003  0.2913  0.0837
  416MPD2    C2 6259   3.692   0.907  11.536  0.3990 -0.7750  0.1500
  416MPD2    C3 6260   3.739   0.856  11.418 -0.3781  0.1529 -0.2313
  416MPD2    C4 6261   3.828   0.936  11.353 -0.5812  0.0338  0.1091
  416MPD2    C5 6262   3.835   1.066  11.379  0.5932  0.1103 -0.1652
  416MPD2     H 6263   3.628   0.841  11.593 -1.5787  1.7226  0.7999
  416MPD2    H1 6264   3.865   0.913  11.254 -0.9237 -2.0257  0.4546
  416MPD2    H2 6265   3.792   1.222  11.508 -3.4922  1.2182 -0.9374
  416MPD2    H3 6266   3.896   1.124  11.311  0.1227  0.7934 -0.0014
  416MPD2     N 6267   3.710   0.722  11.374  0.1997  0.1599 -0.1616
  416MPD2    H5 6268   3.649   0.670  11.435  0.9631  1.1272  1.4250
  416MPD2    N1 6269   3.643   1.095  11.685  0.2789  0.4943 -0.2182
  416MPD2    H7 6270   3.618   1.192  11.672  0.9529  0.9251  1.6650
  417TMC3    C1 6271   3.482   1.108  11.850  0.0454 -0.1433 -0.1167
  417TMC3    C2 6272   3.451   1.086  11.979  0.1021  0.4092 -0.1192
  417TMC3    C3 6273   3.347   1.165  12.030  0.4863  0.8338  0.1235
  417TMC3    C4 6274   3.400   1.180  11.761 -0.4775  0.7399  0.5553
  417TMC3    C5 6275   3.293   1.243  11.817 -0.3907  0.1157 -0.3205
  417TMC3    C6 6276   3.268   1.244  11.955  0.5198  0.3709 -0.2674
  417TMC3     C 6277   3.577   1.027  11.786 -0.4296  0.0538  0.2491
  417TMC3     O 6278   3.598   0.915  11.831 -0.2699 -0.2062  0.3685
  417TMC3     H 6279   3.514   1.026  12.044 -0.2467  1.7603  1.4579
  417TMC3    H1 6280   3.414   1.164  11.654  4.2025  3.0089  0.8333
  417TMC3    H2 6281   3.190   1.309  11.991 -3.4904 -4.2012 -0.7285
  417TMC3    C7 6282   3.203   1.304  11.716 -0.0870 -0.2415  0.0751
  417TMC3    C8 6283   3.292   1.134  12.154  0.4044  0.1678 -0.4345
  417TMC3    O1 6284   3.238   1.298  11.598  0.3876 -0.1724  0.5939
  417TMC3    O2 6285   3.207   1.207  12.193  0.0567  0.3162 -0.0802
  418TMC3    C1 6286   2.309   3.193   0.560 -0.2434 -0.0078  0.6255
  418TMC3    C2 6287   2.203   3.259   0.505 -0.2314  0.0389  0.8684
  418TMC3    C3 6288   2.096   3.286   0.591  0.2382 -0.3847  0.2651
  418TMC3    C4 6289   2.318   3.160   0.691  0.7044  0.2828  0.3323
  418TMC3    C5 6290   2.218   3.205   0.774  0.5895 -0.2870  0.1008
  418TMC3    C6 6291   2.102   3.262   0.721  0.4249 -0.3353 -0.9535
  418TMC3     C 6292   2.386   3.109   0.465 -0.0063 -0.6454 -0.2247
  418TMC3     O 6293   2.441   3.012   0.509  0.0931 -0.1526 -0.0877
  418TMC3     H 6294   2.193   3.284   0.401 -1.1715 -0.7337  0.7679
  418TMC3    H1 6295   2.399   3.102   0.733  0.7416 -0.0748 -0.2399
  418TMC3    H2 6296   2.020   3.303   0.779 -0.1249 -2.1518 -0.4355
  418TMC3    C7 6297   2.226   3.165   0.908 -0.5431 -0.0853 -0.4830
  418TMC3    C8 6298   1.968   3.302   0.519 -0.6409  0.8267  0.2098
  418TMC3    O1 6299   2.330   3.106   0.937  0.4425  0.4948 -0.1819
  418TMC3    O2 6300   1.977   3.380   0.422 -0.0059 -0.1276  0.2468
  419MPD2     C 6301   0.738   1.017  12.507 -0.4327  0.0175  0.6226
  419MPD2    C1 6302   0.659   1.127  12.476  0.1487 -0.0805  0.7332
  419MPD2    C2 6303   0.598   1.198  12.580  0.0080 -0.3170 -0.3801
  419MPD2    C3 6304   0.609   1.157  12.710 -0.7826 -0.6095 -0.1974
  419MPD2    C4 6305   0.697   1.051  12.741  0.4912  0.6489 -0.6683
  419MPD2    C5 6306   0.757   0.983  12.638 -0.8751 -0.9457  0.1417
  419MPD2     H 6307   0.542   1.289  12.566 -2.0984 -1.3579  1.2014
  419MPD2    H1 6308   0.724   1.020  12.841 -1.0581 -1.7981 -1.0210
  419MPD2    H2 6309   0.784   0.955  12.431  0.3791 -0.7353  1.7166
  419MPD2    H3 6310   0.808   0.893  12.670 -2.9459 -1.9562  0.6366
  419MPD2     N 6311   0.548   1.230  12.814 -0.4270  0.0863 -0.3443
  419MPD2    H5 6312   0.505   1.315  12.779  0.3500  0.8716  0.6172
  419MPD2    N1 6313   0.640   1.173  12.347 -0.4341 -0.2281 -0.1650
  419MPD2    H7 6314   0.574   1.250  12.348 -2.7518 -2.2397  2.1345
  420TMC3    C1 6315   0.456   1.276  13.033  0.9595  0.5416  0.2520
  420TMC3    C2 6316   0.415   1.401  12.989 -0.3094  0.0891 -0.2681
  420TMC3    C3 6317   0.341   1.479  13.079  0.7580  0.1101 -1.1948
  420TMC3    C4 6318   0.418   1.224  13.155  0.5947  0.1679  0.5526
  420TMC3    C5 6319   0.338   1.306  13.234 -0.5838 -0.0463  0.1849
  420TMC3    C6 6320   0.292   1.431  13.197 -0.2429 -0.7418 -0.1469
  420TMC3     C 6321   0.538   1.193  12.947  0.7170 -0.2812  0.1474
  420TMC3     O 6322   0.588   1.091  12.993 -0.3618  0.1857  0.8051
  420TMC3     H 6323   0.455   1.442  12.897  1.4268 -3.3363 -1.0288
  420TMC3    H1 6324   0.440   1.123  13.187  0.3287  0.1349  0.6287
  420TMC3    H2 6325   0.237   1.499  13.262 -1.2567 -0.6597 -1.0997
  420TMC3    C7 6326   0.273   1.252  13.350  0.7151  0.0215 -0.2195
  420TMC3    C8 6327   0.264   1.586  13.006 -0.1306  0.0620  0.2178
  420TMC3    O1 6328   0.325   1.148  13.394  0.3789  0.3164  0.0929
  420TMC3    O2 6329   0.265   1.587  12.881 -0.3894  0.0586 -0.4368
  421TMC3    C1 6330   1.343   2.476  14.144 -0.1117  0.0776 -0.0695
  421TMC3    C2 6331   1.337   2.602  14.196 -0.5441  0.1699 -0.6611
  421TMC3    C3 6332   1.452   2.638  14.250 -0.5296 -0.4052  0.0404
  421TMC3    C4 6333   1.439   2.378  14.168  0.1839 -0.0943 -0.9052
  421TMC3    C5 6334   1.546   2.421  14.253  0.1172  0.7250  0.0493
  421TMC3    C6 6335   1.545   2.549  14.299  0.0704 -0.6685  0.2018
  421TMC3     C 6336   1.229   2.425  14.062  0.5686 -0.2214  0.1457
  421TMC3     O 6337   1.116   2.459  14.081  0.1045 -0.1680  0.0303
  421TMC3     H 6338   1.253   2.666  14.172 -1.4026 -0.1800  1.3532
  421TMC3    H1 6339   1.413   2.274  14.149  0.5235 -0.4552  0.5855
  421TMC3    H2 6340   1.625   2.591  14.358 -0.0428  0.3530 -0.3830
  421TMC3    C7 6341   1.680   2.368  14.243  0.1596  0.1170 -0.2619
  421TMC3    C8 6342   1.489   2.775  14.274  0.8059  0.8322  0.6989
  421TMC3    O1 6343   1.759   2.412  14.325  0.3269  0.1684 -0.0887
  421TMC3    O2 6344   1.582   2.795  14.350 -0.5902 -0.3498 -0.0114
  422TMC3    C1 6345   3.969   4.050  12.887  0.2010 -0.0674  0.2311
  422TMC3    C2 6346   3.887   4.152  12.924  0.5125 -0.1904  0.0889
  422TMC3    C3 6347   3.762   4.157  12.864  0.3652  0.0143  0.2841
  422TMC3    C4 6348   3.913   3.945  12.827  0.2462  0.6465  0.2706
  422TMC3    C5 6349   3.782   3.935  12.802  0.0843 -0.4674 -0.4214
  422TMC3    C6 6350   3.706   4.047  12.803  0.0157  0.4077  0.3351
  422TMC3     C 6351   4.096   4.098  12.846  0.4578 -0.1737 -0.5283
  422TMC3     O 6352   4.175   4.155  12.922 -0.0666  0.2477 -0.3124
  422TMC3     H 6353   3.934   4.239  12.969  1.2103  0.4184 -1.8035
  422TMC3    H1 6354   3.975   3.862  12.798  3.0852  2.0869  2.1642
  422TMC3    H2 6355   3.607   4.053  12.758  1.5039 -0.0110 -2.9373
  422TMC3    C7 6356   3.729   3.805  12.763 -0.1286  0.0719  0.4045
  422TMC3    C8 6357   3.736   4.295  12.823 -0.9594 -0.4554 -0.6536
  422TMC3    O1 6358   3.798   3.706  12.765 -0.1917  0.4453  0.2064
  422TMC3    O2 6359   3.827   4.382  12.822 -0.3625  0.7039 -0.1680
  423MPD2     C 6360   0.691   0.026   0.795 -0.2186  0.6114 -0.8321
  423MPD2    C1 6361   0.749   0.122   0.705  0.4202  0.1240 -0.6954
  423MPD2    C2 6362   0.784   0.093   0.573 -0.5709  0.3690  0.4014
  423MPD2    C3 6363   0.752   4.701   0.530  0.0445  0.1015  0.5885
  423MPD2    C4 6364   0.687   4.609   0.613  0.1894 -0.5222  0.6100
  423MPD2    C5 6365   0.662   4.639   0.742  0.0390 -0.0789 -0.0528
  423MPD2     H 6366   0.822   0.164   0.501 -1.5609 -0.2714 -0.7511
  423MPD2    H1 6367   0.666   4.511   0.571 -1.0155  0.0842 -0.2070
  423MPD2    H2 6368   0.666   0.047   0.898 -0.2130  0.9916 -0.9070
  423MPD2    H3 6369   0.605   4.571   0.804 -0.6470  0.6372  0.0968
  423MPD2     N 6370   0.772   4.656   0.395 -0.6256  0.3594  0.3878
  423MPD2    H5 6371   0.729   4.568   0.366 -0.2195 -0.1041  1.1944
  423MPD2    N1 6372   0.790   0.245   0.760  0.0405 -0.0514  0.3142
  423MPD2    H7 6373   0.864   0.294   0.712 -0.7870  1.2369  0.3753
  424TMC3    C1 6374   0.800   0.422   0.918  0.6937 -0.2184 -0.2822
  424TMC3    C2 6375   0.925   0.376   0.961  0.0804 -0.1939 -0.0060
  424TMC3    C3 6376   0.956   0.401   1.089  0.4435 -0.2079 -0.7051
  424TMC3    C4 6377   0.727   0.505   0.996  0.1197 -0.1840 -0.0398
  424TMC3    C5 6378   0.772   0.532   1.126 -0.2027  0.2226 -0.2846
  424TMC3    C6 6379   0.892   0.488   1.176 -0.2877  0.3751  1.2441
  424TMC3     C 6380   0.718   0.310   0.858  0.3970 -0.4716 -0.3155
  424TMC3     O 6381   0.620   0.273   0.918 -0.7843 -0.6371  0.7951
  424TMC3     H 6382   0.986   0.312   0.898  0.5955 -0.1692  0.4750
  424TMC3    H1 6383   0.623   0.527   0.974 -0.4470 -1.3130  1.4776
  424TMC3    H2 6384   0.919   0.505   1.279  1.5187  1.0582  0.6599
  424TMC3    C7 6385   0.715   0.653   1.190  0.0709 -0.3049  0.4980
  424TMC3    C8 6386   1.011   0.285   1.143 -0.0148 -0.6125  0.4345
  424TMC3    O1 6387   0.794   0.731   1.239  0.0664  0.2085 -0.4233
  424TMC3    O2 6388   0.984   0.182   1.085 -0.0129 -0.4831  0.1847
  425MPD2     C 6389   0.067   4.016  17.727  0.6639 -0.8345  0.2976
  425MPD2    C1 6390   4.699   3.964  17.649  0.0998  0.1389 -0.1646
  425MPD2    C2 6391   4.576   4.032  17.643 -0.2902  0.1502 -0.3462
  425MPD2    C3 6392   4.558   4.146  17.718 -0.0327  0.2745  0.2613
  425MPD2    C4 6393   4.659   4.194   0.053 -0.5436 -0.0368  0.1329
  425MPD2    C5 6394   0.043   4.127   0.054  0.9985 -0.2556  0.3045
  425MPD2     H 6395   4.493   3.996  17.583  1.8336 -0.6871 -2.7942
  425MPD2    H1 6396   4.647   4.266   0.134 -1.6213  0.4500 -0.4562
  425MPD2    H2 6397   0.167   3.973  17.724  1.1950  0.2862  1.8269
  425MPD2    H3 6398   0.125   4.179   0.102  2.0671 -0.5569 -1.2034
  425MPD2     N 6399   4.422   4.191  17.725 -0.0507 -0.1484  0.3171
  425MPD2    H5 6400   4.356   4.150  17.659  0.0327  1.6466 -0.8914
  425MPD2    N1 6401   4.726   3.845  17.588 -0.2130  0.2037  0.5311
  425MPD2    H7 6402   0.081   3.807  17.609 -1.1371 -2.6230 -0.4715
  426TMC3    C1 6403   4.723   3.680  17.428 -0.6755  0.4264  1.0007
  426TMC3    C2 6404   4.702   3.666  17.293  0.8864  0.5693 -0.1067
  426TMC3    C3 6405   0.028   3.556  17.229 -0.0321 -0.7322  0.4764
  426TMC3    C4 6406   0.063   3.599  17.499  0.7383 -0.0072 -0.0476
  426TMC3    C5 6407   0.136   3.501  17.434 -0.1205  0.4219  0.4726
  426TMC3    C6 6408   0.118   3.475  17.302  0.0186 -0.3403  0.1951
  426TMC3     C 6409   4.656   3.798  17.483 -0.3374 -0.0148 -0.5369
  426TMC3     O 6410   4.570   3.861  17.425 -0.3025  0.4931 -0.9030
  426TMC3     H 6411   4.631   3.732  17.244 -1.1607 -0.4531  1.4628
  426TMC3    H1 6412   0.068   3.612  17.607  1.9918 -0.4199 -0.0625
  426TMC3    H2 6413   0.166   3.391  17.254 -1.9392 -1.5612  0.3866
  426TMC3    C7 6414   0.165   3.389  17.517 -0.0442 -0.1270  0.9630
  426TMC3    C8 6415   4.736   3.514  17.093 -0.6830  0.4721 -0.4764
  426TMC3    O1 6416   0.267   3.330  17.486  0.0460 -0.1155 -0.0458
  426TMC3    O2 6417   0.074   3.442  17.029 -0.3781  0.0596 -0.7732
  427MPD2     C 6418   3.150   1.089  14.585 -0.2809  0.7849 -0.2056
  427MPD2    C1 6419   3.132   1.076  14.718  0.4184  0.7135 -0.2330
  427MPD2    C2 6420   3.008   1.081  14.766  0.3819  0.2588  0.0681
  427MPD2    C3 6421   2.899   1.091  14.685 -0.6528  0.5131  0.0178
  427MPD2    C4 6422   2.918   1.076  14.548 -0.6250  0.5804 -0.0715
  427MPD2    C5 6423   3.043   1.087  14.500 -0.0826 -0.4189 -0.1080
  427MPD2     H 6424   3.005   1.091  14.874 -0.0479 -0.8854  0.1674
  427MPD2    H1 6425   2.831   1.067  14.483  0.0230 -1.3567 -0.6495
  427MPD2    H2 6426   3.253   1.092  14.552 -0.0194 -1.6555  0.4033
  427MPD2    H3 6427   3.048   1.092  14.392  1.6442 -1.8395 -0.0970
  427MPD2     N 6428   2.768   1.095  14.731 -0.4555 -0.3808  0.3244
  427MPD2    H5 6429   2.691   1.094  14.665  0.1227 -0.6097 -0.3483
  427MPD2    N1 6430   3.238   1.064  14.819 -0.2250 -0.0794 -0.3983
  427MPD2    H7 6431   3.205   1.052  14.914 -1.2799  0.2383 -0.7243
  428TMC3    C1 6432   3.443   0.993  14.904 -0.9619  0.3137  0.0593
  428TMC3    C2 6433   3.362   0.911  14.983  0.4598 -0.2559 -0.5008
  428TMC3    C3 6434   3.403   0.895  15.115  1.0047  0.1335  0.2036
  428TMC3    C4 6435   3.576   1.032  14.941 -0.2664 -0.7872 -0.5232
  428TMC3    C5 6436   3.619   1.001  15.069 -1.1310 -0.3615 -0.3497
  428TMC3    C6 6437   3.532   0.931  15.150 -0.3171 -0.5231 -0.4025
  428TMC3     C 6438   3.371   1.053  14.791  0.7271 -0.2257 -0.6139
  428TMC3     O 6439   3.440   1.069  14.691 -0.0157  0.5280 -0.0942
  428TMC3     H 6440   3.279   0.862  14.934 -0.2547  0.3894  0.0770
  428TMC3    H1 6441   3.634   1.105  14.885 -1.1900  0.1832 -0.2210
  428TMC3    H2 6442   3.575   0.908  15.246  3.7310  0.7550 -1.9137
  428TMC3    C7 6443   3.718   1.089  15.137 -0.2755 -0.3370 -0.3618
  428TMC3    C8 6444   3.327   0.800  15.192  0.0909  0.4710 -0.0377
  428TMC3    O1 6445   3.695   1.106  15.257 -0.0814  1.2753 -0.3924
  428TMC3    O2 6446   3.206   0.812  15.176  0.3769  0.1250 -0.1834
  429MPD2     C 6447   4.277   1.175   0.332 -0.2149  0.0905  0.1684
  429MPD2    C1 6448   4.342   1.104   0.228  0.4457 -0.2463  0.2585
  429MPD2    C2 6449   4.373   1.170   0.113 -0.0029  0.1578  0.3617
  429MPD2    C3 6450   4.355   1.306   0.099  0.2446  0.7700 -0.7229
  429MPD2    C4 6451   4.302   1.378   0.205 -0.2139 -0.1743  0.6505
  429MPD2    C5 6452   4.258   1.313   0.316  0.3069 -0.0267  0.1694
  429MPD2     H 6453   4.431   1.108   0.045  0.2240  1.5883 -0.7679
  429MPD2    H1 6454   4.298   1.485   0.191 -0.9790 -0.4834 -1.4151
  429MPD2    H2 6455   4.223   1.132   0.415 -0.6034  0.0807 -0.0891
  429MPD2    H3 6456   4.201   1.382   0.378  1.2069  0.6504  0.2467
  429MPD2     N 6457   4.405   1.363  17.731  0.1264 -0.2991  0.0270
  429MPD2    H5 6458   4.459   1.308  17.665  1.6597  0.5243  0.5968
  429MPD2    N1 6459   4.374   0.967   0.237 -0.4930  0.0754 -0.3114
  429MPD2    H7 6460   4.388   0.925   0.145 -0.3981 -2.8365  1.0366
  430TMC3    C1 6461   4.470   1.533  17.575 -0.2675  0.5331 -0.0011
  430TMC3    C2 6462   4.446   1.655  17.513 -1.0304 -0.4590  0.0137
  430TMC3    C3 6463   4.534   1.701  17.423 -0.6219  0.2322 -0.7344
  430TMC3    C4 6464   4.593   1.469  17.565  0.4886  0.7471 -0.4261
  430TMC3    C5 6465   4.673   1.516  17.463 -0.0831  0.4807  0.2557
  430TMC3    C6 6466   4.655   1.640  17.408 -0.6193 -0.7567 -0.4870
  430TMC3     C 6467   4.399   1.500  17.699  0.5375  0.9099  0.0786
  430TMC3     O 6468   4.322   1.586  17.732 -0.0896  0.0080 -0.4366
  430TMC3     H 6469   4.359   1.713  17.542 -0.0727  0.8244  0.3341
  430TMC3    H1 6470   4.624   1.386  17.626 -1.2453  1.1513  1.0006
  430TMC3    H2 6471   4.729   1.680  17.340  0.6787  0.5826  1.7242
  430TMC3    C7 6472   0.025   1.417  17.393  0.1452  0.9151  0.2927
  430TMC3    C8 6473   4.492   1.758  17.302 -0.0028  0.7521  0.6743
  430TMC3    O1 6474   0.021   1.299  17.428  0.1417  0.5162  0.1603
  430TMC3    O2 6475   4.579   1.788  17.225 -0.2759  0.2207 -0.0544
  431MPD2     C 6476   0.655   1.888  12.531 -0.2699 -0.1412 -0.4456
  431MPD2    C1 6477   0.742   1.895  12.429 -0.4539 -0.7158 -0.1508
  431MPD2    C2 6478   0.721   1.807  12.319 -0.3878 -0.5763 -0.3760
  431MPD2    C3 6479   0.615   1.722  12.314  0.1357 -0.1418  0.1021
  431MPD2    C4 6480   0.520   1.725  12.414  0.2333 -0.2484  0.8158
  431MPD2    C5 6481   0.544   1.802  12.524 -0.5084 -0.2281 -0.3281
  431MPD2     H 6482   0.791   1.798  12.238 -0.3594  3.1185 -0.7683
  431MPD2    H1 6483   0.431   1.663  12.410 -0.1070  0.4166 -1.7317
  431MPD2    H2 6484   0.657   1.956  12.615  0.2022 -0.2822 -0.3460
  431MPD2    H3 6485   0.470   1.810  12.602  0.8753  2.8784  0.6750
  431MPD2     N 6486   0.608   1.635  12.203 -0.0603 -0.1141 -0.1065
  431MPD2    H5 6487   0.672   1.653  12.126  1.3054  3.2415  1.8231
  431MPD2    N1 6488   0.860   1.975  12.421 -0.1416 -0.3246 -0.1962
  431MPD2    H7 6489   0.925   1.966  12.344  0.3346 -0.0346  0.1703
  432TMC3    C1 6490   0.533   1.430  12.103  0.3297 -0.1403 -0.9293
  432TMC3    C2 6491   0.630   1.456  12.005  0.1804  0.0173  0.0599
  432TMC3    C3 6492   0.723   1.364  11.973 -0.1009  0.2070  0.0059
  432TMC3    C4 6493   0.532   1.298  12.146  0.8281  0.9071  0.6134
  432TMC3    C5 6494   0.646   1.217  12.127 -0.2432  0.0045 -0.7837
  432TMC3    C6 6495   0.740   1.242  12.035 -0.0182  0.7604 -0.0511
  432TMC3     C 6496   0.541   1.514  12.218  0.4684  0.5543  0.1646
  432TMC3     O 6497   0.497   1.460  12.318  0.1456 -0.5319 -0.7352
  432TMC3     H 6498   0.627   1.557  11.965 -0.4063 -0.2702 -0.6090
  432TMC3    H1 6499   0.456   1.261  12.213  2.6644 -1.9173  1.1479
  432TMC3    H2 6500   0.822   1.171  12.024 -1.6374 -1.0278 -0.5551
  432TMC3    C7 6501   0.692   1.120  12.234 -0.2497  0.0484 -0.5216
  432TMC3    C8 6502   0.804   1.401  11.851  0.3235 -0.0485  0.3396
  432TMC3    O1 6503   0.794   1.051  12.218  0.2333  0.2075  0.1193
  432TMC3    O2 6504   0.735   1.458  11.762 -0.2913  0.3086  0.2421
  433MPD2     C 6505   4.089   4.680  10.897  0.2789 -0.2456  0.4748
  433MPD2    C1 6506   4.212   4.705  10.946 -1.0897 -0.3496 -0.0850
  433MPD2    C2 6507   4.235   4.721  11.082 -0.1593 -0.8831 -0.1653
  433MPD2    C3 6508   4.124   4.694  11.167  0.4565  0.0819 -0.6423
  433MPD2    C4 6509   3.998   4.664  11.112 -0.4844  0.3342 -0.1546
  433MPD2    C5 6510   3.986   4.664  10.980 -0.4523  0.4753 -0.1586
  433MPD2     H 6511   4.332   0.006  11.124 -0.5416  1.7098 -0.6497
  433MPD2    H1 6512   3.916   4.637  11.177 -0.2767 -0.8441 -0.3757
  433MPD2    H2 6513   4.071   4.691  10.791 -0.2502  1.1542  0.7093
  433MPD2    H3 6514   3.886   4.643  10.942 -0.3305  1.7608 -1.2256
  433MPD2     N 6515   4.145   4.678  11.305 -0.0869  0.3104 -0.0545
  433MPD2    H5 6516   4.235   4.703  11.346  0.2002  2.3283 -1.9328
  433MPD2    N1 6517   4.326   4.706  10.867  0.1480 -1.0283 -0.0197
  433MPD2    H7 6518   4.418   4.716  10.909 -0.4550 -0.1455  1.0864
  434TMC3    C1 6519   4.457   4.609  10.703  0.3020  0.8270  0.2375
  434TMC3    C2 6520   4.534   4.547  10.799  0.3138  0.0999 -0.1917
  434TMC3    C3 6521   4.653   4.495  10.754  0.0485  0.0278 -0.3353
  434TMC3    C4 6522   4.493   4.609  10.570  0.0069 -0.0912 -0.0351
  434TMC3    C5 6523   4.595   4.529  10.535 -0.5975  0.7535 -0.4386
  434TMC3    C6 6524   4.688   4.473  10.622  0.8060 -0.4378  0.2849
  434TMC3     C 6525   4.329   4.661  10.739 -0.4339  0.0132  0.4127
  434TMC3     O 6526   4.245   4.635  10.651 -0.0003 -1.0173 -0.2360
  434TMC3     H 6527   4.501   4.544  10.902  2.1525  1.5761  0.4343
  434TMC3    H1 6528   4.420   4.634  10.494  0.1489  0.2611 -0.0562
  434TMC3    H2 6529   0.022   4.398  10.588  0.1102  0.2580 -2.7049
  434TMC3    C7 6530   4.616   4.496  10.397 -0.2526  0.3170 -0.5002
  434TMC3    C8 6531   4.735   4.428  10.852  0.1578  0.5190 -0.9599
  434TMC3    O1 6532   4.734   4.485  10.364 -0.1128  0.1175  0.2857
  434TMC3    O2 6533   4.678   4.410  10.954  0.8182  0.1608  0.1352
  435MPD2     C 6534   1.652   0.140  15.555  0.2547 -0.2094 -0.2077
  435MPD2    C1 6535   1.610   0.163  15.687 -0.7060 -0.3871  0.5704
  435MPD2    C2 6536   1.687   0.114  15.789 -0.0277  0.3355 -0.8175
  435MPD2    C3 6537   1.792   0.035  15.765  0.0280  0.3325 -0.4315
  435MPD2    C4 6538   1.826   0.003  15.636 -0.3383 -0.1226 -0.2627
  435MPD2    C5 6539   1.765   0.062  15.530  0.4878 -0.1493  0.3597
  435MPD2     H 6540   1.665   0.139  15.892 -0.0095 -2.3706 -0.1594
  435MPD2    H1 6541   1.913   4.685  15.603 -1.8339 -1.6968 -1.5956
  435MPD2    H2 6542   1.602   0.189  15.472 -0.4797 -1.0183 -0.2417
  435MPD2    H3 6543   1.800   0.044  15.429  1.0373 -1.2748  0.7522
  435MPD2     N 6544   1.856   4.711  15.879  0.8227  0.4638  0.8173
  435MPD2    H5 6545   1.805   4.720  15.966 -1.5398  1.2073 -0.6533
  435MPD2    N1 6546   1.489   0.225  15.728 -0.3412 -0.7175  0.3615
  435MPD2    H7 6547   1.462   0.235  15.826  0.9136 -0.5645  0.6994
  436TMC3    C1 6548   1.129   0.319  15.868  0.0887 -0.0977  0.0184
  436TMC3    C2 6549   1.228   0.264  15.793  0.3077 -0.3969 -0.3142
  436TMC3    C3 6550   1.289   0.348  15.702  0.4405 -0.2411  1.0681
  436TMC3    C4 6551   1.090   0.447  15.853  0.0623 -0.6104  0.1220
  436TMC3    C5 6552   1.150   0.520  15.751 -0.6515 -0.3294 -0.0849
  436TMC3    C6 6553   1.250   0.475  15.679 -0.0710 -0.1686  0.1011
  436TMC3     C 6554   1.057   0.237  15.961 -0.3245 -0.6675  0.7001
  436TMC3     O 6555   1.095   0.118  15.961  0.6401 -0.0489 -0.3007
  436TMC3     H 6556   1.246   0.158  15.795  1.5136 -0.1320  3.2814
  436TMC3    H1 6557   0.998   0.482  15.898  0.2322  1.4943 -1.1667
  436TMC3    H2 6558   1.281   0.545  15.602  1.9761 -0.7047  0.4444
  436TMC3    C7 6559   1.160   0.659  15.776  0.1685  0.3663 -0.5388
  436TMC3    C8 6560   1.420   0.306  15.642 -0.0377 -0.1465  0.1152
  436TMC3    O1 6561   1.267   0.708  15.753 -0.3137  0.1678  0.5401
  436TMC3    O2 6562   1.459   0.355  15.536  0.3389 -0.3035 -0.2177
  437TMC3    C1 6563   0.155   2.268  13.018  0.3454  0.0327  0.0442
  437TMC3    C2 6564   0.038   2.250  12.963  0.8006  0.3045  0.0866
  437TMC3    C3 6565   0.024   2.287  12.829  0.0014  0.3104 -0.8725
  437TMC3    C4 6566   0.262   2.312  12.950 -0.2135  0.1030  1.3462
  437TMC3    C5 6567   0.248   2.338  12.817 -0.3922 -0.0134  0.1881
  437TMC3    C6 6568   0.123   2.333  12.752  0.0915 -1.3998 -0.1643
  437TMC3     C 6569   0.164   2.227  13.159  0.6117 -0.6146 -0.0336
  437TMC3     O 6570   0.059   2.221  13.220  0.4203  0.0525 -0.0754
  437TMC3     H 6571   4.684   2.221  13.013  1.9676  0.4862  2.2955
  437TMC3    H1 6572   0.354   2.336  13.002  0.3119 -1.2516  1.0357
  437TMC3    H2 6573   0.117   2.354  12.646  0.9544  0.2686  0.1258
  437TMC3    C7 6574   0.353   2.403  12.753 -0.4570  0.0504  0.3485
  437TMC3    C8 6575   4.631   2.239  12.764  0.6262 -0.4327  0.8867
  437TMC3    O1 6576   0.325   2.493  12.673 -0.4566  0.6998  0.0142
  437TMC3    O2 6577   4.553   2.183  12.837  0.1255 -0.0977  0.5158
  438MPD2     C 6578   2.259   2.843  16.710  0.3814  0.8120  0.5766
  438MPD2    C1 6579   2.365   2.788  16.776 -0.2177  0.2744  0.2285
  438MPD2    C2 6580   2.386   2.812  16.911  0.2371 -0.6108  0.7103
  438MPD2    C3 6581   2.303   2.907  16.974  0.8711  1.0339 -0.0932
  438MPD2    C4 6582   2.203   2.966  16.910 -0.2067  0.0589  0.4118
  438MPD2    C5 6583   2.177   2.931  16.783  0.3757  0.1257  0.2486
  438MPD2     H 6584   2.452   2.751  16.972 -0.4308 -1.2248  0.8236
  438MPD2    H1 6585   2.142   3.041  16.959 -0.7472 -1.3503  1.8852
  438MPD2    H2 6586   2.226   2.816  16.610  3.0469 -0.1963 -0.0340
  438MPD2    H3 6587   2.091   2.973  16.732  0.7397 -1.7222 -1.9195
  438MPD2     N 6588   2.322   2.941  17.109  0.5075  0.2807  0.0159
  438MPD2    H5 6589   2.257   3.005  17.153  0.1426  0.0235 -0.1449
  438MPD2    N1 6590   2.442   2.686  16.716 -0.6464  0.0850  0.1003
  438MPD2    H7 6591   2.505   2.636  16.776 -1.2851 -0.0687  0.6431
  439TMC3    C1 6592   2.514   2.517  16.568 -0.3490  0.1751 -0.0618
  439TMC3    C2 6593   2.485   2.441  16.455  0.1648  0.3285 -0.6437
  439TMC3    C3 6594   2.558   2.334  16.436  1.1174 -0.4220 -0.3648
  439TMC3    C4 6595   2.612   2.477  16.664  0.1498  0.1168  0.4088
  439TMC3    C5 6596   2.683   2.366  16.632 -0.7398 -1.0336  0.6755
  439TMC3    C6 6597   2.653   2.290  16.525 -0.0465 -0.6916  0.6311
  439TMC3     C 6598   2.449   2.645  16.589 -0.3167 -0.2346  0.1531
  439TMC3     O 6599   2.378   2.692  16.503 -0.0144 -0.6382  0.1951
  439TMC3     H 6600   2.420   2.488  16.382 -1.9844 -0.7487  0.5851
  439TMC3    H1 6601   2.640   2.538  16.750  0.8106  0.4016 -0.0043
  439TMC3    H2 6602   2.717   2.208  16.495  0.5436 -0.3872  1.0566
  439TMC3    C7 6603   2.783   2.329  16.728  0.1465  0.0448 -0.5995
  439TMC3    C8 6604   2.563   2.270  16.298  0.5923  0.9054  0.4416
  439TMC3    O1 6605   2.805   2.408  16.822  0.0382  0.4034 -0.4182
  439TMC3    O2 6606   2.593   2.154  16.292 -0.7123  0.5760 -0.2834
  440MPD2     C 6607   1.341   3.163  15.007  0.4933  0.0266 -0.5101
  440MPD2    C1 6608   1.415   3.227  15.105  0.3506 -1.3182 -0.3316
  440MPD2    C2 6609   1.536   3.180  15.147  0.7207 -0.2030 -0.0124
  440MPD2    C3 6610   1.582   3.058  15.110  0.0180  0.3542 -0.0920
  440MPD2    C4 6611   1.510   2.992  15.012 -0.1135 -0.0704  0.3384
  440MPD2    C5 6612   1.398   3.043  14.959 -0.1906  0.0914  0.0331
  440MPD2     H 6613   1.583   3.238  15.225  1.2519 -1.9470  0.9694
  440MPD2    H1 6614   1.536   2.891  14.982 -0.7382 -0.2884  0.5489
  440MPD2    H2 6615   1.256   3.211  14.960 -0.6715 -1.0293  0.5409
  440MPD2    H3 6616   1.345   2.984  14.885 -1.5584  1.3099  0.0381
  440MPD2     N 6617   1.685   2.992  15.182  0.3390 -0.3305 -0.0960
  440MPD2    H5 6618   1.685   2.892  15.162  1.2465 -0.4022  0.2705
  440MPD2    N1 6619   1.367   3.343  15.170  0.5979 -0.1596  0.1306
  440MPD2    H7 6620   1.421   3.366  15.252 -1.0489  0.0131  1.1617
  441TMC3    C1 6621   1.844   2.945  15.348 -0.0891 -1.1580 -0.4330
  441TMC3    C2 6622   1.942   3.008  15.415 -0.8164 -0.3117  1.0173
  441TMC3    C3 6623   1.945   2.986  15.550  0.0038 -0.5754 -0.3592
  441TMC3    C4 6624   1.768   2.847  15.401 -0.0963  0.2016  1.1237
  441TMC3    C5 6625   1.787   2.818  15.531  0.5602 -0.2839 -0.2873
  441TMC3    C6 6626   1.873   2.886  15.607 -0.6350  0.6109  0.0745
  441TMC3     C 6627   1.766   3.046  15.275  0.9498  0.0133  0.7163
  441TMC3     O 6628   1.780   3.167  15.311  0.2647  0.4358 -0.1686
  441TMC3     H 6629   1.984   3.096  15.370  1.3439 -2.3107 -0.8639
  441TMC3    H1 6630   1.690   2.796  15.347  0.5868  0.5972 -0.2313
  441TMC3    H2 6631   1.882   2.868  15.713  1.4283  0.7260 -0.0658
  441TMC3    C7 6632   1.670   2.767  15.593  0.3128 -0.4104 -0.5030
  441TMC3    C8 6633   1.929   3.106  15.630 -0.0692  0.1624  0.6177
  441TMC3    O1 6634   1.560   2.798  15.549 -0.0555 -0.0904  0.2342
  441TMC3    O2 6635   1.941   3.094  15.751 -0.0953 -0.1095 -0.2583
  442MPD2     C 6636   4.099   3.500  16.555 -0.1683 -0.0243  0.0600
  442MPD2    C1 6637   4.067   3.422  16.667 -0.1076  0.4970 -0.0085
  442MPD2    C2 6638   4.085   3.283  16.655 -0.0476 -0.0186  0.1330
  442MPD2    C3 6639   4.116   3.222  16.538  0.0985 -0.0356  0.5283
  442MPD2    C4 6640   4.137   3.293  16.425  0.1849 -0.1518 -0.2520
  442MPD2    C5 6641   4.126   3.433  16.434  0.0333 -0.3749  0.3779
  442MPD2     H 6642   4.073   3.220  16.742 -0.8392 -0.0704 -0.0151
  442MPD2    H1 6643   4.169   3.246  16.332  0.8021  0.0696 -0.1558
  442MPD2    H2 6644   4.084   3.607  16.560  2.2292  0.2482  1.7303
  442MPD2    H3 6645   4.150   3.487  16.343  0.9236 -1.8175 -0.2512
  442MPD2     N 6646   4.118   3.082  16.519  0.2989  0.5369 -0.2595
  442MPD2    H5 6647   4.111   3.058  16.421 -0.3722 -0.1898 -0.0366
  442MPD2    N1 6648   4.014   3.471  16.791  0.3335 -0.1418 -0.0417
  442MPD2    H7 6649   3.996   3.405  16.867  4.3320  0.9100  1.8096
  443TMC3    C1 6650   3.915   3.635  16.935 -0.2848  0.3169 -0.3243
  443TMC3    C2 6651   3.871   3.760  16.954  0.0809 -0.0309  0.7365
  443TMC3    C3 6652   3.753   3.781  17.027  0.7664 -0.1026  0.3345
  443TMC3    C4 6653   3.861   3.532  17.011 -0.1424  0.1361  0.7426
  443TMC3    C5 6654   3.766   3.567  17.109  0.2815  0.2848 -1.3209
  443TMC3    C6 6655   3.702   3.685  17.114  0.3278 -0.3802 -0.1937
  443TMC3     C 6656   3.987   3.603  16.812 -0.7575  0.0789  0.5037
  443TMC3     O 6657   3.992   3.701  16.743  0.3943 -0.1149 -0.1261
  443TMC3     H 6658   3.906   3.845  16.898 -3.5623  0.0436 -1.4461
  443TMC3    H1 6659   3.903   3.432  17.019  1.8558  1.1414  2.9928
  443TMC3    H2 6660   3.624   3.710  17.185  0.3253  1.1907 -0.7484
  443TMC3    C7 6661   3.713   3.466  17.194  0.2977  0.9032  0.1243
  443TMC3    C8 6662   3.692   3.917  17.040 -0.2255  0.1944  0.2152
  443TMC3    O1 6663   3.713   3.349  17.166  0.4269 -0.2198  0.0723
  443TMC3    O2 6664   3.692   3.968  17.151 -0.4530  0.6987  0.0173
  444MPD2     C 6665   4.182   3.330  17.108  0.4758 -0.2114  0.2773
  444MPD2    C1 6666   4.112   3.215  17.142  0.4368 -0.4179  0.8124
  444MPD2    C2 6667   4.135   3.100  17.074 -0.0757 -0.3378 -0.5889
  444MPD2    C3 6668   4.236   3.088  16.979 -0.3852  0.6761  0.3778
  444MPD2    C4 6669   4.298   3.202  16.945 -0.5313  0.0588 -0.5015
  444MPD2    C5 6670   4.274   3.324  17.006 -0.0483  0.0047  0.1718
  444MPD2     H 6671   4.084   3.011  17.107  2.2956 -0.8381  1.8222
  444MPD2    H1 6672   4.381   3.187  16.877 -1.7185 -0.9842 -1.7358
  444MPD2    H2 6673   4.171   3.413  17.178  1.5362 -1.5375  2.0155
  444MPD2    H3 6674   4.334   3.413  16.994 -1.4366  0.6045 -2.3055
  444MPD2     N 6675   4.263   2.952  16.941 -0.3512 -0.5799  0.0778
  444MPD2    H5 6676   4.205   2.879  16.981 -1.9048  1.6843  1.9458
  444MPD2    N1 6677   4.027   3.205  17.255 -0.2696  0.1148  0.3979
  444MPD2    H7 6678   4.001   3.110  17.277  0.2266 -0.1899 -0.3323
  445TMC3    C1 6679   4.409   2.778  16.886  0.1099  0.1990  0.3295
  445TMC3    C2 6680   4.340   2.701  16.973 -0.6232  0.3743 -0.0690
  445TMC3    C3 6681   4.393   2.576  17.011  0.1326 -0.4542 -0.9967
  445TMC3    C4 6682   4.526   2.741  16.833 -0.4416 -0.5262  0.9031
  445TMC3    C5 6683   4.558   2.614  16.851  0.1991 -0.0924  0.4780
  445TMC3    C6 6684   4.499   2.524  16.941  0.3939  0.4376 -0.1659
  445TMC3     C 6685   4.369   2.917  16.865 -0.6757  0.4213  1.3440
  445TMC3     O 6686   4.445   2.978  16.795 -0.1200 -0.1149  0.0005
  445TMC3     H 6687   4.257   2.740  17.030 -0.3845 -0.4836  0.8758
  445TMC3    H1 6688   4.585   2.806  16.768 -1.3623  0.4885  1.0755
  445TMC3    H2 6689   4.528   2.425  16.974  1.2601  0.7398 -0.0188
  445TMC3    C7 6690   4.662   2.564  16.769 -0.2243 -0.2250 -0.1016
  445TMC3    C8 6691   4.307   2.495  17.097  0.1372  0.2191  0.8492
  445TMC3    O1 6692   0.011   2.642  16.734  0.0574  0.0928  0.6694
  445TMC3    O2 6693   4.197   2.540  17.121  0.1940  0.3184 -0.0584
  446MPD2     C 6694   4.206   4.089  11.277 -0.1322 -0.0837 -0.2739
  446MPD2    C1 6695   4.162   4.226  11.265  0.3349  0.2047 -0.0604
  446MPD2    C2 6696   4.255   4.326  11.263 -0.0223  0.2522 -0.3969
  446MPD2    C3 6697   4.389   4.297  11.274 -0.3215 -0.6275  0.6854
  446MPD2    C4 6698   4.429   4.163  11.281 -0.0859  0.2104  0.0083
  446MPD2    C5 6699   4.340   4.056  11.293 -0.1083 -0.0444 -0.0657
  446MPD2     H 6700   4.227   4.429  11.245 -1.4403  0.0357  0.5884
  446MPD2    H1 6701   4.533   4.132  11.285 -0.3947 -0.5555  2.5880
  446MPD2    H2 6702   4.143   4.001  11.273 -1.3470  0.8021 -0.5701
  446MPD2    H3 6703   4.372   3.953  11.304  0.9167  0.3897  0.9927
  446MPD2     N 6704   4.474   4.411  11.277 -0.1343 -0.3315 -0.2192
  446MPD2    H5 6705   4.434   4.504  11.263 -0.7298 -0.6185 -0.4042
  446MPD2    N1 6706   4.025   4.261  11.248  0.9347  0.1106 -0.1758
  446MPD2    H7 6707   3.996   4.358  11.244 -1.3232 -0.5135  0.7391
  447TMC3    C1 6708   4.671   4.539  11.287 -0.5761 -0.0373 -0.0952
  447TMC3    C2 6709   4.627   4.624  11.186  0.1325 -0.3089 -0.0092
  447TMC3    C3 6710   4.730   4.687  11.116 -0.3622 -0.2438 -0.2841
  447TMC3    C4 6711   0.065   4.526  11.320  0.0890 -0.2901  0.4648
  447TMC3    C5 6712   0.158   4.594  11.255 -0.0709  0.0299  0.8247
  447TMC3    C6 6713   0.124   4.665  11.148  0.0750  1.1237  0.0325
  447TMC3     C 6714   4.612   4.407  11.303  0.0262 -0.0710 -0.0625
  447TMC3     O 6715   4.685   4.311  11.315  0.0244  0.2384  0.0149
  447TMC3     H 6716   4.526   4.639  11.152 -0.2388  0.8624  1.6308
  447TMC3    H1 6717   0.085   4.474  11.413 -3.1419 -1.7846  0.3322
  447TMC3    H2 6718   0.201   4.694  11.077 -0.7976  1.2961 -0.8451
  447TMC3    C7 6719   0.292   4.546  11.258 -0.7464 -0.8580 -0.0343
  447TMC3    C8 6720   4.677   0.034  11.008  0.1259 -0.7455 -0.3855
  447TMC3    O1 6721   0.347   4.527  11.151 -0.0574  0.3205 -0.4265
  447TMC3    O2 6722   4.554   0.043  10.995  0.2264  0.3228  0.7539
  448TMC3    C1 6723   2.166   4.069  17.181  1.0032 -0.7073 -0.5521
  448TMC3    C2 6724   2.136   4.015  17.057  0.2061 -0.0162  0.8110
  448TMC3    C3 6725   2.151   3.880  17.037  0.1150 -0.3764 -0.1202
  448TMC3    C4 6726   2.225   3.996  17.276  0.1810 -0.5342  0.4703
  448TMC3    C5 6727   2.242   3.864  17.254  0.0153  0.1133 -0.6495
  448TMC3    C6 6728   2.210   3.804  17.137 -0.1643  0.1695 -0.0579
  448TMC3     C 6729   2.156   4.214  17.201  0.5371  0.4728  0.8041
  448TMC3     O 6730   2.165   4.244  17.322 -0.2202 -0.2393 -0.5475
  448TMC3     H 6731   2.064   4.066  16.994  0.2999 -1.5224 -0.5318
  448TMC3    H1 6732   2.259   4.049  17.365 -0.2742 -0.2745  0.4907
  448TMC3    H2 6733   2.224   3.697  17.133 -0.0466  0.2268 -1.2327
  448TMC3    C7 6734   2.338   3.789  17.336  0.0954  0.2967 -0.3638
  448TMC3    C8 6735   2.128   3.815  16.915  0.1256  1.0894  0.4566
  448TMC3    O1 6736   2.421   3.719  17.275 -0.2539  0.3437 -0.5718
  448TMC3    O2 6737   2.155   3.692  16.924  0.0875 -0.0746 -0.6338
  449MPD2     C 6738   3.541   2.182  13.326 -0.0359  0.3604 -0.8852
  449MPD2    C1 6739   3.451   2.273  13.384  0.0694 -0.4258  0.3149
  449MPD2    C2 6740   3.356   2.232  13.472  0.2109 -1.3690  0.0761
  449MPD2    C3 6741   3.344   2.103  13.515  0.1790 -0.6426  0.2775
  449MPD2    C4 6742   3.423   2.007  13.449  0.8997  0.5100  0.1543
  449MPD2    C5 6743   3.521   2.050  13.369 -0.6266 -0.6021  0.0380
  449MPD2     H 6744   3.285   2.302  13.515  2.6422  1.3890 -0.3483
  449MPD2    H1 6745   3.401   1.902  13.460 -1.4046  0.9779  0.0155
  449MPD2    H2 6746   3.608   2.200  13.243  0.9600  0.7450  0.0020
  449MPD2    H3 6747   3.579   1.972  13.323 -0.1519 -0.3001  0.1239
  449MPD2     N 6748   3.240   2.072  13.613  0.6484  0.1631 -0.0372
  449MPD2    H5 6749   3.182   2.145  13.652 -1.3877 -1.0643 -0.7164
  449MPD2    N1 6750   3.429   2.410  13.338 -0.2204  0.1875  0.2285
  449MPD2    H7 6751   3.358   2.463  13.388  0.2056  0.7022  0.2772
  450TMC3    C1 6752   3.458   2.616  13.225 -0.2055  0.4293  0.2191
  450TMC3    C2 6753   3.547   2.709  13.266 -1.0190 -0.0965 -0.0483
  450TMC3    C3 6754   3.508   2.803  13.359  0.6022 -0.6117  0.0111
  450TMC3    C4 6755   3.330   2.621  13.269  0.1691  0.6267 -0.7834
  450TMC3    C5 6756   3.293   2.716  13.363 -0.1671 -0.4839 -0.6113
  450TMC3    C6 6757   3.380   2.808  13.403 -0.3270 -0.2289 -1.0093
  450TMC3     C 6758   3.516   2.479  13.254  0.0263 -0.0667  0.1060
  450TMC3     O 6759   3.622   2.442  13.199 -0.2806  0.3574  0.6926
  450TMC3     H 6760   3.647   2.715  13.225 -1.1327  0.5736 -0.2370
  450TMC3    H1 6761   3.257   2.552  13.230  0.2034  0.4907 -0.6054
  450TMC3    H2 6762   3.342   2.878  13.477 -0.8785 -1.7149  0.1147
  450TMC3    C7 6763   3.217   2.650  13.470  0.1163  0.1708  0.6584
  450TMC3    C8 6764   3.593   2.922  13.376  0.1661  0.6694 -0.2211
  450TMC3    O1 6765   3.234   2.530  13.469 -0.4067  0.6624 -0.1592
  450TMC3    O2 6766   3.547   3.033  13.373 -0.3117 -0.0976  0.1126
  451MPD2     C 6767   0.628   1.648   1.240  0.3651 -0.3789  0.5888
  451MPD2    C1 6768   0.535   1.549   1.207 -0.8819 -0.5273  1.2283
  451MPD2    C2 6769   0.587   1.432   1.167  0.1632 -0.3009 -0.2432
  451MPD2    C3 6770   0.719   1.413   1.141  0.5879  0.9808  0.6697
  451MPD2    C4 6771   0.810   1.510   1.176 -0.2020 -0.3652 -0.5803
  451MPD2    C5 6772   0.763   1.631   1.227  0.2305 -0.8874  0.0678
  451MPD2     H 6773   0.515   1.366   1.119  0.8779  0.2806 -2.1040
  451MPD2    H1 6774   0.918   1.497   1.167 -0.3237 -0.8442 -1.3347
  451MPD2    H2 6775   0.595   1.745   1.276 -0.5212 -0.6616  0.5418
  451MPD2    H3 6776   0.839   1.704   1.255 -0.8390  0.5556 -0.8231
  451MPD2     N 6777   0.770   1.298   1.082  0.0736 -0.2477  0.3890
  451MPD2    H5 6778   0.860   1.310   1.037  1.2264 -1.0558  2.4816
  451MPD2    N1 6779   0.396   1.578   1.208 -0.7450 -0.6301  0.0570
  451MPD2    H7 6780   0.381   1.678   1.211 -0.6425 -0.5856 -0.8708
  452TMC3    C1 6781   0.753   1.083   0.969  0.0505 -0.2319  0.1706
  452TMC3    C2 6782   0.678   0.972   0.961  0.3262 -0.4752  0.0340
  452TMC3    C3 6783   0.685   0.893   0.849  0.1619  0.5766 -0.6808
  452TMC3    C4 6784   0.811   1.132   0.854 -0.6005  0.4158  0.1531
  452TMC3    C5 6785   0.823   1.047   0.746 -0.3350 -0.8108 -0.0232
  452TMC3    C6 6786   0.763   0.922   0.747  0.1235 -0.2924 -0.1249
  452TMC3     C 6787   0.702   1.179   1.068  0.6373  0.3499  0.0668
  452TMC3     O 6788   0.603   1.142   1.128 -0.1667 -0.4367  0.1713
  452TMC3     H 6789   0.623   0.939   1.048 -0.1687 -1.4068 -0.6339
  452TMC3    H1 6790   0.873   1.220   0.867 -0.4683  0.0098  2.2843
  452TMC3    H2 6791   0.746   0.867   0.656  0.2273  1.4871 -1.2276
  452TMC3    C7 6792   0.898   1.094   0.632  0.2094  0.1635  0.2095
  452TMC3    C8 6793   0.593   0.780   0.827 -0.0061  0.7434  0.3545
  452TMC3    O1 6794   0.915   1.213   0.642 -0.4072 -0.3341 -0.1621
  452TMC3    O2 6795   0.615   0.692   0.748  0.0970 -0.3275 -0.3615
  453TMC3    C1 6796   1.512   3.268  12.385  0.5923  0.0141  0.7525
  453TMC3    C2 6797   1.463   3.178  12.292  0.0754  0.4321  0.3670
  453TMC3    C3 6798   1.381   3.229  12.195  0.0176  0.7618 -0.1481
  453TMC3    C4 6799   1.480   3.405  12.378  0.0774  0.1758  0.2006
  453TMC3    C5 6800   1.397   3.444  12.276 -0.2399  0.3395 -0.6547
  453TMC3    C6 6801   1.345   3.360  12.188 -0.0719  0.5558 -0.0060
  453TMC3     C 6802   1.648   3.253  12.430 -0.3264 -0.5713  0.2886
  453TMC3     O 6803   1.705   3.364  12.425 -0.4478  0.4461  0.4828
  453TMC3     H 6804   1.468   3.070  12.299 -2.7756  0.2554 -0.2301
  453TMC3    H1 6805   1.513   3.476  12.453  0.8029 -1.2689  1.2591
  453TMC3    H2 6806   1.272   3.398  12.117 -1.3443  0.7033  1.3857
  453TMC3    C7 6807   1.407   3.574  12.230 -0.7540 -0.0139  0.2719
  453TMC3    C8 6808   1.373   3.165  12.071 -0.4257 -0.0081 -0.0099
  453TMC3    O1 6809   1.329   3.617  12.150 -0.1553  0.0079  0.3741
  453TMC3    O2 6810   1.377   3.247  11.979  0.3425  0.8357  0.1336
  454MPD2     C 6811   0.259   2.996  15.931 -0.0326 -0.3643 -0.1574
  454MPD2    C1 6812   0.130   2.950  15.919 -0.1905  0.1190 -0.0767
  454MPD2    C2 6813   0.025   2.992  15.997  0.0290 -0.5938 -0.3020
  454MPD2    C3 6814   0.052   3.084  16.092 -0.1424 -0.2269  0.2434
  454MPD2    C4 6815   0.181   3.142  16.112  0.8690 -0.2177  0.2600
  454MPD2    C5 6816   0.279   3.091  16.028 -0.1716  0.0747  0.3238
  454MPD2     H 6817   4.664   2.949  15.976  0.6710 -0.7627 -2.9316
  454MPD2    H1 6818   0.196   3.217  16.189  1.3906 -0.2466  0.1833
  454MPD2    H2 6819   0.344   2.966  15.871  1.9782  2.0774  1.4434
  454MPD2    H3 6820   0.382   3.125  16.033  0.4375 -1.7136 -0.0354
  454MPD2     N 6821   4.694   3.107  16.200  0.3416  0.1046 -0.7949
  454MPD2    H5 6822   4.730   3.169  16.272  0.1722  1.0301 -1.4926
  454MPD2    N1 6823   0.098   2.852  15.822  0.7280  0.3403  0.0777
  454MPD2    H7 6824   0.005   2.813  15.835  1.5191 -2.4309 -2.5999
  455TMC3    C1 6825   4.521   3.051  16.345  0.3274  0.4476 -0.5398
  455TMC3    C2 6826   4.567   3.146  16.425 -0.5000  1.2590 -0.0631
  455TMC3    C3 6827   4.636   3.114  16.540  0.0156  0.0761 -0.0113
  455TMC3    C4 6828   4.518   2.918  16.383  0.0432 -0.4064  0.0968
  455TMC3    C5 6829   4.601   2.894  16.491 -0.8926 -0.0187  0.2799
  455TMC3    C6 6830   4.661   2.983  16.570 -0.5252 -0.5499  0.2300
  455TMC3     C 6831   4.567   3.056  16.209 -0.3496 -0.4529  0.3890
  455TMC3     O 6832   4.508   2.970  16.140 -0.6418  0.3694 -0.4012
  455TMC3     H 6833   4.565   3.248  16.390  1.2151  2.3258  2.9203
  455TMC3    H1 6834   4.475   2.837  16.326 -0.2611 -0.7181  0.7625
  455TMC3    H2 6835   4.728   2.960  16.652  0.1616 -0.3309 -0.2695
  455TMC3    C7 6836   4.668   2.771  16.463 -0.4949 -0.3908 -0.1608
  455TMC3    C8 6837   4.646   3.222  16.638  0.0703 -0.1585 -0.5158
  455TMC3    O1 6838   4.600   2.668  16.466  0.8771  0.5740  0.6320
  455TMC3    O2 6839   4.730   3.206  16.727 -0.4785 -0.5004 -0.2621
  456MPD2     C 6840   2.733   2.794  16.074  0.0923  0.0127 -0.0747
  456MPD2    C1 6841   2.725   2.759  16.207 -0.6581 -0.0011 -0.1259
  456MPD2    C2 6842   2.640   2.823  16.295 -0.7478 -0.3985 -0.9306
  456MPD2    C3 6843   2.564   2.933  16.246  1.5438 -0.0183 -0.0003
  456MPD2    C4 6844   2.570   2.970  16.116 -0.6088 -0.4731 -0.0332
  456MPD2    C5 6845   2.647   2.892  16.027 -0.5963  0.3128 -0.4839
  456MPD2     H 6846   2.631   2.801  16.401 -0.8810  0.3648 -0.7828
  456MPD2    H1 6847   2.511   3.050  16.073  0.8522  0.7004  0.1239
  456MPD2    H2 6848   2.803   2.748  16.005 -2.1213  0.7853 -2.8360
  456MPD2    H3 6849   2.650   2.918  15.921 -1.8466  0.5015 -0.4789
  456MPD2     N 6850   2.478   2.998  16.339  0.6009  0.4515  0.0302
  456MPD2    H5 6851   2.475   2.958  16.432 -0.0873 -4.2255 -2.0329
  456MPD2    N1 6852   2.810   2.655  16.255  0.0957 -0.3838 -0.4898
  456MPD2    H7 6853   2.858   2.595  16.189  0.4059  0.6201 -1.1720
  457TMC3    C1 6854   2.356   3.163  16.446  0.8295 -0.1701 -0.8014
  457TMC3    C2 6855   2.248   3.243  16.446 -0.1538  0.0115  0.1588
  457TMC3    C3 6856   2.196   3.273  16.570 -0.2245 -0.5302  0.2912
  457TMC3    C4 6857   2.423   3.117  16.557 -0.4954  0.2492  0.7156
  457TMC3    C5 6858   2.369   3.153  16.678 -0.6658 -0.8518  1.1913
  457TMC3    C6 6859   2.252   3.217  16.680 -0.3121  0.2839  0.0638
  457TMC3     C 6860   2.408   3.113  16.325  0.1040 -0.1391 -0.1409
  457TMC3     O 6861   2.400   3.198  16.233  0.4693  0.1233 -0.6711
  457TMC3     H 6862   2.193   3.258  16.353 -2.0542 -0.5833  1.1832
  457TMC3    H1 6863   2.508   3.050  16.569 -1.3397 -0.5441  2.2983
  457TMC3    H2 6864   2.209   3.250  16.774  0.0557 -1.6343  0.8930
  457TMC3    C7 6865   2.456   3.150  16.795  0.0608  0.8453 -0.1071
  457TMC3    C8 6866   2.119   3.400  16.588 -0.1120  0.4094  0.0644
  457TMC3    O1 6867   2.557   3.082  16.783 -0.1983  0.3174 -0.2411
  457TMC3    O2 6868   2.036   3.390  16.680 -0.0404 -0.4016  0.0369
  458MPD2     C 6869   0.827   2.511  12.620  0.0284 -0.5692 -0.1629
  458MPD2    C1 6870   0.823   2.430  12.732  0.1974 -0.0658  0.5111
  458MPD2    C2 6871   0.711   2.362  12.768 -0.6529  0.0683  0.0269
  458MPD2    C3 6872   0.592   2.396  12.708 -0.1196 -0.0023 -0.2272
  458MPD2    C4 6873   0.597   2.485  12.600  0.1728 -0.2464  0.4451
  458MPD2    C5 6874   0.714   2.541  12.560 -0.4273  0.0823 -0.5424
  458MPD2     H 6875   0.712   2.292  12.851 -0.6163 -0.7942 -0.6974
  458MPD2    H1 6876   0.509   2.509  12.542  1.8900 -0.4389 -2.2271
  458MPD2    H2 6877   0.923   2.546  12.583  1.8054 -3.1599  2.0154
  458MPD2    H3 6878   0.724   2.595  12.466 -0.2743  2.2513  0.7327
  458MPD2     N 6879   0.476   2.351  12.771 -0.3963  0.1973 -0.3360
  458MPD2    H5 6880   0.493   2.282  12.844  0.9633 -0.3463 -1.1730
  458MPD2    N1 6881   0.947   2.407  12.789 -0.3787 -0.0898 -0.2610
  458MPD2    H7 6882   1.027   2.438  12.735 -1.1642 -1.9934 -2.4885
  459TMC3    C1 6883   1.100   2.292  12.930 -0.0339  0.8133 -0.3731
  459TMC3    C2 6884   1.205   2.365  12.884 -0.0143 -0.1026  0.4890
  459TMC3    C3 6885   1.328   2.310  12.911 -0.7868 -0.7896  0.6824
  459TMC3    C4 6886   1.104   2.169  12.994  0.4008  0.8151  0.0424
  459TMC3    C5 6887   1.229   2.127  13.031 -1.0902  0.5305  0.3175
  459TMC3    C6 6888   1.343   2.189  12.983  0.2431 -0.0008 -0.0174
  459TMC3     C 6889   0.967   2.328  12.894  0.2954  0.1237  0.3822
  459TMC3     O 6890   0.893   2.314  12.989 -0.0015  0.0107 -0.1280
  459TMC3     H 6891   1.192   2.463  12.841 -2.8920 -0.1304  1.2865
  459TMC3    H1 6892   1.014   2.118  13.024 -0.5122  1.4285 -1.6719
  459TMC3    H2 6893   1.445   2.159  13.002 -0.0635 -3.7405 -4.1810
  459TMC3    C7 6894   1.252   2.006  13.108  0.0196 -0.0481  0.2115
  459TMC3    C8 6895   1.448   2.363  12.848 -0.2707 -0.6263 -0.1955
  459TMC3    O1 6896   1.361   1.956  13.119 -0.5620 -0.3552 -0.5458
  459TMC3    O2 6897   1.555   2.330  12.896  0.2596 -0.1919 -0.0420
  460MPD2     C 6898   0.149   0.273  10.825 -0.8449 -0.4236 -0.8132
  460MPD2    C1 6899   0.029   0.206  10.854  0.3005  0.2458  0.8704
  460MPD2    C2 6900   4.648   0.235  10.786  0.1875 -0.2872 -0.2054
  460MPD2    C3 6901   4.654   0.335  10.686  0.6417  0.8536  0.5570
  460MPD2    C4 6902   0.038   0.397  10.658  0.9081  0.0215  0.3657
  460MPD2    C5 6903   0.153   0.363  10.726  0.1534  0.1859 -0.2252
  460MPD2     H 6904   4.559   0.176  10.798  1.9132 -2.8361 -0.0080
  460MPD2    H1 6905   0.048   0.461  10.571  1.1241 -1.9123 -1.0388
  460MPD2    H2 6906   0.241   0.260  10.881 -0.2571  1.9144 -1.2115
  460MPD2    H3 6907   0.250   0.409  10.710  0.8215 -1.1327 -0.0104
  460MPD2     N 6908   4.549   0.390  10.614  0.2814 -0.1100  0.0087
  460MPD2    H5 6909   4.572   0.464  10.550  1.4909 -0.2587  0.2784
  460MPD2    N1 6910   0.041   0.114  10.957 -0.3714  0.4634 -0.4875
  460MPD2    H7 6911   0.130   0.108  11.005 -0.9812 -0.3630  0.5306
  461TMC3    C1 6912   4.339   0.408  10.527 -0.2002 -0.0654 -0.3352
  461TMC3    C2 6913   4.221   0.349  10.490 -0.3327 -0.5615  0.7024
  461TMC3    C3 6914   4.136   0.414  10.403  0.8395 -0.7989 -0.7183
  461TMC3    C4 6915   4.368   0.529  10.483  0.5450 -0.0491 -0.5542
  461TMC3    C5 6916   4.273   0.601  10.403 -1.3049  0.5561  0.6985
  461TMC3    C6 6917   4.158   0.541  10.365  0.2873 -0.1472 -0.6142
  461TMC3     C 6918   4.424   0.335  10.615 -1.0359 -0.7924 -0.0909
  461TMC3     O 6919   4.376   0.236  10.675 -0.2456 -0.3435  0.0185
  461TMC3     H 6920   4.202   0.244  10.507 -1.8676 -0.2804  0.7798
  461TMC3    H1 6921   4.435   0.597  10.534  1.1031 -0.2155 -1.0651
  461TMC3    H2 6922   4.087   0.580  10.293 -1.1778 -1.5584  0.0554
  461TMC3    C7 6923   4.305   0.730  10.338  0.0150  0.0617 -0.3142
  461TMC3    C8 6924   4.098   0.336  10.286  0.0107 -0.4560  0.3989
  461TMC3    O1 6925   4.207   0.781  10.278  0.2268 -0.2933  0.6751
  461TMC3    O2 6926   4.139   0.379  10.181  0.2772  0.5459  0.1644
  462TMC3    C1 6927   0.229   1.128   0.684  0.1169 -0.0462  0.6149
  462TMC3    C2 6928   0.216   1.122   0.546 -0.4173 -0.5537 -0.1346
  462TMC3    C3 6929   0.139   1.025   0.499  0.0617  0.2543  0.0795
  462TMC3    C4 6930   0.159   1.050   0.765 -0.2885 -0.9792 -0.2980
  462TMC3    C5 6931   0.072   0.960   0.706  0.1147  0.1589  0.6551
  462TMC3    C6 6932   0.068   0.941   0.573 -0.2723  0.4478  0.0369
  462TMC3     C 6933   0.318   1.226   0.741 -0.0508 -0.3510 -0.0045
  462TMC3     O 6934   0.309   1.245   0.862  0.0029 -0.1257 -0.4545
  462TMC3     H 6935   0.248   1.204   0.483 -1.3043  0.3810  0.6327
  462TMC3    H1 6936   0.176   1.047   0.872 -2.4013 -1.0470  0.0330
  462TMC3    H2 6937   4.733   0.880   0.520  1.3367  0.7319 -2.4471
  462TMC3    C7 6938   4.728   0.863   0.774  0.1181  0.5699 -0.1943
  462TMC3    C8 6939   0.109   1.030   0.354 -0.1761  0.3931 -0.0383
  462TMC3    O1 6940   4.698   0.762   0.710 -0.1677 -0.1178 -0.3162
  462TMC3    O2 6941   0.093   1.139   0.306  0.2428  0.1170 -0.7329
  463MPD2     C 6942   1.034   3.853   1.427 -0.4048  0.0672 -0.7054
  463MPD2    C1 6943   0.940   3.950   1.423  0.2589 -0.3407 -0.0618
  463MPD2    C2 6944   0.981   4.081   1.425 -0.0422  0.4887  0.0869
  463MPD2    C3 6945   1.111   4.122   1.436 -0.3778  0.0189 -0.4832
  463MPD2    C4 6946   1.200   4.022   1.454  0.5152 -0.0503 -0.2303
  463MPD2    C5 6947   1.159   3.890   1.454  0.3010 -0.7037 -0.4455
  463MPD2     H 6948   0.900   4.152   1.412 -0.0228  0.8211  1.8201
  463MPD2    H1 6949   1.305   4.050   1.463  0.3629  0.5042 -0.2323
  463MPD2    H2 6950   1.023   3.749   1.399  1.5911 -0.0242 -1.1864
  463MPD2    H3 6951   1.235   3.813   1.459  0.2997 -0.6230  0.8495
  463MPD2     N 6952   1.153   4.255   1.450 -0.1651 -0.0841  0.4677
  463MPD2    H5 6953   1.246   4.268   1.488  0.6582  2.3839 -2.3206
  463MPD2    N1 6954   0.800   3.919   1.408  0.5457  0.2562 -0.0910
  463MPD2    H7 6955   0.738   3.997   1.387 -2.0501 -1.5252  1.0247
  464TMC3    C1 6956   0.600   3.807   1.373  0.0082  0.0834  0.3417
  464TMC3    C2 6957   0.527   3.909   1.427 -0.2210  0.2822 -0.3820
  464TMC3    C3 6958   0.403   3.930   1.392 -0.4759  0.1652  0.1072
  464TMC3    C4 6959   0.534   3.711   1.306 -0.0479  0.3723  0.5818
  464TMC3    C5 6960   0.403   3.724   1.283 -0.0646 -0.5931  0.1534
  464TMC3    C6 6961   0.336   3.837   1.316  0.5999  0.2454  0.7717
  464TMC3     C 6962   0.741   3.791   1.402 -0.5911 -0.4423 -0.3021
  464TMC3     O 6963   0.792   3.683   1.403  0.2401 -0.0662 -0.4393
  464TMC3     H 6964   0.575   3.986   1.486  1.9477 -0.7974 -0.7626
  464TMC3    H1 6965   0.587   3.628   1.259  1.1303  0.8075  1.1587
  464TMC3    H2 6966   0.236   3.857   1.280  1.2548  0.7137 -0.8246
  464TMC3    C7 6967   0.336   3.607   1.222  0.2543 -1.5284 -0.0103
  464TMC3    C8 6968   0.343   4.059   1.418 -0.1054 -0.1051  0.4798
  464TMC3    O1 6969   0.403   3.504   1.223  0.3606  0.5298 -0.1664
  464TMC3    O2 6970   0.258   4.101   1.340 -0.1974 -0.1406 -0.3122
  465MPD2     C 6971   1.877   2.955  17.042  0.0792 -0.0806  0.4991
  465MPD2    C1 6972   1.788   3.023  17.125  0.5748  0.3008  0.4535
  465MPD2    C2 6973   1.681   3.088  17.062 -0.0466  0.1153  0.7038
  465MPD2    C3 6974   1.667   3.091  16.921 -0.3095 -0.2393  0.1192
  465MPD2    C4 6975   1.755   3.018  16.848  0.5333  0.3414  0.6783
  465MPD2    C5 6976   1.852   2.948  16.905 -0.3999  0.2317  0.3547
  465MPD2     H 6977   1.613   3.147  17.123  0.4442 -1.2833  2.6026
  465MPD2    H1 6978   1.745   3.009  16.740 -1.9348 -0.4380  0.9950
  465MPD2    H2 6979   1.964   2.908  17.086 -0.0765  1.0958  2.0709
  465MPD2    H3 6980   1.919   2.894  16.839 -0.5624 -0.0317  0.4005
  465MPD2     N 6981   1.548   3.142  16.863 -0.0882  0.0292 -0.2609
  465MPD2    H5 6982   1.467   3.165  16.919  0.3774 -0.6804  0.7015
  465MPD2    N1 6983   1.795   3.044  17.263 -0.9202  0.4131 -0.6144
  465MPD2    H7 6984   1.726   3.109  17.298 -0.6702  0.4975 -0.2847
  466TMC3    C1 6985   1.197   3.260  16.678 -0.3703 -0.3802 -0.6545
  466TMC3    C2 6986   1.205   3.353  16.581 -0.0209 -0.1749  0.5194
  466TMC3    C3 6987   1.329   3.396  16.547 -0.8886 -0.1588  0.0849
  466TMC3    C4 6988   1.310   3.187  16.720  0.2614 -0.1660 -0.0709
  466TMC3    C5 6989   1.434   3.245  16.686 -0.0362 -0.0188 -0.1221
  466TMC3    C6 6990   1.440   3.342  16.602  0.1767 -0.0498 -0.1078
  466TMC3     C 6991   1.073   3.221  16.739  0.1134 -0.4096  0.1119
  466TMC3     O 6992   1.078   3.165  16.852  0.5508  0.2365 -0.3421
  466TMC3     H 6993   1.126   3.422  16.552  1.2853  0.4867 -1.4241
  466TMC3    H1 6994   1.303   3.112  16.798  2.2381 -0.7006 -0.4253
  466TMC3    H2 6995   1.532   3.391  16.573 -0.7707  0.1203 -2.8570
  466TMC3    C7 6996   1.557   3.190  16.737 -0.0077  0.4820 -0.2768
  466TMC3    C8 6997   1.344   3.533  16.498  0.6316  0.1926 -0.9866
  466TMC3    O1 6998   1.659   3.217  16.671 -0.1953 -0.3145  0.3115
  466TMC3    O2 6999   1.423   3.540  16.407  0.7096  0.0761 -0.3591
  467TMC3    C1 7000   2.774   1.693  13.929  0.0552 -0.5088 -0.5501
  467TMC3    C2 7001   2.767   1.783  13.825 -0.6913 -0.4960 -0.4289
  467TMC3    C3 7002   2.766   1.741  13.695 -0.0802  0.0524 -0.1980
  467TMC3    C4 7003   2.775   1.562  13.908  0.2251 -0.0039 -0.1045
  467TMC3    C5 7004   2.788   1.518  13.778 -0.0123  0.7907 -0.0776
  467TMC3    C6 7005   2.791   1.606  13.670  0.1364 -0.0020 -0.9106
  467TMC3     C 7006   2.832   1.744  14.042 -0.1818 -0.6654 -0.3684
  467TMC3     O 7007   2.896   1.843  14.024 -1.0256  0.4249 -0.0848
  467TMC3     H 7008   2.755   1.888  13.851 -2.7456  0.0187 -3.4921
  467TMC3    H1 7009   2.800   1.492  13.987 -0.9941  0.6665  0.8848
  467TMC3    H2 7010   2.801   1.569  13.568  1.4815  1.8228 -1.4524
  467TMC3    C7 7011   2.768   1.382  13.758  0.1482  0.0242 -0.0308
  467TMC3    C8 7012   2.795   1.846  13.601  0.2088 -0.2972 -0.0782
  467TMC3    O1 7013   2.814   1.342  13.656  0.5777  0.1715 -0.1189
  467TMC3    O2 7014   2.750   1.953  13.636  0.2524 -0.8429  0.1855
  468MPD2     C 7015   1.494   0.547  11.021 -0.0093  0.1930 -0.5801
  468MPD2    C1 7016   1.616   0.492  11.064  0.8068  0.1469  0.4388
  468MPD2    C2 7017   1.644   0.354  11.039 -0.0151 -0.8060 -0.2758
  468MPD2    C3 7018   1.540   0.276  10.989  0.3484 -0.6088  0.0979
  468MPD2    C4 7019   1.427   0.333  10.951  0.4584 -0.0904  0.3281
  468MPD2    C5 7020   1.399   0.466  10.966  0.5845  0.2674 -0.3702
  468MPD2     H 7021   1.738   0.312  11.073  0.7900  1.5568  0.4227
  468MPD2    H1 7022   1.349   0.264  10.923 -1.3407  1.6812  1.0111
  468MPD2    H2 7023   1.464   0.651  11.035 -0.7230 -0.0591 -0.2045
  468MPD2    H3 7024   1.307   0.518  10.943  0.0280 -0.9698 -0.9614
  468MPD2     N 7025   1.547   0.136  10.983  0.2888 -0.4494  0.2732
  468MPD2    H5 7026   1.460   0.091  10.956 -0.1971 -0.1551  1.3460
  468MPD2    N1 7027   1.722   0.570  11.121  0.1445  0.3171  0.0463
  468MPD2    H7 7028   1.803   0.514  11.148  2.3765  2.4567 -2.2285
  469TMC3    C1 7029   1.840   0.746  11.218  0.4140  0.1896  1.0395
  469TMC3    C2 7030   1.947   0.662  11.219  0.2342 -0.0695  0.1421
  469TMC3    C3 7031   2.047   0.696  11.312  0.0258 -0.6692 -0.4457
  469TMC3    C4 7032   1.826   0.859  11.298 -0.1250 -0.2970 -0.1260
  469TMC3    C5 7033   1.918   0.871  11.397  0.0292  0.4377 -0.5856
  469TMC3    C6 7034   2.029   0.796  11.405 -0.2895 -0.7632  0.8753
  469TMC3     C 7035   1.719   0.702  11.146 -0.2912 -1.0865 -0.1849
  469TMC3     O 7036   1.627   0.777  11.141 -0.3931  0.1156 -0.1253
  469TMC3     H 7037   1.952   0.591  11.136 -0.5566 -2.0141  1.7691
  469TMC3    H1 7038   1.739   0.924  11.297 -1.1004 -1.5681  1.1366
  469TMC3    H2 7039   2.098   0.806  11.487 -0.6994 -0.9986  1.2472
  469TMC3    C7 7040   1.872   0.942  11.518  0.0326 -0.3337 -0.0790
  469TMC3    C8 7041   2.169   0.636  11.290 -0.2474 -0.2654  0.3269
  469TMC3    O1 7042   1.810   1.044  11.493  0.2860 -0.2913  0.1502
  469TMC3    O2 7043   2.211   0.613  11.179  0.0719 -0.2341  0.0438
  470TMC3    C1 7044   3.659   0.735   1.095 -0.4198 -0.2898 -0.3168
  470TMC3    C2 7045   3.751   0.810   1.162 -0.2315  0.0706 -0.3110
  470TMC3    C3 7046   3.731   0.835   1.299 -0.0067  0.5702  0.5106
  470TMC3    C4 7047   3.543   0.688   1.144 -0.8986  0.1841  0.0141
  470TMC3    C5 7048   3.528   0.720   1.278 -0.1601 -0.3483 -0.2111
  470TMC3    C6 7049   3.613   0.793   1.355  0.0928  0.2691  0.3230
  470TMC3     C 7050   3.699   0.698   0.960  0.6154  0.2112 -0.2223
  470TMC3     O 7051   3.801   0.750   0.914 -0.4221  0.1085  0.3907
  470TMC3     H 7052   3.836   0.861   1.118  0.4241 -0.2946  0.5342
  470TMC3    H1 7053   3.463   0.623   1.109 -1.3230  1.2553 -0.9897
  470TMC3    H2 7054   3.590   0.797   1.461 -0.4027  1.7005  0.1560
  470TMC3    C7 7055   3.390   0.715   1.320  0.0464  0.3780  0.1598
  470TMC3    C8 7056   3.806   0.941   1.370 -0.4334 -0.2146 -0.9668
  470TMC3    O1 7057   3.314   0.637   1.268  0.1623 -0.6832  0.3290
  470TMC3    O2 7058   3.748   1.002   1.455  0.2144 -0.0602  0.1686
  471MPD2     C 7059   4.179   1.988  16.969  0.0134 -0.6038 -0.0418
  471MPD2    C1 7060   4.294   1.912  16.948  0.3416  0.3870 -0.5938
  471MPD2    C2 7061   4.356   1.845  17.051 -0.2799  0.0579  0.0200
  471MPD2    C3 7062   4.296   1.835  17.178  0.5260  0.5727  0.6482
  471MPD2    C4 7063   4.184   1.907  17.194 -0.1051 -0.1309  0.7750
  471MPD2    C5 7064   4.124   1.981  17.091 -0.6238  0.0858 -0.3240
  471MPD2     H 7065   4.444   1.785  17.036 -0.2757  0.4907 -1.6404
  471MPD2    H1 7066   4.131   1.886  17.286 -2.2043 -1.0836 -0.6345
  471MPD2    H2 7067   4.141   2.043  16.884 -0.4697 -0.2935  0.3760
  471MPD2    H3 7068   4.032   2.036  17.109  0.1354  1.5872 -1.0013
  471MPD2     N 7069   4.356   1.783  17.291 -0.0262 -0.3289 -0.0989
  471MPD2    H5 7070   4.301   1.786  17.376  0.4413  0.6166  0.1725
  471MPD2    N1 7071   4.347   1.884  16.822 -0.2073  0.0963 -0.4828
  471MPD2    H7 7072   4.442   1.847  16.830 -0.9652 -1.6807  0.2411
  472TMC3    C1 7073   4.374   1.846  16.595  0.7490 -0.2685 -0.0125
  472TMC3    C2 7074   4.329   1.885  16.470 -0.7162 -0.2445  0.9344
  472TMC3    C3 7075   4.301   1.786  16.381  0.1481  0.5403 -0.7128
  472TMC3    C4 7076   4.390   1.711  16.628  0.1739  0.3609 -0.0875
  472TMC3    C5 7077   4.371   1.620  16.536  0.7823  0.1473 -0.1674
  472TMC3    C6 7078   4.337   1.658  16.407 -0.5311  0.5502  0.1249
  472TMC3     C 7079   4.303   1.919  16.696  0.2630 -0.9142 -0.5197
  472TMC3     O 7080   4.213   1.995  16.661 -0.2089  0.2384  0.3219
  472TMC3     H 7081   4.302   1.988  16.446  0.4161  0.0805  1.0233
  472TMC3    H1 7082   4.388   1.683  16.733 -1.8683  0.0959 -0.1962
  472TMC3    H2 7083   4.350   1.585  16.328  1.7685 -0.6901  1.6384
  472TMC3    C7 7084   4.359   1.482  16.583 -0.7498  0.6268  0.5861
  472TMC3    C8 7085   4.171   1.801  16.327 -0.1810  0.2803 -0.8681
  472TMC3    O1 7086   4.380   1.458  16.701  0.4700 -0.0869  0.1670
  472TMC3    O2 7087   4.144   1.908  16.270  0.1340  0.7612  0.0993
  473MPD2     C 7088   4.360   3.765  13.949 -0.0007 -0.7681 -0.6085
  473MPD2    C1 7089   4.319   3.860  13.858  0.0588  0.3266 -0.4033
  473MPD2    C2 7090   4.337   3.992  13.891 -0.0809  0.3590  0.1590
  473MPD2    C3 7091   4.393   4.029  14.012  0.8099 -0.2066 -0.6503
  473MPD2    C4 7092   4.434   3.937  14.100  0.4036  0.3484 -0.0217
  473MPD2    C5 7093   4.428   3.805  14.060  0.2650  0.6250 -0.0650
  473MPD2     H 7094   4.308   4.063  13.814  2.4905  2.0704  0.7556
  473MPD2    H1 7095   4.472   3.966  14.197  0.9831 -1.9968  0.4400
  473MPD2    H2 7096   4.359   3.661  13.921  1.1653 -0.3239 -2.2987
  473MPD2    H3 7097   4.464   3.728  14.128 -1.5700 -0.4650 -0.3394
  473MPD2     N 7098   4.402   4.166  14.051 -0.3226 -0.0515  0.7239
  473MPD2    H5 7099   4.441   4.185  14.143 -0.2460 -1.3675  0.9693
  473MPD2    N1 7100   4.240   3.834  13.739  0.6597  0.0349 -0.2418
  473MPD2    H7 7101   4.188   3.915  13.708 -1.1892 -0.7595  0.7666
  474TMC3    C1 7102   4.324   4.393  14.042  0.1288  0.6988  0.1053
  474TMC3    C2 7103   4.235   4.483  13.990  1.2372  0.0760 -0.0658
  474TMC3    C3 7104   4.194   4.595  14.060 -0.0787  0.5101  0.0994
  474TMC3    C4 7105   4.383   4.425  14.160 -0.5486  0.6609  0.1181
  474TMC3    C5 7106   4.355   4.545  14.220 -0.1250  0.0603  0.3217
  474TMC3    C6 7107   4.255   4.630  14.179 -0.4012 -0.3337  0.3773
  474TMC3     C 7108   4.374   4.273  13.968  0.0702 -0.3824  0.4859
  474TMC3     O 7109   4.354   4.269  13.847 -0.4848  0.7702  0.1071
  474TMC3     H 7110   4.194   4.477  13.890 -0.6241  2.4447  0.5479
  474TMC3    H1 7111   4.463   4.365  14.200 -0.0854  0.3415 -1.2744
  474TMC3    H2 7112   4.242   4.725  14.229 -0.8170 -1.7571  2.9928
  474TMC3    C7 7113   4.445   4.616  14.311 -0.2809  0.1399 -0.4719
  474TMC3    C8 7114   4.085   4.678  14.004  0.1368 -0.3222  0.1302
  474TMC3    O1 7115   4.502   4.714  14.258  0.2983  0.3644 -0.5753
  474TMC3    O2 7116   4.009   4.619  13.928 -0.2580  0.4706 -0.2621
  475MPD2     C 7117   2.414   2.542  10.877 -0.4859 -0.1628 -0.0462
  475MPD2    C1 7118   2.412   2.622  10.983  0.6305 -0.3965  0.0335
  475MPD2    C2 7119   2.341   2.746  10.985  0.2353  0.2264 -0.4784
  475MPD2    C3 7120   2.267   2.789  10.877  0.5137 -0.9819  0.3287
  475MPD2    C4 7121   2.263   2.698  10.769  1.1466  0.5552 -0.4977
  475MPD2    C5 7122   2.342   2.584  10.767 -0.6000 -0.1837 -0.1660
  475MPD2     H 7123   2.334   2.812  11.070  3.5202 -2.4809  1.8754
  475MPD2    H1 7124   2.213   2.730  10.678  0.9347  0.3470 -0.4551
  475MPD2    H2 7125   2.482   2.458  10.870 -1.2744 -0.6229 -2.3498
  475MPD2    H3 7126   2.355   2.536  10.670 -1.5671  0.3061 -0.5410
  475MPD2     N 7127   2.192   2.912  10.882  0.5485 -0.1548 -0.2433
  475MPD2    H5 7128   2.198   2.965  10.968 -1.7334 -2.3543  1.2707
  475MPD2    N1 7129   2.495   2.582  11.095 -0.2098 -0.6381 -0.2897
  475MPD2    H7 7130   2.569   2.516  11.074  1.1592  1.0309 -0.6375
  476TMC3    C1 7131   2.628   2.667  11.271  0.2273 -0.2572  0.7023
  476TMC3    C2 7132   2.721   2.706  11.184  0.9147 -0.0667  0.2822
  476TMC3    C3 7133   2.795   2.811  11.223  0.8513  0.8789  0.4968
  476TMC3    C4 7134   2.621   2.720  11.394  0.3667 -0.3539  0.1279
  476TMC3    C5 7135   2.706   2.812  11.442  0.1911 -0.4033 -0.4252
  476TMC3    C6 7136   2.800   2.852  11.354 -0.1622 -0.6930 -0.0468
  476TMC3     C 7137   2.496   2.653  11.211 -0.0628 -0.0345  1.0292
  476TMC3     O 7138   2.418   2.731  11.265 -0.1360  0.0054  0.5959
  476TMC3     H 7139   2.725   2.661  11.085  0.1538 -2.7413  1.4806
  476TMC3    H1 7140   2.547   2.683  11.464  0.0987  0.0318  0.0492
  476TMC3    H2 7141   2.880   2.922  11.377 -2.1741  1.8837 -0.8714
  476TMC3    C7 7142   2.640   2.914  11.523 -0.2503 -0.0508  0.3021
  476TMC3    C8 7143   2.765   2.935  11.140 -0.2651 -0.2084 -0.1965
  476TMC3    O1 7144   2.541   2.872  11.584 -0.2682 -0.3162 -0.1191
  476TMC3    O2 7145   2.778   3.041  11.202 -0.1685 -0.4398  0.3171
  477MPD2     C 7146   0.569   4.006  12.082 -0.2126  0.2092  0.6135
  477MPD2    C1 7147   0.535   3.919  11.983  0.2074  0.2256  0.2301
  477MPD2    C2 7148   0.542   3.788  12.006  0.1913 -0.4630 -0.2899
  477MPD2    C3 7149   0.584   3.734  12.122  0.2233  0.0926  0.0782
  477MPD2    C4 7150   0.623   3.823  12.225  0.4494  0.1719 -0.3357
  477MPD2    C5 7151   0.613   3.954  12.198  0.1381  0.4477  0.2862
  477MPD2     H 7152   0.515   3.719  11.927 -1.8445 -1.2504  1.0910
  477MPD2    H1 7153   0.673   3.798  12.317 -0.4446 -0.1832  0.0543
  477MPD2    H2 7154   0.569   4.113  12.069 -0.9404 -0.2862 -3.2082
  477MPD2    H3 7155   0.634   4.024  12.278  0.6531 -0.0466  0.5768
  477MPD2     N 7156   0.600   3.593  12.130  0.5066 -0.3739 -1.2300
  477MPD2    H5 7157   0.564   3.543  12.050 -1.4039 -1.2992  0.2132
  477MPD2    N1 7158   0.488   3.989  11.869  0.0212 -0.4037 -0.3932
  477MPD2    H7 7159   0.484   4.091  11.865 -0.7140 -0.4260 -0.0598
  478TMC3    C1 7160   0.393   4.026  11.658 -0.3140 -0.8615 -0.0348
  478TMC3    C2 7161   0.306   4.121  11.715 -0.3880  1.1203  0.0144
  478TMC3    C3 7162   0.234   4.200  11.632 -0.2800  0.6588 -0.2159
  478TMC3    C4 7163   0.401   4.012  11.524  0.4713  0.3537 -0.0258
  478TMC3    C5 7164   0.324   4.093  11.442  0.4720 -0.1075  0.0503
  478TMC3    C6 7165   0.240   4.191  11.497  0.5095  0.6567  0.0819
  478TMC3     C 7166   0.468   3.941  11.743 -0.1638 -0.4681  0.3193
  478TMC3     O 7167   0.508   3.832  11.700  0.0605  0.0322 -0.7986
  478TMC3     H 7168   0.303   4.109  11.822 -1.7227 -0.5496 -0.2184
  478TMC3    H1 7169   0.472   3.944  11.478  0.4900 -1.4018  2.5736
  478TMC3    H2 7170   0.194   4.260  11.427 -1.3324 -0.2953  0.3499
  478TMC3    C7 7171   0.359   4.092  11.304 -0.1767  0.4729  1.1556
  478TMC3    C8 7172   0.134   4.294  11.686  0.2140 -0.0288 -0.7884
  478TMC3    O1 7173   0.464   4.037  11.280  0.2208 -0.0768  0.2173
  478TMC3    O2 7174   0.076   4.365  11.602  0.0773 -0.0926 -0.2425
  479MPD2     C 7175   3.972   1.312  14.999 -0.4699  0.2811  0.6734
  479MPD2    C1 7176   3.905   1.248  15.099  0.2127 -0.4805 -0.0049
  479MPD2    C2 7177   3.945   1.274  15.228 -0.6331  0.5818 -0.1322
  479MPD2    C3 7178   4.039   1.372  15.260  0.6374  0.0731 -0.5447
  479MPD2    C4 7179   4.095   1.441  15.153  0.5939  0.2049  0.3421
  479MPD2    C5 7180   4.061   1.411  15.023 -0.8036 -0.5156 -0.5271
  479MPD2     H 7181   3.905   1.220  15.313  0.4267 -1.0361 -0.6616
  479MPD2    H1 7182   4.175   1.513  15.165 -0.4248  1.5568 -0.8921
  479MPD2    H2 7183   3.958   1.282  14.896  0.3114  0.8684  0.3965
  479MPD2    H3 7184   4.110   1.464  14.942  1.4385  0.1833  1.2943
  479MPD2     N 7185   4.076   1.418  15.387  0.0495 -0.5395 -0.0984
  479MPD2    H5 7186   4.159   1.475  15.382  0.0454 -0.5118  0.1260
  479MPD2    N1 7187   3.810   1.149  15.058 -0.1775  0.8565 -0.2717
  479MPD2    H7 7188   3.811   1.113  14.963  0.8575 -0.4350  0.2345
  480TMC3    C1 7189   3.740   1.253  15.682  0.2497 -0.4197  0.1190
  480TMC3    C2 7190   3.637   1.280  15.598  1.2250 -0.3676  0.6214
  480TMC3    C3 7191   3.669   1.356  15.490  0.1505  0.3068 -0.1752
  480TMC3    C4 7192   3.872   1.288  15.657 -0.1627  0.4185 -0.3573
  480TMC3    C5 7193   3.899   1.354  15.541  0.3272 -0.0203 -0.2821
  480TMC3    C6 7194   3.795   1.396  15.459 -0.3937  0.5169  0.4785
  480TMC3     C 7195   3.719   1.153  15.785  0.8794  0.2136 -0.7118
  480TMC3     O 7196   3.818   1.091  15.817 -0.1226  0.4665  1.0208
  480TMC3     H 7197   3.544   1.225  15.595  2.4207 -2.4461  1.4519
  480TMC3    H1 7198   3.949   1.254  15.725 -0.8436  0.7582  0.5943
  480TMC3    H2 7199   3.817   1.482  15.397  1.5661  0.6948  1.4269
  480TMC3    C7 7200   4.038   1.381  15.515 -0.5189  0.5193 -0.3070
  480TMC3    C8 7201   3.559   1.400  15.410  0.0257 -0.6378 -0.4957
  480TMC3    O1 7202   4.108   1.400  15.612  0.2179 -0.1626 -0.2886
  480TMC3    O2 7203   3.447   1.393  15.458 -0.7342  0.5123 -0.5703
  481MPD2     C 7204   0.535   0.772  13.913 -0.2499 -0.7748  0.2151
  481MPD2    C1 7205   0.430   0.704  13.970  0.1282  0.1937  0.5417
  481MPD2    C2 7206   0.435   0.673  14.101  0.2309 -0.1989 -0.1134
  481MPD2    C3 7207   0.554   0.709  14.175  0.1801  0.2660  0.2724
  481MPD2    C4 7208   0.665   0.754  14.107 -0.2555  0.4113  0.2778
  481MPD2    C5 7209   0.651   0.792  13.978  0.1119  0.6590  0.0238
  481MPD2     H 7210   0.349   0.632  14.152  0.7588  0.7620  1.5441
  481MPD2    H1 7211   0.762   0.769  14.152  0.3467 -0.7313 -0.6286
  481MPD2    H2 7212   0.539   0.791  13.806 -0.0774 -1.8559  0.0336
  481MPD2    H3 7213   0.737   0.836  13.929 -0.6515  1.5063 -0.5702
  481MPD2     N 7214   0.568   0.703  14.316  0.1200 -0.1815  0.1042
  481MPD2    H5 7215   0.655   0.728  14.361 -0.0738  1.0269 -0.1848
  481MPD2    N1 7216   0.322   0.678  13.893 -0.3893 -0.2160 -1.2223
  481MPD2    H7 7217   0.309   0.734  13.809 -0.0200 -0.3416 -1.3605
  482TMC3    C1 7218   0.118   0.610  13.832  0.2775  0.5316  0.9642
  482TMC3    C2 7219   0.070   0.487  13.798 -0.0474  0.2503  0.6660
  482TMC3    C3 7220   4.685   0.484  13.728  0.2616 -0.4041 -0.2579
  482TMC3    C4 7221   0.058   0.729  13.821  0.2130  0.4978  0.4803
  482TMC3    C5 7222   4.672   0.721  13.756  0.2322  0.3537 -0.2238
  482TMC3    C6 7223   4.620   0.602  13.705  0.4207  0.3813  0.4658
  482TMC3     C 7224   0.220   0.597  13.926  0.5240  0.1899  0.8063
  482TMC3     O 7225   0.212   0.517  14.015 -0.5840 -0.0500  0.2660
  482TMC3     H 7226   0.129   0.397  13.806  1.0726  0.9740  0.4419
  482TMC3    H1 7227   0.101   0.823  13.851  0.2148  0.0165  1.9559
  482TMC3    H2 7228   4.523   0.592  13.658  0.8754 -0.3682 -0.3309
  482TMC3    C7 7229   4.614   0.838  13.698 -0.8260 -0.5575  0.3989
  482TMC3    C8 7230   4.652   0.352  13.657  0.8128 -0.5250 -0.5994
  482TMC3    O1 7231   4.502   0.832  13.653  0.8713 -0.0414  0.5179
  482TMC3    O2 7232   4.716   0.248  13.671  0.4543  1.0886  0.0867
  483TMC3    C1 7233   3.027   4.592   1.081 -0.5751 -0.6424  0.3335
  483TMC3    C2 7234   3.100   4.708   1.094 -0.2185  0.3280  0.2686
  483TMC3    C3 7235   3.209   4.725   1.016 -0.5305 -0.2754  0.0381
  483TMC3    C4 7236   3.070   4.488   1.004 -0.1534  0.7261 -0.4363
  483TMC3    C5 7237   3.182   4.503   0.935  0.6529  0.2755 -0.2895
  483TMC3    C6 7238   3.252   4.623   0.932  0.4849  0.9210 -0.2919
  483TMC3     C 7239   2.898   4.587   1.142  0.5246  0.5942  0.6923
  483TMC3     O 7240   2.866   4.686   1.203  0.0230  0.6069 -0.5111
  483TMC3     H 7241   3.066   0.057   1.151  0.1727  0.2150  0.6714
  483TMC3    H1 7242   3.026   4.388   1.003  1.3871  0.0338  1.8037
  483TMC3    H2 7243   3.344   4.636   0.877  0.5370 -0.7971 -0.6022
  483TMC3    C7 7244   3.243   4.383   0.895 -0.5371  0.3053 -0.6092
  483TMC3    C8 7245   3.303   0.101   1.010 -0.2288 -0.3143  0.1041
  483TMC3    O1 7246   3.167   4.288   0.875 -0.4945  0.0224 -0.2699
  483TMC3    O2 7247   3.344   0.136   0.900  0.5300 -0.3254 -0.1026
  484MPD2     C 7248   1.474   2.556  12.532 -0.3172 -0.4236 -0.9278
  484MPD2    C1 7249   1.520   2.480  12.632  0.8879 -0.3035  0.3780
  484MPD2    C2 7250   1.653   2.441  12.637  0.3710 -0.3400  0.0900
  484MPD2    C3 7251   1.736   2.459  12.533  0.3920 -0.5117 -0.3816
  484MPD2    C4 7252   1.678   2.533  12.431  0.2705  0.3243  0.3742
  484MPD2    C5 7253   1.559   2.590  12.428  0.6422 -0.2050  0.2550
  484MPD2     H 7254   1.693   2.373  12.711 -0.5263  0.1304  1.0191
  484MPD2    H1 7255   1.739   2.564  12.348 -0.6562  0.7738 -0.1357
  484MPD2    H2 7256   1.369   2.579  12.518  0.1947  0.5432 -3.1770
  484MPD2    H3 7257   1.504   2.638  12.348  0.4180 -1.5680 -0.4059
  484MPD2     N 7258   1.862   2.411  12.517 -0.4609  0.2134 -0.1987
  484MPD2    H5 7259   1.904   2.420  12.425  0.3000  1.3516  0.2605
  484MPD2    N1 7260   1.429   2.433  12.728 -0.4932 -0.4651 -0.1061
  484MPD2    H7 7261   1.330   2.443  12.708 -0.2874  0.6930 -0.5912
  485TMC3    C1 7262   2.079   2.340  12.584 -0.0129  0.4136  0.0226
  485TMC3    C2 7263   2.151   2.300  12.693  0.5899 -0.8583  0.1011
  485TMC3    C3 7264   2.281   2.343  12.698  1.1127  0.3900 -0.3424
  485TMC3    C4 7265   2.130   2.404  12.479  0.0755 -0.7027 -0.3240
  485TMC3    C5 7266   2.265   2.435  12.482 -0.4359  0.9334  0.0807
  485TMC3    C6 7267   2.343   2.405  12.594  0.2464 -0.3312 -0.3341
  485TMC3     C 7268   1.939   2.367  12.620  0.7002  0.2238  0.1053
  485TMC3     O 7269   1.927   2.376  12.740  0.0900  0.8995 -0.5051
  485TMC3     H 7270   2.096   2.245  12.768  0.0045 -0.9195 -0.3721
  485TMC3    H1 7271   2.077   2.434  12.389  1.0596  0.7460 -0.4096
  485TMC3    H2 7272   2.450   2.419  12.597  0.2451 -0.2169 -0.7787
  485TMC3    C7 7273   2.317   2.424  12.344 -0.0340  0.3810  0.1447
  485TMC3    C8 7274   2.350   2.299  12.817 -0.2830 -0.1539  0.1989
  485TMC3    O1 7275   2.247   2.357  12.268  0.3854  0.4725  0.2889
  485TMC3    O2 7276   2.280   2.292  12.914  0.1624  0.2888  0.2777
  486MPD2     C 7277   3.439   1.131  13.223 -0.1731 -0.1324  0.3855
  486MPD2    C1 7278   3.370   1.073  13.116 -0.1161  0.1367  0.8508
  486MPD2    C2 7279   3.324   1.147  13.010 -0.0845  0.0308 -0.0079
  486MPD2    C3 7280   3.332   1.282  13.012 -0.0071  0.1024  0.0032
  486MPD2    C4 7281   3.397   1.341  13.115 -0.7982 -0.5977 -0.3133
  486MPD2    C5 7282   3.447   1.266  13.222  0.0520  0.4413  0.1887
  486MPD2     H 7283   3.281   1.112  12.917  0.4063  1.1852 -0.6639
  486MPD2    H1 7284   3.414   1.448  13.121  1.5417 -0.9950 -0.1336
  486MPD2    H2 7285   3.477   1.080  13.310  2.4822  0.4333 -0.4289
  486MPD2    H3 7286   3.456   1.317  13.317  1.4899  0.0155  0.2742
  486MPD2     N 7287   3.270   1.354  12.909  0.0636 -0.3468 -0.3123
  486MPD2    H5 7288   3.232   1.301  12.832  0.0282 -2.6029  1.2770
  486MPD2    N1 7289   3.365   0.936  13.120 -0.3207 -0.3661  0.0680
  486MPD2    H7 7290   3.400   0.895  13.206  3.0933 -1.3665 -1.8194
  487TMC3    C1 7291   3.297   0.723  13.090  0.0101 -0.0408 -0.2320
  487TMC3    C2 7292   3.273   0.621  13.003 -0.2735  0.1387  0.5813
  487TMC3    C3 7293   3.297   0.497  13.042  0.1409 -0.6014  0.0211
  487TMC3    C4 7294   3.330   0.711  13.220 -0.2412 -0.2979 -0.4193
  487TMC3    C5 7295   3.314   0.583  13.259  0.4614 -0.1580 -0.3683
  487TMC3    C6 7296   3.322   0.477  13.171 -0.0520 -0.8793 -0.0331
  487TMC3     C 7297   3.297   0.851  13.037  0.0002 -0.0208 -0.3451
  487TMC3     O 7298   3.242   0.874  12.926 -0.0875  0.3054 -0.4446
  487TMC3     H 7299   3.249   0.628  12.898  2.0098 -0.0591  0.0398
  487TMC3    H1 7300   3.308   0.781  13.300  1.7586  0.7184 -0.7751
  487TMC3    H2 7301   3.337   0.376  13.206  0.3365 -1.4164 -1.7581
  487TMC3    C7 7302   3.256   0.559  13.390 -0.2034  0.1913 -0.3394
  487TMC3    C8 7303   3.219   0.390  12.992  0.1628 -0.2279 -0.1930
  487TMC3    O1 7304   3.271   0.653  13.464  0.4157 -0.1521  0.4597
  487TMC3    O2 7305   3.266   0.281  13.011  0.2917 -0.1922 -0.7524
  488MPD2     C 7306   3.449   2.908  16.573  0.6644  0.2162 -0.2369
  488MPD2    C1 7307   3.508   2.990  16.668 -0.6755  0.0257  0.1597
  488MPD2    C2 7308   3.460   2.984  16.797  0.0446 -0.1625  0.0789
  488MPD2    C3 7309   3.355   2.896  16.832 -0.8659 -0.0959  0.5154
  488MPD2    C4 7310   3.309   2.805  16.740 -0.5026  0.2655 -0.0405
  488MPD2    C5 7311   3.356   2.813  16.607 -0.8666 -0.2764 -0.6364
  488MPD2     H 7312   3.517   3.046  16.865  1.7946 -0.3678 -1.2102
  488MPD2    H1 7313   3.223   2.741  16.757  2.5511 -2.6129  4.5223
  488MPD2    H2 7314   3.484   2.907  16.470 -0.6982 -1.2124 -0.6960
  488MPD2    H3 7315   3.315   2.744  16.535 -0.4010 -1.7204  0.4837
  488MPD2     N 7316   3.313   2.890  16.966  0.1968 -0.9968 -0.4735
  488MPD2    H5 7317   3.343   2.965  17.027 -0.9257 -1.6716  0.9134
  488MPD2    N1 7318   3.606   3.088  16.628  0.1152  0.4954  0.3412
  488MPD2    H7 7319   3.630   3.160  16.696 -0.4174  0.2153  0.8311
  489TMC3    C1 7320   3.229   2.817  17.168  0.6326 -0.3088  0.5333
  489TMC3    C2 7321   3.269   2.943  17.210  0.2291  0.2930 -0.8000
  489TMC3    C3 7322   3.289   2.955  17.346  0.1324  0.0919 -0.1942
  489TMC3    C4 7323   3.227   2.710  17.249 -0.1268 -0.0288  0.8417
  489TMC3    C5 7324   3.255   2.724  17.381  0.1658 -0.0718  0.9871
  489TMC3    C6 7325   3.300   2.846  17.432  0.6187  0.0789 -0.6142
  489TMC3     C 7326   3.225   2.800  17.024 -0.1797 -0.0881 -0.0326
  489TMC3     O 7327   3.179   2.693  16.976 -0.6204  0.0026 -0.5985
  489TMC3     H 7328   3.250   3.025  17.142  0.7202  0.2436 -0.9991
  489TMC3    H1 7329   3.211   2.614  17.203  0.5720  0.6121 -0.7520
  489TMC3    H2 7330   3.339   2.863  17.532  0.6810  1.9642 -0.9612
  489TMC3    C7 7331   3.214   2.629  17.474 -0.4228  0.5733  0.0078
  489TMC3    C8 7332   3.385   3.062  17.360 -0.1272  0.3251  0.5516
  489TMC3    O1 7333   3.250   2.651  17.592 -0.1140  0.0828  0.5883
  489TMC3    O2 7334   3.444   3.080  17.258 -0.2025  0.0838  0.0008
  490MPD2     C 7335   4.320   2.977  17.363  0.1691  0.4219 -0.5294
  490MPD2    C1 7336   4.281   2.884  17.453 -0.9212  0.6457 -0.2639
  490MPD2    C2 7337   4.384   2.823  17.523  0.3203 -0.1445  0.0442
  490MPD2    C3 7338   4.516   2.861  17.516 -0.1678  0.0934  0.0687
  490MPD2    C4 7339   4.554   2.962  17.430 -0.3700  0.0495  0.6094
  490MPD2    C5 7340   4.457   3.014  17.349 -0.2490 -0.7613 -0.6111
  490MPD2     H 7341   4.366   2.741  17.592  1.7978 -1.9700 -1.7614
  490MPD2    H1 7342   4.660   2.981  17.418 -0.7323  0.6928 -1.4834
  490MPD2    H2 7343   4.247   3.027  17.300 -0.7205  1.6539  1.4823
  490MPD2    H3 7344   4.490   3.086  17.275 -2.7013  0.0580 -0.9067
  490MPD2     N 7345   4.618   2.798  17.593  0.0059 -0.4339  0.4832
  490MPD2    H5 7346   4.712   2.817  17.559 -0.2419  0.0206  0.0705
  490MPD2    N1 7347   4.153   2.830  17.470 -0.4232  0.4222 -0.7009
  490MPD2    H7 7348   4.152   2.767  17.550  2.2832  2.1046  0.6705
  491TMC3    C1 7349   3.946   2.749  17.432  0.4473  0.4179 -0.6266
  491TMC3    C2 7350   3.953   2.702  17.563 -0.2990 -0.4094  0.1796
  491TMC3    C3 7351   3.911   2.572  17.582 -0.8366 -0.1158  0.7249
  491TMC3    C4 7352   3.898   2.668  17.332  0.6746 -0.3770  0.7297
  491TMC3    C5 7353   3.853   2.541  17.359  0.1243 -0.4314 -0.1059
  491TMC3    C6 7354   3.871   2.491  17.484  0.5757 -1.3742  0.3529
  491TMC3     C 7355   4.043   2.849  17.394  0.3680 -0.5563 -0.2273
  491TMC3     O 7356   4.025   2.914  17.298  0.1217 -0.1392  0.9062
  491TMC3     H 7357   3.979   2.763  17.649 -2.1562  0.4606  0.1254
  491TMC3    H1 7358   3.899   2.706  17.231 -1.5621 -0.8030  0.5620
  491TMC3    H2 7359   3.820   2.397  17.502 -0.1332 -0.5840  2.4515
  491TMC3    C7 7360   3.841   2.445  17.239  0.0836 -0.1184 -0.2764
  491TMC3    C8 7361   3.964   2.504  17.705  0.4450  0.2261 -0.3719
  491TMC3    O1 7362   3.813   2.334  17.275  0.4072 -0.0506 -0.5004
  491TMC3    O2 7363   4.006   2.581   0.039  0.6198  0.3386 -0.2583
  492MPD2     C 7364   0.314   2.497  11.305  0.1882 -0.2559  0.1857
  492MPD2    C1 7365   0.248   2.443  11.201  0.1834 -0.1167 -0.0816
  492MPD2    C2 7366   0.158   2.340  11.226  0.3406 -0.3346 -0.0820
  492MPD2    C3 7367   0.128   2.295  11.355 -0.7108 -0.7491 -0.1912
  492MPD2    C4 7368   0.192   2.360  11.456 -0.3813  0.1513 -0.1983
  492MPD2    C5 7369   0.286   2.462  11.433  0.0287 -0.1409 -0.2541
  492MPD2     H 7370   0.111   2.291  11.141  1.3032 -0.4841 -0.5315
  492MPD2    H1 7371   0.175   2.327  11.557 -1.2788 -0.1475 -0.4451
  492MPD2    H2 7372   0.396   2.566  11.290 -0.9701  0.8336 -1.1039
  492MPD2    H3 7373   0.342   2.506  11.515  0.1803  0.3184 -0.6032
  492MPD2     N 7374   0.040   2.192  11.387 -0.2961  0.3574  0.4840
  492MPD2    H5 7375   0.008   2.190  11.484 -0.5772 -0.4439  0.3707
  492MPD2    N1 7376   0.280   2.493  11.073  1.0200 -0.5415 -0.5269
  492MPD2    H7 7377   0.350   2.566  11.075  0.5579 -0.0654 -1.4266
  493TMC3    C1 7378   0.255   2.552  10.849 -0.2952 -0.1452  0.2279
  493TMC3    C2 7379   0.289   2.678  10.884 -0.1784  0.1960  0.7327
  493TMC3    C3 7380   0.259   2.780  10.797 -0.1362 -0.3798 -0.6258
  493TMC3    C4 7381   0.199   2.523  10.724  0.0829 -0.8462  0.7044
  493TMC3    C5 7382   0.179   2.626  10.635 -0.0915  0.3758  0.1606
  493TMC3    C6 7383   0.214   2.754  10.670  0.1085  0.0035  0.0145
  493TMC3     C 7384   0.218   2.456  10.954  1.1025 -0.5360 -0.0177
  493TMC3     O 7385   0.139   2.370  10.926 -0.1142  0.3408 -0.3425
  493TMC3     H 7386   0.322   2.699  10.985  0.9081 -0.8369  0.5897
  493TMC3    H1 7387   0.182   2.419  10.699 -1.0757 -0.2534 -0.9871
  493TMC3    H2 7388   0.184   2.843  10.617 -1.7032 -0.6759 -0.1136
  493TMC3    C7 7389   0.086   2.619  10.525  0.3283  0.0902 -0.3531
  493TMC3    C8 7390   0.311   2.905  10.845 -0.5145 -0.5618  0.0546
  493TMC3    O1 7391   0.039   2.723  10.479 -0.3101 -0.5930  0.2125
  493TMC3    O2 7392   0.332   2.912  10.965 -0.1591  0.0265  0.3148
  494TMC3    C1 7393   0.022   4.465   0.546  1.2064 -0.2768  0.0604
  494TMC3    C2 7394   4.722   4.335   0.515 -0.2712 -0.2268 -0.1625
  494TMC3    C3 7395   0.068   4.269   0.417  0.5151  1.3904  0.5127
  494TMC3    C4 7396   0.121   4.535   0.478 -0.8737 -0.1911 -0.1373
  494TMC3    C5 7397   0.191   4.468   0.383 -0.1384  0.3882 -0.4718
  494TMC3    C6 7398   0.159   4.338   0.345 -0.5190  0.1867 -0.0303
  494TMC3     C 7399   4.721   4.513   0.678 -0.3818 -0.0391 -0.0455
  494TMC3     O 7400   0.049   4.602   0.734 -0.0141 -0.7867 -0.0008
  494TMC3     H 7401   4.661   4.270   0.576  1.5806 -0.8524  1.0198
  494TMC3    H1 7402   0.137   4.638   0.508  0.3588 -0.3918 -0.0785
  494TMC3    H2 7403   0.227   4.284   0.279  0.0695  1.4829 -0.4824
  494TMC3    C7 7404   0.279   4.544   0.294 -0.0167  0.1558  0.0350
  494TMC3    C8 7405   0.098   4.130   0.446 -0.1805  0.0972  0.1082
  494TMC3    O1 7406   0.275   4.504   0.178 -0.3487  0.2407 -0.0232
  494TMC3    O2 7407   0.213   4.106   0.475 -0.1952 -0.6525 -0.2595
  495TMC3    C1 7408   3.774   1.108  14.566 -0.2411 -0.4909 -0.2062
  495TMC3    C2 7409   3.688   1.094  14.460 -0.6066 -0.3455  0.3606
  495TMC3    C3 7410   3.595   1.197  14.440  1.1597 -0.0967 -0.4742
  495TMC3    C4 7411   3.760   1.214  14.646  0.3579 -0.0860 -0.7695
  495TMC3    C5 7412   3.662   1.300  14.635 -0.4236  0.0236  0.4199
  495TMC3    C6 7413   3.572   1.297  14.536 -0.0188  0.5191  0.8691
  495TMC3     C 7414   3.809   0.982  14.628 -0.1466  0.7408  0.0423
  495TMC3     O 7415   3.799   0.970  14.746  0.5010 -0.2967 -0.2812
  495TMC3     H 7416   3.684   1.008  14.393 -2.4293 -0.0072  0.0365
  495TMC3    H1 7417   3.830   1.218  14.729 -1.7707  0.0406  0.9909
  495TMC3    H2 7418   3.498   1.376  14.528 -0.3613  0.0265 -0.9525
  495TMC3    C7 7419   3.642   1.384  14.750 -1.0345  0.0027 -0.1917
  495TMC3    C8 7420   3.482   1.171  14.354  0.4359 -0.3508 -0.3433
  495TMC3    O1 7421   3.747   1.419  14.805  0.0432  0.0667 -0.2296
  495TMC3    O2 7422   3.387   1.244  14.373  0.2287  0.1397  0.3118
  496MPD2     C 7423   1.392   1.784  15.488 -0.1655 -0.0227  0.0783
  496MPD2    C1 7424   1.401   1.659  15.422  1.0932  0.0317 -0.0323
  496MPD2    C2 7425   1.294   1.569  15.450  0.4265  0.1971 -0.1096
  496MPD2    C3 7426   1.203   1.594  15.546 -0.7233  0.2631 -0.1763
  496MPD2    C4 7427   1.207   1.720  15.611  0.2442  0.3556  0.0713
  496MPD2    C5 7428   1.302   1.807  15.586 -0.2342  0.1690 -0.0129
  496MPD2     H 7429   1.298   1.470  15.406  1.0878 -1.1691  3.0555
  496MPD2    H1 7430   1.151   1.739  15.702  0.3620  1.0970 -0.0103
  496MPD2    H2 7431   1.473   1.854  15.470  0.0190 -0.0512  0.8217
  496MPD2    H3 7432   1.303   1.906  15.629  3.4728 -0.2872  0.9857
  496MPD2     N 7433   1.098   1.511  15.581  0.7695  0.0136 -0.7146
  496MPD2    H5 7434   1.047   1.547  15.662 -1.0875 -0.4782 -1.6514
  496MPD2    N1 7435   1.510   1.625  15.344 -0.4940  0.3723  0.2006
  496MPD2    H7 7436   1.578   1.700  15.338  0.8021 -0.6306  2.3776
  497TMC3    C1 7437   0.960   1.323  15.604 -0.3583 -0.2671  0.5976
  497TMC3    C2 7438   0.882   1.248  15.528 -0.2240  0.5357 -0.1289
  497TMC3    C3 7439   0.763   1.205  15.581  0.3069  0.6246  0.2449
  497TMC3    C4 7440   0.927   1.369  15.731 -0.0807  0.1018 -0.0173
  497TMC3    C5 7441   0.803   1.326  15.779  0.9322  0.2216 -0.1166
  497TMC3    C6 7442   0.716   1.243  15.707  0.5946 -0.1832 -0.7361
  497TMC3     C 7443   1.065   1.390  15.528  0.3354  0.7722  0.4731
  497TMC3     O 7444   1.112   1.334  15.426 -0.4634  0.0635  0.3449
  497TMC3     H 7445   0.921   1.226  15.430  0.9934 -2.1234  0.9345
  497TMC3    H1 7446   0.990   1.435  15.789  0.9161 -0.2689 -0.6861
  497TMC3    H2 7447   0.622   1.217  15.754  0.3971  0.7147 -0.6437
  497TMC3    C7 7448   0.754   1.371  15.911  0.0303 -0.1052  0.9417
  497TMC3    C8 7449   0.651   1.169  15.493  0.1937  0.0464  0.0561
  497TMC3    O1 7450   0.657   1.316  15.955  0.5830  0.6329 -0.0046
  497TMC3    O2 7451   0.544   1.159  15.549 -0.6196 -1.0154  0.2379
  498MPD2     C 7452   1.586   3.453   9.367 -0.5547 -0.4743  0.0492
  498MPD2    C1 7453   1.677   3.438   9.473 -0.6486  0.4164 -0.4069
  498MPD2    C2 7454   1.654   3.349   9.577  0.2154  0.2689  0.2269
  498MPD2    C3 7455   1.543   3.269   9.574 -0.8310  0.4310 -0.1723
  498MPD2    C4 7456   1.453   3.285   9.468  0.0761  0.0072 -0.3143
  498MPD2    C5 7457   1.471   3.382   9.372  0.0944 -0.5161  0.3834
  498MPD2     H 7458   1.725   3.328   9.656  0.1028 -0.5886  0.0976
  498MPD2    H1 7459   1.371   3.216   9.454 -1.8022  1.9164  1.1876
  498MPD2    H2 7460   1.593   3.527   9.288  0.7762 -1.5365 -0.8474
  498MPD2    H3 7461   1.392   3.388   9.298  0.2878  0.5867  0.2701
  498MPD2     N 7462   1.535   3.169   9.673 -0.6871  0.2354  0.0155
  498MPD2    H5 7463   1.604   3.175   9.748 -0.0016  0.4883 -0.6374
  498MPD2    N1 7464   1.798   3.509   9.474  0.2699 -0.0710 -0.7034
  498MPD2    H7 7465   1.850   3.508   9.561 -0.2323 -0.4619 -0.4144
  499TMC3    C1 7466   1.981   3.641   9.400 -0.1562 -0.5241 -0.3707
  499TMC3    C2 7467   2.070   3.551   9.442 -0.9056  0.9404 -0.4319
  499TMC3    C3 7468   2.199   3.592   9.430 -0.2940  0.5917  0.2075
  499TMC3    C4 7469   2.009   3.765   9.346 -0.0073 -0.0101 -0.5829
  499TMC3    C5 7470   2.140   3.799   9.332 -0.8492 -0.7198  0.2148
  499TMC3    C6 7471   2.237   3.711   9.374  0.5592  0.2640 -0.2965
  499TMC3     C 7472   1.847   3.594   9.373 -0.0662  0.0512  0.2760
  499TMC3     O 7473   1.812   3.618   9.265  0.2774  0.1781  0.3074
  499TMC3     H 7474   2.030   3.458   9.481  0.8449  1.3530  2.3740
  499TMC3    H1 7475   1.929   3.831   9.315  0.6822  0.9102 -0.3997
  499TMC3    H2 7476   2.341   3.739   9.381  0.0863  1.5236  1.8211
  499TMC3    C7 7477   2.177   3.933   9.366  0.2389  0.5006  0.1887
  499TMC3    C8 7478   2.284   3.522   9.519  0.1819 -0.3492  0.1419
  499TMC3    O1 7479   2.271   3.977   9.306  0.1148  0.2920  0.7388
  499TMC3    O2 7480   2.232   3.468   9.615 -0.3180  0.5309  0.4973
  500MPD2     C 7481   3.708   3.949  11.060 -0.2294  0.3193  0.7221
  500MPD2    C1 7482   3.760   4.005  10.949 -0.0988 -0.2305  0.3774
  500MPD2    C2 7483   3.678   4.073  10.862 -0.4053 -0.0158  0.8111
  500MPD2    C3 7484   3.538   4.078  10.885  0.1477 -0.8940  0.1434
  500MPD2    C4 7485   3.489   4.014  11.003 -0.0460  0.3002 -0.0394
  500MPD2    C5 7486   3.577   3.948  11.083 -0.3561 -0.3889  0.0032
  500MPD2     H 7487   3.717   4.121  10.773  0.0669  0.2258  1.1487
  500MPD2    H1 7488   3.384   4.014  11.030 -0.4364 -0.2971 -1.5537
  500MPD2    H2 7489   3.761   3.896  11.138 -0.3965  0.3914  0.8855
  500MPD2    H3 7490   3.550   3.887  11.168 -1.4483  1.6091  1.1131
  500MPD2     N 7491   3.446   4.143  10.796 -0.3320 -0.0774 -0.5550
  500MPD2    H5 7492   3.352   4.156  10.834 -0.7827  0.1590 -1.7426
  500MPD2    N1 7493   3.900   4.023  10.921 -0.5909 -0.1911 -0.3583
  500MPD2    H7 7494   3.933   4.066  10.835  0.9251  2.6227  1.6554
  501TMC3    C1 7495   4.130   3.972  10.937  0.5660 -0.2009 -0.6450
  501TMC3    C2 7496   4.159   4.063  10.840 -0.3271  0.1799  0.3061
  501TMC3    C3 7497   4.290   4.075  10.807 -0.2212  1.1468 -0.3753
  501TMC3    C4 7498   4.233   3.894  10.993 -0.7373 -0.5488  0.3358
  501TMC3    C5 7499   4.364   3.916  10.961  0.7607 -0.0914  0.9134
  501TMC3    C6 7500   4.391   4.002  10.860  0.1595  0.0909  0.2554
  501TMC3     C 7501   3.999   3.955  10.996  0.7818  0.3592 -0.1598
  501TMC3     O 7502   3.988   3.892  11.101  0.2215 -0.0974 -0.5034
  501TMC3     H 7503   4.087   4.130  10.795 -0.7769 -0.9451 -0.6322
  501TMC3    H1 7504   4.215   3.826  11.075 -3.6127 -1.0333 -0.6910
  501TMC3    H2 7505   4.491   4.014  10.821  0.3432 -0.2686  0.6137
  501TMC3    C7 7506   4.459   3.822  11.003  0.6887  0.2218 -0.0449
  501TMC3    C8 7507   4.328   4.175  10.709 -0.3264  0.2915 -0.2104
  501TMC3    O1 7508   4.414   3.709  11.023  0.0109  0.2118  1.0505
  501TMC3    O2 7509   4.433   4.235  10.738  0.0930  0.5533  0.0055
  502TMC3    C1 7510   3.240   1.887  14.946  0.2499 -0.9101 -0.3647
  502TMC3    C2 7511   3.250   2.026  14.927 -0.0264  0.0783  0.6295
  502TMC3    C3 7512   3.137   2.100  14.953  0.2726  0.5084  0.0849
  502TMC3    C4 7513   3.119   1.830  14.979  0.2463 -0.1312 -0.0048
  502TMC3    C5 7514   3.007   1.906  15.006 -0.1235 -0.4432  0.4672
  502TMC3    C6 7515   3.022   2.040  14.998 -0.0364  0.2509  0.0890
  502TMC3     C 7516   3.342   1.844  15.040  1.0391  0.1645 -0.8263
  502TMC3     O 7517   3.459   1.867  15.011  0.1384 -0.2088 -0.0680
  502TMC3     H 7518   3.342   2.083  14.912 -0.0731  0.0904  0.3888
  502TMC3    H1 7519   3.109   1.722  14.993  1.6280 -0.3772 -0.9933
  502TMC3    H2 7520   2.939   2.105  15.020 -0.3859  0.2657 -1.2724
  502TMC3    C7 7521   2.941   1.873  15.129  0.2520 -0.4211 -0.6842
  502TMC3    C8 7522   3.162   2.233  14.985 -0.0019  0.5403  0.3471
  502TMC3    O1 7523   3.001   1.787  15.191  1.1709 -0.1829  0.3358
  502TMC3    O2 7524   3.194   2.307  14.890 -0.3057  0.1910 -0.7313
  503MPD2     C 7525   0.668   3.295  17.204  0.8616  0.2212 -0.5402
  503MPD2    C1 7526   0.652   3.364  17.320  0.4278 -0.1432  0.3871
  503MPD2    C2 7527   0.744   3.346  17.421 -1.1117  0.5730 -0.3120
  503MPD2    C3 7528   0.860   3.274  17.405 -0.1454 -0.9701 -0.1727
  503MPD2    C4 7529   0.872   3.207  17.287  0.7874 -0.3677  0.2692
  503MPD2    C5 7530   0.783   3.220  17.182 -0.4948 -0.5049 -0.1181
  503MPD2     H 7531   0.736   3.403  17.512  0.4420 -0.1667  0.2878
  503MPD2    H1 7532   0.950   3.134  17.267 -0.2375 -2.0171  2.3172
  503MPD2    H2 7533   0.607   3.315  17.117 -0.6378 -1.0227  0.2125
  503MPD2    H3 7534   0.793   3.179  17.082 -3.7611 -0.0107 -0.6402
  503MPD2     N 7535   0.939   3.256  17.517  0.1476  0.6937 -0.1507
  503MPD2    H5 7536   0.905   3.292  17.605  0.7411  0.8114  0.0288
  503MPD2    N1 7537   0.557   3.461  17.338  0.3385  0.2459 -0.0770
  503MPD2    H7 7538   0.561   3.510  17.427 -1.5077  2.2210 -1.0846
  504TMC3    C1 7539   1.126   3.178  17.656  0.3847  0.1518 -0.6555
  504TMC3    C2 7540   1.049   3.100  17.740  0.7879 -0.7076  0.7826
  504TMC3    C3 7541   1.113   3.036   0.102  0.0839  0.4114  0.1771
  504TMC3    C4 7542   1.263   3.182  17.663 -0.0985  0.0009  0.5039
  504TMC3    C5 7543   1.322   3.117   0.026  0.1603 -0.0090  0.2552
  504TMC3    C6 7544   1.250   3.045   0.124 -0.0642 -0.3887 -0.3544
  504TMC3     C 7545   1.060   3.197  17.526  0.9877  0.8642 -0.4649
  504TMC3     O 7546   1.127   3.170  17.427 -0.0857 -0.5936 -0.3659
  504TMC3     H 7547   0.942   3.099  17.726  0.7792  2.0222  0.5602
  504TMC3    H1 7548   1.326   3.240  17.596  2.0868 -0.3232  2.2586
  504TMC3    H2 7549   1.297   2.995   0.208 -0.8987  0.2316  0.4866
  504TMC3    C7 7550   1.447   3.049  17.718 -0.1545 -0.3497 -1.1527
  504TMC3    C8 7551   1.038   2.929   0.169 -0.1710  0.2902 -0.1688
  504TMC3    O1 7552   1.506   3.107  17.625  0.0564 -0.4886  0.1828
  504TMC3    O2 7553   0.928   2.907   0.116  0.2355  0.2750 -0.8290
  505MPD2     C 7554   1.345   2.239  10.706  0.2565 -0.4769 -0.4973
  505MPD2    C1 7555   1.448   2.166  10.659 -0.4933 -0.4143  0.1591
  505MPD2    C2 7556   1.579   2.218  10.674  0.1369 -0.0525 -0.0146
  505MPD2    C3 7557   1.601   2.339  10.737 -0.4469 -0.6657 -0.6634
  505MPD2    C4 7558   1.496   2.410  10.790 -0.0761 -0.1340 -0.3215
  505MPD2    C5 7559   1.369   2.362  10.767  0.1784  0.0054 -0.2446
  505MPD2     H 7560   1.669   2.176  10.629 -0.8835 -1.0189 -1.1773
  505MPD2    H1 7561   1.512   2.497  10.852  2.0474 -0.8333  0.0960
  505MPD2    H2 7562   1.244   2.202  10.691 -0.8940  3.2385 -1.9264
  505MPD2    H3 7563   1.282   2.424  10.786 -1.4113 -2.1442 -0.4783
  505MPD2     N 7564   1.733   2.383  10.742 -0.5521 -0.3270 -0.0774
  505MPD2    H5 7565   1.803   2.314  10.715  0.2779 -0.1771  1.6252
  505MPD2    N1 7566   1.423   2.052  10.577 -0.1225  0.1396 -0.2924
  505MPD2    H7 7567   1.328   2.030  10.551 -0.4382 -1.3247  2.0824
  506TMC3    C1 7568   1.488   1.913  10.384 -0.4820 -0.7292  0.0262
  506TMC3    C2 7569   1.401   1.981  10.297 -0.0970  0.4251  0.0218
  506TMC3    C3 7570   1.399   1.932  10.167 -0.0535  0.3323 -0.3458
  506TMC3    C4 7571   1.572   1.825  10.346  0.3833  0.1748  0.2775
  506TMC3    C5 7572   1.584   1.798  10.212 -0.2579 -0.2913  0.4897
  506TMC3    C6 7573   1.495   1.845  10.125 -0.6795  0.1837  1.1302
  506TMC3     C 7574   1.526   1.980  10.513  0.6553  0.5616  0.7850
  506TMC3     O 7575   1.645   1.974  10.535  0.0130  0.1471  0.0591
  506TMC3     H 7576   1.339   2.063  10.331 -1.6691 -1.1810  0.9877
  506TMC3    H1 7577   1.629   1.769  10.419  0.0956  3.0439  2.6947
  506TMC3    H2 7578   1.505   1.824  10.020 -0.3659  0.0823  1.1826
  506TMC3    C7 7579   1.718   1.820  10.170  0.2237  0.0173  0.0104
  506TMC3    C8 7580   1.341   2.004  10.052 -0.5818  0.2947 -0.2560
  506TMC3    O1 7581   1.753   1.770  10.065  0.0763  0.0030 -0.7507
  506TMC3    O2 7582   1.338   1.948   9.942  0.3052 -0.1165 -0.1097
  507TMC3    C1 7583   1.783   2.388  14.947 -0.5451 -0.7184  0.1336
  507TMC3    C2 7584   1.698   2.335  14.854  0.2071 -0.2851  0.3873
  507TMC3    C3 7585   1.709   2.358  14.721 -0.6786  0.9056 -0.2711
  507TMC3    C4 7586   1.881   2.478  14.908 -0.0693  0.2825 -0.3148
  507TMC3    C5 7587   1.888   2.508  14.772 -0.3691  0.1064  0.4424
  507TMC3    C6 7588   1.813   2.444  14.683 -0.1514  0.1175  0.2648
  507TMC3     C 7589   1.746   2.399  15.086  0.2668 -0.6327 -0.2114
  507TMC3     O 7590   1.843   2.432  15.156 -0.5396  0.0702  0.0537
  507TMC3     H 7591   1.613   2.276  14.885 -1.0576 -0.0437 -2.6114
  507TMC3    H1 7592   1.942   2.522  14.987 -0.5029 -1.6140  1.0745
  507TMC3    H2 7593   1.813   2.483  14.582  0.1175  0.1068  0.2616
  507TMC3    C7 7594   1.892   2.655  14.742  0.5886 -0.8475 -0.2372
  507TMC3    C8 7595   1.585   2.383  14.662 -0.5918 -0.7781 -0.3310
  507TMC3    O1 7596   1.811   2.690  14.657  0.1460  0.1934  0.4175
  507TMC3    O2 7597   1.504   2.294  14.651 -0.3371 -0.7845 -0.1864
  508MPD2     C 7598   2.460   0.290  16.335  0.6515 -0.9994  0.4758
  508MPD2    C1 7599   2.598   0.318  16.352 -0.2676  0.2279 -0.1897
  508MPD2    C2 7600   2.673   0.347  16.237  0.7384  0.1577 -0.4202
  508MPD2    C3 7601   2.622   0.341  16.110  0.6252  0.3570  0.0412
  508MPD2    C4 7602   2.491   0.292  16.091 -0.0654 -0.4873  0.0436
  508MPD2    C5 7603   2.414   0.275  16.209 -0.4504  0.3078 -0.3672
  508MPD2     H 7604   2.774   0.386  16.244  1.0588 -0.8755  0.7700
  508MPD2    H1 7605   2.445   0.290  15.993 -1.4877  0.4703  0.7082
  508MPD2    H2 7606   2.391   0.269  16.416  0.4065  1.0749  0.8002
  508MPD2    H3 7607   2.319   0.226  16.191  0.7753 -1.8398 -1.0983
  508MPD2     N 7608   2.708   0.373  16.007 -0.3873 -0.1620 -0.6041
  508MPD2    H5 7609   2.805   0.391  16.030 -1.5641  1.2110  3.2207
  508MPD2    N1 7610   2.642   0.330  16.487  0.1908  0.0205  0.2003
  508MPD2    H7 7611   2.576   0.302  16.559 -0.1965 -4.0217 -1.7044
  509TMC3    C1 7612   2.855   0.617  15.711 -1.1883  0.0126 -0.4231
  509TMC3    C2 7613   2.966   0.615  15.784  0.9057 -0.0104  0.2005
  509TMC3    C3 7614   2.999   0.505  15.854 -0.6032  0.2970 -0.1561
  509TMC3    C4 7615   2.764   0.511  15.715 -0.6925 -0.7755  0.2153
  509TMC3    C5 7616   2.793   0.402  15.790  0.1972 -0.1254 -0.3683
  509TMC3    C6 7617   2.915   0.401  15.858 -0.3827  0.2508  0.3411
  509TMC3     C 7618   2.793   0.746  15.712 -1.6000 -0.0270 -0.1737
  509TMC3     O 7619   2.831   0.828  15.801 -0.2886 -0.0646  0.3759
  509TMC3     H 7620   3.036   0.696  15.766  2.3433 -0.9667  1.4865
  509TMC3    H1 7621   2.670   0.515  15.663 -0.2763 -0.3968 -0.5038
  509TMC3    H2 7622   2.959   0.311  15.900  1.1719  1.1505  0.6610
  509TMC3    C7 7623   2.685   0.358  15.873  0.0119 -0.0930 -0.0355
  509TMC3    C8 7624   3.017   0.540  15.995 -0.7020  0.1297  0.2326
  509TMC3    O1 7625   2.582   0.315  15.824 -0.1186 -0.6031  0.1355
  509TMC3    O2 7626   2.993   0.450  16.076 -0.7064  0.0705  0.0844
  510MPD2     C 7627   0.653   1.751  14.560  0.4756 -0.4432 -0.0217
  510MPD2    C1 7628   0.695   1.663  14.655 -0.2709  0.4882 -0.6057
  510MPD2    C2 7629   0.822   1.604  14.636  0.2566  0.1285  0.3060
  510MPD2    C3 7630   0.910   1.656  14.542 -0.0996 -0.3109  0.5950
  510MPD2    C4 7631   0.872   1.757  14.459  0.2680 -0.1354 -0.0313
  510MPD2    C5 7632   0.744   1.811  14.477  0.9202 -0.6620 -0.2424
  510MPD2     H 7633   0.862   1.528  14.703  1.1437 -0.5559 -1.0074
  510MPD2    H1 7634   0.932   1.808  14.385 -0.3415  0.2686 -0.2507
  510MPD2    H2 7635   0.552   1.791  14.564  0.5364 -0.2953  0.0384
  510MPD2    H3 7636   0.705   1.875  14.399 -0.0757  0.7526  1.4103
  510MPD2     N 7637   1.039   1.595  14.539  0.7387  0.0191 -0.4395
  510MPD2    H5 7638   1.054   1.509  14.591 -0.7697  0.2061  0.3061
  510MPD2    N1 7639   0.601   1.623  14.748  0.1288 -0.0438 -0.8645
  510MPD2    H7 7640   0.507   1.659  14.735  0.7694  1.1779 -2.1618
  511TMC3    C1 7641   0.516   1.508  14.945  0.0226  0.2165 -0.2459
  511TMC3    C2 7642   0.532   1.542  15.071  0.3291  0.0605 -0.3412
  511TMC3    C3 7643   0.412   1.530  15.146 -0.4462 -0.0925 -0.5686
  511TMC3    C4 7644   0.403   1.460  14.885 -0.0709  0.0673  0.5993
  511TMC3    C5 7645   0.299   1.432  14.972 -0.2021 -0.3868 -0.0358
  511TMC3    C6 7646   0.301   1.465  15.101  0.3627  0.4843 -0.1071
  511TMC3     C 7647   0.627   1.539  14.857  0.2351 -0.3166  0.1953
  511TMC3     O 7648   0.735   1.506  14.903 -0.2171  0.2754  0.0737
  511TMC3     H 7649   0.627   1.570  15.114  0.8006 -2.1733  0.1148
  511TMC3    H1 7650   0.409   1.426  14.782 -4.2996 -1.6742  0.9566
  511TMC3    H2 7651   0.219   1.448  15.169  1.4864  0.7679  1.3059
  511TMC3    C7 7652   0.227   1.313  14.930 -0.5842  0.1755  0.6013
  511TMC3    C8 7653   0.439   1.516  15.280 -0.2345 -0.4809 -0.4339
  511TMC3    O1 7654   0.251   1.266  14.817  0.2682 -0.2396  0.1718
  511TMC3    O2 7655   0.549   1.482  15.312 -0.0184  0.2359  0.5402
  512TMC3    C1 7656   3.613   1.030  13.650  0.0563 -0.4967 -0.6435
  512TMC3    C2 7657   3.746   1.049  13.636 -0.4853 -1.0750 -0.7132
  512TMC3    C3 7658   3.821   0.937  13.645  1.0121 -0.3995 -0.0703
  512TMC3    C4 7659   3.560   0.907  13.665  0.5692 -1.0064 -0.1952
  512TMC3    C5 7660   3.638   0.796  13.683 -0.2635 -0.2304 -0.1746
  512TMC3    C6 7661   3.766   0.810  13.666  0.2802  0.2297  0.3139
  512TMC3     C 7662   3.533   1.134  13.611 -0.1151  0.6102 -0.0730
  512TMC3     O 7663   3.580   1.211  13.530  0.3952 -0.1592  0.7970
  512TMC3     H 7664   3.790   1.145  13.610 -1.6412 -0.3479  0.0210
  512TMC3    H1 7665   3.453   0.905  13.648  0.3549  2.6316  0.6235
  512TMC3    H2 7666   3.826   0.720  13.657  0.5179  0.3839  0.3455
  512TMC3    C7 7667   3.581   0.659  13.672  0.4107 -0.1849  0.4514
  512TMC3    C8 7668   3.963   0.949  13.684  0.2599  0.7967 -0.4684
  512TMC3    O1 7669   3.488   0.628  13.743 -0.4024  0.1047 -0.1790
  512TMC3    O2 7670   4.048   0.867  13.650 -0.0181 -0.0292  0.0330
  513MPD2     C 7671   1.659   1.470  13.508 -0.1336 -0.2267 -0.4459
  513MPD2    C1 7672   1.764   1.456  13.414  0.1454  0.5185  0.4277
  513MPD2    C2 7673   1.885   1.412  13.464 -0.5156 -0.7882  0.8810
  513MPD2    C3 7674   1.900   1.367  13.593 -0.0124 -0.2606 -0.1453
  513MPD2    C4 7675   1.793   1.373  13.682 -0.6030  0.7825  0.9064
  513MPD2    C5 7676   1.677   1.422  13.636 -0.3893 -0.3349  0.0056
  513MPD2     H 7677   1.975   1.410  13.404 -1.2865 -1.4911 -0.2621
  513MPD2    H1 7678   1.795   1.354  13.789 -0.9006  1.0223  0.9525
  513MPD2    H2 7679   1.563   1.504  13.471  0.8438  1.6364 -1.2750
  513MPD2    H3 7680   1.594   1.433  13.705  0.2538 -0.2377  0.7668
  513MPD2     N 7681   2.022   1.301  13.628  0.0894 -0.1968  0.3747
  513MPD2    H5 7682   2.086   1.289  13.550 -0.7127 -0.9658 -0.1539
  513MPD2    N1 7683   1.758   1.494  13.273  0.1447  0.5756 -0.4535
  513MPD2    H7 7684   1.837   1.455  13.224 -0.0792  1.5115 -1.5506
  514TMC3    C1 7685   1.681   1.567  13.068  0.7733  0.0225 -0.3784
  514TMC3    C2 7686   1.579   1.529  12.983 -0.3158  0.0220  0.4199
  514TMC3    C3 7687   1.619   1.437  12.894 -0.3201  0.2089  0.7627
  514TMC3    C4 7688   1.812   1.556  13.043 -0.2900  0.0012 -0.9595
  514TMC3    C5 7689   1.844   1.455  12.953 -0.3572  0.0575  0.3398
  514TMC3    C6 7690   1.747   1.392  12.876  0.0253  0.3490  0.1492
  514TMC3     C 7691   1.647   1.549  13.209 -0.2081 -0.6957 -0.1950
  514TMC3     O 7692   1.534   1.566  13.249 -1.0585  0.4335  0.4834
  514TMC3     H 7693   1.475   1.530  13.014  0.2864  0.5350  2.3795
  514TMC3    H1 7694   1.887   1.610  13.099 -1.4341 -0.8008  1.3557
  514TMC3    H2 7695   1.768   1.298  12.827 -1.6146  0.3002 -0.4471
  514TMC3    C7 7696   1.950   1.371  13.013 -0.6247  0.0686 -0.4676
  514TMC3    C8 7697   1.516   1.394  12.806  0.3845 -0.0496 -0.5867
  514TMC3    O1 7698   1.995   1.411  13.119 -0.1681 -0.0444  1.0203
  514TMC3    O2 7699   1.401   1.375  12.845  0.2319 -0.4099 -0.7156
  515MPD2     C 7700   3.487   2.614  15.790  0.3343  0.2875 -0.1513
  515MPD2    C1 7701   3.563   2.620  15.667  0.3466 -0.8778  0.1324
  515MPD2    C2 7702   3.673   2.702  15.670  0.1961  0.3757 -0.4271
  515MPD2    C3 7703   3.711   2.764  15.788  0.8800 -0.2625 -0.3141
  515MPD2    C4 7704   3.647   2.743  15.906  0.5775  0.7804 -0.2455
  515MPD2    C5 7705   3.533   2.668  15.908 -0.0500 -0.2635 -0.5885
  515MPD2     H 7706   3.711   2.723  15.571 -1.4665 -0.7961 -1.3235
  515MPD2    H1 7707   3.666   2.797  15.998 -3.1376  1.5023  0.1054
  515MPD2    H2 7708   3.397   2.553  15.796 -0.2149  1.2923  1.6328
  515MPD2    H3 7709   3.477   2.661  16.001  0.4693 -0.6092 -0.3018
  515MPD2     N 7710   3.832   2.828  15.809  0.2721 -0.0971  0.2965
  515MPD2    H5 7711   3.864   2.839  15.904  2.5624  0.0091 -0.5015
  515MPD2    N1 7712   3.541   2.538  15.548 -0.1179 -0.0265  0.5472
  515MPD2    H7 7713   3.600   2.552  15.467  0.6789 -2.7748  0.6426
  516TMC3    C1 7714   3.468   2.365  15.423 -0.2317  0.1090 -0.5349
  516TMC3    C2 7715   3.494   2.426  15.303  0.2751 -0.2022 -0.2185
  516TMC3    C3 7716   3.532   2.356  15.191  0.0853  0.6364 -0.9028
  516TMC3    C4 7717   3.482   2.232  15.436  0.2541 -0.5518  0.0688
  516TMC3    C5 7718   3.532   2.162  15.320  0.6192 -0.1547 -0.2369
  516TMC3    C6 7719   3.538   2.220  15.196  0.1273  0.4831  0.2068
  516TMC3     C 7720   3.445   2.443  15.539 -0.3732 -0.1474 -0.4380
  516TMC3     O 7721   3.374   2.385  15.625 -0.2019 -0.4921  0.2222
  516TMC3     H 7722   3.483   2.534  15.301 -0.8408 -0.3102 -0.0539
  516TMC3    H1 7723   3.477   2.188  15.535 -1.9820  0.6373  0.4803
  516TMC3    H2 7724   3.560   2.170  15.102 -1.9803  0.9210 -0.5140
  516TMC3    C7 7725   3.624   2.061  15.360  0.7665 -0.4768 -0.3133
  516TMC3    C8 7726   3.551   2.421  15.066 -0.4021  0.1492 -0.6218
  516TMC3    O1 7727   3.636   2.028  15.476 -0.6846 -0.0302  0.2933
  516TMC3    O2 7728   3.490   2.366  14.973 -0.3409  0.0705  0.2221
  517MPD2     C 7729   3.758   4.657   0.283 -0.5827 -0.1387 -0.2337
  517MPD2    C1 7730   3.891   4.645   0.323 -0.6020  0.0633  0.4119
  517MPD2    C2 7731   3.937   4.734   0.424  0.0533 -0.3663 -0.3910
  517MPD2    C3 7732   3.854   0.100   0.471 -0.6539 -0.6443  0.1970
  517MPD2    C4 7733   3.722   0.112   0.428 -0.9865 -0.3943  0.3965
  517MPD2    C5 7734   3.682   0.020   0.333 -0.4729  0.8230  0.6149
  517MPD2     H 7735   4.038   4.715   0.459 -0.6812 -1.6136  1.0553
  517MPD2    H1 7736   3.658   0.185   0.475  0.2258  0.2284  1.0942
  517MPD2    H2 7737   3.718   4.599   0.202 -0.1995 -0.6738 -0.0407
  517MPD2    H3 7738   3.584   0.029   0.287 -1.1852 -1.4800  1.6719
  517MPD2     N 7739   3.895   0.186   0.579 -0.6869 -0.2493 -0.0232
  517MPD2    H5 7740   3.831   0.261   0.604  1.6688  1.1626  1.7641
  517MPD2    N1 7741   3.974   4.538   0.284  0.4191  0.5834 -1.0193
  517MPD2    H7 7742   4.066   4.537   0.326 -1.4951 -0.6056  3.1349
  518TMC3    C1 7743   4.030   4.321   0.188  0.0289  0.6437  0.1691
  518TMC3    C2 7744   3.975   4.202   0.148 -0.0175 -0.0935  0.3493
  518TMC3    C3 7745   4.051   4.107   0.089 -0.3713  0.9765 -1.0973
  518TMC3    C4 7746   4.159   4.356   0.149  0.6187 -0.0620 -0.4567
  518TMC3    C5 7747   4.229   4.253   0.096 -0.4415 -0.0281  0.5047
  518TMC3    C6 7748   4.182   4.127   0.060  0.9137 -0.4807  0.2247
  518TMC3     C 7749   3.929   4.434   0.208  0.1658  0.3734 -0.7230
  518TMC3     O 7750   3.814   4.409   0.177 -0.2191  0.2271 -0.0725
  518TMC3     H 7751   3.879   4.175   0.193  0.2664 -0.9378  0.4456
  518TMC3    H1 7752   4.203   4.447   0.185  0.7407 -0.5114  0.5378
  518TMC3    H2 7753   4.242   4.043   0.029 -0.5415 -0.8867 -1.5303
  518TMC3    C7 7754   4.367   4.278   0.072 -0.1718 -0.1539 -0.0503
  518TMC3    C8 7755   4.007   3.972   0.090 -0.0005  0.0169  0.4068
  518TMC3    O1 7756   4.421   4.344   0.159  0.1233 -0.4520 -0.5010
  518TMC3    O2 7757   4.077   3.893   0.026  0.6703 -0.4256 -0.0095
  519MPD2     C 7758   0.618   2.765  14.610 -0.7318  0.2519  0.8652
  519MPD2    C1 7759   0.508   2.689  14.579  0.1280  0.0153  0.2393
  519MPD2    C2 7760   0.520   2.561  14.531 -0.5621  0.0800 -0.3314
  519MPD2    C3 7761   0.643   2.505  14.503  0.4195 -0.2796 -0.7837
  519MPD2    C4 7762   0.753   2.580  14.546 -0.0702 -0.3763  0.1975
  519MPD2    C5 7763   0.739   2.706  14.603  0.6612 -0.4626  0.5865
  519MPD2     H 7764   0.433   2.506  14.497  1.0016 -0.1419 -3.9468
  519MPD2    H1 7765   0.855   2.558  14.517  0.8308  0.5543  2.6544
  519MPD2    H2 7766   0.615   2.862  14.659 -2.6497  0.4237  0.4253
  519MPD2    H3 7767   0.824   2.762  14.639  1.4303 -1.1449 -0.1758
  519MPD2     N 7768   0.663   2.385  14.434 -0.2900 -0.5567 -0.1247
  519MPD2    H5 7769   0.761   2.371  14.414  0.1401  0.6139  1.1172
  519MPD2    N1 7770   0.385   2.757  14.601 -0.2110  0.2941  0.6109
  519MPD2    H7 7771   0.403   2.855  14.619  1.2176  0.1557  0.0088
  520TMC3    C1 7772   0.619   2.228  14.275 -0.7974 -0.2139  0.6594
  520TMC3    C2 7773   0.562   2.256  14.154  0.4943 -0.4443 -0.3344
  520TMC3    C3 7774   0.643   2.244  14.045 -0.3428  0.8501  0.2986
  520TMC3    C4 7775   0.742   2.166  14.291  0.2981 -0.1208 -0.2011
  520TMC3    C5 7776   0.811   2.141  14.177  0.4497  0.1125 -0.6797
  520TMC3    C6 7777   0.775   2.187  14.054  0.4132  0.9702 -0.1681
  520TMC3     C 7778   0.565   2.312  14.376 -0.2015  0.0588 -0.1393
  520TMC3     O 7779   0.445   2.306  14.390  0.4268 -0.0996 -0.1338
  520TMC3     H 7780   0.470   2.312  14.160  0.4297 -0.6096  0.2237
  520TMC3    H1 7781   0.778   2.141  14.390 -2.0348  2.4241  1.2768
  520TMC3    H2 7782   0.847   2.183  13.974  0.4575  3.9262 -0.2446
  520TMC3    C7 7783   0.943   2.096  14.196 -0.0869 -0.4862 -0.4590
  520TMC3    C8 7784   0.598   2.307  13.922  0.2991  0.0917  0.3943
  520TMC3    O1 7785   0.978   2.105  14.315  0.1484  0.4866  0.1959
  520TMC3    O2 7786   0.682   2.305  13.827  0.3717  0.2494  0.3555
  521MPD2     C 7787   1.599   1.494  17.519  0.4416 -0.6292  0.0846
  521MPD2    C1 7788   1.573   1.378  17.446  0.0128  0.7239  0.2496
  521MPD2    C2 7789   1.683   1.303  17.408 -0.3001 -0.3481 -0.3660
  521MPD2    C3 7790   1.809   1.347  17.442 -0.4666 -0.5103 -0.1264
  521MPD2    C4 7791   1.832   1.460  17.512 -0.1802  0.9347 -0.5497
  521MPD2    C5 7792   1.725   1.529  17.566 -0.4942  0.0042  0.0548
  521MPD2     H 7793   1.667   1.217  17.343  2.4370  1.1429 -3.0442
  521MPD2    H1 7794   1.932   1.484  17.546  0.4978 -1.0898 -1.1178
  521MPD2    H2 7795   1.519   1.559  17.553  0.8560 -0.3952  0.6111
  521MPD2    H3 7796   1.742   1.629  17.604 -1.0100 -0.1551  0.6886
  521MPD2     N 7797   1.911   1.259  17.407 -0.4042 -0.2576  0.3682
  521MPD2    H5 7798   1.889   1.170  17.364  2.1005 -0.2771 -0.8418
  521MPD2    N1 7799   1.440   1.344  17.414  0.1876  0.5279  0.0764
  521MPD2    H7 7800   1.366   1.395  17.461 -0.6892  1.0109 -1.8456
  522TMC3    C1 7801   2.129   1.164  17.402 -0.0090 -0.0665 -0.9127
  522TMC3    C2 7802   2.265   1.183  17.368 -0.8712  0.0588 -0.3485
  522TMC3    C3 7803   2.326   1.089  17.293  0.1819 -0.1438 -0.3557
  522TMC3    C4 7804   2.071   1.037  17.386 -0.1960  1.0196  0.3495
  522TMC3    C5 7805   2.142   0.948  17.309  0.2421  0.5183 -0.2007
  522TMC3    C6 7806   2.269   0.971  17.256 -0.7187  0.1583 -0.0890
  522TMC3     C 7807   2.043   1.280  17.427 -0.1486  0.2602  0.4579
  522TMC3     O 7808   2.099   1.383  17.454  0.0672  0.1149  0.1446
  522TMC3     H 7809   2.308   1.279  17.395  1.9270 -1.5522  0.9195
  522TMC3    H1 7810   1.979   1.003  17.431 -1.3188  0.7710 -2.1416
  522TMC3    H2 7811   2.316   0.893  17.196 -1.8796  0.0757 -0.9047
  522TMC3    C7 7812   2.061   0.844  17.266  0.7805  0.2016  0.0011
  522TMC3    C8 7813   2.467   1.117  17.269 -0.5027 -0.6652  0.6095
  522TMC3    O1 7814   1.994   0.782  17.349 -0.4607  0.7364 -0.2518
  522TMC3    O2 7815   2.527   1.205  17.329  0.6536 -0.1839 -0.1110
  523MPD2     C 7816   4.610   0.940  10.338 -0.2381  0.2344  0.4281
  523MPD2    C1 7817   4.479   0.903  10.312 -0.1966 -0.1922 -0.0165
  523MPD2    C2 7818   4.411   0.990  10.228  0.0488 -0.4249 -0.1352
  523MPD2    C3 7819   4.468   1.114  10.181  0.0232 -0.5032 -0.6499
  523MPD2    C4 7820   4.595   1.146  10.212  0.1928  0.2111  0.2448
  523MPD2    C5 7821   4.666   1.057  10.296 -0.0140 -0.7556 -0.0762
  523MPD2     H 7822   4.305   0.967  10.217  0.5019 -1.8929 -1.5248
  523MPD2    H1 7823   4.643   1.235  10.175  2.2768 -0.8605  0.3388
  523MPD2    H2 7824   4.665   0.878  10.408 -0.3311  0.4231  0.6661
  523MPD2    H3 7825   0.031   1.077  10.328 -0.0856  0.0782 -0.3866
  523MPD2     N 7826   4.386   1.208  10.104 -0.3512 -0.5540 -0.3202
  523MPD2    H5 7827   4.428   1.297  10.081  1.3224 -0.7759  1.8714
  523MPD2    N1 7828   4.429   0.780  10.368  0.1658  0.7242  0.3450
  523MPD2    H7 7829   4.486   0.738  10.441 -2.5024 -2.9816  0.2782
  524TMC3    C1 7830   4.186   1.296  10.008  0.3436 -0.6288  0.5001
  524TMC3    C2 7831   4.251   1.379   9.923  0.2602 -0.5236  0.0611
  524TMC3    C3 7832   4.181   1.472   9.856 -0.1927 -0.7846 -0.6422
  524TMC3    C4 7833   4.052   1.281  10.003 -0.0109 -0.2137  0.7648
  524TMC3    C5 7834   3.982   1.373   9.932  0.3907  0.4469 -0.6094
  524TMC3    C6 7835   4.043   1.476   9.863 -0.3597  0.5964 -0.8537
  524TMC3     C 7836   4.254   1.185  10.074 -0.3920  0.1237 -0.1652
  524TMC3     O 7837   4.187   1.087  10.099 -0.2228  0.4087  0.3206
  524TMC3     H 7838   4.358   1.386   9.938  0.4489 -1.6055 -0.7762
  524TMC3    H1 7839   4.008   1.209  10.070  0.0846 -0.8190  0.1786
  524TMC3    H2 7840   3.987   1.556   9.817  2.3455  2.7683 -0.3873
  524TMC3    C7 7841   3.841   1.380   9.961 -0.0437 -0.7072 -0.6243
  524TMC3    C8 7842   4.250   1.576   9.778  0.6168  0.1922 -0.4466
  524TMC3    O1 7843   3.784   1.277   9.989 -0.2838  0.6088 -0.2410
  524TMC3    O2 7844   4.179   1.648   9.709 -0.1357  0.1288  0.6047
  525MPD2     C 7845   2.009   2.082  14.619  0.0136  0.2018 -0.0109
  525MPD2    C1 7846   2.129   2.078  14.687 -0.1084  0.5673  0.2599
  525MPD2    C2 7847   2.217   2.177  14.668 -0.1294  0.8010 -0.2488
  525MPD2    C3 7848   2.185   2.285  14.583 -0.6680 -0.2843 -0.0819
  525MPD2    C4 7849   2.073   2.282  14.506 -0.0461  0.1030  0.1169
  525MPD2    C5 7850   1.985   2.177  14.524  0.2999 -0.1867  0.1770
  525MPD2     H 7851   2.302   2.182  14.735 -0.6991 -0.3185  0.5585
  525MPD2    H1 7852   2.050   2.361  14.436 -0.8631  1.2074  1.6171
  525MPD2    H2 7853   1.933   2.006  14.634  1.5557 -1.1883  0.7179
  525MPD2    H3 7854   1.897   2.176  14.462  0.8382 -0.3193 -0.5860
  525MPD2     N 7855   2.264   2.396  14.551 -0.3053  0.5366 -0.1652
  525MPD2    H5 7856   2.222   2.474  14.500  0.7355  1.3764  0.2638
  525MPD2    N1 7857   2.169   1.971  14.768 -0.1088 -0.2022 -0.5513
  525MPD2    H7 7858   2.269   1.977  14.785 -0.5749  0.2548  2.0820
  526TMC3    C1 7859   2.178   1.769  14.882  0.6864  0.7227 -0.4667
  526TMC3    C2 7860   2.113   1.706  14.983 -0.2213 -0.5552 -0.5350
  526TMC3    C3 7861   2.193   1.632  15.068  0.1504 -0.4079  0.0393
  526TMC3    C4 7862   2.317   1.765  14.864  0.0109  0.1521 -0.2218
  526TMC3    C5 7863   2.385   1.689  14.953 -0.0420 -0.0906 -0.3507
  526TMC3    C6 7864   2.323   1.633  15.065  0.2259  0.2655 -0.2495
  526TMC3     C 7865   2.097   1.863  14.804 -0.1812  0.2801 -0.4425
  526TMC3     O 7866   1.977   1.854  14.816 -0.0584  0.4387 -0.0687
  526TMC3     H 7867   2.009   1.730  15.001 -0.0282 -0.1259  0.0028
  526TMC3    H1 7868   2.363   1.807  14.776  2.3740 -1.0404  0.4537
  526TMC3    H2 7869   2.390   1.561  15.113 -1.6126 -1.1319  0.2119
  526TMC3    C7 7870   2.525   1.658  14.928  0.2731  0.0443 -0.6679
  526TMC3    C8 7871   2.146   1.613  15.203  0.7148  0.1585  0.0908
  526TMC3    O1 7872   2.605   1.669  15.022 -0.7636  0.2143  0.3289
  526TMC3    O2 7873   2.234   1.570  15.275  0.6416  1.2082 -0.3282
  527MPD2     C 7874   0.306   0.859   1.425  0.8528 -0.0776  0.4719
  527MPD2    C1 7875   0.278   0.732   1.393 -0.5650  0.2172 -0.1068
  527MPD2    C2 7876   0.374   0.655   1.327  0.5787 -0.7053  0.2547
  527MPD2    C3 7877   0.495   0.712   1.285  0.3996 -0.1943 -0.4793
  527MPD2    C4 7878   0.528   0.840   1.335  0.3155  0.3472 -0.2305
  527MPD2    C5 7879   0.426   0.911   1.401  0.2847  0.3659  0.6781
  527MPD2     H 7880   0.348   0.553   1.300 -1.9866 -0.6657  2.6226
  527MPD2    H1 7881   0.631   0.875   1.332 -0.2005  1.9916  1.6313
  527MPD2    H2 7882   0.240   0.926   1.480  0.2425  0.0110 -0.3632
  527MPD2    H3 7883   0.440   1.016   1.423 -0.4417  0.3267  1.3365
  527MPD2     N 7884   0.581   0.636   1.204  0.3157 -0.4369  0.2908
  527MPD2    H5 7885   0.545   0.547   1.170  0.0664 -0.5379  0.8317
  527MPD2    N1 7886   0.153   0.670   1.402 -0.4121 -0.0787 -0.0031
  527MPD2    H7 7887   0.145   0.574   1.371  1.7195 -0.3229  0.1973
  528TMC3    C1 7888   4.658   0.654   1.428  0.1200 -0.2082 -0.1436
  528TMC3    C2 7889   4.647   0.571   1.321 -0.5138 -0.2649  0.4054
  528TMC3    C3 7890   4.545   0.489   1.318 -0.1487  0.0590  0.5715
  528TMC3    C4 7891   4.548   0.677   1.506  0.2149 -0.3527  0.1763
  528TMC3    C5 7892   4.446   0.587   1.499 -0.1641 -0.1191  0.1938
  528TMC3    C6 7893   4.437   0.491   1.403  0.1002  0.0659  0.0337
  528TMC3     C 7894   0.039   0.734   1.440 -0.3220  0.7514  0.5367
  528TMC3     O 7895   0.024   0.847   1.493 -0.0095 -0.3245 -0.5334
  528TMC3     H 7896   4.731   0.568   1.252 -2.0681  0.8394 -1.5615
  528TMC3    H1 7897   4.561   0.755   1.580  0.8358 -1.0527  0.7994
  528TMC3    H2 7898   4.373   0.403   1.411  0.7575 -0.4102  0.0416
  528TMC3    C7 7899   4.335   0.633   1.573 -0.3198 -0.0032 -0.1728
  528TMC3    C8 7900   4.546   0.386   1.217 -0.2002 -1.5827  0.1950
  528TMC3    O1 7901   4.363   0.712   1.667  0.1476 -0.6838  0.1464
  528TMC3    O2 7902   4.660   0.369   1.175  0.1795 -0.2643 -0.5204
  529MPD2     C 7903   2.064   3.521   1.257 -0.4961 -0.0099  0.2555
  529MPD2    C1 7904   2.192   3.499   1.205  0.1090 -0.8739  0.0221
  529MPD2    C2 7905   2.217   3.529   1.070 -0.2936 -0.3904 -0.3066
  529MPD2    C3 7906   2.121   3.586   0.995  0.4356  0.6983 -0.0600
  529MPD2    C4 7907   1.998   3.609   1.047  0.6977 -0.1070 -0.5465
  529MPD2    C5 7908   1.965   3.569   1.174 -0.2950  0.0014 -0.2235
  529MPD2     H 7909   2.315   3.511   1.028 -0.7461  0.5395 -1.7636
  529MPD2    H1 7910   1.925   3.657   0.982 -0.3763  2.1048  2.3237
  529MPD2    H2 7911   2.026   3.496   1.355 -1.9300  0.9963 -0.0506
  529MPD2    H3 7912   1.861   3.586   1.196 -0.4055 -0.3907 -0.4361
  529MPD2     N 7913   2.135   3.638   0.860 -0.1429 -0.4163 -0.3980
  529MPD2    H5 7914   2.061   3.697   0.825 -2.0342 -3.0879 -0.9269
  529MPD2    N1 7915   2.285   3.425   1.281 -0.3829 -0.9785  0.4091
  529MPD2    H7 7916   2.367   3.411   1.223  0.1858  0.0102  0.9759
  530TMC3    C1 7917   2.419   3.315   1.445  0.2774  0.4577  0.8784
  530TMC3    C2 7918   2.534   3.373   1.393 -0.3158  0.3695 -0.0174
  530TMC3    C3 7919   2.644   3.301   1.415 -0.1764  0.1995  0.4574
  530TMC3    C4 7920   2.424   3.201   1.520  0.3932  0.1956  0.5305
  530TMC3    C5 7921   2.545   3.146   1.560  0.9049 -0.8120 -0.2028
  530TMC3    C6 7922   2.660   3.195   1.498  0.2130  0.0788 -0.5801
  530TMC3     C 7923   2.284   3.362   1.402 -0.1585 -0.1820  0.3649
  530TMC3     O 7924   2.186   3.337   1.474 -0.6322 -0.1006  0.1711
  530TMC3     H 7925   2.531   3.463   1.334  0.3837 -0.4788 -1.3689
  530TMC3    H1 7926   2.334   3.167   1.570 -0.7748  0.7092 -1.2258
  530TMC3    H2 7927   2.757   3.154   1.523  0.2510  0.3143 -0.3312
  530TMC3    C7 7928   2.558   3.028   1.640 -0.0641 -0.3253 -0.0608
  530TMC3    C8 7929   2.763   3.388   1.404  0.5569  0.1215  0.2320
  530TMC3    O1 7930   2.676   2.989   1.653  0.1245  0.2015  0.7952
  530TMC3    O2 7931   2.736   3.507   1.412  0.4747  0.4542  0.1838
  531MPD2     C 7932   2.263   0.982  13.067  0.6383 -0.4313  0.6957
  531MPD2    C1 7933   2.216   1.064  13.159 -0.0903 -0.1244 -0.7100
  531MPD2    C2 7934   2.129   1.162  13.112  0.9593 -0.7564  0.4398
  531MPD2    C3 7935   2.068   1.162  12.984  0.0982 -0.0637  0.0614
  531MPD2    C4 7936   2.106   1.063  12.899  0.2160 -0.1843 -0.1115
  531MPD2    C5 7937   2.210   0.983  12.942 -0.4612  0.2604 -0.0656
  531MPD2     H 7938   2.088   1.228  13.187  2.6486 -0.6829  1.2942
  531MPD2    H1 7939   2.066   1.063  12.799 -2.5664 -0.5099  0.9995
  531MPD2    H2 7940   2.348   0.918  13.086  1.4674  0.4607  0.0403
  531MPD2    H3 7941   2.268   0.922  12.875  1.3440  0.5922  1.2035
  531MPD2     N 7942   1.984   1.262  12.934 -0.3529  0.3031  0.3523
  531MPD2    H5 7943   1.944   1.254  12.841 -1.2210 -0.3505  0.7725
  531MPD2    N1 7944   2.261   1.050  13.285 -0.1067 -0.4059  0.0728
  531MPD2    H7 7945   2.320   0.972  13.309  1.7506  1.2733  0.9466
  532TMC3    C1 7946   2.255   1.074  13.517 -0.1085  0.0427  0.6549
  532TMC3    C2 7947   2.233   1.163  13.612 -0.9088  0.1421  0.5333
  532TMC3    C3 7948   2.159   1.139  13.724 -0.0345 -0.0337  0.4782
  532TMC3    C4 7949   2.212   0.948  13.534  0.3659 -0.1448  0.0535
  532TMC3    C5 7950   2.141   0.926  13.651  0.0288  0.2893 -0.0829
  532TMC3    C6 7951   2.124   1.007  13.754 -0.3627 -0.0948  0.0844
  532TMC3     C 7952   2.229   1.136  13.392  0.6072  0.0440 -0.2272
  532TMC3     O 7953   2.161   1.237  13.394  0.4595 -0.1399 -0.0103
  532TMC3     H 7954   2.267   1.266  13.609 -1.0020  0.1619  0.2150
  532TMC3    H1 7955   2.200   0.860  13.471 -1.2084 -1.2733  1.9559
  532TMC3    H2 7956   2.048   0.972  13.824  1.7608  0.9374  2.9118
  532TMC3    C7 7957   2.080   0.794  13.664 -0.0877 -0.1679 -0.0363
  532TMC3    C8 7958   2.056   1.238  13.744 -0.0384  0.6726 -0.5648
  532TMC3    O1 7959   2.118   0.722  13.755 -0.1975 -0.4915 -0.4566
  532TMC3    O2 7960   1.993   1.235  13.852 -0.1827 -0.1135 -0.4101
  533TMC3    C1 7961   2.404   2.564  14.623  0.3903  0.3688  0.4045
  533TMC3    C2 7962   2.534   2.595  14.640 -0.5235 -0.3777 -0.1747
  533TMC3    C3 7963   2.575   2.649  14.759  0.2556 -1.4368  0.6685
  533TMC3    C4 7964   2.314   2.602  14.723  0.2091 -0.0342  0.4724
  533TMC3    C5 7965   2.352   2.649  14.842  1.4275 -0.9746  0.2857
  533TMC3    C6 7966   2.488   2.687  14.859 -0.4095  0.0820  0.2419
  533TMC3     C 7967   2.390   2.418  14.597 -0.2596 -0.1403 -0.8426
  533TMC3     O 7968   2.475   2.338  14.631 -0.0392 -0.7819  0.2151
  533TMC3     H 7969   2.605   2.563  14.564  0.6073 -2.1385  1.6181
  533TMC3    H1 7970   2.207   2.592  14.706  0.6979 -1.8231 -1.5715
  533TMC3    H2 7971   2.530   2.719  14.954 -1.6806 -1.7570  1.4507
  533TMC3    C7 7972   2.262   2.620  14.954  0.2588  0.2400  0.5035
  533TMC3    C8 7973   2.704   2.699  14.756  0.0642  0.2165  0.5806
  533TMC3    O1 7974   2.179   2.532  14.943  0.3500 -0.3518  0.5050
  533TMC3    O2 7975   2.751   2.711  14.872  0.1312  0.1891 -0.0201
  534MPD2     C 7976   0.166   3.398   1.116 -0.0012  0.0296 -0.6162
  534MPD2    C1 7977   0.128   3.529   1.114  0.0563  0.2491 -0.0955
  534MPD2    C2 7978   0.008   3.560   1.056 -0.1392 -0.6014  0.3409
  534MPD2    C3 7979   4.671   3.472   0.982 -0.4536  0.6428  0.1554
  534MPD2    C4 7980   4.722   3.339   0.980  0.2108 -0.3858 -1.0510
  534MPD2    C5 7981   0.094   3.304   1.052  0.0425  0.0154 -0.2321
  534MPD2     H 7982   4.712   3.664   1.053 -2.1197 -1.2706 -1.2456
  534MPD2    H1 7983   4.670   3.256   0.935  0.0192 -0.4887 -0.6282
  534MPD2    H2 7984   0.256   3.358   1.161 -0.1481 -0.7586 -1.0211
  534MPD2    H3 7985   0.137   3.206   1.037  1.0505  0.0128  2.8362
  534MPD2     N 7986   4.548   3.510   0.920  0.3916  0.7161  0.8054
  534MPD2    H5 7987   4.523   3.608   0.924 -1.1430  0.4046 -1.8122
  534MPD2    N1 7988   0.206   3.632   1.175  0.0665 -0.4620 -0.2398
  534MPD2    H7 7989   0.165   3.723   1.193  0.7861  0.3232 -2.5786
  535TMC3    C1 7990   4.350   3.491   0.807  0.4334 -0.8326  0.6781
  535TMC3    C2 7991   4.310   3.615   0.856 -0.7681 -0.6927  0.0654
  535TMC3    C3 7992   4.210   3.677   0.785  1.0158 -0.3974  0.2783
  535TMC3    C4 7993   4.296   3.449   0.687  0.0552 -0.1688 -0.1704
  535TMC3    C5 7994   4.220   3.527   0.603  0.2075 -0.3017 -0.4095
  535TMC3    C6 7995   4.174   3.651   0.656 -0.4834  0.1967  0.1602
  535TMC3     C 7996   4.472   3.430   0.852 -0.0150 -0.2505  0.1381
  535TMC3     O 7997   4.490   3.311   0.825 -0.0333 -0.0586 -0.0359
  535TMC3     H 7998   4.331   3.639   0.960 -1.2368 -0.4107  0.0932
  535TMC3    H1 7999   4.340   3.359   0.645 -2.0891 -0.9663 -0.7153
  535TMC3    H2 8000   4.123   3.720   0.590 -1.5450  0.4835  1.2947
  535TMC3    C7 8001   4.262   3.511   0.467 -0.0337  0.4948 -0.0175
  535TMC3    C8 8002   4.120   3.768   0.845 -0.5873 -0.4671 -0.2173
  535TMC3    O1 8003   4.305   3.400   0.437 -0.2527 -0.5707 -0.1636
  535TMC3    O2 8004   4.010   3.783   0.792  0.1634  0.2497 -0.4698
  536MPD2     C 8005   3.296   1.588  16.631  0.8675 -0.5934 -0.0962
  536MPD2    C1 8006   3.390   1.662  16.558 -0.2626  0.5332  0.3542
  536MPD2    C2 8007   3.365   1.711  16.427  0.4482 -0.5479 -0.5230
  536MPD2    C3 8008   3.243   1.673  16.370 -0.5109 -0.4216 -0.9842
  536MPD2    C4 8009   3.146   1.613  16.448  0.2203 -0.7848 -0.2522
  536MPD2    C5 8010   3.174   1.563  16.574  0.4223  0.3885 -0.6590
  536MPD2     H 8011   3.447   1.760  16.377  1.5080 -2.6666 -0.8358
  536MPD2    H1 8012   3.051   1.580  16.408 -0.0960 -1.1180  0.7768
  536MPD2    H2 8013   3.312   1.551  16.731 -2.1297  0.2009  0.6877
  536MPD2    H3 8014   3.094   1.512  16.626  0.9637  0.1454 -0.0612
  536MPD2     N 8015   3.207   1.713  16.240 -0.2823 -0.2725 -0.0519
  536MPD2    H5 8016   3.107   1.721  16.221 -0.2593  1.1046  0.4142
  536MPD2    N1 8017   3.510   1.684  16.639 -0.0888 -0.3570  0.4019
  536MPD2    H7 8018   3.509   1.646  16.733 -0.9244  0.4164  0.7018
  537TMC3    C1 8019   3.720   1.750  16.695  0.8021 -0.1837  0.0186
  537TMC3    C2 8020   3.769   1.868  16.744 -0.3140 -0.0770  0.2311
  537TMC3    C3 8021   3.792   1.875  16.872  0.8889  0.4181  0.8818
  537TMC3    C4 8022   3.707   1.644  16.773  1.0152  0.6449  0.2261
  537TMC3    C5 8023   3.739   1.656  16.907 -0.1341  0.0386 -0.4126
  537TMC3    C6 8024   3.788   1.776  16.961  0.2252 -0.7815  0.7253
  537TMC3     C 8025   3.612   1.759  16.598 -0.2308  0.5172  1.2409
  537TMC3     O 8026   3.614   1.845  16.512 -0.2556  0.6219 -0.6485
  537TMC3     H 8027   3.773   1.960  16.686 -1.8485  0.1072  0.4160
  537TMC3    H1 8028   3.684   1.545  16.734 -2.2745  1.5898 -0.2388
  537TMC3    H2 8029   3.797   1.794  17.067 -1.3338  0.2954  0.6791
  537TMC3    C7 8030   3.679   1.555  16.998  0.1174  0.4248 -0.6720
  537TMC3    C8 8031   3.798   2.012  16.925 -0.2899  0.2472 -0.4969
  537TMC3    O1 8032   3.589   1.493  16.944  0.2325  0.2282  0.1247
  537TMC3    O2 8033   3.753   2.032  17.038  0.1833  0.0341  0.3570
  538TMC3    C1 8034   0.404   0.296  11.195 -0.1350 -0.1344  0.1495
  538TMC3    C2 8035   0.450   0.233  11.093 -0.4089 -0.6318 -0.3639
  538TMC3    C3 8036   0.478   0.295  10.972  0.3691 -0.6434  0.9475
  538TMC3    C4 8037   0.386   0.432  11.191  0.5200 -0.1916 -0.3092
  538TMC3    C5 8038   0.397   0.494  11.065  0.5120  0.3024  0.1730
  538TMC3    C6 8039   0.453   0.431  10.955 -0.4530  0.2637 -0.1846
  538TMC3     C 8040   0.296   0.220  11.255  0.0697 -0.1912  0.3923
  538TMC3     O 8041   0.206   0.191  11.175 -0.6034 -0.2455 -0.3267
  538TMC3     H 8042   0.453   0.124  11.093 -2.4774 -0.6922 -1.2019
  538TMC3    H1 8043   0.341   0.479  11.278  0.3071 -0.2798 -0.3710
  538TMC3    H2 8044   0.453   0.485  10.860  1.6425 -0.3901 -0.5484
  538TMC3    C7 8045   0.285   0.583  11.033  0.2119  0.7490 -0.1352
  538TMC3    C8 8046   0.505   0.208  10.858 -0.2454 -0.4709 -0.2277
  538TMC3    O1 8047   0.182   0.557  11.095  0.2073 -0.0773  0.3371
  538TMC3    O2 8048   0.456   0.098  10.853  0.3485  0.2156  0.2086
  539MPD2     C 8049   0.045   4.415  12.035 -0.0707  0.6461  0.1877
  539MPD2    C1 8050   0.039   4.396  11.894 -0.0396 -0.3074  0.7118
  539MPD2    C2 8051   4.666   4.453  11.832 -0.5406 -0.0088 -0.1830
  539MPD2    C3 8052   4.578   4.534  11.896 -0.4819 -0.7826 -0.0421
  539MPD2    C4 8053   4.593   4.564  12.029  0.1101  0.1422 -0.2365
  539MPD2    C5 8054   4.694   4.501  12.089  0.0458  0.2150  0.4688
  539MPD2     H 8055   4.656   4.423  11.728 -1.5189  2.2204 -0.7210
  539MPD2    H1 8056   4.540   4.639  12.086  1.3205  0.7064  0.1570
  539MPD2    H2 8057   0.117   4.367  12.099  1.1583  2.4498  0.1682
  539MPD2    H3 8058   4.700   4.530  12.194  1.6125 -4.1867  1.6012
  539MPD2     N 8059   4.469   4.591  11.826  0.1503  0.4595  0.1318
  539MPD2    H5 8060   4.424   4.669  11.872 -0.3688  0.5859 -0.5866
  539MPD2    N1 8061   0.133   4.317  11.824 -0.5350 -0.1516 -0.1471
  539MPD2    H7 8062   0.205   4.265  11.873  2.5570  3.9790 -0.2501
  540TMC3    C1 8063   4.301   4.619  11.673  0.0416 -0.0507  0.2263
  540TMC3    C2 8064   4.253   4.597  11.549  0.5449 -0.5931 -0.4014
  540TMC3    C3 8065   4.120   4.619  11.531  0.5601  0.4155 -0.5480
  540TMC3    C4 8066   4.220   4.651  11.776 -0.9389 -0.8159  0.2298
  540TMC3    C5 8067   4.088   4.671  11.752  0.1007 -0.5471  0.4432
  540TMC3    C6 8068   4.035   4.660  11.631  0.1697  0.1465  0.3315
  540TMC3     C 8069   4.428   4.562  11.700 -0.1849  0.4916  0.1416
  540TMC3     O 8070   4.474   4.494  11.612  0.0806  0.2595  0.7093
  540TMC3     H 8071   4.310   4.556  11.466  0.6602  0.7570 -0.9836
  540TMC3    H1 8072   4.254   4.642  11.879  2.9579 -0.7887 -1.0463
  540TMC3    H2 8073   3.930   4.683  11.612  0.6170  1.4925 -0.5681
  540TMC3    C7 8074   4.011   0.001  11.854  1.5241 -0.1257 -0.0851
  540TMC3    C8 8075   4.058   4.624  11.398  0.0881  0.1452 -0.7832
  540TMC3    O1 8076   3.894   0.038  11.824 -0.1443 -0.6258 -0.4501
  540TMC3    O2 8077   3.957   4.557  11.385  0.2290  0.2592  0.0594
  541MPD2     C 8078   3.019   1.016  13.625 -0.1729 -0.0084 -0.8486
  541MPD2    C1 8079   2.977   0.930  13.525 -0.2241  0.0303 -0.1085
  541MPD2    C2 8080   2.986   0.971  13.394  0.3634  0.4166  0.2612
  541MPD2    C3 8081   3.048   1.091  13.356  0.1559 -0.3128  0.0848
  541MPD2    C4 8082   3.088   1.170  13.455  0.2773  0.1106  0.2917
  541MPD2    C5 8083   3.065   1.138  13.581  0.3112 -0.2057  0.2158
  541MPD2     H 8084   2.939   0.916  13.313  5.4629 -0.6817 -1.9454
  541MPD2    H1 8085   3.110   1.274  13.433 -1.2519  0.0162 -1.6635
  541MPD2    H2 8086   3.010   0.996  13.731  0.1865 -0.1487 -0.8439
  541MPD2    H3 8087   3.086   1.217  13.652  2.9993 -1.7107  1.1192
  541MPD2     N 8088   3.042   1.141  13.224  0.7524 -0.3965  0.3160
  541MPD2    H5 8089   3.064   1.240  13.219  0.2758 -0.3755 -1.3715
  541MPD2    N1 8090   2.907   0.813  13.545  0.4320  0.6251  0.3529
  541MPD2    H7 8091   2.870   0.771  13.461  0.1879  0.5089  0.5185
  542TMC3    C1 8092   2.972   1.142  12.997  0.0113 -0.1997  0.5847
  542TMC3    C2 8093   3.004   1.084  12.875 -0.0438 -0.1155  0.2668
  542TMC3    C3 8094   2.983   1.160  12.766 -0.6041  0.5993 -0.6544
  542TMC3    C4 8095   2.902   1.257  13.012  0.4099  1.2779 -0.3475
  542TMC3    C5 8096   2.882   1.335  12.894 -0.1164 -0.4516 -0.1234
  542TMC3    C6 8097   2.929   1.290  12.778 -0.3952 -1.0079  0.3060
  542TMC3     C 8098   3.005   1.062  13.113  0.2698  0.3328  1.0128
  542TMC3     O 8099   3.003   0.943  13.108  0.3471 -0.1382 -0.4089
  542TMC3     H 8100   3.057   0.990  12.881  0.9021  0.5201  1.9635
  542TMC3    H1 8101   2.864   1.288  13.108 -1.1167 -2.7208  0.3252
  542TMC3    H2 8102   2.906   1.342  12.685  0.6144 -2.5835 -0.8233
  542TMC3    C7 8103   2.790   1.449  12.900 -0.9510  0.1469 -0.5588
  542TMC3    C8 8104   3.055   1.132  12.643  0.8049  0.3687  0.4013
  542TMC3    O1 8105   2.792   1.515  13.001 -0.1884  0.3245  0.2109
  542TMC3    O2 8106   3.081   1.224  12.572 -0.1428 -0.0269  1.0755
  543TMC3    C1 8107   2.379   2.898  17.331  0.5954 -0.8316  0.2633
  543TMC3    C2 8108   2.393   2.791  17.411  0.6695  0.4493  0.2759
  543TMC3    C3 8109   2.349   2.805  17.538 -0.0843  0.0121 -0.8147
  543TMC3    C4 8110   2.325   3.014  17.372  0.1131 -0.4724  0.5573
  543TMC3    C5 8111   2.260   3.017  17.491 -0.4319 -0.0255 -0.1848
  543TMC3    C6 8112   2.273   2.912  17.577 -0.3542  0.4749  0.5749
  543TMC3     C 8113   2.415   2.881  17.191  0.4871  0.9298  0.7419
  543TMC3     O 8114   2.519   2.823  17.174 -0.0073 -0.6773  0.5670
  543TMC3     H 8115   2.443   2.703  17.373  0.5715  0.7921 -0.6541
  543TMC3    H1 8116   2.348   3.108  17.324  0.8896 -0.9344  0.0044
  543TMC3    H2 8117   2.228   2.918  17.676  1.5038 -2.3776  1.6060
  543TMC3    C7 8118   2.209   3.143  17.537 -0.2552  0.2896 -0.4553
  543TMC3    C8 8119   2.308   2.680  17.601  0.4334 -0.8233  0.5068
  543TMC3    O1 8120   2.171   3.148  17.654 -0.6766  0.0170  0.0417
  543TMC3    O2 8121   2.305   2.588  17.519  0.5803 -0.3327  0.6709
  544MPD2     C 8122   2.135   2.370   0.229  0.1174 -0.1142 -0.4273
  544MPD2    C1 8123   2.144   2.355   0.088  0.3344  0.2561  0.3818
  544MPD2    C2 8124   2.192   2.461   0.006 -0.1679  0.5511  0.0680
  544MPD2    C3 8125   2.235   2.573   0.065 -0.3058 -0.3002  0.2033
  544MPD2    C4 8126   2.224   2.591   0.198 -0.2135 -0.5558 -0.5548
  544MPD2    C5 8127   2.179   2.493   0.283 -0.2613  0.3199  0.1683
  544MPD2     H 8128   2.200   2.454  17.645 -1.8341  0.2135 -0.0342
  544MPD2    H1 8129   2.253   2.679   0.255 -0.7940  0.2384 -1.4778
  544MPD2    H2 8130   2.093   2.291   0.290  0.7642  0.8374  1.2759
  544MPD2    H3 8131   2.159   2.518   0.386  0.8821  0.2024  0.4239
  544MPD2     N 8132   2.285   2.684  17.738 -0.6809  0.1316  0.6965
  544MPD2    H5 8133   2.330   2.765   0.033  2.1625  0.4050 -2.8425
  544MPD2    N1 8134   2.104   2.233   0.026  0.6713 -0.7502  0.5023
  544MPD2    H7 8135   2.086   2.154   0.087 -2.0715  0.3228  1.0940
  545TMC3    C1 8136   2.053   2.067  17.603 -0.4338  0.1880 -0.5819
  545TMC3    C2 8137   1.993   2.051  17.483  0.5730 -0.4397 -0.3486
  545TMC3    C3 8138   1.961   1.920  17.448 -0.1265  0.2950  0.3059
  545TMC3    C4 8139   2.074   1.966  17.691  0.3045 -0.3406  0.1708
  545TMC3    C5 8140   2.047   1.836  17.651 -0.3759 -0.7472 -0.4016
  545TMC3    C6 8141   1.992   1.811  17.528 -0.3523 -0.0146  1.6521
  545TMC3     C 8142   2.086   2.206  17.640  0.4173 -0.2672 -0.4383
  545TMC3     O 8143   2.085   2.287  17.548 -0.0067 -0.4903  0.0263
  545TMC3     H 8144   1.967   2.135  17.420 -1.4698 -1.2874 -0.6186
  545TMC3    H1 8145   2.112   1.981   0.045 -0.3263  0.0742  0.3441
  545TMC3    H2 8146   1.956   1.711  17.508 -1.9976  1.1759 -1.4670
  545TMC3    C7 8147   2.048   1.733   0.004 -0.1192  0.8277 -0.5900
  545TMC3    C8 8148   1.883   1.893  17.332 -0.3617 -0.3147 -0.1588
  545TMC3    O1 8149   2.042   1.763   0.122  0.0980  0.3695  0.0460
  545TMC3    O2 8150   1.861   1.771  17.317 -0.0961 -0.9925  0.0293
  546MPD2     C 8151   3.598   2.511  17.728  0.5263 -0.1689 -0.2182
  546MPD2    C1 8152   3.581   2.553  17.605  0.1976  0.2197  0.2200
  546MPD2    C2 8153   3.593   2.691  17.571 -0.2759 -0.0148 -0.1937
  546MPD2    C3 8154   3.635   2.779  17.670  0.3082 -1.1349  0.2193
  546MPD2    C4 8155   3.653   2.733   0.051  0.0548  0.1589  0.5737
  546MPD2    C5 8156   3.628   2.600   0.078 -0.6174  0.7155  0.7348
  546MPD2     H 8157   3.584   2.709  17.464 -1.5313 -0.8785 -0.2421
  546MPD2    H1 8158   3.691   2.793   0.133 -0.9055 -0.7136  1.6645
  546MPD2    H2 8159   3.596   2.405   0.004  2.0617 -0.2837 -0.5753
  546MPD2    H3 8160   3.636   2.561   0.179  0.7936  1.8670  1.0630
  546MPD2     N 8161   3.682   2.906  17.644 -0.3587 -0.1587  0.4907
  546MPD2    H5 8162   3.729   2.957  17.718  3.4778 -2.9369 -0.0740
  546MPD2    N1 8163   3.544   2.451  17.516 -0.8702 -0.9255  0.1235
  546MPD2    H7 8164   3.545   2.357  17.554  2.1188 -2.0226 -2.6569
  547TMC3    C1 8165   3.461   2.347  17.330  0.4523 -0.5941  0.6956
  547TMC3    C2 8166   3.378   2.360  17.220  0.0995 -0.5628 -0.2224
  547TMC3    C3 8167   3.284   2.263  17.198 -0.5566 -0.4098  0.5702
  547TMC3    C4 8168   3.459   2.237  17.408 -0.0585  0.4157 -0.0524
  547TMC3    C5 8169   3.354   2.151  17.390  0.7165  0.1795 -0.0764
  547TMC3    C6 8170   3.270   2.156  17.281  0.3003  0.4024 -0.1503
  547TMC3     C 8171   3.510   2.468  17.385  0.4900 -0.5811  0.7040
  547TMC3     O 8172   3.496   2.569  17.319 -0.3466 -0.6529 -0.1899
  547TMC3     H 8173   3.360   2.457  17.176  0.6951 -0.3347  0.0321
  547TMC3    H1 8174   3.526   2.220  17.491 -2.1645  2.4788  2.0771
  547TMC3    H2 8175   3.194   2.079  17.273 -0.0374  0.5314  1.9546
  547TMC3    C7 8176   3.333   2.047  17.489  0.8114  0.1912  0.3940
  547TMC3    C8 8177   3.206   2.272  17.082 -0.1427 -0.6616 -0.4503
  547TMC3    O1 8178   3.376   2.064  17.603  0.5017  0.1295  0.1984
  547TMC3    O2 8179   3.146   2.379  17.067  0.1784 -0.3498 -0.4307
  548MPD2     C 8180   3.606   2.960  12.963 -0.4064 -0.0001  0.3365
  548MPD2    C1 8181   3.569   2.831  12.923 -0.1576 -0.0865 -0.5453
  548MPD2    C2 8182   3.660   2.747  12.874  0.2822 -0.4445  0.3379
  548MPD2    C3 8183   3.792   2.782  12.855 -0.2082 -0.3402 -0.3313
  548MPD2    C4 8184   3.834   2.911  12.897  0.6316 -0.5338  0.1293
  548MPD2    C5 8185   3.738   2.995  12.950  0.0030 -0.0242  0.9384
  548MPD2     H 8186   3.630   2.646  12.851 -2.1793  0.4386 -0.3411
  548MPD2    H1 8187   3.934   2.949  12.881 -0.0976  1.2137 -0.1717
  548MPD2    H2 8188   3.549   3.031  13.022  1.8926  1.1575  1.1882
  548MPD2    H3 8189   3.768   3.095  12.978  0.5302 -0.0731  0.5546
  548MPD2     N 8190   3.866   2.691  12.771  0.2802  0.2357  0.0820
  548MPD2    H5 8191   3.822   2.602  12.751 -0.3301  0.1861  1.6018
  548MPD2    N1 8192   3.435   2.800  12.940  0.1923  0.2330 -0.1920
  548MPD2    H7 8193   3.372   2.869  12.981 -1.8959 -0.7906 -1.6512
  549TMC3    C1 8194   3.230   2.699  12.879 -0.2086 -0.5256  0.2794
  549TMC3    C2 8195   3.177   2.827  12.860 -0.1121 -0.4290  0.4075
  549TMC3    C3 8196   3.041   2.824  12.837 -0.3978 -0.1088 -0.2090
  549TMC3    C4 8197   3.159   2.579  12.884  0.3271 -0.1455 -0.0188
  549TMC3    C5 8198   3.021   2.595  12.885  0.6178 -0.1685  0.0898
  549TMC3    C6 8199   2.963   2.714  12.852 -0.6610  0.4445  0.0675
  549TMC3     C 8200   3.371   2.688  12.908 -0.8291 -0.1732  0.9621
  549TMC3     O 8201   3.421   2.582  12.876 -0.0491 -0.2875 -0.0938
  549TMC3     H 8202   3.241   2.914  12.850 -0.1740 -0.3517  0.6751
  549TMC3    H1 8203   3.216   2.489  12.902  0.3056  0.1429  1.4975
  549TMC3    H2 8204   2.856   2.727  12.861 -0.5643 -0.7271  2.7168
  549TMC3    C7 8205   2.934   2.488  12.914 -0.6363 -0.1477  0.2361
  549TMC3    C8 8206   2.982   2.932  12.757  0.3709 -0.4363 -0.0848
  549TMC3    O1 8207   2.825   2.526  12.962  0.0113  0.1844  0.3181
  549TMC3    O2 8208   2.861   2.943  12.760 -0.8578  0.1030 -0.1757
  550TMC3    C1 8209   2.713   0.755  12.139 -0.6538  0.0452 -0.9726
  550TMC3    C2 8210   2.736   0.757  12.273 -0.2333 -0.0593  0.2874
  550TMC3    C3 8211   2.633   0.803  12.356 -0.5481  0.9847  0.2916
  550TMC3    C4 8212   2.584   0.772  12.089  0.1710  0.1211 -0.4771
  550TMC3    C5 8213   2.479   0.801  12.173 -0.4738 -0.3350  0.4324
  550TMC3    C6 8214   2.509   0.832  12.305 -0.5017  0.3785  0.8395
  550TMC3     C 8215   2.819   0.715  12.044 -0.0438  0.1677  0.1637
  550TMC3     O 8216   2.909   0.651  12.093  0.3123  0.7230  0.1430
  550TMC3     H 8217   2.837   0.745  12.311 -0.0121  1.9343  0.3296
  550TMC3    H1 8218   2.565   0.753  11.984  2.5461  0.0263 -0.8815
  550TMC3    H2 8219   2.430   0.866  12.371 -1.3265 -0.6277  0.3702
  550TMC3    C7 8220   2.365   0.866  12.114 -0.4063 -0.1264  0.6285
  550TMC3    C8 8221   2.660   0.827  12.500 -0.4921  0.3023 -0.0271
  550TMC3    O1 8222   2.291   0.937  12.179  0.2699  0.1952 -0.2714
  550TMC3    O2 8223   2.747   0.759  12.556  0.5468  0.3782  0.1619
  551TMC3    C1 8224   4.702   3.659  13.727 -0.0096 -0.1916  0.3751
  551TMC3    C2 8225   0.041   3.554  13.766 -0.2190  0.3731 -0.4772
  551TMC3    C3 8226   0.095   3.551  13.888  0.0619 -0.0445  0.2561
  551TMC3    C4 8227   4.675   3.755  13.820 -0.3613 -0.0863 -0.5873
  551TMC3    C5 8228   4.731   3.752  13.945 -0.1083 -0.4984  0.3725
  551TMC3    C6 8229   0.068   3.646  13.981 -0.2053  0.1251  0.0823
  551TMC3     C 8230   4.614   3.657  13.615  0.8807  0.2151 -0.2742
  551TMC3     O 8231   4.567   3.556  13.572 -0.3247 -0.2214  0.2010
  551TMC3     H 8232   0.064   3.470  13.702 -0.8436 -0.9215  1.0043
  551TMC3    H1 8233   4.603   3.829  13.790  1.0097  1.0159 -1.1488
  551TMC3    H2 8234   0.107   3.657  14.082  1.6565 -0.7566 -0.5309
  551TMC3    C7 8235   0.012   3.874  14.018 -0.0830  0.4435 -0.5242
  551TMC3    C8 8236   0.227   3.484  13.893 -0.6227 -0.1205 -0.7024
  551TMC3    O1 8237   0.041   3.873  14.135  0.0546  0.2638  0.0254
  551TMC3    O2 8238   0.255   3.434  14.001  0.2343 -0.2636 -0.3178
  552MPD2     C 8239   1.265   0.641  14.771  1.3481 -0.4244 -0.0664
  552MPD2    C1 8240   1.342   0.589  14.665  0.2654 -0.0009  0.3014
  552MPD2    C2 8241   1.478   0.582  14.679 -0.1620 -0.2240 -0.2000
  552MPD2    C3 8242   1.540   0.617  14.795 -0.4639  0.0328  1.4010
  552MPD2    C4 8243   1.465   0.672  14.894 -0.1088 -0.2777  0.3757
  552MPD2    C5 8244   1.331   0.689  14.885  0.8102  0.0747  0.1089
  552MPD2     H 8245   1.531   0.548  14.592  0.4161 -0.1299  0.1125
  552MPD2    H1 8246   1.510   0.720  14.980  1.0020  0.7854 -0.8001
  552MPD2    H2 8247   1.157   0.641  14.763  1.4793  0.4484 -1.7765
  552MPD2    H3 8248   1.280   0.729  14.972  2.1271  2.1673 -0.0808
  552MPD2     N 8249   1.677   0.611  14.812 -0.3639  0.2373 -0.3148
  552MPD2    H5 8250   1.713   0.634  14.904  1.7787 -0.2417 -1.0430
  552MPD2    N1 8251   1.288   0.515  14.552 -0.2530  0.5225 -1.2189
  552MPD2    H7 8252   1.362   0.483  14.491  1.0322  2.4622 -0.6751
  553TMC3    C1 8253   1.142   0.454  14.381 -0.6546  0.0647 -0.1322
  553TMC3    C2 8254   1.053   0.517  14.297  0.5950  0.3532  0.0768
  553TMC3    C3 8255   1.028   0.458  14.173  0.1120  0.9225 -0.3042
  553TMC3    C4 8256   1.204   0.340  14.353 -0.1275 -0.4589 -0.2785
  553TMC3    C5 8257   1.181   0.290  14.231 -0.5632  0.2205 -0.0584
  553TMC3    C6 8258   1.095   0.343  14.143  0.0727  0.0827 -1.0601
  553TMC3     C 8259   1.158   0.512  14.513 -0.3047 -0.3096  0.8631
  553TMC3     O 8260   1.070   0.589  14.551  0.0583  0.2297 -0.8331
  553TMC3     H 8261   1.011   0.612  14.329 -1.6200 -0.0705 -1.5337
  553TMC3    H1 8262   1.280   0.301  14.420 -0.1647  1.4691  0.9054
  553TMC3    H2 8263   1.074   0.297  14.048 -0.1843  0.0474 -0.9855
  553TMC3    C7 8264   1.280   0.195  14.181  0.5391  0.1741 -0.1383
  553TMC3    C8 8265   0.992   0.535  14.059 -0.0666  0.1806 -0.5953
  553TMC3    O1 8266   1.330   0.123  14.264 -0.4186 -0.4250 -0.3893
  553TMC3    O2 8267   0.953   0.484  13.952  0.0644  0.0152 -0.6824
  554TMC3    C1 8268   3.571   0.087  11.636  0.7329 -0.4206 -0.3173
  554TMC3    C2 8269   3.513   0.021  11.527 -0.4425 -0.6851 -0.5815
  554TMC3    C3 8270   3.599   0.007  11.416  0.9498 -0.7736  0.2070
  554TMC3    C4 8271   3.689   0.152  11.639 -0.2292 -0.0480  0.0716
  554TMC3    C5 8272   3.768   0.139  11.529  0.5709 -0.2975 -0.4881
  554TMC3    C6 8273   3.728   0.054  11.422  0.3629  0.0457 -0.6817
  554TMC3     C 8274   3.502   0.052  11.761  0.7760  0.3690 -0.3537
  554TMC3     O 8275   3.383   0.022  11.760  0.3977  0.0803 -0.2268
  554TMC3     H 8276   3.418   4.706  11.525  0.3718 -2.1827 -0.3036
  554TMC3    H1 8277   3.714   0.205  11.730 -0.2987 -0.5049  0.3567
  554TMC3    H2 8278   3.802   0.043  11.344  0.7530  1.4074 -0.5013
  554TMC3    C7 8279   3.871   0.244  11.490  0.4182 -0.3494  0.0717
  554TMC3    C8 8280   3.544   0.009  11.281 -0.5073  0.0006  0.6765
  554TMC3    O1 8281   3.948   0.207  11.398  0.5479  0.2415  0.0435
  554TMC3    O2 8282   3.612   0.042  11.184  0.1829  0.2426 -0.1553
  555TMC3    C1 8283   2.450   4.306  15.665 -0.0248  0.0754 -0.3487
  555TMC3    C2 8284   2.493   4.360  15.785 -0.4638  0.0917 -0.3719
  555TMC3    C3 8285   2.514   4.264  15.888 -0.1138  0.3037  0.2574
  555TMC3    C4 8286   2.453   4.172  15.638  0.2682 -0.0370 -0.0759
  555TMC3    C5 8287   2.481   4.088  15.742 -0.7127  0.4919 -0.1418
  555TMC3    C6 8288   2.504   4.129  15.868 -0.6449  0.0448  0.3101
  555TMC3     C 8289   2.483   4.390  15.562  0.5004  0.8776  0.6704
  555TMC3     O 8290   2.561   4.481  15.587 -0.3673  0.3389 -0.3240
  555TMC3     H 8291   2.509   4.466  15.802  1.0825 -0.6233  2.6117
  555TMC3    H1 8292   2.453   4.139  15.535  0.6802  2.5686 -0.8982
  555TMC3    H2 8293   2.518   4.051  15.942 -1.5497 -1.1841 -0.8066
  555TMC3    C7 8294   2.499   3.945  15.719 -0.2072  0.0475 -0.4894
  555TMC3    C8 8295   2.525   4.326  16.022 -0.3904 -0.1989  0.5121
  555TMC3    O1 8296   2.541   3.869  15.808  0.3294  0.0778 -0.4645
  555TMC3    O2 8297   2.508   4.450  16.019  0.0339 -0.2129  0.5202
  556MPD2     C 8298   1.246   1.214  10.401  0.4129  0.6089 -0.7830
  556MPD2    C1 8299   1.211   1.117  10.498 -0.4791  0.9339 -0.1708
  556MPD2    C2 8300   1.152   0.997  10.455  0.3484  0.3863 -0.3478
  556MPD2    C3 8301   1.141   0.970  10.322  0.5388 -0.2212 -0.1146
  556MPD2    C4 8302   1.201   1.059  10.235 -0.0108 -0.5822  0.2364
  556MPD2    C5 8303   1.261   1.178  10.273  0.1297  0.2949  0.3073
  556MPD2     H 8304   1.109   0.929  10.527  1.6471 -0.6820 -0.5678
  556MPD2    H1 8305   1.197   1.046  10.127 -0.2504 -3.4052  0.5853
  556MPD2    H2 8306   1.281   1.314  10.422  0.6995 -0.2299  2.8162
  556MPD2    H3 8307   1.295   1.247  10.196  0.7538  0.0269  0.3504
  556MPD2     N 8308   1.067   0.860  10.286 -0.1010 -0.0010 -0.1650
  556MPD2    H5 8309   1.027   0.800  10.357 -1.7481  0.7681 -0.4392
  556MPD2    N1 8310   1.220   1.152  10.635 -0.1851  0.3046  0.0725
  556MPD2    H7 8311   1.198   1.084  10.708  1.2298  0.3862  0.5581
  557TMC3    C1 8312   0.958   0.716  10.139  1.6846  0.2051 -0.5296
  557TMC3    C2 8313   0.962   0.662  10.015  0.2588 -0.6338 -0.1185
  557TMC3    C3 8314   0.889   0.548   9.998  0.3519  0.1320 -0.0389
  557TMC3    C4 8315   0.860   0.691  10.227 -0.0082 -0.0075 -0.3629
  557TMC3    C5 8316   0.786   0.586  10.202  0.4339  0.2981 -0.6052
  557TMC3    C6 8317   0.804   0.504  10.095 -0.0161 -0.2278 -0.2398
  557TMC3     C 8318   1.025   0.841  10.162  0.0002  0.1202  0.2602
  557TMC3     O 8319   1.051   0.907  10.061 -0.1437  0.3382 -0.0562
  557TMC3     H 8320   1.032   0.683   9.935  1.6506  0.0479  1.2830
  557TMC3    H1 8321   0.851   0.747  10.320 -0.5983  1.9929 -1.6298
  557TMC3    H2 8322   0.735   0.424  10.070  0.3063 -1.3148  2.4413
  557TMC3    C7 8323   0.735   0.522  10.322  0.5779 -0.5711  0.5672
  557TMC3    C8 8324   0.904   0.470   9.883 -0.2141  0.7270 -0.3862
  557TMC3    O1 8325   0.715   0.589  10.420  0.6146  0.3628  0.4124
  557TMC3    O2 8326   0.918   0.541   9.786  0.5457 -0.0936 -0.8498
  558TMC3    C1 8327   3.355   4.208  10.586  0.1268 -0.6463  0.2445
  558TMC3    C2 8328   3.230   4.198  10.639 -0.0143  0.1393  0.0898
  558TMC3    C3 8329   3.134   4.257  10.567  0.0038 -0.2574  0.0088
  558TMC3    C4 8330   3.381   4.275  10.473 -0.5861 -0.1722  0.2809
  558TMC3    C5 8331   3.275   4.321  10.395  0.0326 -0.5010 -0.2066
  558TMC3    C6 8332   3.151   4.313  10.442 -0.0393  0.2501  0.8726
  558TMC3     C 8333   3.469   4.171  10.668 -0.4097 -0.8303  0.0641
  558TMC3     O 8334   3.579   4.175  10.608  0.5301  0.7542 -0.1710
  558TMC3     H 8335   3.214   4.141  10.730  1.8499 -0.4572  0.0403
  558TMC3    H1 8336   3.483   4.279  10.438 -1.1998  2.4775 -1.2674
  558TMC3    H2 8337   3.067   4.354  10.387 -0.3826  0.7250  1.7587
  558TMC3    C7 8338   3.293   4.426  10.302 -1.0130  0.3071  0.2555
  558TMC3    C8 8339   2.994   4.229  10.597 -0.0151 -0.0750  0.1783
  558TMC3    O1 8340   3.389   4.505  10.308 -0.0649  0.6133 -0.0385
  558TMC3    O2 8341   2.920   4.228  10.499  0.0522  0.0695  0.6167
  559MPD2     C 8342   3.323   4.599  10.625  0.1244  0.4336  0.1561
  559MPD2    C1 8343   3.242   4.562  10.736 -0.1002  0.6835  0.0181
  559MPD2    C2 8344   3.311   4.522  10.850  0.5817  0.4356  0.4059
  559MPD2    C3 8345   3.447   4.496  10.845 -0.3256 -0.5772  0.1131
  559MPD2    C4 8346   3.522   4.530  10.734  0.0054  0.5524 -0.3209
  559MPD2    C5 8347   3.459   4.589  10.624  0.1972 -0.3101 -0.1077
  559MPD2     H 8348   3.276   4.512  10.952  1.3604 -0.1940  0.6169
  559MPD2    H1 8349   3.627   4.510  10.717  0.2910  2.0221 -0.2953
  559MPD2    H2 8350   3.281   4.634  10.531 -1.7281 -3.4995 -0.4527
  559MPD2    H3 8351   3.516   4.614  10.534 -0.9646 -2.6430 -1.4890
  559MPD2     N 8352   3.499   4.436  10.963 -0.7003  0.2566 -0.5592
  559MPD2    H5 8353   3.432   4.400  11.030 -1.7232  3.3558  0.0926
  559MPD2    N1 8354   3.100   4.574  10.734 -0.0348  0.2742 -0.4179
  559MPD2    H7 8355   3.055   4.627  10.660 -1.5705  0.3641  0.5767
  560TMC3    C1 8356   3.657   4.385  11.128  0.2195 -1.1821  0.3201
  560TMC3    C2 8357   3.540   4.360  11.196  0.3638 -0.3026 -0.0391
  560TMC3    C3 8358   3.562   4.261  11.293 -0.4396  0.3697 -0.5350
  560TMC3    C4 8359   3.786   4.337  11.157  0.6196 -0.6288  0.4855
  560TMC3    C5 8360   3.795   4.249  11.258 -0.1875 -0.0158 -0.3000
  560TMC3    C6 8361   3.685   4.209  11.327  0.3721 -0.1461 -0.7189
  560TMC3     C 8362   3.634   4.429  10.994  0.1065  0.6601  0.1368
  560TMC3     O 8363   3.736   4.446  10.928 -0.1971 -0.3696  0.1467
  560TMC3     H 8364   3.441   4.403  11.196  0.3829 -0.2566  0.9738
  560TMC3    H1 8365   3.856   4.333  11.075  2.0750 -2.7334  1.8435
  560TMC3    H2 8366   3.705   4.131  11.400  1.2357  0.0441 -0.7447
  560TMC3    C7 8367   3.918   4.175  11.262  0.5996  0.2501 -0.0141
  560TMC3    C8 8368   3.450   4.190  11.340 -0.3390 -0.5190  0.0818
  560TMC3    O1 8369   3.913   4.073  11.330 -0.1340 -0.6118 -0.0092
  560TMC3    O2 8370   3.340   4.211  11.296 -0.0793  0.2814  0.4323
  561TMC3    C1 8371   1.464   3.491  11.306  0.5744  0.1275 -0.2392
  561TMC3    C2 8372   1.434   3.378  11.377 -0.6770 -0.0576 -0.6786
  561TMC3    C3 8373   1.357   3.408  11.480  0.0267  0.2225  0.1304
  561TMC3    C4 8374   1.413   3.610  11.329 -0.2214 -0.4645 -0.4895
  561TMC3    C5 8375   1.322   3.631  11.430 -0.1870 -0.2219 -0.0443
  561TMC3    C6 8376   1.293   3.527  11.514 -0.1768  0.2672  0.3016
  561TMC3     C 8377   1.538   3.473  11.175  0.2831  0.4118  0.8683
  561TMC3     O 8378   1.548   3.356  11.136  0.4877  0.0657 -0.2364
  561TMC3     H 8379   1.481   3.282  11.359  0.8654 -0.0440  3.2660
  561TMC3    H1 8380   1.422   3.693  11.260 -0.6954 -1.6378 -1.9473
  561TMC3    H2 8381   1.212   3.536  11.586 -0.5730 -0.7515 -0.0221
  561TMC3    C7 8382   1.259   3.766  11.453  0.1786 -0.1715  0.2650
  561TMC3    C8 8383   1.320   3.294  11.553 -0.5136 -0.0602 -0.0692
  561TMC3    O1 8384   1.183   3.781  11.550 -0.4440 -0.1218  0.7982
  561TMC3    O2 8385   1.393   3.194  11.540 -0.1350 -0.1714  0.1627
  562TMC3    C1 8386   2.413   4.396  16.757  0.5398  0.3187  0.4638
  562TMC3    C2 8387   2.341   4.511  16.738  0.6703 -0.8200  0.5793
  562TMC3    C3 8388   2.278   4.528  16.621 -0.3942  0.6461 -0.2834
  562TMC3    C4 8389   2.417   4.296  16.658  1.2101  0.0695 -0.1246
  562TMC3    C5 8390   2.341   4.319  16.544  0.2237  0.3245 -0.0590
  562TMC3    C6 8391   2.267   4.434  16.519  0.5237 -0.1921 -1.0982
  562TMC3     C 8392   2.485   4.390  16.885 -0.2546  0.1121 -0.0004
  562TMC3     O 8393   2.491   4.500  16.943 -0.2755  0.3416 -0.0401
  562TMC3     H 8394   2.334   4.591  16.811  1.0633 -0.0337 -0.2564
  562TMC3    H1 8395   2.481   4.209  16.663  0.7967 -0.2881 -1.1126
  562TMC3    H2 8396   2.191   4.442  16.442  0.3634  0.3214 -0.8919
  562TMC3    C7 8397   2.355   4.240  16.429 -0.3991 -0.0844  0.0659
  562TMC3    C8 8398   2.197   4.650  16.616  0.1214  1.0595 -0.5042
  562TMC3    O1 8399   2.315   4.280  16.322 -0.2105 -0.0306 -0.2488
  562TMC3    O2 8400   2.139   4.691  16.718  0.5525  0.5061  0.6729
  563MPD2     C 8401   4.668   0.757  16.127 -0.1294 -0.5405 -0.6991
  563MPD2    C1 8402   4.720   0.882  16.162  0.0366 -0.0561  0.3759
  563MPD2    C2 8403   0.118   0.892  16.191  0.5286 -0.4208 -0.4923
  563MPD2    C3 8404   0.199   0.783  16.188 -0.9888  0.0757 -0.7944
  563MPD2    C4 8405   0.154   0.662  16.134  0.6656  0.1517 -0.9792
  563MPD2    C5 8406   0.021   0.659  16.102  0.7457  0.5673  0.2861
  563MPD2     H 8407   0.162   0.982  16.231 -0.5451 -1.0050  2.0142
  563MPD2    H1 8408   0.214   0.577  16.102  0.3748 -1.1312  1.9200
  563MPD2    H2 8409   4.565   0.740  16.097 -0.3170  0.4580 -0.6299
  563MPD2    H3 8410   4.720   0.577  16.044  3.5663  0.4191 -1.3587
  563MPD2     N 8411   0.335   0.800  16.229  1.4740  0.4606  0.3530
  563MPD2    H5 8412   0.359   0.897  16.247  2.0670  1.0612 -3.5020
  563MPD2    N1 8413   4.624   0.989  16.185  0.3464  0.1193 -0.2261
  563MPD2    H7 8414   4.528   0.971  16.159 -0.4646  1.2687  2.0577
  564TMC3    C1 8415   4.562   1.154  16.335  0.5011 -0.1644  0.2489
  564TMC3    C2 8416   4.436   1.092  16.313 -0.3089 -0.2183 -0.2954
  564TMC3    C3 8417   4.376   1.014  16.408  0.7995 -0.6710  0.0269
  564TMC3    C4 8418   4.622   1.141  16.459  0.1289  0.2988  0.0157
  564TMC3    C5 8419   4.559   1.062  16.552  0.2726 -0.0818  0.3841
  564TMC3    C6 8420   4.438   0.994  16.525  0.1297 -0.6347 -0.1515
  564TMC3     C 8421   4.654   1.113  16.229  0.5259  0.8592 -0.6701
  564TMC3     O 8422   0.022   1.182  16.240  0.2255  0.4413  0.0702
  564TMC3     H 8423   4.392   1.116  16.216  1.3329  1.9836 -0.5106
  564TMC3    H1 8424   4.727   1.166  16.473  0.1477 -0.1876  0.7628
  564TMC3    H2 8425   4.379   0.945  16.601 -0.7439  0.7496  0.0521
  564TMC3    C7 8426   4.656   0.972  16.611 -0.2294  0.0215  0.1206
  564TMC3    C8 8427   4.309   0.894  16.365  0.8092 -0.2454  0.1998
  564TMC3    O1 8428   0.024   1.017  16.655  0.0368 -0.3923  0.3267
  564TMC3    O2 8429   4.323   0.798  16.441 -0.2863  0.4582  0.5327
  565TMC3    C1 8430   0.791   2.358   9.949  0.4220  0.4112 -0.6351
  565TMC3    C2 8431   0.847   2.284  10.050 -0.4231  0.4962 -0.3464
  565TMC3    C3 8432   0.824   2.153  10.051 -0.6239 -1.1198 -0.3635
  565TMC3    C4 8433   0.696   2.303   9.862 -0.0183  0.6797 -0.5124
  565TMC3    C5 8434   0.670   2.167   9.870  1.3552  0.2527  0.4910
  565TMC3    C6 8435   0.746   2.089   9.953 -1.0255  0.2414 -0.1541
  565TMC3     C 8436   0.810   2.501   9.946  0.1613 -0.2126 -0.6291
  565TMC3     O 8437   0.787   2.573   9.850 -0.4330  0.1171 -0.0731
  565TMC3     H 8438   0.918   2.326  10.121  1.8191 -2.2754 -0.9714
  565TMC3    H1 8439   0.643   2.369   9.794  0.1543 -1.0973 -2.3860
  565TMC3    H2 8440   0.722   1.984   9.966  0.9942 -0.3744 -1.2277
  565TMC3    C7 8441   0.581   2.104   9.772 -0.0125 -0.3615 -0.4526
  565TMC3    C8 8442   0.885   2.070  10.157 -0.3171 -0.3515  0.0738
  565TMC3    O1 8443   0.583   1.979   9.774  0.2571 -0.7988 -0.2370
  565TMC3    O2 8444   0.886   2.112  10.272 -0.2694  0.1558 -0.3285
  566MPD2     C 8445   2.592   3.639  14.470 -0.5577  0.4453  0.1879
  566MPD2    C1 8446   2.571   3.745  14.388 -0.2742  0.2753  0.4373
  566MPD2    C2 8447   2.447   3.765  14.329 -0.3069  0.0573 -0.6961
  566MPD2    C3 8448   2.339   3.677  14.356 -0.2833 -0.3545 -0.3838
  566MPD2    C4 8449   2.365   3.565  14.436 -0.2048  0.1666 -0.1040
  566MPD2    C5 8450   2.489   3.556  14.487 -0.6678 -0.3123 -0.2695
  566MPD2     H 8451   2.439   3.849  14.261  3.3853  2.7677  2.1779
  566MPD2    H1 8452   2.291   3.487  14.448  0.2913 -0.5328 -1.5301
  566MPD2    H2 8453   2.685   3.618  14.522 -1.7251 -0.2542  2.0087
  566MPD2    H3 8454   2.514   3.465  14.541 -0.6703 -0.1783 -0.0410
  566MPD2     N 8455   2.209   3.683  14.295 -0.8457  0.2422  0.9721
  566MPD2    H5 8456   2.156   3.596  14.296 -1.7735  0.8083  0.8763
  566MPD2    N1 8457   2.676   3.840  14.380  0.2025  0.3513  0.8499
  566MPD2    H7 8458   2.751   3.828  14.447  1.5270 -0.0950 -0.7049
  567TMC3    C1 8459   2.764   4.053  14.303 -0.8838  0.8759 -0.2930
  567TMC3    C2 8460   2.764   4.136  14.193 -0.3269 -0.1078 -0.2774
  567TMC3    C3 8461   2.742   4.269  14.212  0.1611 -0.1070 -0.2227
  567TMC3    C4 8462   2.754   4.100  14.432 -0.2462 -0.1206 -0.3169
  567TMC3    C5 8463   2.741   4.235  14.445  0.4289 -0.4600 -0.1672
  567TMC3    C6 8464   2.730   4.320  14.338  0.3253  0.0203 -0.1070
  567TMC3     C 8465   2.684   3.930  14.280 -0.0480 -0.1022 -0.4596
  567TMC3     O 8466   2.627   3.926  14.173  0.0364  0.2008 -0.3868
  567TMC3     H 8467   2.793   4.086  14.101 -2.8168  0.5550 -1.4128
  567TMC3    H1 8468   2.753   4.029  14.514 -1.5798  0.8118  0.4679
  567TMC3    H2 8469   2.723   4.427  14.355  1.8970 -0.0360  0.9139
  567TMC3    C7 8470   2.733   4.288  14.576 -0.5373  0.5599  1.0584
  567TMC3    C8 8471   2.697   4.351  14.101 -0.2385 -0.5094  0.0362
  567TMC3    O1 8472   2.776   4.399  14.591 -0.6072 -0.5021 -0.5296
  567TMC3    O2 8473   2.595   4.416  14.120  0.1968 -0.4027  0.5499
  568MPD2     C 8474   3.833   4.206  16.398  0.1228 -0.1164 -0.0197
  568MPD2    C1 8475   3.880   4.253  16.521 -0.5323  0.0461  0.4954
  568MPD2    C2 8476   3.918   4.388  16.521 -0.6674 -0.2664 -0.5353
  568MPD2    C3 8477   3.895   4.473  16.407  0.7201 -0.0067  0.1322
  568MPD2    C4 8478   3.829   4.428  16.298 -0.5144 -0.2790 -0.2308
  568MPD2    C5 8479   3.808   4.292  16.291  0.3561 -0.4575  0.3302
  568MPD2     H 8480   3.972   4.422  16.609 -0.3994  3.0509 -1.9611
  568MPD2    H1 8481   3.811   4.487  16.208 -0.9930 -0.9602 -0.5815
  568MPD2    H2 8482   3.818   4.099  16.384 -1.1847  0.2659 -1.4952
  568MPD2    H3 8483   3.780   4.249  16.196  0.0735  1.1731 -0.3149
  568MPD2     N 8484   3.943   4.605  16.414  0.4270  0.7456 -0.6079
  568MPD2    H5 8485   3.999   4.626  16.496  1.2099  1.0563 -1.2182
  568MPD2    N1 8486   3.916   4.158  16.624 -0.4849 -0.4331  0.2195
  568MPD2    H7 8487   3.920   4.065  16.583  1.8730  0.0199 -0.5810
  569TMC3    C1 8488   4.060   0.056  16.335  0.4516  0.1122  1.2394
  569TMC3    C2 8489   4.087   0.099  16.463 -0.3182  0.0097 -0.1519
  569TMC3    C3 8490   4.198   0.171  16.488 -0.4979  0.5246 -0.4444
  569TMC3    C4 8491   4.144   0.088  16.230  0.5169 -0.2645 -0.4079
  569TMC3    C5 8492   4.241   0.181  16.250  0.4901 -0.1547 -0.1147
  569TMC3    C6 8493   4.274   0.217  16.383 -1.1420 -0.6902  0.3011
  569TMC3     C 8494   3.956   4.696  16.310 -0.2539 -0.0744  0.5068
  569TMC3     O 8495   3.925   4.674  16.195  0.6080 -0.1973 -0.1976
  569TMC3     H 8496   4.011   0.082  16.539 -2.3127  0.8621 -1.9408
  569TMC3    H1 8497   4.114   0.056  16.131  0.1334 -0.9493 -0.0734
  569TMC3    H2 8498   4.359   0.279  16.409 -1.0367 -0.5342 -0.4038
  569TMC3    C7 8499   4.260   0.284  16.149  0.3608  0.6172 -0.1264
  569TMC3    C8 8500   4.184   0.270  16.593 -0.4133  0.3855 -0.0804
  569TMC3    O1 8501   4.283   0.250  16.032 -0.1960 -1.1375  0.0076
  569TMC3    O2 8502   4.070   0.308  16.619 -0.0574 -0.2733 -0.1927
  570TMC3    C1 8503   3.757   3.211  16.476  0.0822 -0.2407  0.3986
  570TMC3    C2 8504   3.791   3.228  16.345  0.5520 -0.0909  0.2017
  570TMC3    C3 8505   3.794   3.354  16.294  0.4530  0.0455 -0.2454
  570TMC3    C4 8506   3.719   3.325  16.547 -0.1344 -0.5762  1.5093
  570TMC3    C5 8507   3.734   3.449  16.497  0.3428 -0.2371 -0.0629
  570TMC3    C6 8508   3.780   3.465  16.368  0.2698 -0.3177  0.3441
  570TMC3     C 8509   3.672   3.089  16.504  0.1556  0.4830 -0.1280
  570TMC3     O 8510   3.656   3.017  16.412 -0.3373  0.1292  0.5545
  570TMC3     H 8511   3.803   3.140  16.282  1.5371 -0.0961  0.3986
  570TMC3    H1 8512   3.699   3.310  16.652 -0.6853  0.4242  1.5480
  570TMC3    H2 8513   3.797   3.563  16.326 -2.1146  0.3713  0.9942
  570TMC3    C7 8514   3.721   3.556  16.597  0.7730 -0.7881 -0.3070
  570TMC3    C8 8515   3.839   3.374  16.154  0.1532 -0.0491 -0.2692
  570TMC3    O1 8516   3.703   3.528  16.715  0.3471  0.0962 -0.6090
  570TMC3    O2 8517   3.897   3.480  16.128 -0.1536  0.1787 -0.1345
  571MPD2     C 8518   1.729   1.018  17.652  0.6216  0.1781  0.0808
  571MPD2    C1 8519   1.633   0.943  17.725 -0.6721 -0.0150 -0.4353
  571MPD2    C2 8520   1.595   0.992   0.104 -0.7450  0.3326  0.1866
  571MPD2    C3 8521   1.650   1.108   0.156  0.3623 -0.3995  0.3114
  571MPD2    C4 8522   1.737   1.180   0.079  0.2494  0.1524 -0.1235
  571MPD2    C5 8523   1.769   1.141  17.703 -0.1546 -0.0704 -0.1967
  571MPD2     H 8524   1.546   0.936   0.182  1.2962 -1.8520 -0.1070
  571MPD2    H1 8525   1.778   1.275   0.110  0.5920  0.4393 -1.4926
  571MPD2    H2 8526   1.747   0.989  17.549 -2.3827  0.7272 -0.6116
  571MPD2    H3 8527   1.838   1.203  17.646 -1.8409 -0.2646 -2.4414
  571MPD2     N 8528   1.609   1.167   0.285  0.7617  0.3560 -0.1702
  571MPD2    H5 8529   1.628   1.261   0.316 -1.4021  1.3858 -1.9764
  571MPD2    N1 8530   1.587   0.815  17.679  0.1732 -0.0391 -0.5135
  571MPD2    H7 8531   1.617   0.783  17.588  1.1254  0.0368 -0.2280
  572TMC3    C1 8532   1.482   1.197   0.486  0.2812  0.3695 -0.0141
  572TMC3    C2 8533   1.443   1.155   0.611  0.2871  0.7310 -0.1250
  572TMC3    C3 8534   1.401   1.251   0.699 -0.0545 -0.2522 -0.3035
  572TMC3    C4 8535   1.470   1.328   0.445  0.0735  0.6827  0.3675
  572TMC3    C5 8536   1.420   1.417   0.534 -0.0530 -0.1233 -0.0725
  572TMC3    C6 8537   1.386   1.385   0.659  0.1905 -0.9954 -0.2988
  572TMC3     C 8538   1.536   1.103   0.385  0.1335 -0.5110  1.1121
  572TMC3     O 8539   1.529   0.987   0.419 -0.2280 -0.4968  0.1631
  572TMC3     H 8540   1.481   1.054   0.625 -0.9697  0.2176 -0.3309
  572TMC3    H1 8541   1.472   1.356   0.341 -0.1884  0.5189  0.3176
  572TMC3    H2 8542   1.346   1.464   0.721 -0.8077  0.4220 -2.7725
  572TMC3    C7 8543   1.422   1.559   0.475 -0.0321 -0.3265  0.2713
  572TMC3    C8 8544   1.311   1.200   0.806  0.4714 -0.5894  0.1001
  572TMC3    O1 8545   1.423   1.566   0.352  0.0377 -0.3014  0.0608
  572TMC3    O2 8546   1.258   1.277   0.887 -0.0741  0.3732 -0.6356
  573MPD2     C 8547   3.065   1.408   0.698 -0.4218 -0.7361 -0.1857
  573MPD2    C1 8548   2.955   1.471   0.646 -0.0259  0.1341 -0.5420
  573MPD2    C2 8549   2.886   1.398   0.552  1.0414 -0.6120 -0.1394
  573MPD2    C3 8550   2.919   1.273   0.509  0.1803 -0.6667  1.0097
  573MPD2    C4 8551   3.027   1.215   0.567  0.1845 -0.5530  1.0136
  573MPD2    C5 8552   3.106   1.286   0.654 -0.0743 -0.5284 -0.7547
  573MPD2     H 8553   2.795   1.436   0.507  0.7511 -1.8473 -0.5924
  573MPD2    H1 8554   3.055   1.114   0.539 -1.7229 -0.5626 -0.8494
  573MPD2    H2 8555   3.110   1.463   0.780 -1.4768 -0.0824 -0.0495
  573MPD2    H3 8556   3.198   1.246   0.695  0.5402 -1.5046 -3.0936
  573MPD2     N 8557   2.851   1.195   0.414  0.6139  0.4661  0.5164
  573MPD2    H5 8558   2.887   1.101   0.396  0.5598  0.2358  1.6407
  573MPD2    N1 8559   2.918   1.608   0.685  0.3479 -0.4164 -0.1887
  573MPD2    H7 8560   2.975   1.653   0.755  2.3185 -1.8257 -0.8762
  574TMC3    C1 8561   2.690   1.129   0.239  0.1852 -0.1751  0.5707
  574TMC3    C2 8562   2.596   1.175   0.154 -0.2336 -0.4421  0.1123
  574TMC3    C3 8563   2.511   1.081   0.102  0.2974  0.4900  0.1556
  574TMC3    C4 8564   2.735   1.001   0.239  0.1919  0.1386 -0.0192
  574TMC3    C5 8565   2.656   0.908   0.174  0.5104 -1.0722  0.1790
  574TMC3    C6 8566   2.542   0.951   0.109 -0.6565 -0.0475 -0.6867
  574TMC3     C 8567   2.747   1.235   0.325  0.2485 -0.3957 -0.3038
  574TMC3     O 8568   2.677   1.334   0.329 -0.2952  0.0900  0.5842
  574TMC3     H 8569   2.560   1.277   0.153 -0.0818 -0.3973 -0.7079
  574TMC3    H1 8570   2.814   0.972   0.307 -0.4990 -1.0476  0.2814
  574TMC3    H2 8571   2.483   0.882   0.049 -2.8316  1.5388 -0.4066
  574TMC3    C7 8572   2.709   0.781   0.129  0.6771  0.0994 -0.7811
  574TMC3    C8 8573   2.375   1.114   0.109 -0.7624  0.2015 -0.3056
  574TMC3    O1 8574   2.638   0.710   0.061  0.0178 -0.0805  0.0004
  574TMC3    O2 8575   2.299   1.030   0.159  0.4068  0.4872  0.1542
  575TMC3    C1 8576   1.151   1.820  10.952 -0.4068  0.0704  0.3373
  575TMC3    C2 8577   1.103   1.697  10.989  0.1835  0.1619 -0.3096
  575TMC3    C3 8578   1.070   1.609  10.886  1.2557  0.3129 -0.4058
  575TMC3    C4 8579   1.158   1.866  10.823 -0.3923 -0.2334 -0.0213
  575TMC3    C5 8580   1.126   1.775  10.733  0.4526  0.7666 -0.2556
  575TMC3    C6 8581   1.084   1.648  10.754 -0.0201  0.2702 -0.2385
  575TMC3     C 8582   1.192   1.908  11.065  0.1040  0.4268  0.0404
  575TMC3     O 8583   1.157   1.874  11.178  0.0199  0.1071 -0.2527
  575TMC3     H 8584   1.089   1.671  11.094  1.3896  2.3899  0.3906
  575TMC3    H1 8585   1.192   1.967  10.806 -1.3578 -0.0447 -0.8061
  575TMC3    H2 8586   1.075   1.576  10.673 -1.7808  1.8351 -1.4430
  575TMC3    C7 8587   1.124   1.829  10.595 -0.3452  0.4272  0.3285
  575TMC3    C8 8588   1.001   1.486  10.927 -0.0353  0.5375 -0.5592
  575TMC3    O1 8589   1.164   1.948  10.578 -0.2399  0.1795  0.2591
  575TMC3    O2 8590   1.006   1.466  11.047 -0.3512 -0.0220 -0.2109
  576MPD2     C 8591   0.547   3.051  12.769  0.2215 -0.1224 -0.3212
  576MPD2    C1 8592   0.533   3.176  12.711 -0.3215 -0.3403  0.6589
  576MPD2    C2 8593   0.500   3.284  12.792 -0.0654 -0.5882 -0.2701
  576MPD2    C3 8594   0.474   3.273  12.932 -0.3707  0.3615  0.5850
  576MPD2    C4 8595   0.463   3.144  12.981  0.0329 -1.0499 -0.0380
  576MPD2    C5 8596   0.506   3.039  12.903 -0.1136 -0.8394  0.2663
  576MPD2     H 8597   0.499   3.376  12.734  0.7621 -0.0467  0.5697
  576MPD2    H1 8598   0.441   3.130  13.086  0.7062 -1.8458 -0.0041
  576MPD2    H2 8599   0.586   2.961  12.722  0.9880  0.1123 -0.1273
  576MPD2    H3 8600   0.519   2.949  12.962  0.3140 -1.0429 -0.1455
  576MPD2     N 8601   0.452   3.387  13.009  0.6203 -0.1774 -0.2735
  576MPD2    H5 8602   0.471   3.476  12.963 -0.5474 -0.7843 -1.9294
  576MPD2    N1 8603   0.565   3.201  12.573  0.1924  0.4210 -0.3109
  576MPD2    H7 8604   0.540   3.292  12.536  1.8313  0.3869 -1.5120
  577TMC3    C1 8605   0.640   3.179  12.346 -0.2493  0.1390  0.1959
  577TMC3    C2 8606   0.686   3.106  12.246  0.0889 -0.6360  0.2589
  577TMC3    C3 8607   0.706   3.165  12.129 -0.0803 -0.2666  0.6773
  577TMC3    C4 8608   0.613   3.314  12.333  0.3256 -0.8231 -0.4658
  577TMC3    C5 8609   0.636   3.374  12.215 -0.5189  0.0967 -0.0795
  577TMC3    C6 8610   0.691   3.303  12.120  0.7418  0.1048 -0.2395
  577TMC3     C 8611   0.613   3.110  12.473 -0.2133 -0.1829 -0.0235
  577TMC3     O 8612   0.654   2.998  12.489 -0.2266 -0.2808  0.1525
  577TMC3     H 8613   0.705   3.000  12.258 -2.1793 -0.7513  2.9360
  577TMC3    H1 8614   0.590   3.383  12.413  0.9156  1.7967 -2.5426
  577TMC3    H2 8615   0.718   3.364  12.034 -0.5367 -0.1317 -0.7941
  577TMC3    C7 8616   0.657   3.517  12.231 -0.4439  0.4876 -0.1776
  577TMC3    C8 8617   0.796   3.097  12.040 -0.0953  0.0393  0.7425
  577TMC3    O1 8618   0.700   3.555  12.340  0.3692  0.1636 -0.5895
  577TMC3    O2 8619   0.809   2.977  12.061 -0.3170 -0.7997  0.7040
  578MPD2     C 8620   2.934   3.872   1.683 -0.6692  0.1573  0.6158
  578MPD2    C1 8621   2.936   3.863   1.543  0.2088 -0.0636  0.4318
  578MPD2    C2 8622   3.046   3.897   1.472  0.1951 -0.4101  0.0188
  578MPD2    C3 8623   3.154   3.951   1.538  0.0865  0.4897  1.3390
  578MPD2    C4 8624   3.159   3.959   1.677  0.2374 -0.3710 -0.0956
  578MPD2    C5 8625   3.050   3.915   1.745 -0.7960 -0.7140 -0.4644
  578MPD2     H 8626   3.045   3.888   1.364 -2.3703  1.2145 -0.0669
  578MPD2    H1 8627   3.245   3.998   1.728 -0.5011 -0.2570  1.0643
  578MPD2    H2 8628   2.849   3.839   1.742 -1.8177 -2.1278 -2.3441
  578MPD2    H3 8629   3.035   3.920   1.852  2.5881  1.9493 -0.1169
  578MPD2     N 8630   3.257   3.988   1.452 -0.1396 -0.7441  0.6767
  578MPD2    H5 8631   3.242   3.973   1.353 -0.5462  1.1346  0.4600
  578MPD2    N1 8632   2.821   3.810   1.480  0.5923 -0.1984  0.3237
  578MPD2    H7 8633   2.751   3.764   1.537  0.2331 -1.9581 -1.5212
  579TMC3    C1 8634   3.466   4.019   1.375 -0.7148 -0.0861 -0.3187
  579TMC3    C2 8635   3.566   4.117   1.356  0.2347  0.1474  0.0194
  579TMC3    C3 8636   3.621   4.129   1.236 -0.3722 -0.4414  0.4975
  579TMC3    C4 8637   3.429   3.937   1.267  0.0746  0.1025  0.9311
  579TMC3    C5 8638   3.489   3.954   1.144  0.4556 -1.0317 -0.3947
  579TMC3    C6 8639   3.583   4.050   1.133 -0.5074 -0.2144  0.2333
  579TMC3     C 8640   3.381   4.024   1.495  0.3438 -0.2957  0.3450
  579TMC3     O 8641   3.423   4.074   1.598  0.0984  0.3457 -0.2110
  579TMC3     H 8642   3.593   4.178   1.441 -0.8950  1.0932 -0.3050
  579TMC3    H1 8643   3.358   3.857   1.279  0.5918 -0.6265 -0.8353
  579TMC3    H2 8644   3.624   4.068   1.034  0.1213  1.6704  0.8326
  579TMC3    C7 8645   3.511   3.835   1.066 -0.1992 -0.5726 -0.2939
  579TMC3    C8 8646   3.763   4.168   1.226 -0.0602 -0.1379  0.2753
  579TMC3    O1 8647   3.627   3.805   1.034 -0.2361  0.4951 -0.0870
  579TMC3    O2 8648   3.805   4.241   1.316 -0.2516  0.1260 -0.6580
  580TMC3    C1 8649   3.049   2.632  12.468 -0.0146 -0.3173 -0.6757
  580TMC3    C2 8650   3.162   2.700  12.451  0.1309  0.5626 -0.4440
  580TMC3    C3 8651   3.273   2.643  12.393 -0.2849  0.4747  0.0217
  580TMC3    C4 8652   3.049   2.497  12.462 -0.9334  0.4601  0.4285
  580TMC3    C5 8653   3.165   2.434  12.416  0.3287 -0.0127 -0.2788
  580TMC3    C6 8654   3.278   2.506  12.378 -0.0409 -0.6555  0.4753
  580TMC3     C 8655   2.920   2.690  12.440 -0.6633 -0.3018  0.3622
  580TMC3     O 8656   2.822   2.661  12.509 -0.8611 -0.3056 -0.2291
  580TMC3     H 8657   3.151   2.806  12.468  1.6953  0.4942  1.0292
  580TMC3    H1 8658   2.953   2.448  12.444 -1.9309  2.5944 -0.0732
  580TMC3    H2 8659   3.351   2.465  12.309  0.8679  0.9095  0.5136
  580TMC3    C7 8660   3.153   2.291  12.405 -0.2355 -0.4820 -0.0996
  580TMC3    C8 8661   3.337   2.725  12.294  0.4276  0.2958 -0.2639
  580TMC3    O1 8662   3.062   2.235  12.462 -0.3522  0.7265 -0.0695
  580TMC3    O2 8663   3.345   2.682  12.180 -0.3785  0.1550 -0.1363
  581MPD2     C 8664   0.920   2.004  14.870  0.0675 -0.7466 -0.0019
  581MPD2    C1 8665   0.930   2.080  14.987 -0.1625 -0.3454 -0.6095
  581MPD2    C2 8666   0.836   2.183  15.007  0.4052  0.1983 -0.1672
  581MPD2    C3 8667   0.734   2.208  14.922 -0.6519  0.2891  0.1344
  581MPD2    C4 8668   0.722   2.128  14.809 -0.5695  0.3700 -0.1746
  581MPD2    C5 8669   0.822   2.035  14.788 -0.2342 -0.3236 -0.4066
  581MPD2     H 8670   0.842   2.246  15.095 -0.4893  0.0750 -0.0130
  581MPD2    H1 8671   0.649   2.138  14.729  0.0500 -1.7226 -1.0177
  581MPD2    H2 8672   0.996   1.934  14.837  1.7267  0.7137  0.7264
  581MPD2    H3 8673   0.823   1.983  14.692  1.8331  0.0455 -0.5861
  581MPD2     N 8674   0.649   2.315  14.949  0.1591  0.3666  0.4735
  581MPD2    H5 8675   0.664   2.386  15.021  2.2108  2.4492 -2.0005
  581MPD2    N1 8676   1.028   2.033  15.080  0.0064 -0.0402 -0.1583
  581MPD2    H7 8677   1.066   1.942  15.055 -3.1794 -1.4202  0.0203
  582TMC3    C1 8678   1.077   1.989  15.297 -0.1917 -0.1102 -0.1119
  582TMC3    C2 8679   1.072   2.035  15.423  0.2497 -0.3983  0.7869
  582TMC3    C3 8680   1.004   1.973  15.524 -0.5291  0.8811  0.3295
  582TMC3    C4 8681   1.017   1.873  15.277 -0.5296  0.4087  0.6815
  582TMC3    C5 8682   0.945   1.800  15.373 -0.2216 -0.0393  0.4131
  582TMC3    C6 8683   0.934   1.854  15.501 -0.2858 -0.2178 -0.6937
  582TMC3     C 8684   1.041   2.095  15.204 -0.2595 -0.2635 -0.2381
  582TMC3     O 8685   1.014   2.209  15.241 -0.1645 -0.4399  0.1442
  582TMC3     H 8686   1.106   2.137  15.439  0.4156 -0.3304  0.0303
  582TMC3    H1 8687   1.015   1.833  15.176  1.1782 -1.1352  1.2672
  582TMC3    H2 8688   0.879   1.797  15.575  2.8221 -0.9622  1.0519
  582TMC3    C7 8689   0.811   1.800  15.320 -0.1141 -0.4202 -0.1811
  582TMC3    C8 8690   1.003   2.011  15.665 -0.4022 -0.5055  0.0794
  582TMC3    O1 8691   0.778   1.704  15.256  0.0175 -0.0456  1.1257
  582TMC3    O2 8692   0.926   1.961  15.740  0.3587  0.0025 -0.2598
  583MPD2     C 8693   0.848   4.191  16.869 -0.5936  0.1988 -0.6358
  583MPD2    C1 8694   0.863   4.324  16.817 -0.3796  0.3467  0.6125
  583MPD2    C2 8695   0.819   4.433  16.894 -0.4798  0.5381 -0.1940
  583MPD2    C3 8696   0.763   4.413  17.022 -0.4939 -0.2702 -0.0707
  583MPD2    C4 8697   0.766   4.284  17.070 -0.3946 -0.2036  0.1731
  583MPD2    C5 8698   0.803   4.174  16.997 -0.1591  0.1561 -0.2247
  583MPD2     H 8699   0.821   4.529  16.844 -0.6931  0.5321 -0.2134
  583MPD2    H1 8700   0.725   4.264  17.168 -2.3744 -0.4824 -0.7133
  583MPD2    H2 8701   0.887   4.104  16.817  1.0523 -0.1030  1.0833
  583MPD2    H3 8702   0.796   4.079  17.049 -1.3761 -0.0692 -0.8031
  583MPD2     N 8703   0.717   4.528  17.087 -0.0474  0.4592  0.1934
  583MPD2    H5 8704   0.707   4.616  17.037  2.6302  0.1942 -0.7682
  583MPD2    N1 8705   0.920   4.340  16.687 -0.9014 -0.2244  0.1297
  583MPD2    H7 8706   0.936   4.433  16.651  1.4988  0.1708  2.2217
  584TMC3    C1 8707   0.649   4.661  17.274 -0.3931  0.0075  0.2824
  584TMC3    C2 8708   0.679   0.047  17.222  0.1802 -0.8471  0.0134
  584TMC3    C3 8709   0.649   0.161  17.300  0.8193  0.3742  0.5111
  584TMC3    C4 8710   0.560   4.664  17.381  0.1752  0.6404  0.1095
  584TMC3    C5 8711   0.534   0.043  17.454  0.1603 -0.1814 -0.3275
  584TMC3    C6 8712   0.583   0.165  17.416 -0.0034  1.0297  0.4505
  584TMC3     C 8713   0.677   4.527  17.219 -0.6076  0.5525  0.4573
  584TMC3     O 8714   0.684   4.441  17.306  0.0581 -0.6491 -0.1869
  584TMC3     H 8715   0.746   0.067  17.139  0.5030  1.5806  0.8504
  584TMC3    H1 8716   0.521   4.575  17.429  0.7130 -0.8541 -2.2215
  584TMC3    H2 8717   0.573   0.256  17.475 -2.8867  0.7433  0.4165
  584TMC3    C7 8718   0.486   0.021  17.593  0.0224  0.0654 -0.2763
  584TMC3    C8 8719   0.677   0.286  17.235 -0.0492  0.2904  0.3525
  584TMC3    O1 8720   0.407   4.664  17.607 -0.5593  0.1646 -0.2444
  584TMC3    O2 8721   0.661   0.274  17.112  0.1404  0.3079  0.1303
  585MPD2     C 8722   0.049   3.101   0.629 -0.3052 -0.3843  0.6563
  585MPD2    C1 8723   0.123   3.119   0.512  0.1815 -0.8847  0.5158
  585MPD2    C2 8724   0.135   3.008   0.429  0.1042 -0.5219 -0.3462
  585MPD2    C3 8725   0.083   2.884   0.459 -0.1291  0.6719  0.1702
  585MPD2    C4 8726   4.736   2.878   0.573  0.1412 -0.0774 -0.2267
  585MPD2    C5 8727   4.720   2.985   0.654 -0.9350  0.4298 -0.3759
  585MPD2     H 8728   0.195   3.016   0.340 -0.1915  0.2670 -0.4745
  585MPD2    H1 8729   4.677   2.790   0.594 -1.2633  1.1888  1.1149
  585MPD2    H2 8730   0.038   3.179   0.703  3.0121  2.1556 -1.5339
  585MPD2    H3 8731   4.659   2.964   0.741 -0.7498 -0.0874 -0.3689
  585MPD2     N 8732   0.088   2.769   0.381  0.7338 -1.1524 -0.7881
  585MPD2    H5 8733   0.024   2.693   0.400  1.3839 -1.0764  1.7059
  585MPD2    N1 8734   0.176   3.240   0.483 -0.3277  0.2404  0.2816
  585MPD2    H7 8735   0.151   3.327   0.528  1.5499  1.3376 -0.8075
  586TMC3    C1 8736   0.125   2.649   0.183  0.7347 -0.8998  0.4423
  586TMC3    C2 8737   0.224   2.630   0.092  0.1478  0.7319  0.1208
  586TMC3    C3 8738   0.206   2.627  17.708  0.1129 -1.1905  0.2767
  586TMC3    C4 8739   4.737   2.668   0.128  0.1112 -0.2111 -0.7400
  586TMC3    C5 8740   4.725   2.661  17.743 -0.0424  0.1890 -0.0378
  586TMC3    C6 8741   0.081   2.638  17.653  0.5054  0.4517  0.4365
  586TMC3     C 8742   0.168   2.754   0.268 -0.1443 -0.2372  1.1085
  586TMC3     O 8743   0.267   2.812   0.230 -0.0551  1.2441  0.5322
  586TMC3     H 8744   0.323   2.608   0.131  0.0730  1.9826  1.0103
  586TMC3    H1 8745   4.659   2.681   0.203  0.7414 -0.5359 -0.0246
  586TMC3    H2 8746   0.059   2.613  17.550  1.4250 -1.8143  0.7922
  586TMC3    C7 8747   4.599   2.711  17.696  0.2191  1.1867  0.2277
  586TMC3    C8 8748   0.300   2.560  17.631 -0.5282 -0.3212 -0.1530
  586TMC3    O1 8749   4.501   2.695   0.024  0.4315 -0.9030  0.1162
  586TMC3    O2 8750   0.370   2.472  17.680 -0.1725  0.8569  0.1872
  587TMC3    C1 8751   2.279   2.076  16.492  0.3656  0.2545  0.3638
  587TMC3    C2 8752   2.247   2.171  16.586  0.5648 -0.0116  0.2085
  587TMC3    C3 8753   2.341   2.184  16.688 -0.3079  0.1612  0.3618
  587TMC3    C4 8754   2.384   1.990  16.499 -0.2321  0.6703  0.4139
  587TMC3    C5 8755   2.475   2.009  16.598 -0.3104  0.0293  0.2965
  587TMC3    C6 8756   2.451   2.098  16.695 -0.3962 -0.4705 -0.3165
  587TMC3     C 8757   2.187   2.049  16.382 -0.6185  0.2778 -0.5516
  587TMC3     O 8758   2.241   2.024  16.275  0.0761  0.1674  0.7551
  587TMC3     H 8759   2.151   2.221  16.589  0.1090 -0.9257  0.8509
  587TMC3    H1 8760   2.403   1.927  16.412 -0.3846 -1.0028  1.5928
  587TMC3    H2 8761   2.516   2.111  16.780 -0.5952  0.0856 -0.2499
  587TMC3    C7 8762   2.573   1.912  16.621 -0.9053  0.6196  0.6615
  587TMC3    C8 8763   2.340   2.296  16.778 -0.2098 -0.7312 -0.6629
  587TMC3    O1 8764   2.660   1.938  16.705 -0.4146 -0.0144 -0.3104
  587TMC3    O2 8765   2.428   2.294  16.863 -0.4312 -0.5029  0.0874
  588TMC3    C1 8766   0.033   4.441   9.992  0.8268 -0.4783 -0.5192
  588TMC3    C2 8767   0.033   4.306   9.981  0.0422 -0.5328  0.6217
  588TMC3    C3 8768   0.158   4.249   9.986  0.4286  0.6399 -0.6639
  588TMC3    C4 8769   0.146   4.518  10.008  0.4483 -0.0211 -0.3201
  588TMC3    C5 8770   0.265   4.455  10.017 -0.1006  0.5625 -0.2329
  588TMC3    C6 8771   0.274   4.323   9.999 -0.4569 -0.4402 -0.1842
  588TMC3     C 8772   4.642   4.509   9.999  0.9910  0.0864  0.1667
  588TMC3     O 8773   4.546   4.455  10.054 -0.2841 -0.2465 -0.2024
  588TMC3     H 8774   4.679   4.249   9.971 -0.2514 -0.0299  0.4133
  588TMC3    H1 8775   0.135   4.625  10.022 -0.6355 -0.3137  1.0510
  588TMC3    H2 8776   0.372   4.278   9.985  0.7717  2.3189 -0.4135
  588TMC3    C7 8777   0.373   4.541   9.986 -0.8461 -0.2021  0.2295
  588TMC3    C8 8778   0.148   4.111   9.945  0.1323  0.3662  0.0884
  588TMC3    O1 8779   0.457   4.498   9.907  0.3008  0.3137  0.4351
  588TMC3    O2 8780   0.044   4.079   9.885 -0.9158 -0.3787 -0.2253
  589TMC3    C1 8781   3.801   1.717   1.690  0.3459 -0.2460 -0.3972
  589TMC3    C2 8782   3.912   1.774   1.755 -0.2120  0.3263 -0.1042
  589TMC3    C3 8783   4.031   1.715   1.746  0.5749  0.2168 -0.9519
  589TMC3    C4 8784   3.807   1.605   1.617  0.1752 -0.1771  0.0324
  589TMC3    C5 8785   3.931   1.548   1.610 -0.0245 -0.0947  0.0521
  589TMC3    C6 8786   4.042   1.593   1.678 -0.2824  0.4978 -0.0962
  589TMC3     C 8787   3.673   1.799   1.665  0.4689 -0.5684 -0.0982
  589TMC3     O 8788   3.572   1.737   1.635 -0.2905  0.8848 -0.5757
  589TMC3     H 8789   3.899   1.852   1.829  0.8064 -1.2080  1.6962
  589TMC3    H1 8790   3.726   1.560   1.561  0.3729 -1.7971  1.0345
  589TMC3    H2 8791   4.136   1.538   1.683 -1.4098 -1.3304  1.0312
  589TMC3    C7 8792   3.938   1.424   1.538 -0.0913  0.6841  0.2762
  589TMC3    C8 8793   4.144   1.801   1.735  0.5505  0.4581 -0.2706
  589TMC3    O1 8794   3.834   1.377   1.491  0.2964 -0.6116 -0.3483
  589TMC3    O2 8795   4.137   1.912   1.790  0.0260  0.1824 -0.0268
  590MPD2     C 8796   3.341   0.083  16.771 -0.3264  0.0825  0.8150
  590MPD2    C1 8797   3.305   0.218  16.725  0.4457 -0.0208  0.1584
  590MPD2    C2 8798   3.393   0.286  16.644  0.4087 -0.5736 -0.5612
  590MPD2    C3 8799   3.514   0.230  16.608  0.5455 -0.2779 -0.7442
  590MPD2    C4 8800   3.557   0.113  16.667  0.1396  0.5023 -0.3935
  590MPD2    C5 8801   3.470   0.037  16.743 -0.0911  0.6788 -0.0056
  590MPD2     H 8802   3.375   0.387  16.610  2.3983  0.2957  0.9789
  590MPD2    H1 8803   3.660   0.081  16.661  0.9619  3.0127  0.6738
  590MPD2    H2 8804   3.277   0.023  16.835 -0.9549 -1.5731 -1.3619
  590MPD2    H3 8805   3.510   4.682  16.782 -2.5784 -1.4733 -2.4713
  590MPD2     N 8806   3.595   0.308  16.520  0.7802  0.1872 -0.3792
  590MPD2    H5 8807   3.547   0.389  16.485  0.6339  0.5699  0.7169
  590MPD2    N1 8808   3.176   0.260  16.766 -0.7622  0.2477 -0.9251
  590MPD2    H7 8809   3.118   0.194  16.816  1.4730  1.4484  3.1875
  591TMC3    C1 8810   3.750   0.369  16.358 -0.4193  1.0432  0.4385
  591TMC3    C2 8811   3.815   0.319  16.243  0.2279  0.1191 -0.9284
  591TMC3    C3 8812   3.802   0.381  16.124  0.4569  0.2433 -0.1417
  591TMC3    C4 8813   3.672   0.486  16.341  0.7940  0.1585 -0.1467
  591TMC3    C5 8814   3.661   0.542  16.217 -0.3398  0.1557  0.2611
  591TMC3    C6 8815   3.718   0.485  16.106  0.1310 -0.2380 -0.2042
  591TMC3     C 8816   3.702   0.266  16.450  0.1631  0.1619 -0.0810
  591TMC3     O 8817   3.761   0.161  16.456 -0.2188 -0.1771  0.6249
  591TMC3     H 8818   3.858   0.220  16.255 -0.0610 -0.2258 -2.7761
  591TMC3    H1 8819   3.617   0.530  16.423  2.0292  1.3273  0.0680
  591TMC3    H2 8820   3.692   0.531  16.011 -2.6478  2.5323  1.9198
  591TMC3    C7 8821   3.570   0.654  16.201 -0.1409 -0.0398  0.1445
  591TMC3    C8 8822   3.895   0.350  16.017 -0.0143  0.1589 -0.3298
  591TMC3    O1 8823   3.461   0.644  16.262  0.4514 -0.5259  0.4227
  591TMC3    O2 8824   3.939   0.237  16.014 -0.1891  0.1222  0.2130
  592MPD2     C 8825   4.010   2.153  11.584  0.5100  0.0671 -0.5668
  592MPD2    C1 8826   3.976   2.190  11.713  0.1810 -0.3405 -0.7956
  592MPD2    C2 8827   3.932   2.083  11.801  0.4216 -0.2355 -0.2546
  592MPD2    C3 8828   3.925   1.950  11.763  0.3949 -0.1936  0.0170
  592MPD2    C4 8829   3.968   1.920  11.635  0.0830 -0.4057 -0.5277
  592MPD2    C5 8830   4.004   2.022  11.547 -0.2806 -0.4902  0.2570
  592MPD2     H 8831   3.905   2.117  11.900 -0.0037 -1.6998  0.1270
  592MPD2    H1 8832   3.964   1.821  11.591  0.4792 -2.0084  3.0264
  592MPD2    H2 8833   4.045   2.231  11.517  1.7042  0.3608  0.4057
  592MPD2    H3 8834   4.024   1.989  11.446  2.0695  0.2948  0.4827
  592MPD2     N 8835   3.881   1.849  11.855 -0.3965  0.2338 -0.0573
  592MPD2    H5 8836   3.839   1.881  11.942 -1.2402 -0.3136 -0.2607
  592MPD2    N1 8837   3.998   2.323  11.749 -0.0292  0.3560  0.6734
  592MPD2    H7 8838   4.025   2.381  11.670 -3.2854 -0.3883 -0.9571
  593TMC3    C1 8839   4.005   2.525  11.885  0.2299  0.8471  0.3980
  593TMC3    C2 8840   3.985   2.585  12.002 -0.3852 -0.4827 -0.1615
  593TMC3    C3 8841   4.058   2.696  12.029  0.1318  0.3424 -0.6678
  593TMC3    C4 8842   4.099   2.574  11.800  0.0488  0.1861 -0.6037
  593TMC3    C5 8843   4.179   2.681  11.836 -0.4376 -0.0025 -0.5875
  593TMC3    C6 8844   4.160   2.744  11.952  0.1008 -0.3359 -0.2129
  593TMC3     C 8845   3.972   2.383  11.871 -1.0052 -0.1024  0.0711
  593TMC3     O 8846   3.925   2.335  11.973 -0.0409  0.0844  0.1767
  593TMC3     H 8847   3.915   2.544  12.075 -0.0554 -1.0823 -0.1781
  593TMC3    H1 8848   4.125   2.523  11.707 -0.3931 -1.3246  0.0976
  593TMC3    H2 8849   4.211   2.835  11.982  0.4924 -0.7652  0.3939
  593TMC3    C7 8850   4.291   2.715  11.752 -0.5602 -0.2529  0.0166
  593TMC3    C8 8851   4.036   2.774  12.153  0.9765 -0.4657  0.0264
  593TMC3    O1 8852   4.335   2.828  11.763 -0.1723  0.2772  0.6884
  593TMC3    O2 8853   3.922   2.784  12.197 -0.2315  0.7800 -0.0566
  594MPD2     C 8854   2.258   0.526  14.275 -0.3760  0.4706 -0.4278
  594MPD2    C1 8855   2.285   0.589  14.398 -0.4857  0.0569  0.4244
  594MPD2    C2 8856   2.382   0.692  14.395 -0.6126  0.2923  0.1968
  594MPD2    C3 8857   2.457   0.713  14.278 -0.4117 -0.5721  0.1134
  594MPD2    C4 8858   2.437   0.638  14.165 -0.5248  0.3075  0.2359
  594MPD2    C5 8859   2.341   0.540  14.171  0.6270 -0.7687  0.6333
  594MPD2     H 8860   2.415   0.743  14.484 -0.7965 -3.4114  2.3698
  594MPD2    H1 8861   2.492   0.663  14.075 -1.2584  0.7234 -0.0945
  594MPD2    H2 8862   2.181   0.449  14.268  1.7921 -1.6783 -0.4893
  594MPD2    H3 8863   2.337   0.474  14.085  0.3343 -1.3386  1.0816
  594MPD2     N 8864   2.542   0.828  14.274  0.1371 -0.3026  0.2810
  594MPD2    H5 8865   2.534   0.891  14.354  0.5262 -1.6540  1.3906
  594MPD2    N1 8866   2.210   0.560  14.515  0.0028  0.5869 -0.0376
  594MPD2    H7 8867   2.145   0.483  14.507 -1.0062  1.5600 -1.3623
  595TMC3    C1 8868   2.862   1.145  14.142  0.5595 -0.1814  0.4595
  595TMC3    C2 8869   2.801   1.020  14.122 -0.2865  0.4666  0.3534
  595TMC3    C3 8870   2.687   0.991  14.195  0.6176  0.6887  0.3856
  595TMC3    C4 8871   2.807   1.235  14.235 -0.1834  0.3386 -0.2174
  595TMC3    C5 8872   2.698   1.197  14.309 -0.2508 -0.0780 -0.0613
  595TMC3    C6 8873   2.633   1.074  14.295 -0.5727 -0.3841 -0.4407
  595TMC3     C 8874   3.009   1.155  14.127 -0.1031 -0.3710 -0.5394
  595TMC3     O 8875   3.063   1.254  14.174  0.1811 -0.4346 -0.2999
  595TMC3     H 8876   2.841   0.955  14.045 -0.6340  0.0735  0.5110
  595TMC3    H1 8877   2.841   1.337  14.240  3.6224 -0.9705  0.3338
  595TMC3    H2 8878   2.531   1.058  14.327 -0.7904  1.0392 -0.4165
  595TMC3    C7 8879   2.672   1.271  14.432  0.0610 -0.3734  0.3593
  595TMC3    C8 8880   2.632   0.858  14.177  0.3434  0.3670 -0.5093
  595TMC3    O1 8881   2.578   1.245  14.500  0.3278  0.0717 -0.0573
  595TMC3    O2 8882   2.672   0.783  14.084 -0.3851 -0.1314  0.2394
  596MPD2     C 8883   1.744   3.972  17.066  0.8329  0.0685 -0.0161
  596MPD2    C1 8884   1.734   4.093  16.999  0.1697 -0.1255 -0.5680
  596MPD2    C2 8885   1.739   4.090  16.859  0.2944 -0.6721 -0.5180
  596MPD2    C3 8886   1.747   3.969  16.787 -0.0736 -0.7727 -0.2102
  596MPD2    C4 8887   1.770   3.852  16.856 -0.6484 -0.3862 -0.3430
  596MPD2    C5 8888   1.774   3.860  16.993  0.2427 -0.6610 -0.2765
  596MPD2     H 8889   1.736   4.186  16.809  2.1399 -0.9919 -1.2394
  596MPD2    H1 8890   1.789   3.761  16.800  1.6391 -0.1519  0.0352
  596MPD2    H2 8891   1.732   3.947  17.171  1.2186 -2.5763 -0.6191
  596MPD2    H3 8892   1.784   3.763  17.041  1.5219  0.3031  1.3828
  596MPD2     N 8893   1.743   3.952  16.647  0.0756  0.1283  0.1810
  596MPD2    H5 8894   1.728   3.863  16.601  1.4990  0.8796 -1.7572
  596MPD2    N1 8895   1.734   4.215  17.065 -0.0270  0.5794 -0.2688
  596MPD2    H7 8896   1.707   4.297  17.011 -0.9952  0.6025  0.2511
  597TMC3    C1 8897   1.726   4.374  17.236  0.4375 -0.6607 -0.0057
  597TMC3    C2 8898   1.802   4.430  17.331 -0.3098  1.0690 -0.0542
  597TMC3    C3 8899   1.766   4.561  17.362  0.9010  0.3867 -0.1842
  597TMC3    C4 8900   1.635   4.441  17.161  0.1057  0.1512  0.6695
  597TMC3    C5 8901   1.604   4.567  17.197 -0.2331  0.1348  0.2261
  597TMC3    C6 8902   1.675   4.633  17.296 -0.9705  1.1641 -0.1814
  597TMC3     C 8903   1.766   4.241  17.197  0.5916 -0.8051 -0.1126
  597TMC3     O 8904   1.802   4.163  17.285 -0.6380  0.7093 -0.1550
  597TMC3     H 8905   1.879   4.378  17.388 -0.7237  1.3414  0.7561
  597TMC3    H1 8906   1.574   4.393  17.086 -1.0211  1.6625  0.6207
  597TMC3    H2 8907   1.638   4.729  17.328 -0.0400  0.9445  1.5518
  597TMC3    C7 8908   1.457   4.598  17.190  0.6120  0.2589 -0.9316
  597TMC3    C8 8909   1.814   4.622  17.488 -0.1780  0.0736 -0.3509
  597TMC3    O1 8910   1.385   4.502  17.189 -0.5226 -0.2925 -0.1005
  597TMC3    O2 8911   1.793   0.005  17.496  0.1073 -0.4368 -0.0876
  598TMC3    C1 8912   4.512   0.907  15.662 -0.7004 -0.0642 -0.0390
  598TMC3    C2 8913   4.508   0.781  15.717 -0.0555 -0.0450  0.1713
  598TMC3    C3 8914   4.486   0.686  15.624 -0.3614 -0.4298 -0.3141
  598TMC3    C4 8915   4.533   0.938  15.530 -0.5945 -1.2181  0.6740
  598TMC3    C5 8916   4.522   0.834  15.448 -0.2987 -0.3673  0.2668
  598TMC3    C6 8917   4.485   0.707  15.489  0.6680 -0.5441  0.2396
  598TMC3     C 8918   4.518   1.011  15.753  0.4067  0.2024  0.5407
  598TMC3     O 8919   4.516   0.972  15.869  0.6809  0.6455 -0.1175
  598TMC3     H 8920   4.490   0.764  15.822 -0.1376  1.3458  0.3734
  598TMC3    H1 8921   4.553   1.038  15.491 -1.3650 -1.3935 -0.1793
  598TMC3    H2 8922   4.476   0.628  15.416  0.3516 -0.3834  0.1054
  598TMC3    C7 8923   4.542   0.846  15.309 -0.2672  0.1194 -0.7530
  598TMC3    C8 8924   4.528   0.549  15.665  0.4269  0.0764  0.2952
  598TMC3    O1 8925   4.467   0.786  15.237  0.2516  0.1892 -0.1918
  598TMC3    O2 8926   4.488   0.510  15.777  0.0932 -0.2135  0.1547
  599MPD2     C 8927   4.210   2.567  15.760 -0.2347 -0.9404 -0.1191
  599MPD2    C1 8928   4.312   2.601  15.845  0.0630 -0.3125  0.3072
  599MPD2    C2 8929   4.277   2.621  15.984  0.6063 -0.1294  0.1320
  599MPD2    C3 8930   4.144   2.622  16.026  0.0550  0.2929 -0.3541
  599MPD2    C4 8931   4.041   2.597  15.931 -0.3189 -0.0315  0.4382
  599MPD2    C5 8932   4.082   2.557  15.807 -0.0401  0.1809 -0.1818
  599MPD2     H 8933   4.359   2.634  16.053  0.4848 -3.1684  0.8505
  599MPD2    H1 8934   3.933   2.600  15.947 -0.3632  0.6061  0.0157
  599MPD2    H2 8935   4.217   2.535  15.656 -2.0431 -0.7672 -0.2856
  599MPD2    H3 8936   4.005   2.515  15.745 -1.2968 -2.2469  2.9986
  599MPD2     N 8937   4.106   2.644  16.153  0.1402 -0.2107  0.0175
  599MPD2    H5 8938   4.005   2.650  16.155  0.2497  1.7986  0.2503
  599MPD2    N1 8939   4.449   2.605  15.804 -0.1447 -0.3304  0.0418
  599MPD2    H7 8940   4.515   2.621  15.880 -2.3492  1.2555  1.6079
  600TMC3    C1 8941   4.115   2.689  16.388 -0.4322 -0.7191 -0.3244
  600TMC3    C2 8942   4.010   2.616  16.421 -0.8482 -0.1334  0.4087
  600TMC3    C3 8943   3.923   2.667  16.509  0.6218 -0.8002  0.3357
  600TMC3    C4 8944   4.152   2.807  16.452  0.2032  0.0536 -0.3250
  600TMC3    C5 8945   4.064   2.856  16.546  0.5605 -0.7563 -0.1718
  600TMC3    C6 8946   3.953   2.782  16.569  0.0580 -0.1733 -0.9587
  600TMC3     C 8947   4.187   2.659  16.262 -0.0113 -0.0391 -0.1619
  600TMC3     O 8948   4.305   2.676  16.273 -0.2001  0.7251 -0.0723
  600TMC3     H 8949   3.983   2.532  16.358  0.4770 -0.2067 -0.0624
  600TMC3    H1 8950   4.243   2.861  16.430  1.1309 -0.7616  1.4799
  600TMC3    H2 8951   3.874   2.823  16.632  0.3663  0.3598 -0.9164
  600TMC3    C7 8952   4.066   2.990  16.602  0.2534 -0.2620  0.7805
  600TMC3    C8 8953   3.800   2.593  16.536 -1.0389 -0.4698  0.6773
  600TMC3    O1 8954   4.021   2.999  16.716  0.4273 -0.0526  0.2011
  600TMC3    O2 8955   3.754   2.526  16.445  0.2705  0.0731  0.5540
  601MPD2     C 8956   1.511   2.055   0.524 -0.8053  0.6280  0.7268
  601MPD2    C1 8957   1.459   1.987   0.416 -0.1025 -0.1405 -0.2365
  601MPD2    C2 8958   1.437   1.857   0.429 -0.5859  0.0867 -0.2724
  601MPD2    C3 8959   1.458   1.795   0.552 -0.7380  0.5954 -0.1178
  601MPD2    C4 8960   1.500   1.870   0.661 -0.8142  0.3396 -0.0408
  601MPD2    C5 8961   1.533   1.998   0.647  0.0780  0.2399 -0.3577
  601MPD2     H 8962   1.408   1.798   0.342  0.4315  0.5721 -0.9470
  601MPD2    H1 8963   1.502   1.832   0.762  1.3772  0.5907 -0.0017
  601MPD2    H2 8964   1.545   2.158   0.512 -0.4797  0.6093  1.4947
  601MPD2    H3 8965   1.564   2.060   0.730 -0.7562  0.3783 -0.1502
  601MPD2     N 8966   1.436   1.655   0.578  0.3932 -0.0279 -0.8105
  601MPD2    H5 8967   1.447   1.612   0.669  0.0161  2.9272  0.6466
  601MPD2    N1 8968   1.430   2.046   0.288  0.1688  0.5280  0.1055
  601MPD2    H7 8969   1.388   1.998   0.208 -2.1319  2.5519  0.0830
  602TMC3    C1 8970   1.407   2.208   0.110  0.2296 -0.4974  0.3691
  602TMC3    C2 8971   1.382   2.339   0.087 -0.5432  0.0607 -0.7289
  602TMC3    C3 8972   1.307   2.371  17.723  0.1898  0.8879  0.6559
  602TMC3    C4 8973   1.346   2.110   0.032  0.0645  0.3249  0.1005
  602TMC3    C5 8974   1.266   2.151  17.680 -0.1025  0.1988  0.5251
  602TMC3    C6 8975   1.247   2.280  17.644 -0.4902  0.4366  0.1943
  602TMC3     C 8976   1.450   2.174   0.239 -0.1380 -0.2253 -0.2376
  602TMC3     O 8977   1.516   2.253   0.303 -0.2082  0.3183  0.1959
  602TMC3     H 8978   1.418   2.413   0.158 -0.2807  0.4421 -1.2597
  602TMC3    H1 8979   1.361   2.003   0.042  1.7644  0.6804  1.4991
  602TMC3    H2 8980   1.183   2.311  17.562 -1.5798  1.2078  1.3482
  602TMC3    C7 8981   1.238   2.061  17.565 -0.1178  0.0085  0.0894
  602TMC3    C8 8982   1.257   2.504  17.720 -0.1222  0.1753 -0.4207
  602TMC3    O1 8983   1.287   1.949  17.574 -0.3097  0.6282  0.3590
  602TMC3    O2 8984   1.234   2.558   0.082  0.3108  0.1399 -0.1276
  603TMC3    C1 8985   0.757   1.684  10.552  0.2245 -0.8215 -0.1948
  603TMC3    C2 8986   0.719   1.678  10.682 -0.1337  0.0373  0.4548
  603TMC3    C3 8987   0.659   1.787  10.733 -0.4965 -0.4459 -0.3633
  603TMC3    C4 8988   0.752   1.801  10.473 -0.3030  0.0673  0.4180
  603TMC3    C5 8989   0.688   1.910  10.528  0.3406 -0.2050  0.0699
  603TMC3    C6 8990   0.644   1.900  10.653 -0.2464  0.6900 -0.2133
  603TMC3     C 8991   0.813   1.567  10.496 -0.3421  0.2618 -0.2774
  603TMC3     O 8992   0.876   1.495  10.566  0.3354 -0.2113  0.3713
  603TMC3     H 8993   0.725   1.584  10.735 -0.4743  0.9699  2.1668
  603TMC3    H1 8994   0.793   1.797  10.372 -3.3799 -1.5122 -0.7519
  603TMC3    H2 8995   0.577   1.982  10.676  0.5382  0.5902  2.5059
  603TMC3    C7 8996   0.648   2.027  10.452 -0.2619 -0.7018  0.5959
  603TMC3    C8 8997   0.635   1.789  10.879 -0.6237 -0.3273  0.4855
  603TMC3    O1 8998   0.627   2.126  10.516 -0.1646 -0.5841 -0.1109
  603TMC3    O2 8999   0.696   1.703  10.946 -0.4864 -0.6892 -0.1747
  604MPD2     C 9000   0.752   0.182  16.388  0.6648 -0.0108  0.3293
  604MPD2    C1 9001   0.809   0.305  16.383 -0.4343  0.4606  0.3990
  604MPD2    C2 9002   0.889   0.346  16.280 -0.3424  0.2248 -0.2588
  604MPD2    C3 9003   0.922   0.266  16.177 -0.3127 -1.4227  0.0215
  604MPD2    C4 9004   0.872   0.135  16.183 -0.6552  0.0400  0.0150
  604MPD2    C5 9005   0.787   0.099  16.282  0.6571 -0.2031 -0.1925
  604MPD2     H 9006   0.933   0.445  16.278  0.1004  0.0738  2.5538
  604MPD2    H1 9007   0.886   0.057  16.109 -0.7648  0.6185 -0.6078
  604MPD2    H2 9008   0.679   0.147  16.460 -0.3569  0.3789 -0.5354
  604MPD2    H3 9009   0.744   4.736  16.278 -0.1917  0.1779 -0.4759
  604MPD2     N 9010   0.991   0.311  16.061 -0.5652  0.4524 -0.4615
  604MPD2    H5 9011   1.008   0.411  16.055 -0.6127  0.6046  1.7985
  604MPD2    N1 9012   0.762   0.396  16.481  0.3354  0.3414  0.6893
  604MPD2    H7 9013   0.686   0.363  16.539  0.1682  0.0749  0.3269
  605TMC3    C1 9014   0.728   0.597  16.604 -0.3407  0.4556 -0.0323
  605TMC3    C2 9015   0.795   0.685  16.677 -0.1532  0.2921 -0.6224
  605TMC3    C3 9016   0.734   0.792  16.731 -0.4572 -0.5903 -0.1970
  605TMC3    C4 9017   0.588   0.605  16.599  0.3911  0.9290 -0.0306
  605TMC3    C5 9018   0.522   0.711  16.660  0.4922 -0.3223  0.2999
  605TMC3    C6 9019   0.598   0.803  16.725 -0.5422 -0.9043 -0.6006
  605TMC3     C 9020   0.814   0.523  16.508  0.6863 -0.8940 -0.0645
  605TMC3     O 9021   0.926   0.568  16.478 -0.1190  0.7153  0.4317
  605TMC3     H 9022   0.902   0.669  16.680 -0.1513  0.0370 -1.8677
  605TMC3    H1 9023   0.539   0.555  16.517 -2.3215  0.8212  1.6697
  605TMC3    H2 9024   0.548   0.892  16.764 -0.1313 -0.0352 -2.0743
  605TMC3    C7 9025   0.382   0.740  16.632 -0.0728 -0.5082  0.7335
  605TMC3    C8 9026   0.802   0.890  16.807 -0.5583  0.4154  0.0779
  605TMC3    O1 9027   0.351   0.858  16.644 -0.3811  0.2152  0.4427
  605TMC3    O2 9028   0.732   0.945  16.893 -0.1190  0.1328 -0.9826
  606TMC3    C1 9029   1.667   4.689   0.141 -0.2084  0.3311  0.3389
  606TMC3    C2 9030   1.720   4.615   0.243 -0.0347 -0.7514  1.3760
  606TMC3    C3 9031   1.690   4.477   0.243  0.3041 -0.3189  0.4448
  606TMC3    C4 9032   1.591   4.636   0.038 -0.4647 -0.2649  0.2768
  606TMC3    C5 9033   1.561   4.498   0.050 -0.5623  0.4266 -0.0337
  606TMC3    C6 9034   1.619   4.415   0.139  0.9891  0.1752 -0.3685
  606TMC3     C 9035   1.686   0.092   0.156 -0.2032 -0.5388  0.1226
  606TMC3     O 9036   1.701   0.133   0.269 -0.2796  0.3245  0.2767
  606TMC3     H 9037   1.785   4.658   0.318  0.7764 -1.4995  1.1053
  606TMC3    H1 9038   1.548   4.707  17.715 -1.2379 -0.4601  0.5536
  606TMC3    H2 9039   1.592   4.310   0.139 -0.0030  0.4260 -0.7122
  606TMC3    C7 9040   1.502   4.446  17.670 -0.1034  0.3187 -0.1211
  606TMC3    C8 9041   1.773   4.382   0.313 -0.4328 -1.4171  0.8605
  606TMC3    O1 9042   1.501   4.524  17.572  0.1168  0.2210  0.2762
  606TMC3    O2 9043   1.784   4.275   0.258  0.4931 -0.9776 -0.3007
  607MPD2     C 9044   4.533   1.381  11.427  1.0033  0.0026 -0.2300
  607MPD2    C1 9045   4.464   1.477  11.503 -0.4507 -0.7021  0.5271
  607MPD2    C2 9046   4.416   1.440  11.629 -0.2669  0.0346  0.6766
  607MPD2    C3 9047   4.423   1.306  11.677  0.2767 -0.2463 -0.3279
  607MPD2    C4 9048   4.502   1.215  11.604  0.4806 -0.2134  0.9455
  607MPD2    C5 9049   4.545   1.251  11.473  0.2722 -0.2922 -0.2659
  607MPD2     H 9050   4.371   1.511  11.698  2.8021  0.7248  1.9457
  607MPD2    H1 9051   4.505   1.108  11.623 -3.4851  0.1166  3.6117
  607MPD2    H2 9052   4.581   1.399  11.331  1.2403  0.2718 -0.0603
  607MPD2    H3 9053   4.587   1.181  11.402  1.4411 -2.1876  2.2488
  607MPD2     N 9054   4.360   1.278  11.800  0.4544  0.4350  0.1824
  607MPD2    H5 9055   4.307   1.354  11.842  1.0879  0.5502  0.7740
  607MPD2    N1 9056   4.459   1.614  11.469  0.0623  0.4328  0.1118
  607MPD2    H7 9057   4.402   1.671  11.532 -0.6083 -0.2183  0.0857
  608TMC3    C1 9058   4.519   1.822  11.381  0.6713  0.8728  0.5633
  608TMC3    C2 9059   4.417   1.877  11.455  0.5850  0.2148  0.5487
  608TMC3    C3 9060   4.419   2.010  11.487 -1.4898 -0.3659 -0.3699
  608TMC3    C4 9061   4.622   1.900  11.330 -0.4188 -0.0019 -0.1681
  608TMC3    C5 9062   4.615   2.031  11.360  0.4475  0.0863  0.3901
  608TMC3    C6 9063   4.519   2.093  11.439  0.3346  0.3322 -0.2296
  608TMC3     C 9064   4.529   1.677  11.366 -0.2571  0.1907 -0.1706
  608TMC3     O 9065   4.611   1.632  11.287  0.6082 -0.3406 -0.4874
  608TMC3     H 9066   4.322   1.824  11.460 -0.3276  1.8876  0.6984
  608TMC3    H1 9067   4.701   1.859  11.268 -0.8344  1.7949 -1.9036
  608TMC3    H2 9068   4.532   2.192  11.481  2.6540 -0.6414  1.3339
  608TMC3    C7 9069   4.718   2.108  11.301 -0.5667 -1.3927  0.1642
  608TMC3    C8 9070   4.376   2.047  11.626 -0.0968 -0.2444 -0.2584
  608TMC3    O1 9071   4.728   2.094  11.180  0.2010 -0.7766 -0.1839
  608TMC3    O2 9072   4.392   2.160  11.670 -0.0760  0.1242  0.2167
  609TMC3    C1 9073   2.581   1.800   9.166  0.3504  0.0539  0.1074
  609TMC3    C2 9074   2.499   1.730   9.073 -0.3702 -0.6227 -0.7088
  609TMC3    C3 9075   2.564   1.656   8.978 -0.2157 -0.0619 -0.4499
  609TMC3    C4 9076   2.712   1.779   9.175  0.2115  0.8031  0.1920
  609TMC3    C5 9077   2.769   1.693   9.089  0.1459  0.5833 -0.0277
  609TMC3    C6 9078   2.695   1.639   8.981 -0.9044 -0.1471  0.5595
  609TMC3     C 9079   2.524   1.870   9.278  0.5988 -0.2816 -0.5859
  609TMC3     O 9080   2.566   1.984   9.293 -0.2822 -0.6290 -0.4354
  609TMC3     H 9081   2.394   1.755   9.067 -0.6956 -1.3162  2.2421
  609TMC3    H1 9082   2.771   1.839   9.244 -0.5837 -0.4126  1.9416
  609TMC3    H2 9083   2.749   1.576   8.911  2.4005  0.4787  2.5440
  609TMC3    C7 9084   2.887   1.618   9.134 -0.5209  0.3147  0.4434
  609TMC3    C8 9085   2.486   1.598   8.868 -0.1141  0.0619 -0.4386
  609TMC3    O1 9086   2.906   1.615   9.254 -1.2848  0.1929 -0.0278
  609TMC3    O2 9087   2.368   1.622   8.863 -0.1471  0.2929 -0.6969
  610TMC3    C1 9088   4.420   1.799  12.439 -0.1230 -1.0471 -0.2454
  610TMC3    C2 9089   4.473   1.819  12.317 -0.3857 -0.3461  0.5046
  610TMC3    C3 9090   4.597   1.883  12.311  0.4327 -0.9167  0.5434
  610TMC3    C4 9091   4.489   1.837  12.554  0.1077 -0.0654  0.7100
  610TMC3    C5 9092   4.612   1.889  12.544  0.1459 -0.0951 -0.4343
  610TMC3    C6 9093   4.665   1.915  12.422  0.3593 -0.6932  0.0756
  610TMC3     C 9094   4.295   1.722  12.439 -0.4043  0.3754  0.1168
  610TMC3     O 9095   4.257   1.678  12.332 -0.0816  0.1227  0.4104
  610TMC3     H 9096   4.410   1.815  12.229  0.0323 -0.8205  0.2271
  610TMC3    H1 9097   4.447   1.811  12.650  0.4512 -0.9751  0.6100
  610TMC3    H2 9098   0.025   1.963  12.417  0.3138 -0.7817 -1.6893
  610TMC3    C7 9099   4.698   1.870  12.659 -0.2382  0.0905  0.1957
  610TMC3    C8 9100   4.658   1.928  12.188 -0.5800  0.6148  0.2014
  610TMC3    O1 9101   0.079   1.842  12.637 -1.1126  0.4354 -0.2125
  610TMC3    O2 9102   0.013   2.007  12.189  0.6684  0.5800 -0.3698
  611MPD2     C 9103   4.542   1.467  10.302 -0.0529  0.0133  0.6431
  611MPD2    C1 9104   4.451   1.548  10.250 -0.2576  0.3230 -0.1954
  611MPD2    C2 9105   4.491   1.654  10.167 -0.2316  0.8589 -0.6184
  611MPD2    C3 9106   4.622   1.670  10.120 -0.5338 -0.3981 -0.3792
  611MPD2    C4 9107   4.712   1.575  10.164 -0.5884 -0.3384  0.9598
  611MPD2    C5 9108   4.668   1.485  10.257  0.6445 -0.2492  0.0081
  611MPD2     H 9109   4.415   1.726  10.138  0.6770  1.6054 -1.1892
  611MPD2    H1 9110   0.078   1.568  10.133 -1.2631  1.4131 -1.7102
  611MPD2    H2 9111   4.523   1.389  10.374  1.4575 -0.0164  1.0157
  611MPD2    H3 9112   0.008   1.424  10.303  0.7846 -0.5216 -0.5877
  611MPD2     N 9113   4.665   1.764  10.024  0.3855  0.0508  0.2488
  611MPD2    H5 9114   0.023   1.754   9.991  0.3165 -3.3329  1.0836
  611MPD2    N1 9115   4.314   1.526  10.282 -0.6698 -0.0130 -0.3590
  611MPD2    H7 9116   4.292   1.438  10.330 -0.8371 -0.5318 -1.3873
  612TMC3    C1 9117   4.651   1.959   9.886 -0.6831  0.3628  0.5342
  612TMC3    C2 9118   0.040   1.993   9.918 -0.1494  0.3987 -0.2986
  612TMC3    C3 9119   0.102   2.087   9.839  0.7709  0.4008 -0.1557
  612TMC3    C4 9120   4.574   2.012   9.780  0.5987 -0.8527 -0.3478
  612TMC3    C5 9121   4.635   2.106   9.704 -0.6803 -0.3633  0.0937
  612TMC3    C6 9122   0.029   2.149   9.733 -0.6381 -0.0388  0.0121
  612TMC3     C 9123   4.586   1.857   9.961  0.0435 -0.3375 -0.6118
  612TMC3     O 9124   4.468   1.872   9.971  0.1280  0.1442  0.8321
  612TMC3     H 9125   0.082   1.963  10.013 -4.1136 -3.9847  0.0570
  612TMC3    H1 9126   4.484   1.956   9.754 -0.1621 -0.5844  1.6651
  612TMC3    H2 9127   0.079   2.224   9.673  1.8780 -1.2906  0.5188
  612TMC3    C7 9128   4.563   2.179   9.611 -0.2998 -0.8582 -0.6345
  612TMC3    C8 9129   0.214   2.157   9.892 -0.3595  1.1716  0.1953
  612TMC3    O1 9130   4.621   2.233   9.517 -0.1386  0.3025 -0.5399
  612TMC3    O2 9131   0.223   2.278   9.864 -0.1300  0.7598 -0.4046
  613MPD2     C 9132   3.023   3.530  17.170 -0.2828 -0.1116  0.5590
  613MPD2    C1 9133   2.961   3.612  17.080 -0.4117  0.2608 -0.1108
  613MPD2    C2 9134   2.880   3.556  16.982 -0.1560  0.3265 -0.3871
  613MPD2    C3 9135   2.859   3.423  16.976 -0.4168  0.5899 -0.2402
  613MPD2    C4 9136   2.931   3.337  17.062  0.2455  0.1814 -0.1634
  613MPD2    C5 9137   3.010   3.394  17.156 -0.4120  0.3355  0.0697
  613MPD2     H 9138   2.825   3.611  16.907 -0.0764 -0.8999 -1.3437
  613MPD2    H1 9139   2.911   3.231  17.071 -0.0924  0.3146  0.5895
  613MPD2    H2 9140   3.072   3.578  17.255 -0.8173 -0.6803  1.1882
  613MPD2    H3 9141   3.058   3.328  17.227  0.1880 -0.3700 -0.9936
  613MPD2     N 9142   2.782   3.364  16.876  0.5143  0.0619 -0.6466
  613MPD2    H5 9143   2.793   3.264  16.861 -1.6675 -0.5029  1.6192
  613MPD2    N1 9144   2.979   3.748  17.110 -0.6816  0.8841 -0.0057
  613MPD2    H7 9145   3.025   3.763  17.199 -1.2333  0.3403  0.3774
  614TMC3    C1 9146   2.912   3.851  16.895  0.8410  0.0427  0.3245
  614TMC3    C2 9147   3.009   3.794  16.820  0.3307 -0.5620 -0.3899
  614TMC3    C3 9148   2.993   3.807  16.679  0.2009  0.8205 -0.2698
  614TMC3    C4 9149   2.838   3.946  16.841 -0.4700  0.6001 -0.8054
  614TMC3    C5 9150   2.832   3.961  16.706  0.0034 -0.0534  0.4807
  614TMC3    C6 9151   2.902   3.888  16.618 -0.6238 -0.3700  0.5661
  614TMC3     C 9152   2.945   3.861  17.034 -0.9059  0.1051 -0.3832
  614TMC3     O 9153   2.918   3.967  17.090 -0.2241 -0.4678  0.1238
  614TMC3     H 9154   3.076   3.721  16.862  0.2212 -0.4226  0.0288
  614TMC3    H1 9155   2.797   4.023  16.904 -1.1008 -1.4561  1.2702
  614TMC3    H2 9156   2.897   3.893  16.510 -0.9604  0.1442  0.6055
  614TMC3    C7 9157   2.780   4.091  16.661  0.5794  0.4238 -0.1877
  614TMC3    C8 9158   3.031   3.682  16.610  0.2015  0.5469 -0.2101
  614TMC3    O1 9159   2.736   4.173  16.740  0.2700 -0.3396  0.1826
  614TMC3    O2 9160   3.031   3.582  16.679  0.1772  0.1978  0.1425
  615MPD2     C 9161   2.629   1.011  16.289 -0.0993  0.2391  0.0714
  615MPD2    C1 9162   2.565   0.920  16.369  0.5460  0.4625 -0.1860
  615MPD2    C2 9163   2.495   0.821  16.303 -0.4865  0.4348 -0.0911
  615MPD2    C3 9164   2.516   0.800  16.163 -0.6931  0.4904 -0.8933
  615MPD2    C4 9165   2.603   0.885  16.094 -0.1065 -0.7281 -0.7821
  615MPD2    C5 9166   2.654   0.992  16.163  0.1977  0.0421 -0.0652
  615MPD2     H 9167   2.427   0.766  16.366 -0.7302  0.7389 -0.0853
  615MPD2    H1 9168   2.626   0.878  15.989 -0.4832 -0.2812 -0.8923
  615MPD2    H2 9169   2.687   1.090  16.334  0.9703  0.7588 -2.2349
  615MPD2    H3 9170   2.712   1.070  16.115  0.1350  0.6004  0.7758
  615MPD2     N 9171   2.446   0.712  16.080 -0.2822 -0.5362  0.0812
  615MPD2    H5 9172   2.486   0.705  15.987  1.5179  0.7216  0.7423
  615MPD2    N1 9173   2.548   0.940  16.504 -0.4453 -0.0069 -0.7549
  615MPD2    H7 9174   2.490   0.886  16.568  0.7953  0.8057  1.0563
  616TMC3    C1 9175   2.559   1.065  16.705  0.5254  0.7271 -0.4798
  616TMC3    C2 9176   2.652   1.125  16.790 -0.1252  0.8030 -0.8678
  616TMC3    C3 9177   2.622   1.248  16.843  0.0147  0.2077  0.5934
  616TMC3    C4 9178   2.439   1.127  16.686 -0.3614 -0.2173  0.0249
  616TMC3    C5 9179   2.418   1.251  16.741  0.1118 -0.0357 -0.1683
  616TMC3    C6 9180   2.507   1.311  16.824 -0.0040  0.1155  1.0138
  616TMC3     C 9181   2.617   1.029  16.582  0.1964  0.1455  0.4938
  616TMC3     O 9182   2.720   1.088  16.546  0.0816 -0.7295  0.1176
  616TMC3     H 9183   2.743   1.069  16.806 -0.1823  0.0375 -3.1655
  616TMC3    H1 9184   2.360   1.083  16.626 -0.8038  1.9348 -0.9782
  616TMC3    H2 9185   2.493   1.411  16.863  1.1964  0.7998 -0.2791
  616TMC3    C7 9186   2.280   1.285  16.760  0.0819  0.9644  0.5238
  616TMC3    C8 9187   2.718   1.308  16.932  0.4539 -0.0025  0.0449
  616TMC3    O1 9188   2.245   1.338  16.866 -0.1629 -0.1983  0.7639
  616TMC3    O2 9189   2.678   1.391  17.009  0.4606  0.1915  0.0356
  617MPD2     C 9190   0.613   3.853  14.479 -0.2543 -0.7882 -0.5554
  617MPD2    C1 9191   0.596   3.716  14.507 -0.0749  0.1985  0.2959
  617MPD2    C2 9192   0.464   3.678  14.538 -0.0116 -0.2945  0.1576
  617MPD2    C3 9193   0.364   3.775  14.537  0.2725 -0.3850  0.2964
  617MPD2    C4 9194   0.383   3.902  14.502 -0.1014  0.0507 -0.2452
  617MPD2    C5 9195   0.510   3.945  14.477  0.1854  0.2550  0.3310
  617MPD2     H 9196   0.450   3.574  14.568  0.2600 -0.2587  0.4043
  617MPD2    H1 9197   0.301   3.973  14.498 -0.1890 -0.0530 -0.3040
  617MPD2    H2 9198   0.708   3.899  14.454 -1.2028  0.2708 -2.2796
  617MPD2    H3 9199   0.538   4.048  14.460  0.4370  0.1725  0.2401
  617MPD2     N 9200   0.233   3.750  14.574 -0.1117 -0.3490  0.0981
  617MPD2    H5 9201   0.164   3.804  14.524 -1.0630 -2.7991 -1.2071
  617MPD2    N1 9202   0.711   3.629  14.497 -0.0968  0.1653  0.3032
  617MPD2    H7 9203   0.804   3.666  14.479 -0.9778  0.6552 -3.1285
  618TMC3    C1 9204   0.832   3.422  14.486 -0.5141  0.0225 -0.1907
  618TMC3    C2 9205   0.824   3.283  14.495  0.9701 -1.1749  0.7644
  618TMC3    C3 9206   0.907   3.200  14.425 -0.0229 -0.5772  0.4792
  618TMC3    C4 9207   0.933   3.482  14.412  0.2500 -0.7994  0.2164
  618TMC3    C5 9208   1.025   3.399  14.353 -0.1129  0.0278  0.9162
  618TMC3    C6 9209   1.002   3.259  14.351 -0.2090 -0.6473  0.2476
  618TMC3     C 9210   0.704   3.491  14.504  0.2137  0.0943  1.1370
  618TMC3     O 9211   0.606   3.423  14.502  0.1737 -0.7749  0.0519
  618TMC3     H 9212   0.745   3.230  14.548 -0.8754 -0.5938 -1.4171
  618TMC3    H1 9213   0.929   3.588  14.388 -1.6691 -0.6473  1.2135
  618TMC3    H2 9214   1.077   3.209  14.291 -2.3779 -0.8179 -2.3374
  618TMC3    C7 9215   1.055   3.452  14.215  0.0831  0.3758  0.0925
  618TMC3    C8 9216   0.854   3.066  14.388 -0.2229 -0.4110  1.0143
  618TMC3    O1 9217   1.141   3.539  14.195  0.0576  0.3553  0.4770
  618TMC3    O2 9218   0.741   3.037  14.425  0.6072 -0.3855  0.8638
  619MPD2     C 9219   1.415   0.139  13.514  0.1243 -0.2888 -0.1649
  619MPD2    C1 9220   1.307   0.210  13.548  0.7934  0.5958 -0.7442
  619MPD2    C2 9221   1.232   0.173  13.658 -0.4939  0.0362 -0.5151
  619MPD2    C3 9222   1.254   0.053  13.728  0.4577 -0.2096  0.5839
  619MPD2    C4 9223   1.369   4.714  13.697 -0.7595  0.0382  0.0949
  619MPD2    C5 9224   1.450   0.029  13.590  0.5374 -0.0169 -0.0582
  619MPD2     H 9225   1.146   0.237  13.677 -0.0333  0.4567  0.1604
  619MPD2    H1 9226   1.389   4.617  13.740 -0.3477 -0.1873 -0.6137
  619MPD2    H2 9227   1.478   0.154  13.427 -1.1165 -0.2317 -1.0521
  619MPD2    H3 9228   1.544   4.722  13.559  0.7804  0.3432  0.1635
  619MPD2     N 9229   1.159   4.734  13.819 -0.6732 -0.4976 -0.6083
  619MPD2    H5 9230   1.186   4.647  13.863  0.6468  1.7742  3.0316
  619MPD2    N1 9231   1.270   0.330  13.481  0.2538 -0.6008  0.2717
  619MPD2    H7 9232   1.180   0.362  13.515  0.3234  1.4882 -1.4871
  620TMC3    C1 9233   1.262   0.492  13.310  0.3852  0.7715  0.0892
  620TMC3    C2 9234   1.167   0.538  13.400 -0.1389  0.3748 -0.0927
  620TMC3    C3 9235   1.180   0.665  13.448  0.5545 -0.8108  0.0669
  620TMC3    C4 9236   1.368   0.577  13.264  0.0792  0.3075 -0.0806
  620TMC3    C5 9237   1.379   0.697  13.320  0.3029  0.6308 -0.1101
  620TMC3    C6 9238   1.283   0.743  13.405  0.8714  0.0863 -0.5757
  620TMC3     C 9239   1.328   0.375  13.372  0.1978 -0.7093 -0.2160
  620TMC3     O 9240   1.443   0.355  13.330  0.3227 -0.5702 -0.4708
  620TMC3     H 9241   1.084   0.473  13.423 -0.1597  0.5085  0.2025
  620TMC3    H1 9242   1.443   0.542  13.195  0.0461  0.1575 -0.0403
  620TMC3    H2 9243   1.309   0.830  13.463  0.8604 -0.0430 -0.3737
  620TMC3    C7 9244   1.518   0.721  13.377 -0.0773 -0.4799  0.8927
  620TMC3    C8 9245   1.135   0.670  13.578 -0.5501 -0.6472  0.6696
  620TMC3    O1 9246   1.529   0.838  13.414  0.3635  0.4131  0.0297
  620TMC3    O2 9247   1.134   0.563  13.635 -0.2920  0.8412  0.1114
  621MPD2     C 9248   1.986   0.735   9.692 -0.0671  0.3313  0.6893
  621MPD2    C1 9249   2.112   0.691   9.719  0.0612  0.1988  0.1562
  621MPD2    C2 9250   2.217   0.767   9.672  0.0032 -0.1752 -0.7592
  621MPD2    C3 9251   2.193   0.884   9.594 -0.4363 -0.2178  0.5686
  621MPD2    C4 9252   2.063   0.923   9.573 -0.1055  0.2662 -0.8439
  621MPD2    C5 9253   1.960   0.851   9.623  0.5661  0.0135  0.7492
  621MPD2     H 9254   2.317   0.736   9.700 -0.2524  0.6770  1.1246
  621MPD2    H1 9255   2.044   1.015   9.518  1.6557  1.5018  0.6260
  621MPD2    H2 9256   1.896   0.680   9.716  0.3718 -0.5094  0.4013
  621MPD2    H3 9257   1.861   0.890   9.603  0.0388 -1.5060  0.3843
  621MPD2     N 9258   2.305   0.961   9.546  0.0876  0.7019  0.0981
  621MPD2    H5 9259   2.395   0.934   9.584  0.1194  0.6402 -0.0228
  621MPD2    N1 9260   2.138   0.579   9.806  0.4955  0.2346  0.0212
  621MPD2    H7 9261   2.234   0.548   9.806 -0.0950 -1.5884 -0.3591
  622TMC3    C1 9262   2.083   0.390   9.933  0.4108  0.4897 -0.1003
  622TMC3    C2 9263   2.022   0.351  10.044 -0.0739 -0.1569 -0.3884
  622TMC3    C3 9264   2.040   0.222  10.093 -0.2945 -0.1516 -0.2934
  622TMC3    C4 9265   2.167   0.310   9.865  0.6714 -0.1701 -0.3912
  622TMC3    C5 9266   2.187   0.182   9.919 -0.2214  0.0553 -0.8786
  622TMC3    C6 9267   2.123   0.128  10.030  0.1289  0.0669 -0.1585
  622TMC3     C 9268   2.037   0.519   9.876  0.3417  0.5462  0.2860
  622TMC3     O 9269   1.923   0.555   9.897  0.3256 -0.1094 -0.3030
  622TMC3     H 9270   1.942   0.416  10.077 -0.6016 -1.1428  0.2871
  622TMC3    H1 9271   2.212   0.337   9.770 -1.4737 -1.8915 -1.9029
  622TMC3    H2 9272   2.123   0.023  10.057 -0.6401 -0.1337 -0.9561
  622TMC3    C7 9273   2.213   0.079   9.816  0.3192  0.0624 -0.3773
  622TMC3    C8 9274   1.928   0.155  10.161  0.1924 -0.1911  0.4468
  622TMC3    O1 9275   2.240   4.704   9.852 -0.7219  0.5947  0.4209
  622TMC3    O2 9276   1.892   0.050  10.113 -0.0541 -0.7855  0.0341
  623MPD2     C 9277   1.235   0.735  16.127 -0.5152 -0.5831  0.5282
  623MPD2    C1 9278   1.181   0.824  16.215 -0.7185  0.4425  0.2072
  623MPD2    C2 9279   1.267   0.914  16.272  0.8377  1.0256 -0.3484
  623MPD2    C3 9280   1.404   0.908  16.243 -0.7413  0.2105  0.2593
  623MPD2    C4 9281   1.458   0.825  16.147 -0.1786  0.7911  0.2781
  623MPD2    C5 9282   1.370   0.734  16.094 -0.5497  0.1501 -0.2758
  623MPD2     H 9283   1.224   0.991  16.336 -0.3772  2.4552 -2.8954
  623MPD2    H1 9284   1.564   0.832  16.127 -0.1652  0.2478  0.1357
  623MPD2    H2 9285   1.172   0.660  16.079 -0.0009 -1.1524  0.7482
  623MPD2    H3 9286   1.399   0.661  16.019  0.7925 -1.0533  1.4331
  623MPD2     N 9287   1.479   0.998  16.319  0.2543  0.3837 -0.2223
  623MPD2    H5 9288   1.428   1.060  16.382 -0.7611 -1.1858  0.4961
  623MPD2    N1 9289   1.038   0.838  16.251 -0.1461 -0.1218  1.6348
  623MPD2    H7 9290   1.012   0.917  16.309  0.6166  1.0203  0.3918
  624TMC3    C1 9291   1.709   1.086  16.622 -0.1887 -0.0470 -0.7477
  624TMC3    C2 9292   1.583   1.131  16.673 -0.5193 -0.7179  0.2392
  624TMC3    C3 9293   1.494   1.197  16.590 -0.1267  0.4011  0.3683
  624TMC3    C4 9294   1.734   1.090  16.485 -0.6681 -0.3557  0.4903
  624TMC3    C5 9295   1.638   1.136  16.400  0.3711 -0.2032 -0.4383
  624TMC3    C6 9296   1.528   1.200  16.455 -0.0885  0.4542  0.3318
  624TMC3     C 9297   1.789   0.996  16.702  0.7477  0.2795 -0.2270
  624TMC3     O 9298   1.908   0.998  16.676 -0.2177  0.8701  0.4789
  624TMC3     H 9299   1.556   1.107  16.775 -1.4152 -0.2314  0.1170
  624TMC3    H1 9300   1.820   1.036  16.448  0.3308  1.7586 -0.3187
  624TMC3    H2 9301   1.461   1.255  16.390 -0.1684 -0.1601 -0.1071
  624TMC3    C7 9302   1.612   1.037  16.303  1.0831  0.2554 -0.2837
  624TMC3    C8 9303   1.357   1.163  16.618  0.2072 -0.1417 -0.9855
  624TMC3    O1 9304   1.702   0.992  16.237 -0.1305  0.0392  0.0356
  624TMC3    O2 9305   1.299   1.118  16.522 -0.2847  0.5229  0.3806
  625MPD2     C 9306   1.704   2.242   0.950  0.0260  0.4572  0.5196
  625MPD2    C1 9307   1.673   2.338   1.041  0.4199  0.0828 -0.7692
  625MPD2    C2 9308   1.770   2.385   1.127  0.1276 -0.8621 -0.5581
  625MPD2    C3 9309   1.898   2.334   1.124 -0.0572  0.0512  0.3787
  625MPD2    C4 9310   1.931   2.227   1.039 -0.0301  0.1418  0.0324
  625MPD2    C5 9311   1.835   2.191   0.946 -0.3038  0.3527 -0.0723
  625MPD2     H 9312   1.750   2.469   1.193  1.2722 -2.7047  2.1508
  625MPD2    H1 9313   2.030   2.184   1.033  0.4883  1.4610 -0.9141
  625MPD2    H2 9314   1.632   2.207   0.876  1.2197  0.7919 -0.7852
  625MPD2    H3 9315   1.877   2.118   0.878  1.8721  3.3453 -1.9250
  625MPD2     N 9316   1.993   2.393   1.218 -0.3982 -0.5741  0.3259
  625MPD2    H5 9317   1.953   2.469   1.271 -0.6968 -1.0502  0.7846
  625MPD2    N1 9318   1.541   2.398   1.053  0.5500  0.2688  0.1051
  625MPD2    H7 9319   1.524   2.468   1.124 -1.4166 -0.8585  0.7359
  626TMC3    C1 9320   1.320   2.458   1.012 -0.1227  0.0654 -0.6394
  626TMC3    C2 9321   1.250   2.505   0.906 -0.9832 -0.6732 -0.5370
  626TMC3    C3 9322   1.203   2.628   0.906  0.4178 -0.3979 -0.1878
  626TMC3    C4 9323   1.339   2.540   1.124 -0.2186 -0.0454  0.3210
  626TMC3    C5 9324   1.299   2.671   1.116 -0.0377 -0.2186 -0.1672
  626TMC3    C6 9325   1.235   2.718   1.004 -0.3172 -0.1784  0.2720
  626TMC3     C 9326   1.436   2.372   0.974  0.5120  0.3102  0.3002
  626TMC3     O 9327   1.429   2.306   0.868  0.1481  0.0569  0.2118
  626TMC3     H 9328   1.232   2.442   0.819  0.8832 -1.5203 -0.3152
  626TMC3    H1 9329   1.370   2.508   1.223 -2.7137 -0.0015  1.1278
  626TMC3    H2 9330   1.213   2.824   0.995 -0.3540 -0.2076  0.0166
  626TMC3    C7 9331   1.314   2.743   1.243  0.2534  0.1980  0.3499
  626TMC3    C8 9332   1.173   2.686   0.777  0.4953  0.1121  0.3578
  626TMC3    O1 9333   1.418   2.723   1.307  0.5898 -0.0596 -0.3112
  626TMC3    O2 9334   1.219   2.797   0.766  0.6421 -0.1361 -0.2059
  627MPD2     C 9335   4.548   2.420  14.845  0.0715 -0.1788  0.2515
  627MPD2    C1 9336   4.656   2.342  14.836 -0.0511  0.2005  0.6783
  627MPD2    C2 9337   4.641   2.225  14.766  0.0712  0.2830 -0.4069
  627MPD2    C3 9338   4.520   2.188  14.713  0.0538  1.4013 -0.1901
  627MPD2    C4 9339   4.412   2.266  14.736  0.5680 -0.1358 -0.2724
  627MPD2    C5 9340   4.423   2.379  14.803  0.3820 -0.1218 -0.4381
  627MPD2     H 9341   4.736   2.174  14.748 -0.0653  0.0278 -0.4128
  627MPD2    H1 9342   4.311   2.239  14.706 -0.4971  2.3806  1.0489
  627MPD2    H2 9343   4.560   2.525  14.871  0.0259 -0.6955  2.3442
  627MPD2    H3 9344   4.342   2.451  14.797  0.1016 -0.3428  0.7241
  627MPD2     N 9345   4.499   2.067  14.645 -0.9108 -0.2689  0.5787
  627MPD2    H5 9346   4.404   2.048  14.615 -0.8638 -1.8084  1.4282
  627MPD2    N1 9347   0.050   2.377  14.874 -0.4335  0.0754 -0.7793
  627MPD2    H7 9348   0.129   2.315  14.858 -0.6211 -1.1026  2.8027
  628TMC3    C1 9349   0.228   2.517  14.951  0.2652 -0.1350  0.6081
  628TMC3    C2 9350   0.313   2.411  14.935 -0.7064  0.0178 -0.0796
  628TMC3    C3 9351   0.451   2.434  14.942  0.5673 -0.6795 -0.1795
  628TMC3    C4 9352   0.274   2.646  14.966  0.2867  0.1673 -0.9754
  628TMC3    C5 9353   0.412   2.664  14.963 -0.0365 -0.2193 -0.1927
  628TMC3    C6 9354   0.502   2.559  14.970 -0.6822  0.2976 -0.9632
  628TMC3     C 9355   0.087   2.493  14.949  0.0239  0.7828  0.6381
  628TMC3     O 9356   0.012   2.574  15.005  0.7873 -0.6714 -0.6288
  628TMC3     H 9357   0.278   2.309  14.939 -0.7819  0.0286 -0.5183
  628TMC3    H1 9358   0.198   2.723  14.973  0.1467 -0.1518  1.0628
  628TMC3    H2 9359   0.610   2.569  14.964 -0.5671 -1.3591 -1.5408
  628TMC3    C7 9360   0.464   2.791  14.926 -0.6052 -0.2499  0.0317
  628TMC3    C8 9361   0.525   2.320  14.888 -0.3339 -0.2597  0.7273
  628TMC3    O1 9362   0.584   2.808  14.934 -0.1682 -0.1922 -0.4331
  628TMC3    O2 9363   0.466   2.242  14.815  0.2269  0.0064 -0.9366
  629MPD2     C 9364   3.202   1.426  17.053  0.3755  0.0810 -0.0181
  629MPD2    C1 9365   3.196   1.362  16.934 -0.5566  0.1704 -0.5707
  629MPD2    C2 9366   3.077   1.320  16.879  0.6326 -0.7155 -0.4990
  629MPD2    C3 9367   2.960   1.340  16.943  0.6065 -0.1600 -0.1688
  629MPD2    C4 9368   2.967   1.391  17.067  0.4927  0.2096  1.0595
  629MPD2    C5 9369   3.087   1.437  17.122 -0.1142  1.1635 -0.1496
  629MPD2     H 9370   3.076   1.285  16.776 -0.3583  0.5512 -0.9215
  629MPD2    H1 9371   2.882   1.417  17.128  0.2766 -0.2821  0.9732
  629MPD2    H2 9372   3.295   1.467  17.092 -0.4883 -0.8488  2.9817
  629MPD2    H3 9373   3.096   1.493  17.215 -4.3272 -1.0425  1.5724
  629MPD2     N 9374   2.844   1.294  16.885 -0.1448 -0.3636  0.6767
  629MPD2    H5 9375   2.865   1.232  16.807 -1.1300  0.6853 -0.4182
  629MPD2    N1 9376   3.319   1.347  16.869  0.6616  0.3475  0.1212
  629MPD2    H7 9377   3.401   1.373  16.923 -0.2569  0.5932  1.4070
  630TMC3    C1 9378   3.490   1.273  16.726  0.0828 -0.2813 -0.0037
  630TMC3    C2 9379   3.546   1.291  16.599 -0.3314 -0.4374 -0.1661
  630TMC3    C3 9380   3.678   1.247  16.582  0.0176 -0.1872 -0.2021
  630TMC3    C4 9381   3.568   1.223  16.829  0.1136 -0.9152 -0.1491
  630TMC3    C5 9382   3.689   1.175  16.801  1.0546  0.1224  0.3605
  630TMC3    C6 9383   3.748   1.181  16.676 -0.6669 -0.5743  0.1735
  630TMC3     C 9384   3.349   1.301  16.741  0.0972 -0.0117 -0.4163
  630TMC3     O 9385   3.280   1.250  16.657 -0.3705  0.0348  0.0892
  630TMC3     H 9386   3.482   1.350  16.534  0.0508  1.4851  1.2016
  630TMC3    H1 9387   3.525   1.194  16.925  4.3398  1.3608  2.3940
  630TMC3    H2 9388   3.846   1.138  16.660 -1.7112 -1.7938 -3.0899
  630TMC3    C7 9389   3.779   1.203  16.902  0.3880 -0.6282  0.5962
  630TMC3    C8 9390   3.766   1.349  16.522  0.0919  0.7874  0.3605
  630TMC3    O1 9391   3.759   1.133  17.004  0.6230 -0.1089 -0.1116
  630TMC3    O2 9392   3.860   1.373  16.595 -0.9633 -0.7551 -0.0050
  631MPD2     C 9393   1.739   1.171  15.805  0.9131  0.1335  0.0641
  631MPD2    C1 9394   1.806   1.125  15.695  0.5453 -0.5437 -0.1149
  631MPD2    C2 9395   1.867   1.003  15.708 -0.0509  0.5426 -0.2246
  631MPD2    C3 9396   1.864   0.925  15.821 -0.3683 -0.2120 -0.0862
  631MPD2    C4 9397   1.809   0.977  15.931  0.2529 -0.1307  0.2773
  631MPD2    C5 9398   1.739   1.094  15.921  0.9628  0.2683 -0.2888
  631MPD2     H 9399   1.929   0.981  15.621 -1.1726  0.8433 -1.0945
  631MPD2    H1 9400   1.799   0.923  16.025  1.0725 -0.7827 -0.0161
  631MPD2    H2 9401   1.681   1.262  15.800  0.1921 -0.3084  0.4943
  631MPD2    H3 9402   1.686   1.126  16.010  2.1715 -0.2492  0.6166
  631MPD2     N 9403   1.940   0.805  15.813 -0.0843 -0.2830 -0.1294
  631MPD2    H5 9404   1.985   0.773  15.728  2.3198 -1.0520  1.4211
  631MPD2    N1 9405   1.823   1.200  15.574  0.0113 -0.5319 -0.4668
  631MPD2    H7 9406   1.847   1.139  15.497  3.7672  0.2382  0.1135
  632TMC3    C1 9407   1.818   1.379  15.416  0.5812  0.7000  0.9451
  632TMC3    C2 9408   1.723   1.465  15.392  0.0039 -0.1285 -0.4408
  632TMC3    C3 9409   1.681   1.479  15.262  0.4921  0.1148 -0.1571
  632TMC3    C4 9410   1.857   1.284  15.323  0.0839  1.1659  0.7010
  632TMC3    C5 9411   1.796   1.290  15.200  0.3604  0.3129  0.3740
  632TMC3    C6 9412   1.710   1.392  15.168  0.3625 -0.1240  0.7482
  632TMC3     C 9413   1.825   1.336  15.556  0.0841  0.0346 -0.1783
  632TMC3     O 9414   1.804   1.422  15.640 -0.3503  0.3965  0.4734
  632TMC3     H 9415   1.686   1.527  15.472 -0.3821 -2.6242  1.2966
  632TMC3    H1 9416   1.937   1.214  15.346 -1.3644 -0.1706  1.7104
  632TMC3    H2 9417   1.654   1.389  15.075  0.7227  0.0497  0.5234
  632TMC3    C7 9418   1.858   1.237  15.079  0.2882  0.0322 -0.4705
  632TMC3    C8 9419   1.536   1.500  15.278 -0.2607 -0.4917  0.0126
  632TMC3    O1 9420   1.830   1.288  14.974  0.4906 -0.3410  0.4694
  632TMC3    O2 9421   1.459   1.410  15.239 -0.4487  0.0122  0.2428
  633MPD2     C 9422   0.943   4.226  17.547 -0.2882  1.1814  0.1728
  633MPD2    C1 9423   0.933   4.140  17.437 -0.5177  0.5614  0.0237
  633MPD2    C2 9424   0.872   4.017  17.447 -0.4652 -0.5564  0.5814
  633MPD2    C3 9425   0.840   3.983  17.580  0.1277 -0.5017  0.2194
  633MPD2    C4 9426   0.867   4.054  17.690  0.2261  0.5207  0.1213
  633MPD2    C5 9427   0.916   4.183  17.671  0.3097 -0.3489  0.3508
  633MPD2     H 9428   0.859   3.947  17.365 -1.0559 -1.3190  1.3206
  633MPD2    H1 9429   0.844   4.029   0.046 -2.0811  0.6998 -0.3484
  633MPD2    H2 9430   0.980   4.329  17.551  0.5949  0.8482  0.7680
  633MPD2    H3 9431   0.928   4.251   0.008 -1.9733 -0.1182  0.5074
  633MPD2     N 9432   0.773   3.861  17.614 -0.3395 -0.5126 -0.0207
  633MPD2    H5 9433   0.730   3.860  17.706  2.7808  3.5701  1.4377
  633MPD2    N1 9434   0.988   4.173  17.310 -0.0202  0.1398  0.0504
  633MPD2    H7 9435   0.977   4.100  17.240  1.0647  2.0241 -2.0980
  634TMC3    C1 9436   1.089   4.288  17.140 -0.4422 -0.1751 -0.9200
  634TMC3    C2 9437   1.131   4.171  17.080 -0.1484 -0.0437  0.4637
  634TMC3    C3 9438   1.199   4.182  16.964 -0.9204 -0.2728 -1.0332
  634TMC3    C4 9439   1.102   4.412  17.082  0.6506  0.4608 -0.0402
  634TMC3    C5 9440   1.164   4.414  16.963  0.2743  0.4631  0.1220
  634TMC3    C6 9441   1.220   4.305  16.903  0.0761  0.3760 -0.6375
  634TMC3     C 9442   1.048   4.291  17.280  0.4416 -0.0228 -0.0573
  634TMC3     O 9443   1.072   4.391  17.346 -0.2301 -0.4263 -0.0486
  634TMC3     H 9444   1.098   4.074  17.116  0.0509 -1.1036 -2.1886
  634TMC3    H1 9445   1.078   4.502  17.137  0.7191  1.7802 -2.1435
  634TMC3    H2 9446   1.300   4.321  16.832  0.3576 -0.3159 -0.4840
  634TMC3    C7 9447   1.162   4.535  16.879  0.2110 -0.1356 -0.1583
  634TMC3    C8 9448   1.208   4.061  16.878 -0.2038  0.3807 -0.5699
  634TMC3    O1 9449   1.220   4.550  16.772  0.1731  0.3668  0.0807
  634TMC3    O2 9450   1.192   3.956  16.932  0.0041 -0.3866 -0.1945
  635TMC3    C1 9451   1.460   0.609  17.686  0.5307  0.3372 -0.1405
  635TMC3    C2 9452   1.472   0.592  17.551 -0.6992 -0.3933 -0.2535
  635TMC3    C3 9453   1.455   0.466  17.509 -0.1183  1.1377  0.4527
  635TMC3    C4 9454   1.423   0.511   0.029  0.3070  0.4372 -0.3377
  635TMC3    C5 9455   1.411   0.390  17.720 -0.5306 -0.0869 -0.1593
  635TMC3    C6 9456   1.416   0.359  17.590  0.2358  0.3627  0.7472
  635TMC3     C 9457   1.487   0.738  17.744 -0.2880 -0.0053  0.0644
  635TMC3     O 9458   1.424   0.766   0.103 -0.3377  0.1574 -0.5269
  635TMC3     H 9459   1.488   0.678  17.486  1.9878 -0.4406  0.3415
  635TMC3    H1 9460   1.406   0.533   0.134  1.7418 -0.8288  0.1580
  635TMC3    H2 9461   1.413   0.254  17.563  0.1670  0.4466  0.4264
  635TMC3    C7 9462   1.389   0.279   0.068 -0.4572  0.2932 -0.0069
  635TMC3    C8 9463   1.475   0.437  17.367 -0.0591  0.6951 -0.6451
  635TMC3    O1 9464   1.403   0.314   0.184 -0.0680  0.1394 -0.5545
  635TMC3    O2 9465   1.556   0.351  17.327  0.3096  0.1359  0.0842
  636MPD2     C 9466   2.395   4.011  16.237  0.4036  0.0118 -0.7001
  636MPD2    C1 9467   2.418   4.007  16.366 -0.2680  0.3817  0.2471
  636MPD2    C2 9468   2.469   3.890  16.424 -0.5066 -0.0222  0.7040
  636MPD2    C3 9469   2.481   3.770  16.348  0.2851  0.1612  0.1020
  636MPD2    C4 9470   2.446   3.778  16.216  0.2822 -0.4116 -0.1876
  636MPD2    C5 9471   2.405   3.901  16.161  0.0594 -0.7239 -0.3093
  636MPD2     H 9472   2.499   3.891  16.528  0.2925 -0.1414  0.4750
  636MPD2    H1 9473   2.455   3.691  16.151 -2.0974  0.4094 -1.6103
  636MPD2    H2 9474   2.353   4.099  16.191 -0.6632 -0.0693  0.1285
  636MPD2    H3 9475   2.362   3.908  16.062  3.5293  0.8243 -1.7131
  636MPD2     N 9476   2.533   3.660  16.418  0.9141  0.2553 -0.5027
  636MPD2    H5 9477   2.543   3.668  16.519  0.3247 -0.1051 -0.4107
  636MPD2    N1 9478   2.404   4.115  16.456 -0.1784  0.9800 -0.1013
  636MPD2    H7 9479   2.430   4.098  16.552 -0.9479  0.0023 -0.0738
  637TMC3    C1 9480   2.605   3.430  16.453 -0.6613  0.5867 -0.2607
  637TMC3    C2 9481   2.585   3.436  16.587 -0.7714  0.1003  0.3053
  637TMC3    C3 9482   2.657   3.353  16.674 -0.4316  0.4861  0.3912
  637TMC3    C4 9483   2.705   3.351  16.398  0.3241 -0.7090 -0.2014
  637TMC3    C5 9484   2.777   3.278  16.492 -0.8833  0.2952  0.5660
  637TMC3    C6 9485   2.745   3.266  16.622 -0.3797  0.4312 -0.2898
  637TMC3     C 9486   2.568   3.537  16.358 -0.0691 -0.4660 -0.1640
  637TMC3     O 9487   2.584   3.513  16.239  0.3927  0.4540  0.1548
  637TMC3     H 9488   2.503   3.493  16.629 -2.3361 -2.7268  1.1308
  637TMC3    H1 9489   2.722   3.346  16.291 -0.3044  0.8485 -0.3634
  637TMC3    H2 9490   2.829   3.227  16.678 -1.0689 -0.7895 -0.1180
  637TMC3    C7 9491   2.876   3.185  16.430  0.4541  0.5018  0.0465
  637TMC3    C8 9492   2.704   3.427  16.784 -0.7302  0.2481 -0.1780
  637TMC3    O1 9493   2.868   3.071  16.468  0.2469 -0.2559  0.1807
  637TMC3    O2 9494   2.698   3.546  16.755 -0.6553 -0.0814  0.4091
  638MPD2     C 9495   2.259   2.799  15.277 -0.5695  0.0721  0.1092
  638MPD2    C1 9496   2.217   2.705  15.183  0.4438 -0.8409  0.3307
  638MPD2    C2 9497   2.126   2.605  15.221  0.5113 -0.9296 -0.3654
  638MPD2    C3 9498   2.084   2.601  15.352 -0.6700 -0.1615  0.3823
  638MPD2    C4 9499   2.129   2.689  15.450 -0.5878  0.5997 -0.1245
  638MPD2    C5 9500   2.214   2.787  15.411 -0.1390  0.2639 -0.0572
  638MPD2     H 9501   2.088   2.538  15.145  0.1749  0.7874 -1.7267
  638MPD2    H1 9502   2.099   2.693  15.554 -0.3231 -0.8532  0.0088
  638MPD2    H2 9503   2.336   2.873  15.257 -1.4555  0.0910 -3.1001
  638MPD2    H3 9504   2.256   2.852  15.487  0.3648  1.9740 -1.8071
  638MPD2     N 9505   2.012   2.484  15.380  0.0513  0.1585  0.1144
  638MPD2    H5 9506   1.972   2.436  15.301  3.2370 -0.6474 -1.0268
  638MPD2    N1 9507   2.283   2.709  15.056 -0.5299  0.7302  0.0699
  638MPD2    H7 9508   2.348   2.787  15.048  1.9544 -1.0087  3.2820
  639TMC3    C1 9509   2.037   2.270  15.476 -0.3268 -0.2380  0.4460
  639TMC3    C2 9510   1.970   2.209  15.381  0.6131  0.8200  0.1316
  639TMC3    C3 9511   2.020   2.090  15.331  0.7586 -0.0646 -0.2530
  639TMC3    C4 9512   2.164   2.238  15.513  0.2195  0.0883 -0.2207
  639TMC3    C5 9513   2.213   2.123  15.459  0.0507 -0.0426  0.1401
  639TMC3    C6 9514   2.147   2.048  15.370  0.3175 -0.2533  0.2849
  639TMC3     C 9515   2.018   2.417  15.501 -0.0510 -0.0523 -0.3752
  639TMC3     O 9516   2.063   2.460  15.607 -0.1979  0.3040 -0.0444
  639TMC3     H 9517   1.871   2.248  15.357 -0.4853 -1.3980  1.0418
  639TMC3    H1 9518   2.222   2.282  15.593  0.3531 -0.1493 -0.1879
  639TMC3    H2 9519   2.190   1.954  15.338  1.7446  0.2070  0.8712
  639TMC3    C7 9520   2.351   2.087  15.493  0.3470  0.7183 -0.3972
  639TMC3    C8 9521   1.947   2.034  15.215 -0.4917 -0.0882  0.1915
  639TMC3    O1 9522   2.395   2.116  15.603  0.6073 -0.2067 -0.2438
  639TMC3    O2 9523   2.015   1.980  15.130  0.2641  0.1280 -0.4576
  640MPD2     C 9524   2.368   2.198  10.049 -0.0731  0.4874 -0.2341
  640MPD2    C1 9525   2.468   2.280  10.111 -0.1688  0.7157 -0.7146
  640MPD2    C2 9526   2.436   2.401  10.166 -0.5064  0.5731 -0.3709
  640MPD2    C3 9527   2.304   2.440  10.163 -0.6274 -0.0711  0.2482
  640MPD2    C4 9528   2.218   2.372  10.080  0.0835 -0.1834 -0.0434
  640MPD2    C5 9529   2.245   2.248  10.029 -0.4771  0.8861  0.2813
  640MPD2     H 9530   2.507   2.468  10.213 -0.8526  0.0317  0.9263
  640MPD2    H1 9531   2.120   2.412  10.056 -0.1215 -2.2353 -2.6287
  640MPD2    H2 9532   2.399   2.100  10.014  0.5803  0.4762  0.3858
  640MPD2    H3 9533   2.172   2.198   9.965 -1.2321  1.0521  1.0036
  640MPD2     N 9534   2.262   2.567  10.203 -0.1843 -0.4549  0.2809
  640MPD2    H5 9535   2.177   2.607  10.166 -1.2709 -1.7627  1.3816
  640MPD2    N1 9536   2.601   2.224  10.110  0.2213 -0.1849  0.8057
  640MPD2    H7 9537   2.612   2.137  10.060 -2.1364 -0.7260  1.2384
  641TMC3    C1 9538   2.834   2.232  10.146 -0.3506 -0.0786 -0.4411
  641TMC3    C2 9539   2.824   2.100  10.175  0.1858 -0.1485  0.5154
  641TMC3    C3 9540   2.937   2.029  10.147  0.1674 -0.3271  0.3445
  641TMC3    C4 9541   2.950   2.295  10.109  0.4592  0.0782 -0.3380
  641TMC3    C5 9542   3.054   2.214  10.067 -1.0278 -0.3867 -0.1324
  641TMC3    C6 9543   3.053   2.084  10.102  0.5596 -0.3942  0.0726
  641TMC3     C 9544   2.711   2.304  10.142 -0.3394  0.6321 -0.1715
  641TMC3     O 9545   2.725   2.425  10.154 -0.7687 -0.0591  0.3381
  641TMC3     H 9546   2.738   2.057  10.226 -0.9822  0.6381 -0.7962
  641TMC3    H1 9547   2.939   2.401  10.087  1.6304  0.0453 -1.1071
  641TMC3    H2 9548   3.144   2.032  10.073  2.2346  2.3150  0.4167
  641TMC3    C7 9549   3.179   2.276  10.010  0.7246  0.0305  0.1911
  641TMC3    C8 9550   2.930   1.882  10.162  0.7057 -0.1624 -0.4579
  641TMC3    O1 9551   3.262   2.195   9.959 -0.4179 -0.4321  0.6270
  641TMC3    O2 9552   2.856   1.837  10.248 -0.3284 -0.5782  0.1814
  642TMC3    C1 9553   4.030   2.616  12.633  0.0975 -0.2413 -0.8829
  642TMC3    C2 9554   4.155   2.638  12.588  0.5546  0.5494 -0.6430
  642TMC3    C3 9555   4.201   2.574  12.473 -0.1422  0.2228  0.6467
  642TMC3    C4 9556   3.944   2.542  12.563 -0.2513 -0.0121  0.3490
  642TMC3    C5 9557   3.986   2.471  12.452  0.2222 -0.2401  0.2078
  642TMC3    C6 9558   4.113   2.498  12.398 -0.3005  0.6384 -0.5618
  642TMC3     C 9559   3.987   2.714  12.728 -0.4988 -0.0108 -0.2086
  642TMC3     O 9560   4.060   2.809  12.752 -0.6161  0.2221 -0.4083
  642TMC3     H 9561   4.218   2.713  12.636 -0.0728  1.5193 -1.3388
  642TMC3    H1 9562   3.847   2.514  12.603 -1.8409  1.4899 -2.4839
  642TMC3    H2 9563   4.140   2.438  12.312 -0.1422 -2.5696  1.7355
  642TMC3    C7 9564   3.931   2.347  12.421  0.9773 -0.0810  0.4534
  642TMC3    C8 9565   4.335   2.580  12.437  0.3924 -0.2711 -0.3123
  642TMC3    O1 9566   3.952   2.298  12.309 -0.0528  0.1751 -0.4944
  642TMC3    O2 9567   4.369   2.563  12.321 -0.0203  0.0985  0.0285
  643TMC3    C1 9568   2.957   2.082   0.401  0.6396 -0.2207  0.2545
  643TMC3    C2 9569   2.838   2.104   0.328 -0.1481  0.4722  0.3154
  643TMC3    C3 9570   2.794   2.006   0.244  0.1517 -0.3496  0.4101
  643TMC3    C4 9571   3.034   1.975   0.379  0.6992 -0.2018 -0.0889
  643TMC3    C5 9572   2.995   1.889   0.277 -0.0030 -0.0003  0.2113
  643TMC3    C6 9573   2.865   1.893   0.228 -0.2053  0.1499 -0.3624
  643TMC3     C 9574   3.015   2.196   0.478  0.2867  0.8115  1.0779
  643TMC3     O 9575   2.968   2.310   0.466 -0.2717  0.1607 -0.7109
  643TMC3     H 9576   2.766   2.183   0.346 -0.5843  0.2799 -0.5930
  643TMC3    H1 9577   3.134   1.970   0.419  0.9619 -0.5751 -0.7875
  643TMC3    H2 9578   2.844   1.830   0.143  0.7671 -0.7477  0.0522
  643TMC3    C7 9579   3.095   1.880   0.179 -0.6740  0.0857  0.2139
  643TMC3    C8 9580   2.740   2.048   0.125 -0.0352  0.5047  0.3404
  643TMC3    O1 9581   3.176   1.971   0.180 -0.0425  0.3258 -0.2058
  643TMC3    O2 9582   2.689   1.958   0.059  0.2632 -0.3577  0.1446
  644MPD2     C 9583   3.115   2.286  10.664  0.6194  0.0291  0.1499
  644MPD2    C1 9584   3.173   2.377  10.579 -0.9404 -0.6864  0.3261
  644MPD2    C2 9585   3.144   2.514  10.589  0.1100  0.5774 -0.4177
  644MPD2    C3 9586   3.042   2.547  10.670 -0.2286  0.6699  0.7739
  644MPD2    C4 9587   2.977   2.455  10.748  0.0636 -0.4604 -0.5712
  644MPD2    C5 9588   3.018   2.321  10.747  0.4034  0.4126  0.2637
  644MPD2     H 9589   3.181   2.592  10.523 -0.1614  3.4435  2.8189
  644MPD2    H1 9590   2.890   2.481  10.808 -0.9916 -0.8844 -1.9165
  644MPD2    H2 9591   3.141   2.181  10.669  1.7410  0.3429  1.0561
  644MPD2    H3 9592   2.967   2.245  10.806 -1.5152  0.4707 -1.2868
  644MPD2     N 9593   3.009   2.685  10.670  0.2130 -0.3143  0.0376
  644MPD2    H5 9594   3.059   2.735  10.597  0.4484  1.9431  1.7500
  644MPD2    N1 9595   3.262   2.321  10.483  0.4835 -0.2291 -0.6143
  644MPD2    H7 9596   3.256   2.220  10.469 -0.9113  0.0988 -2.3249
  645TMC3    C1 9597   2.901   2.886  10.707 -0.2664 -0.5004  0.5217
  645TMC3    C2 9598   2.931   2.995  10.779  0.1991  0.3056  0.3299
  645TMC3    C3 9599   2.910   3.114  10.717 -1.2455 -0.4146  0.2102
  645TMC3    C4 9600   2.851   2.886  10.577  0.1637  0.2908  0.3564
  645TMC3    C5 9601   2.845   3.015  10.517  0.3621  0.1992 -0.6075
  645TMC3    C6 9602   2.876   3.127  10.587  0.1472  0.0273 -0.1339
  645TMC3     C 9603   2.928   2.752  10.759 -0.0959  0.5206  0.0374
  645TMC3     O 9604   2.881   2.715  10.866  0.1494  0.5637 -0.5373
  645TMC3     H 9605   2.967   2.979  10.880 -0.0721 -0.2670  0.3356
  645TMC3    H1 9606   2.815   2.798  10.526 -0.0246  1.0465 -0.8166
  645TMC3    H2 9607   2.866   3.227  10.546 -0.4321  0.4937  1.1385
  645TMC3    C7 9608   2.793   3.023  10.384 -0.6863  0.3577 -0.2413
  645TMC3    C8 9609   2.948   3.233  10.797 -0.4415 -0.3313  0.0096
  645TMC3    O1 9610   2.777   3.135  10.333  0.3110 -0.1910 -0.2902
  645TMC3    O2 9611   3.028   3.221  10.888  0.0586 -0.2409  0.1256
  646MPD2     C 9612   2.327   1.404  14.444 -0.7703 -0.0452  0.3738
  646MPD2    C1 9613   2.280   1.433  14.573 -0.1814  0.3685 -0.0504
  646MPD2    C2 9614   2.189   1.542  14.590 -0.0804 -0.2441  0.6704
  646MPD2    C3 9615   2.132   1.599  14.480  0.8609  0.5543 -0.0916
  646MPD2    C4 9616   2.188   1.572  14.359  0.9777 -0.5018 -0.4612
  646MPD2    C5 9617   2.283   1.479  14.341  0.5489  0.1267 -0.2331
  646MPD2     H 9618   2.153   1.574  14.687  2.6115  1.0325  1.2439
  646MPD2    H1 9619   2.165   1.625  14.267 -0.1303 -0.1414  0.0163
  646MPD2    H2 9620   2.373   1.314  14.404 -0.3250  0.2755  0.1800
  646MPD2    H3 9621   2.314   1.445  14.243 -0.4612 -0.2015 -0.4352
  646MPD2     N 9622   2.033   1.696  14.501 -0.4224  0.6594  0.7123
  646MPD2    H5 9623   1.995   1.692  14.595  0.9194  1.5232  1.2892
  646MPD2    N1 9624   2.349   1.352  14.665 -0.2749  0.0057 -0.6445
  646MPD2    H7 9625   2.415   1.284  14.630 -1.4098 -1.0090 -0.7912
  647TMC3    C1 9626   2.411   1.263  14.880 -0.0743 -0.1693 -0.2678
  647TMC3    C2 9627   2.379   1.233  15.008  0.0309 -0.3720  0.3554
  647TMC3    C3 9628   2.440   1.133  15.077 -0.2071  0.0254 -0.1163
  647TMC3    C4 9629   2.523   1.204  14.824 -0.0753 -0.2894 -0.3368
  647TMC3    C5 9630   2.595   1.109  14.898  0.5785 -0.4031  0.0722
  647TMC3    C6 9631   2.549   1.069  15.021 -0.8565 -0.1848 -0.1788
  647TMC3     C 9632   2.322   1.343  14.798 -0.5832 -0.9464 -0.0884
  647TMC3     O 9633   2.238   1.410  14.855 -0.1831 -0.3245 -0.1825
  647TMC3     H 9634   2.295   1.286  15.053 -0.0071  2.4592 -3.1083
  647TMC3    H1 9635   2.569   1.238  14.733  0.0345 -1.0053 -0.5515
  647TMC3    H2 9636   2.616   1.006  15.079 -1.7008 -0.0118  0.9818
  647TMC3    C7 9637   2.730   1.095  14.868  0.3627  0.0745  0.2403
  647TMC3    C8 9638   2.432   1.148  15.218  1.2179  0.0359  0.5098
  647TMC3    O1 9639   2.802   1.097  14.967 -0.2247  0.7362  0.1930
  647TMC3    O2 9640   2.401   1.257  15.268 -0.1911  0.1010  0.1440
  648TMC3    C1 9641   1.727   4.019  16.423 -1.0715 -0.0474 -0.7679
  648TMC3    C2 9642   1.779   3.898  16.389 -0.4397 -0.1880  0.9812
  648TMC3    C3 9643   1.810   3.886  16.257 -0.1466  0.4342  0.1764
  648TMC3    C4 9644   1.687   4.113  16.324 -0.7938 -0.3516  0.4272
  648TMC3    C5 9645   1.720   4.090  16.194 -0.8462 -0.0684  0.1199
  648TMC3    C6 9646   1.777   3.971  16.151  0.0517  0.5417  0.2400
  648TMC3     C 9647   1.737   4.059  16.560  0.0793  0.2225 -0.1845
  648TMC3     O 9648   1.706   4.174  16.579 -1.0038  0.0565 -0.6494
  648TMC3     H 9649   1.822   3.821  16.452 -0.2107 -1.4444 -0.7252
  648TMC3    H1 9650   1.654   4.212  16.354  3.9884  1.3092  0.1685
  648TMC3    H2 9651   1.794   3.945  16.047  0.7406 -3.0256  1.2589
  648TMC3    C7 9652   1.713   4.193  16.094  0.6313  0.3039  0.1016
  648TMC3    C8 9653   1.845   3.753  16.215 -0.5218  0.4717 -0.1002
  648TMC3    O1 9654   1.773   4.189  15.987  0.1179  0.4238  0.1992
  648TMC3    O2 9655   1.902   3.741  16.112  0.1133 -0.3285 -0.1063
  649TMC3    C1 9656   0.622   0.158  12.904 -0.3827 -0.5197  0.3128
  649TMC3    C2 9657   0.759   0.139  12.900 -0.9377 -0.5017 -0.0453
  649TMC3    C3 9658   0.800   0.043  12.986  1.3479  0.0182  0.8695
  649TMC3    C4 9659   0.536   0.083  12.976  0.3457  1.1874 -0.4166
  649TMC3    C5 9660   0.584   4.710  13.038  0.0514  0.0467  0.1313
  649TMC3    C6 9661   0.718   4.695  13.053 -0.2195  0.4572  0.7627
  649TMC3     C 9662   0.569   0.251  12.808  0.0957  0.0203 -0.0288
  649TMC3     O 9663   0.465   0.310  12.838 -0.2424  0.5348  0.3711
  649TMC3     H 9664   0.830   0.211  12.863 -0.1272 -0.8886  0.7587
  649TMC3    H1 9665   0.432   0.104  12.955 -0.0940  0.6605  1.2052
  649TMC3    H2 9666   0.766   4.629  13.124  0.9063  2.8600  2.2117
  649TMC3    C7 9667   0.484   4.634  13.117  0.4516 -0.3869  0.0197
  649TMC3    C8 9668   0.942   0.051  13.028 -0.5721  0.2543 -0.3175
  649TMC3    O1 9669   0.373   4.677  13.119  0.0835  0.0929  0.2059
  649TMC3    O2 9670   0.966   4.729  13.136 -0.2088  0.2076  0.1987
  650TMC3    C1 9671   3.154   1.547  12.823 -0.5110 -0.4166 -0.6519
  650TMC3    C2 9672   3.086   1.655  12.864 -0.3397  0.2162  0.2601
  650TMC3    C3 9673   3.007   1.720  12.778 -0.1839 -1.1238 -0.1385
  650TMC3    C4 9674   3.160   1.514  12.691  0.0417  0.7318  0.0229
  650TMC3    C5 9675   3.085   1.595  12.605 -0.6276 -0.5827  0.3155
  650TMC3    C6 9676   2.995   1.688  12.647 -0.2608  0.2071  0.3462
  650TMC3     C 9677   3.253   1.489  12.916 -0.2777 -0.2748  0.2562
  650TMC3     O 9678   3.287   1.575  12.992  0.2169  0.3653 -0.3743
  650TMC3     H 9679   3.081   1.683  12.969  2.9007  1.0421  0.1862
  650TMC3    H1 9680   3.235   1.445  12.653  0.2511 -1.0158  3.6194
  650TMC3    H2 9681   2.948   1.760  12.582 -0.2748 -0.4594 -0.3781
  650TMC3    C7 9682   3.167   1.636  12.494  0.3150  0.9057  0.0891
  650TMC3    C8 9683   2.994   1.863  12.803  0.0206  0.0279 -0.6760
  650TMC3    O1 9684   3.250   1.556  12.444 -0.7600 -0.1632  0.4270
  650TMC3    O2 9685   3.038   1.928  12.708  0.3172  0.0004 -0.0536
  651MPD2     C 9686   2.117   4.249  11.071  0.2913 -0.1125 -0.5757
  651MPD2    C1 9687   2.096   4.362  10.997  0.2322  0.4703 -0.3522
  651MPD2    C2 9688   2.202   4.431  10.949 -0.2613 -0.2193 -0.3109
  651MPD2    C3 9689   2.330   4.398  10.991 -0.2305 -0.7491 -0.4700
  651MPD2    C4 9690   2.348   4.288  11.066 -0.3006 -0.1355  0.2277
  651MPD2    C5 9691   2.244   4.209  11.097  0.4300  0.2960  0.0026
  651MPD2     H 9692   2.181   4.517  10.887 -0.7716  1.6744  2.4559
  651MPD2    H1 9693   2.444   4.247  11.097 -0.8019 -0.8148  0.8796
  651MPD2    H2 9694   2.036   4.187  11.108  1.1332 -0.9988 -0.2174
  651MPD2    H3 9695   2.263   4.119  11.156 -0.7718  0.7919  1.1411
  651MPD2     N 9696   2.434   4.477  10.939  0.2448  0.0712  0.9773
  651MPD2    H5 9697   2.411   4.557  10.881  0.2107 -0.7062 -0.0780
  651MPD2    N1 9698   1.969   4.418  10.966  0.1937 -0.8468  0.4908
  651MPD2    H7 9699   1.962   4.501  10.908  0.4765 -0.7023  0.6610
  652TMC3    C1 9700   2.882   4.563  10.817  0.2560  0.0114  0.7540
  652TMC3    C2 9701   2.786   4.486  10.878  0.1715 -0.5753 -0.2207
  652TMC3    C3 9702   2.669   4.543  10.912  0.7159 -0.5987 -0.2215
  652TMC3    C4 9703   2.859   4.692  10.781  0.1563  0.5576 -0.0279
  652TMC3    C5 9704   2.736   0.010  10.813 -1.2343 -0.0690  0.4972
  652TMC3    C6 9705   2.637   4.674  10.883  0.6141 -0.0147  0.3373
  652TMC3     C 9706   3.024   4.527  10.837  0.1127 -0.9844  0.2999
  652TMC3     O 9707   3.045   4.459  10.940 -0.5811 -0.4505 -0.8204
  652TMC3     H 9708   2.813   4.387  10.911 -1.8978 -0.1275  2.7823
  652TMC3    H1 9709   2.932   0.025  10.741  0.8729 -0.7826 -1.0577
  652TMC3    H2 9710   2.540   4.711  10.913  2.0934  2.0951  2.5062
  652TMC3    C7 9711   2.703   0.148  10.787 -0.7460 -0.6218 -0.4801
  652TMC3    C8 9712   2.567   4.459  10.978  0.1834 -0.1378 -0.3495
  652TMC3    O1 9713   2.603   0.189  10.846 -0.1264  0.2318  0.5904
  652TMC3    O2 9714   2.618   4.391  11.067  0.7151 -0.0468 -0.0767
  653MPD2     C 9715   0.489   4.134   0.229  0.3558 -0.0520 -0.1372
  653MPD2    C1 9716   0.524   4.199   0.108 -0.5227  1.2502  0.7131
  653MPD2    C2 9717   0.472   4.146  17.739 -0.6184 -0.2889 -0.2470
  653MPD2    C3 9718   0.411   4.020  17.736 -0.3574 -0.4045  1.1195
  653MPD2    C4 9719   0.399   3.957   0.108  0.0494  0.5826  0.1920
  653MPD2    C5 9720   0.429   4.011   0.231  0.1866 -0.5681  1.0386
  653MPD2     H 9721   0.485   4.191  17.642  0.4926  0.0520  0.0581
  653MPD2    H1 9722   0.341   3.866   0.115 -0.5152  0.9783  0.7612
  653MPD2    H2 9723   0.532   4.179   0.318 -0.5395 -1.3039  0.9278
  653MPD2    H3 9724   0.395   3.955   0.318  1.3786 -3.2068 -0.2018
  653MPD2     N 9725   0.395   3.953  17.614 -0.2405  0.3085  0.5426
  653MPD2    H5 9726   0.408   4.020  17.539  1.9877 -0.9110 -0.1614
  653MPD2    N1 9727   0.622   4.313   0.116 -0.0467 -0.2055 -0.3293
  653MPD2    H7 9728   0.654   4.351   0.204 -2.6298  1.6150 -0.1705
  654TMC3    C1 9729   0.380   3.794  17.450 -0.1201 -0.2260 -0.7709
  654TMC3    C2 9730   0.315   3.874  17.364  0.4824  0.6060 -0.3743
  654TMC3    C3 9731   0.289   3.828  17.235  0.2420  0.1021  0.6553
  654TMC3    C4 9732   0.428   3.668  17.420 -0.8373  0.0340  0.2161
  654TMC3    C5 9733   0.401   3.627  17.293 -0.5597  0.6323 -0.4480
  654TMC3    C6 9734   0.329   3.699  17.201 -0.4552  0.2140  0.1474
  654TMC3     C 9735   0.371   3.822  17.590  0.9502  0.1399  0.5295
  654TMC3     O 9736   0.386   3.727  17.670 -0.0545  0.1892 -0.2258
  654TMC3     H 9737   0.266   3.965  17.398 -1.1596  0.4429 -2.2903
  654TMC3    H1 9738   0.471   3.606  17.498 -2.3103 -0.8332  0.3461
  654TMC3    H2 9739   0.307   3.641  17.112  2.5896 -1.4690  0.4926
  654TMC3    C7 9740   0.453   3.492  17.252 -0.1801  0.5163  0.1280
  654TMC3    C8 9741   0.181   3.888  17.164  0.0239 -0.6256 -0.1048
  654TMC3    O1 9742   0.413   3.442  17.152  0.0298 -0.3880  0.2609
  654TMC3    O2 9743   0.091   3.943  17.221 -0.1971  0.1632  0.2305
  655MPD2     C 9744   2.140   3.961  15.943  0.0798  0.0101  0.1448
  655MPD2    C1 9745   2.131   4.081  15.878 -0.3988  0.9494  0.4472
  655MPD2    C2 9746   2.141   4.077  15.737 -0.4707 -0.1812  0.2348
  655MPD2    C3 9747   2.142   3.962  15.669 -0.6817 -0.5415 -0.2079
  655MPD2    C4 9748   2.163   3.843  15.746  0.3316  0.0216 -0.0383
  655MPD2    C5 9749   2.160   3.844  15.879  0.2061  0.4318 -0.1553
  655MPD2     H 9750   2.147   4.174  15.688 -0.3774 -0.2870  0.0366
  655MPD2    H1 9751   2.185   3.747  15.700  1.9851 -0.7175  2.3091
  655MPD2    H2 9752   2.128   3.951  16.050 -2.0654 -2.6154 -0.3674
  655MPD2    H3 9753   2.171   3.758  15.943  0.4133  1.5418  1.3069
  655MPD2     N 9754   2.138   3.942  15.531  0.0300  0.0255  0.2652
  655MPD2    H5 9755   2.144   3.852  15.485 -0.0330  0.4635 -0.6108
  655MPD2    N1 9756   2.109   4.202  15.945  0.0252  0.0220  0.4813
  655MPD2    H7 9757   2.110   4.286  15.888  2.6337 -0.8749 -0.7673
  656TMC3    C1 9758   2.064   4.361  16.097  0.3657  0.6906 -0.4467
  656TMC3    C2 9759   1.999   4.391  16.217  0.1818  0.0180  0.4753
  656TMC3    C3 9760   1.952   4.519  16.228 -0.9440 -0.2067  0.8712
  656TMC3    C4 9761   2.073   4.452  15.995  0.5117 -0.4249  0.3746
  656TMC3    C5 9762   1.996   4.562  16.005 -0.2910 -0.6867 -0.1956
  656TMC3    C6 9763   1.940   4.605  16.124 -0.1880 -0.5790  0.2296
  656TMC3     C 9764   2.097   4.221  16.075 -0.0613 -0.2349 -0.4817
  656TMC3     O 9765   2.091   4.142  16.168 -0.5664  0.0284  0.0489
  656TMC3     H 9766   1.974   4.310  16.284 -0.6593  0.8778  1.1854
  656TMC3    H1 9767   2.107   4.435  15.894  2.0469  0.8848  0.6668
  656TMC3    H2 9768   1.886   4.699  16.133 -1.1534 -0.9911 -1.1938
  656TMC3    C7 9769   1.969   4.634  15.881 -0.0138 -0.4865 -0.2471
  656TMC3    C8 9770   1.863   4.541  16.340 -0.1011 -0.8941  0.2602
  656TMC3    O1 9771   2.046   4.611  15.783  0.1603 -0.3517  0.0219
  656TMC3    O2 9772   1.857   4.446  16.416 -0.4766  0.2583  0.2851
  657TMC3    C1 9773   1.207   3.463  15.284  0.3018  0.1137  0.4943
  657TMC3    C2 9774   1.276   3.428  15.404  0.2555  0.2952  0.9937
  657TMC3    C3 9775   1.237   3.491  15.517 -1.0161 -0.2048 -0.2006
  657TMC3    C4 9776   1.109   3.556  15.274  0.3375  0.0430 -0.0545
  657TMC3    C5 9777   1.092   3.631  15.387  0.9513 -0.4762 -0.1230
  657TMC3    C6 9778   1.146   3.597  15.512 -0.0484 -0.2498 -0.0479
  657TMC3     C 9779   1.239   3.388  15.163 -0.3274  0.2609 -0.3946
  657TMC3     O 9780   1.148   3.370  15.080 -0.2530  0.1297  0.5470
  657TMC3     H 9781   1.352   3.351  15.409 -0.1684 -0.2013 -0.3682
  657TMC3    H1 9782   1.059   3.578  15.181 -0.5621  1.0335  0.6596
  657TMC3    H2 9783   1.109   3.649  15.600  1.0666  2.2893 -1.0796
  657TMC3    C7 9784   1.002   3.743  15.388 -0.2144  0.0526  0.6535
  657TMC3    C8 9785   1.319   3.485  15.636  0.3192 -0.0509  0.6933
  657TMC3    O1 9786   0.955   3.783  15.496  0.4967 -0.1923  0.2739
  657TMC3    O2 9787   1.329   3.592  15.690  0.3459 -0.3373  0.6627
  658MPD2     C 9788   2.603   4.274  15.061 -0.6205 -0.1679  0.0998
  658MPD2    C1 9789   2.506   4.207  14.985 -0.6316  0.2750 -0.5727
  658MPD2    C2 9790   2.520   4.181  14.852 -0.0157 -0.3649 -0.3520
  658MPD2    C3 9791   2.626   4.231  14.787  0.1486 -0.5757  0.0867
  658MPD2    C4 9792   2.723   4.297  14.865  0.3851  0.0766  0.3707
  658MPD2    C5 9793   2.713   4.320  14.999 -0.1218  0.7817  0.0379
  658MPD2     H 9794   2.445   4.129  14.793 -0.6415  0.2260 -0.0789
  658MPD2    H1 9795   2.809   4.337  14.813 -0.1320 -1.6228 -1.8432
  658MPD2    H2 9796   2.596   4.298  15.166  2.7645  0.3701  0.2135
  658MPD2    H3 9797   2.794   4.364  15.056  0.9798 -3.1220  1.4944
  658MPD2     N 9798   2.652   4.211  14.650 -0.5701 -0.2289  0.1134
  658MPD2    H5 9799   2.587   4.149  14.603 -2.0362  0.5154  1.1192
  658MPD2    N1 9800   2.391   4.165  15.059 -0.4696 -0.3768 -0.2643
  658MPD2    H7 9801   2.398   4.155  15.160 -1.1572 -1.4496 -0.3211
  659TMC3    C1 9802   2.178   4.107  15.106 -0.5820 -0.2422 -0.2894
  659TMC3    C2 9803   2.220   4.061  15.225 -0.4773 -0.6212 -0.5205
  659TMC3    C3 9804   2.142   3.996  15.316  0.0332 -0.1983 -0.5385
  659TMC3    C4 9805   2.056   4.060  15.071  0.0633 -0.2380  0.3608
  659TMC3    C5 9806   1.970   4.002  15.157 -0.6212 -0.6913 -0.4227
  659TMC3    C6 9807   2.007   3.972  15.285 -0.3432 -0.0002 -0.0971
  659TMC3     C 9808   2.267   4.156  15.003 -0.7113  0.1535 -0.0995
  659TMC3     O 9809   2.217   4.179  14.894 -0.0805 -0.1495  0.4264
  659TMC3     H 9810   2.320   4.084  15.261 -0.6845 -1.4998  0.6412
  659TMC3    H1 9811   2.028   4.082  14.968  0.4599 -0.9662  0.0952
  659TMC3    H2 9812   1.937   3.937  15.360  1.0322 -1.7025  0.3860
  659TMC3    C7 9813   1.835   3.967  15.118 -0.4275 -0.4270 -1.2245
  659TMC3    C8 9814   2.158   4.049  15.445  0.7163  0.1400  0.0002
  659TMC3    O1 9815   1.760   3.930  15.210 -0.0582 -0.6921  0.2433
  659TMC3    O2 9816   2.203   4.159  15.465  0.2816  0.4780 -0.7939
  660MPD2     C 9817   0.334   2.642  13.084  0.2702 -0.2136  0.4494
  660MPD2    C1 9818   0.221   2.723  13.067  0.2809  0.1604  1.3885
  660MPD2    C2 9819   0.120   2.716  13.158 -0.2324  0.4359  0.0535
  660MPD2    C3 9820   0.117   2.634  13.268 -0.0564 -0.3656 -0.5601
  660MPD2    C4 9821   0.232   2.559  13.290 -0.0643  0.1545 -0.4357
  660MPD2    C5 9822   0.332   2.569  13.195  0.3466  0.4878 -0.2029
  660MPD2     H 9823   0.028   2.765  13.129 -1.2088 -0.4580  1.6374
  660MPD2    H1 9824   0.239   2.487  13.371  0.1786  0.1045 -0.5012
  660MPD2    H2 9825   0.415   2.636  13.012 -0.1608  0.4834 -0.1064
  660MPD2    H3 9826   0.415   2.502  13.214  0.0471  0.5433  1.3282
  660MPD2     N 9827   4.737   2.607  13.344  0.3084 -0.3871  0.5765
  660MPD2    H5 9828   0.000   2.527  13.405 -0.6486 -1.6978 -1.1267
  660MPD2    N1 9829   0.201   2.808  12.955  0.5308 -0.1969  0.1622
  660MPD2    H7 9830   0.262   2.786  12.877 -0.2766  2.7113 -1.2853
  661TMC3    C1 9831   0.081   2.975  12.822 -0.0654 -0.8445 -0.4550
  661TMC3    C2 9832   0.169   2.971  12.719  0.2688  0.7722  0.0270
  661TMC3    C3 9833   0.122   3.021  12.601 -0.0280  0.4937  0.4666
  661TMC3    C4 9834   4.683   2.988  12.797 -0.9148 -0.2897  0.0677
  661TMC3    C5 9835   4.640   3.027  12.677  0.1802  0.7412  0.0334
  661TMC3    C6 9836   4.728   3.044  12.573 -0.1265 -0.1704  0.6276
  661TMC3     C 9837   0.112   2.912  12.951  0.3966  0.3676  0.6153
  661TMC3     O 9838   0.046   2.969  13.040 -0.4747 -0.0237 -0.0979
  661TMC3     H 9839   0.274   2.963  12.746 -0.0110  3.2897  1.8634
  661TMC3    H1 9840   4.616   3.001  12.881 -0.3933  0.7263  0.3266
  661TMC3    H2 9841   4.705   3.055  12.468 -1.7404 -1.0702  0.8795
  661TMC3    C7 9842   4.498   3.042  12.664  0.9403 -0.9026  0.7646
  661TMC3    C8 9843   0.210   3.043  12.485 -0.2394 -0.5016  0.4134
  661TMC3    O1 9844   4.432   3.048  12.765  0.4931 -0.1088  0.3417
  661TMC3    O2 9845   0.182   3.118  12.397 -0.8819  0.5426 -0.3743
  662MPD2     C 9846   0.483   2.425  17.168 -0.2715 -0.1851  0.2019
  662MPD2    C1 9847   0.486   2.361  17.294 -0.2153 -0.4318  0.7394
  662MPD2    C2 9848   0.435   2.426  17.404 -0.0849  0.2698  0.0299
  662MPD2    C3 9849   0.370   2.549  17.394 -0.1973 -0.6855 -0.1368
  662MPD2    C4 9850   0.359   2.606  17.269  0.2158 -0.0779 -0.2663
  662MPD2    C5 9851   0.423   2.548  17.160 -0.0142 -0.4454  0.1903
  662MPD2     H 9852   0.434   2.362  17.492  0.5553  0.1711 -0.0356
  662MPD2    H1 9853   0.309   2.701  17.255 -2.1034 -0.8604  2.6332
  662MPD2    H2 9854   0.529   2.395  17.074 -2.6794  1.8084 -1.6096
  662MPD2    H3 9855   0.419   2.605  17.067 -0.5870 -0.2206  0.3520
  662MPD2     N 9856   0.299   2.613  17.502  0.2339 -0.0974 -0.5370
  662MPD2    H5 9857   0.239   2.695  17.494  1.4806  0.9261  0.4843
  662MPD2    N1 9858   0.551   2.238  17.312 -0.0411 -0.3183 -0.5389
  662MPD2    H7 9859   0.560   2.201  17.406  2.5517  3.2991  0.6510
  663TMC3    C1 9860   0.683   2.042  17.267 -0.6396  0.4882 -0.5331
  663TMC3    C2 9861   0.725   2.043  17.401  0.3267  0.0683  0.1425
  663TMC3    C3 9862   0.780   1.927  17.449  0.6057  0.4946  0.6311
  663TMC3    C4 9863   0.690   1.935  17.184  0.3792  0.5887  0.3247
  663TMC3    C5 9864   0.723   1.821  17.247 -0.4178  0.1163 -0.1926
  663TMC3    C6 9865   0.755   1.809  17.381 -0.3322  0.6616 -0.4743
  663TMC3     C 9866   0.609   2.159  17.215 -0.0322 -0.5011  0.4040
  663TMC3     O 9867   0.591   2.177  17.095  0.1281 -0.5197 -0.3364
  663TMC3     H 9868   0.728   2.132  17.463  0.2762  0.1738 -0.0093
  663TMC3    H1 9869   0.642   1.926  17.088  0.1595 -0.2603  0.5132
  663TMC3    H2 9870   0.790   1.717  17.425  3.1467  2.3246  0.2630
  663TMC3    C7 9871   0.724   1.701  17.166  0.5879  0.0322  0.2725
  663TMC3    C8 9872   0.761   1.912  17.593  0.9050 -0.0615 -0.4426
  663TMC3    O1 9873   0.787   1.718  17.061 -0.0525 -0.4380 -0.2544
  663TMC3    O2 9874   0.862   1.886  17.663 -0.1269  0.0032  0.2476
  664MPD2     C 9875   3.753   0.738  17.701 -0.3826  0.0000  0.2779
  664MPD2    C1 9876   3.776   0.863   0.007  0.2841 -0.2035  0.1477
  664MPD2    C2 9877   3.701   0.901   0.119  0.4615 -0.0997 -0.3074
  664MPD2    C3 9878   3.620   0.816   0.184  0.6551  0.4790 -0.0623
  664MPD2    C4 9879   3.609   0.689   0.135  0.2308  0.2664 -0.3718
  664MPD2    C5 9880   3.678   0.648   0.020  0.0282 -0.1129  0.0239
  664MPD2     H 9881   3.715   0.998   0.165 -1.9247  0.1024  0.0207
  664MPD2    H1 9882   3.552   0.611   0.185  1.0965  0.6416  1.2197
  664MPD2    H2 9883   3.808   0.705  17.613 -0.9676 -1.0482  0.3118
  664MPD2    H3 9884   3.672   0.542  17.744 -0.6665 -0.1385  0.3249
  664MPD2     N 9885   3.565   0.851   0.311  0.0931 -0.5279 -0.5265
  664MPD2    H5 9886   3.582   0.943   0.351 -0.4939 -0.6745  0.0493
  664MPD2    N1 9887   3.863   0.959  17.695 -0.6672  0.8977  0.4879
  664MPD2    H7 9888   3.831   1.049  17.727 -2.3285  0.3962  0.2315
  665TMC3    C1 9889   3.437   0.833   0.501  0.3852 -0.1799 -0.2499
  665TMC3    C2 9890   3.303   0.811   0.549 -0.8714 -0.0967  0.4335
  665TMC3    C3 9891   3.278   0.853   0.675  0.4429 -0.5774 -0.5728
  665TMC3    C4 9892   3.532   0.897   0.576  0.0855 -0.0633 -0.6862
  665TMC3    C5 9893   3.499   0.940   0.706  0.1935 -0.5154 -0.1505
  665TMC3    C6 9894   3.370   0.930   0.749 -0.4539  0.0394  0.8797
  665TMC3     C 9895   3.467   0.781   0.373 -0.3589 -0.0223 -0.4652
  665TMC3     O 9896   3.384   0.712   0.319 -0.2133  0.5308 -0.9714
  665TMC3     H 9897   3.227   0.769   0.484  2.0701 -3.2435 -0.9930
  665TMC3    H1 9898   3.634   0.909   0.542  0.4153 -1.5147 -0.2022
  665TMC3    H2 9899   3.344   0.971   0.846  0.2250  2.1175  0.1771
  665TMC3    C7 9900   3.605   1.005   0.782 -0.0117 -0.1231  0.7871
  665TMC3    C8 9901   3.143   0.865   0.734 -0.8297  0.3297  0.2684
  665TMC3    O1 9902   3.702   1.042   0.714  0.4245 -0.2215 -0.6954
  665TMC3    O2 9903   3.122   0.933   0.837 -0.2853 -0.1357  0.0070
  666TMC3    C1 9904   2.427   1.125   9.432  0.3891  0.5624 -0.2079
  666TMC3    C2 9905   2.543   1.047   9.419 -0.2316 -0.0915  0.2728
  666TMC3    C3 9906   2.659   1.117   9.422 -0.4591  0.0094  0.0893
  666TMC3    C4 9907   2.430   1.261   9.440 -0.2163 -0.2581  0.2747
  666TMC3    C5 9908   2.549   1.327   9.452  0.1840  0.6256  0.4738
  666TMC3    C6 9909   2.667   1.253   9.442  0.2261 -0.2952 -0.1431
  666TMC3     C 9910   2.301   1.063   9.453 -0.2950 -0.2582  0.2507
  666TMC3     O 9911   2.205   1.129   9.421 -0.1194  0.3324 -0.1742
  666TMC3     H 9912   2.530   0.940   9.407 -3.0727  0.1766  1.1217
  666TMC3    H1 9913   2.339   1.317   9.458  0.3682 -0.2333  3.1395
  666TMC3    H2 9914   2.754   1.289   9.497 -0.1087  0.2363  0.0419
  666TMC3    C7 9915   2.542   1.433   9.544 -0.0700  0.5411 -0.1000
  666TMC3    C8 9916   2.775   1.043   9.473 -0.1396 -0.3269  1.3211
  666TMC3    O1 9917   2.451   1.424   9.622 -1.0248  0.7928 -0.1227
  666TMC3    O2 9918   2.750   0.935   9.533  0.6724 -0.1046  0.6150
  667MPD2     C 9919   4.426   0.908  14.636  0.4652  0.2808 -0.1714
  667MPD2    C1 9920   4.329   0.883  14.728 -1.0425 -1.1839  0.1732
  667MPD2    C2 9921   4.256   0.767  14.718  0.1762 -0.2587 -0.1525
  667MPD2    C3 9922   4.285   0.671  14.629 -0.5808 -0.1637  0.1687
  667MPD2    C4 9923   4.380   0.706  14.531 -0.2071 -0.0485  0.0944
  667MPD2    C5 9924   4.450   0.821  14.535  0.1013  0.0184 -0.6671
  667MPD2     H 9925   4.189   0.753  14.803  2.5209 -0.1899  1.7094
  667MPD2    H1 9926   4.406   0.633  14.455 -0.5829  0.4581 -0.5223
  667MPD2    H2 9927   4.491   0.995  14.635  0.5951  0.1852 -0.0835
  667MPD2    H3 9928   4.523   0.846  14.458  1.5754 -2.4074 -0.0486
  667MPD2     N 9929   4.249   0.536  14.641 -0.3442 -0.4740 -0.3083
  667MPD2    H5 9930   4.302   0.476  14.579  0.9283  0.1053  0.2378
  667MPD2    N1 9931   4.310   0.977  14.830 -0.4379  0.2665 -0.9357
  667MPD2    H7 9932   4.248   0.955  14.907  1.6785 -0.3682  0.5726
  668TMC3    C1 9933   4.344   1.176  14.958 -0.4066  0.0365 -0.1160
  668TMC3    C2 9934   4.392   1.305  14.945 -0.1900  0.6283 -0.1710
  668TMC3    C3 9935   4.433   1.367  15.059 -0.5590  0.0949  0.3548
  668TMC3    C4 9936   4.347   1.113  15.081  0.0705 -0.3551 -0.4398
  668TMC3    C5 9937   4.386   1.185  15.194  0.6465  0.4434 -0.4637
  668TMC3    C6 9938   4.432   1.309  15.181 -0.4582 -0.9350 -0.6517
  668TMC3     C 9939   4.363   1.100  14.835  0.8356 -0.0347 -0.0263
  668TMC3     O 9940   4.418   1.165  14.746  0.4462 -0.2182  0.7352
  668TMC3     H 9941   4.392   1.356  14.849  0.2994 -0.3061 -0.6786
  668TMC3    H1 9942   4.323   1.007  15.085 -0.5695 -0.2206 -0.7154
  668TMC3    H2 9943   4.474   1.360  15.267 -0.0192  0.7359 -1.8484
  668TMC3    C7 9944   4.330   1.147  15.322 -0.2433 -0.2621 -0.4390
  668TMC3    C8 9945   4.515   1.482  15.040  0.1834 -0.1598  0.6416
  668TMC3    O1 9946   4.394   1.182  15.423 -0.0174 -0.0722  0.1921
  668TMC3    O2 9947   4.487   1.584  15.098 -0.4055 -0.5637  0.2403
  669TMC3    C1 9948   2.051   0.572  14.958  0.4608  0.1006 -0.1478
  669TMC3    C2 9949   1.923   0.574  14.924 -0.0156  0.1834  0.1140
  669TMC3    C3 9950   1.905   0.543  14.786 -0.9739  0.0383 -0.0459
  669TMC3    C4 9951   2.158   0.572  14.872  0.3353 -0.2101 -0.5416
  669TMC3    C5 9952   2.135   0.556  14.738  0.3477  0.1108 -0.1788
  669TMC3    C6 9953   2.008   0.533  14.697  0.0282 -0.0991  0.0010
  669TMC3     C 9954   2.066   0.528  15.086  0.4905 -0.1205  0.3355
  669TMC3     O 9955   1.982   0.567  15.166 -0.1370  0.2464 -1.0896
  669TMC3     H 9956   1.841   0.563  14.994 -0.4543  1.5492 -0.1850
  669TMC3    H1 9957   2.259   0.587  14.909  0.7118 -1.8223 -0.8942
  669TMC3    H2 9958   1.985   0.523  14.591  0.5246 -0.1986 -0.0973
  669TMC3    C7 9959   2.231   0.609  14.646 -0.6087 -0.0137  0.2447
  669TMC3    C8 9960   1.773   0.572  14.723  0.1768  0.3394  1.1318
  669TMC3    O1 9961   2.319   0.678  14.692  0.5448  0.2431 -0.5129
  669TMC3    O2 9962   1.760   0.555  14.605  0.0182 -0.0703 -0.3660
  670MPD2     C 9963   0.195   3.077  13.874 -0.5376  0.2702 -0.6445
  670MPD2    C1 9964   0.255   2.964  13.909 -0.5170 -0.1889  0.2062
  670MPD2    C2 9965   0.240   2.916  14.038 -0.0705 -0.3838 -0.3364
  670MPD2    C3 9966   0.149   2.986  14.122  0.5744  0.3553  0.4225
  670MPD2    C4 9967   0.083   3.095  14.079 -0.0708  0.0270 -0.1171
  670MPD2    C5 9968   0.097   3.139  13.952  0.2528  0.3182  0.1975
  670MPD2     H 9969   0.291   2.833  14.086 -2.7068 -1.2483  0.9571
  670MPD2    H1 9970   0.010   3.141  14.143  1.0704  2.5520 -0.6450
  670MPD2    H2 9971   0.222   3.118  13.777  1.4823  1.6206  0.4853
  670MPD2    H3 9972   0.046   3.228  13.917 -1.2169 -0.8435 -0.6182
  670MPD2     N 9973   0.115   2.935  14.250  0.9003  0.0466 -0.6833
  670MPD2    H5 9974   0.160   2.846  14.266 -2.9214 -2.1405 -2.0627
  670MPD2    N1 9975   0.348   2.900  13.818 -0.1852  0.1017 -0.4502
  670MPD2    H7 9976   0.422   2.843  13.857 -0.5558 -1.2396 -1.6753
  671TMC3    C1 9977   0.032   2.917  14.471 -0.0885 -0.2287 -0.3551
  671TMC3    C2 9978   0.156   2.877  14.509  0.2563  0.6106  0.2151
  671TMC3    C3 9979   0.156   2.790  14.611 -0.6602  0.3779 -0.9876
  671TMC3    C4 9980   4.653   2.896  14.530  0.5557 -0.1656 -0.7304
  671TMC3    C5 9981   4.659   2.786  14.613  0.3659  0.6022  0.2289
  671TMC3    C6 9982   0.039   2.732  14.656  0.2292 -0.3952  0.0420
  671TMC3     C 9983   0.033   2.989  14.346 -0.3627 -0.3744  0.1868
  671TMC3     O 9984   4.702   3.089  14.350  0.0505 -0.4761 -0.1688
  671TMC3     H 9985   0.236   2.940  14.471  0.5217 -0.4552 -0.9524
  671TMC3    H1 9986   4.565   2.950  14.496 -0.3856 -1.9658 -1.1699
  671TMC3    H2 9987   0.030   2.651  14.728 -1.2201 -0.0821  0.2025
  671TMC3    C7 9988   4.583   2.688  14.529  0.1136 -0.0656  0.3017
  671TMC3    C8 9989   0.262   2.691  14.614  0.6164  0.2955 -0.6361
  671TMC3    O1 9990   4.486   2.736  14.469 -0.2253 -0.1548  0.1409
  671TMC3    O2 9991   0.230   2.573  14.615  0.1397 -1.1760  0.5886
  672MPD2     C 9992   0.592   4.031   1.091 -0.2266  0.5439 -0.1884
  672MPD2    C1 9993   0.684   3.943   1.041 -0.0471  0.3945  0.6992
  672MPD2    C2 9994   0.818   3.978   1.045 -0.6848 -0.0846  0.4208
  672MPD2    C3 9995   0.851   4.106   1.093  0.1233  0.3517 -0.1434
  672MPD2    C4 9996   0.754   4.188   1.148  0.4214  0.0547  0.4226
  672MPD2    C5 9997   0.627   4.150   1.152 -0.3391  0.5381  0.0113
  672MPD2     H 9998   0.898   3.909   1.019  0.0439  0.8341  0.2362
  672MPD2    H1 9999   0.793   4.282   1.186 -0.3440  0.5209  0.0531
  672MPD2    H210000   0.485   4.023   1.080 -0.4709  0.2298  2.3076
  672MPD2    H310001   0.552   4.223   1.181 -1.1487  0.1823 -1.1798
  672MPD2     N10002   0.983   4.156   1.115  0.4019 -0.3013  0.6018
  672MPD2    H510003   0.988   4.254   1.144  1.2209  0.5613 -2.4928
  672MPD2    N110004   0.646   3.815   0.993  0.4448  0.1326 -0.0230
  672MPD2    H710005   0.719   3.752   0.963  0.5134  0.3349 -0.2748
  673TMC3    C110006   0.491   3.652   0.899 -0.7833  0.0593 -0.3450
  673TMC3    C210007   0.588   3.557   0.893  0.0559  0.0111 -0.1969
  673TMC3    C310008   0.545   3.442   0.835 -0.3293  0.6723 -0.3171
  673TMC3    C410009   0.367   3.641   0.837  0.3348 -0.1137 -0.0639
  673TMC3    C510010   0.335   3.521   0.784 -0.2807 -0.6911 -0.0828
  673TMC3    C610011   0.419   3.418   0.781 -0.1338 -0.1616 -0.8001
  673TMC3     C10012   0.517   3.768   0.978  0.5954 -0.3313 -0.0471
  673TMC3     O10013   0.411   3.829   1.008 -0.2626  0.2745  0.1573
  673TMC3     H10014   0.686   3.577   0.935 -0.1031  1.0740 -0.3274
  673TMC3    H110015   0.292   3.717   0.853  0.7486  0.5417 -1.2802
  673TMC3    H210016   0.387   3.322   0.740 -1.5707 -1.6870  3.9311
  673TMC3    C710017   0.204   3.526   0.707  0.3217 -0.4053  0.8380
  673TMC3    C810018   0.636   3.325   0.828 -0.4293 -0.1803 -0.2266
  673TMC3    O110019   0.137   3.430   0.689 -0.4121  0.1703  0.2437
  673TMC3    O210020   0.594   3.242   0.744 -0.3570 -0.4066 -0.3657
  674MPD2     C10021   0.645   2.900  17.649  0.2665  0.6956  0.0506
  674MPD2    C110022   0.588   2.887   0.027 -0.0460 -0.4230 -0.4579
  674MPD2    C210023   0.517   2.999   0.082 -0.2168  0.2588 -0.7086
  674MPD2    C310024   0.519   3.121   0.018  0.0957 -0.3206 -0.4249
  674MPD2    C410025   0.594   3.135  17.648  0.7447 -0.1413 -0.1177
  674MPD2    C510026   0.649   3.024  17.587  0.2881  0.1532 -0.3016
  674MPD2     H10027   0.464   2.995   0.177  1.6156 -1.3439  0.2380
  674MPD2    H110028   0.594   3.224  17.587 -2.2691 -0.2639 -0.2782
  674MPD2    H210029   0.696   2.825  17.591 -0.7744  0.3624 -0.4392
  674MPD2    H310030   0.685   3.028  17.485  0.7941 -1.1519 -0.1810
  674MPD2     N10031   0.463   3.233   0.093  0.4108  1.1156  0.6949
  674MPD2    H510032   0.431   3.210   0.186 -0.5846 -0.0435  0.0759
  674MPD2    N110033   0.603   2.761   0.094 -0.2048  0.8160  0.0816
  674MPD2    H710034   0.637   2.689   0.030 -0.3802  1.1032 -0.3401
  675TMC3    C110035   0.559   2.842   0.330  0.0669  0.7279 -0.2968
  675TMC3    C210036   0.488   2.816   0.438 -0.4046 -0.3205 -0.6204
  675TMC3    C310037   0.495   2.910   0.541  0.1349 -0.6745 -0.5403
  675TMC3    C410038   0.667   2.925   0.332 -0.4560 -0.0065  0.6187
  675TMC3    C510039   0.678   3.000   0.442  1.0358 -0.0752 -0.5660
  675TMC3    C610040   0.593   3.005   0.543 -0.1560 -0.2800 -0.1430
  675TMC3     C10041   0.548   2.739   0.224  0.3963  0.5880 -0.0434
  675TMC3     O10042   0.548   2.628   0.276 -0.7382 -0.2965  0.0443
  675TMC3     H10043   0.396   2.761   0.427 -1.1766  1.0344 -0.9599
  675TMC3    H110044   0.740   2.915   0.252  0.1677  1.2419  1.0293
  675TMC3    H210045   0.620   3.064   0.630 -1.0656 -0.9766  0.6190
  675TMC3    C710046   0.759   3.114   0.417 -0.9301 -0.3057  0.0382
  675TMC3    C810047   0.431   2.874   0.667 -0.1269 -0.0235 -0.2866
  675TMC3    O110048   0.788   3.180   0.513  0.5306 -0.4632 -0.2572
  675TMC3    O210049   0.390   2.760   0.679  1.2289 -0.2440  0.3863
  676MPD2     C10050   3.381   1.985  11.192  0.3119  0.1517 -0.1304
  676MPD2    C110051   3.339   1.905  11.299  0.4885 -0.1669  0.6899
  676MPD2    C210052   3.411   1.792  11.339  0.7082 -0.2620  0.1006
  676MPD2    C310053   3.501   1.740  11.252 -0.2217 -0.2348  0.2915
  676MPD2    C410054   3.530   1.806  11.134  0.3630  0.6640  0.3454
  676MPD2    C510055   3.467   1.929  11.104 -0.2026  0.5305  0.2887
  676MPD2     H10056   3.386   1.744  11.433  1.2477  0.5337  0.6432
  676MPD2    H110057   3.606   1.764  11.069  0.6875  1.0937  0.4489
  676MPD2    H210058   3.328   2.076  11.165 -0.2560 -0.0931  0.1562
  676MPD2    H310059   3.485   1.982  11.011  0.3178  3.6554  2.1852
  676MPD2     N10060   3.566   1.620  11.281  0.2229 -0.2163 -0.0508
  676MPD2    H510061   3.613   1.582  11.200  1.1163 -0.0118  0.3703
  676MPD2    N110062   3.233   1.930  11.384 -0.6142  0.4371  0.3691
  676MPD2    H710063   3.200   1.858  11.448 -0.8064  0.1413 -0.0618
  677TMC3    C110064   3.034   2.036  11.457 -0.1774 -1.1700 -1.1909
  677TMC3    C210065   3.023   1.913  11.520  0.1812  0.8524  1.1009
  677TMC3    C310066   2.969   1.910  11.642  0.2027 -0.2237  0.6123
  677TMC3    C410067   3.013   2.158  11.517  0.1697 -0.4573  0.7197
  677TMC3    C510068   2.946   2.141  11.631  0.0216 -0.7827  0.5986
  677TMC3    C610069   2.918   2.030  11.697 -0.0498  0.3769 -0.1691
  677TMC3     C10070   3.145   2.041  11.371 -0.7092 -0.2757 -0.6803
  677TMC3     O10071   3.170   2.150  11.322  0.6366 -0.4740 -0.6296
  677TMC3     H10072   3.056   1.821  11.474  2.2972  1.1894  1.9459
  677TMC3    H110073   3.002   2.245  11.454  2.4079 -0.2441  0.6119
  677TMC3    H210074   2.881   2.039  11.799 -1.8352 -0.4269 -0.7465
  677TMC3    C710075   2.881   2.267  11.674  0.0222 -0.4373 -0.0469
  677TMC3    C810076   3.055   1.837  11.728 -0.9411 -0.5572  0.5202
  677TMC3    O110077   2.785   2.266  11.748  0.1553 -0.3579 -0.2839
  677TMC3    O210078   3.172   1.862  11.712 -0.0517 -0.1481 -0.3112
  678MPD2     C10079   4.564   1.960   1.488 -0.5638  0.0064 -0.7083
  678MPD2    C110080   4.513   1.847   1.427  0.3347 -0.3051 -0.3857
  678MPD2    C210081   4.409   1.785   1.479  0.0672 -0.5837  1.0036
  678MPD2    C310082   4.343   1.834   1.594  0.4809 -0.5222  0.7694
  678MPD2    C410083   4.388   1.953   1.652 -0.2894  0.5944  0.2332
  678MPD2    C510084   4.499   2.011   1.597 -0.1834  0.0982  0.0741
  678MPD2     H10085   4.366   1.697   1.432 -1.8816  1.9477 -1.9955
  678MPD2    H110086   4.337   2.006   1.732  1.3295  2.5702 -0.0204
  678MPD2    H210087   4.648   2.017   1.450  1.1026 -2.5012 -0.7758
  678MPD2    H310088   4.530   2.105   1.642 -1.0363 -0.0493  0.9758
  678MPD2     N10089   4.225   1.766   1.632 -0.5848  0.3394  0.9140
  678MPD2    H510090   4.199   1.687   1.574  2.8532  0.0738 -0.2969
  678MPD2    N110091   4.581   1.780   1.322 -0.5232  0.1566  0.0666
  678MPD2    H710092   4.544   1.696   1.279 -2.5641  1.6004 -1.0231
  679TMC3    C110093   0.172   1.556   1.129 -0.0989  0.0694 -0.4699
  679TMC3    C210094   0.135   1.669   1.199  0.9873  0.9184 -0.1657
  679TMC3    C310095   0.010   1.713   1.175 -0.3192  0.2783  0.4673
  679TMC3    C410096   0.088   1.487   1.039 -0.1314 -0.0507 -0.4658
  679TMC3    C510097   4.703   1.545   1.020  0.3753 -0.0257 -0.1185
  679TMC3    C610098   4.663   1.656   1.085 -0.7011 -0.4007 -0.0003
  679TMC3     C10099   0.298   1.499   1.163 -0.1312 -0.0329 -0.3212
  679TMC3     O10100   0.297   1.380   1.159 -0.1465 -0.1997  0.0185
  679TMC3     H10101   0.200   1.723   1.268  1.0805 -0.7317  1.0263
  679TMC3    H110102   0.138   1.410   0.983  1.7456  0.2763  0.7585
  679TMC3    H210103   4.556   1.673   1.084 -0.9658 -2.1576 -0.5563
  679TMC3    C710104   4.629   1.521   0.899  0.2236 -0.4054 -0.6128
  679TMC3    C810105   4.705   1.811   1.274 -0.5244 -0.4590  0.1655
  679TMC3    O110106   4.563   1.610   0.853  0.0778  0.3273 -0.0382
  679TMC3    O210107   0.049   1.895   1.310  0.0597 -0.4728  0.1575
  680MPD2     C10108   4.363   0.138  13.271 -0.2032  0.3490 -0.3331
  680MPD2    C110109   4.449   0.071  13.362  0.2291  0.0739  0.3537
  680MPD2    C210110   4.516   0.148  13.460  0.1440 -0.1944  0.0263
  680MPD2    C310111   4.492   0.289  13.473 -0.1141 -0.3869  0.2038
  680MPD2    C410112   4.407   0.346  13.382  0.4940  0.1225  0.2256
  680MPD2    C510113   4.344   0.276  13.284 -0.2763  0.0623 -0.8609
  680MPD2     H10114   4.581   0.108  13.536 -0.2210 -0.8379 -0.0011
  680MPD2    H110115   4.389   0.452  13.390  1.9286  0.4613 -1.0332
  680MPD2    H210116   4.315   0.092  13.185  0.2953  0.7316 -0.8128
  680MPD2    H310117   4.276   0.329  13.218 -0.4623  1.3640  0.3717
  680MPD2     N10118   4.560   0.379  13.561  0.5064  0.3146  0.1046
  680MPD2    H510119   4.538   0.478  13.551 -1.0920 -0.0894 -0.3959
  680MPD2    N110120   4.498   4.679  13.341  0.2117  0.6115 -0.8870
  680MPD2    H710121   4.555   4.645  13.417  1.4261  3.2423 -0.6401
  681TMC3    C110122   4.482   4.455  13.304  0.0747 -0.4951 -0.1687
  681TMC3    C210123   4.387   4.431  13.400  0.0688 -0.0943 -0.0654
  681TMC3    C310124   4.425   4.390  13.527 -0.2747 -0.3905  0.9696
  681TMC3    C410125   4.616   4.432  13.329  0.4877 -0.0345  0.2891
  681TMC3    C510126   4.647   4.378  13.453  1.0823 -0.1103 -0.1983
  681TMC3    C610127   4.552   4.356  13.549 -1.0613 -0.8856  0.0005
  681TMC3     C10128   4.459   4.590  13.251 -0.2819  0.2434  0.3779
  681TMC3     O10129   4.395   4.590  13.145  0.0481  0.2483  0.3619
  681TMC3     H10130   4.284   4.458  13.378 -0.1315 -2.2178 -1.6492
  681TMC3    H110131   4.681   4.455  13.246  2.0195 -1.8457  1.0019
  681TMC3    H210132   4.576   4.307  13.643  0.6739 -0.5885 -0.2790
  681TMC3    C710133   0.042   4.324  13.467 -0.8648  0.2818 -0.1522
  681TMC3    C810134   4.369   4.478  13.624  0.5433 -0.1600  0.2822
  681TMC3    O110135   0.059   4.239  13.553  0.1405 -0.5178  0.1957
  681TMC3    O210136   4.253   4.502  13.603  0.0146 -0.2290 -0.2775
  682MPD2     C10137   2.334   2.123  10.730  0.3443 -0.0643  0.4049
  682MPD2    C110138   2.268   2.021  10.674 -0.0843 -0.4300 -0.7006
  682MPD2    C210139   2.154   1.972  10.746 -0.0069 -0.5873 -0.0415
  682MPD2    C310140   2.123   2.012  10.875  0.1934 -0.9686 -0.1838
  682MPD2    C410141   2.196   2.119  10.931 -0.6530 -0.3310  0.5840
  682MPD2    C510142   2.304   2.167  10.852 -0.2648 -0.2026  0.2728
  682MPD2     H10143   2.105   1.882  10.710 -1.4548  0.1579  0.0821
  682MPD2    H110144   2.180   2.166  11.028  0.1040 -1.5596  1.3121
  682MPD2    H210145   2.424   2.165  10.686 -0.6208  1.5588  0.0118
  682MPD2    H310146   2.368   2.250  10.880  0.3256 -0.5523 -0.0461
  682MPD2     N10147   2.050   1.927  10.963 -0.5155  0.2321  0.2868
  682MPD2    H510148   2.043   1.958  11.060 -2.7487  2.3711 -0.5640
  682MPD2    N110149   2.288   1.958  10.549 -0.7919  0.3731 -0.2528
  682MPD2    H710150   2.219   1.893  10.514  0.2670 -2.5846  3.0956
  683TMC3    C110151   1.955   1.681  11.268 -0.0455  0.6296  0.8449
  683TMC3    C210152   1.873   1.567  11.245  0.8370 -1.1886  0.2798
  683TMC3    C310153   1.813   1.551  11.124  0.4474  0.5482 -0.2257
  683TMC3    C410154   1.979   1.774  11.165  0.1033 -0.1105  0.1208
  683TMC3    C510155   1.922   1.748  11.045 -0.9455  0.0778  0.2073
  683TMC3    C610156   1.836   1.644  11.027  0.1614 -0.7475 -0.0666
  683TMC3     C10157   1.971   1.738  11.398  0.9465  0.3770 -0.2648
  683TMC3     O10158   2.072   1.797  11.418  0.2144 -0.9931  0.3029
  683TMC3     H10159   1.860   1.487  11.318 -0.6949  0.1705  1.5041
  683TMC3    H110160   2.036   1.864  11.185 -0.4144  0.1415  0.4583
  683TMC3    H210161   1.797   1.625  10.928  1.7670  2.2733 -1.2611
  683TMC3    C710162   1.973   1.822  10.929  0.6425  0.5386 -0.2841
  683TMC3    C810163   1.786   1.419  11.057  0.1954 -0.1678 -0.0636
  683TMC3    O110164   1.962   1.766  10.824 -0.2002 -0.2248 -0.6125
  683TMC3    O210165   1.702   1.419  10.968 -0.3513 -0.4151  0.4406
  684MPD2     C10166   0.565   1.291  16.650 -0.7217  0.4060  0.0475
  684MPD2    C110167   0.541   1.282  16.509 -0.4197 -0.2898 -0.5125
  684MPD2    C210168   0.510   1.392  16.430  0.4563  0.4274 -0.1244
  684MPD2    C310169   0.526   1.520  16.483  0.2976  0.1879  0.2288
  684MPD2    C410170   0.558   1.534  16.616  0.7749 -0.0054 -0.0978
  684MPD2    C510171   0.572   1.423  16.694  0.0756  0.4048 -0.4167
  684MPD2     H10172   0.494   1.373  16.324  0.7258  0.0661 -0.0995
  684MPD2    H110173   0.575   1.631  16.662 -3.3413  1.3669 -1.5410
  684MPD2    H210174   0.589   1.204  16.711 -0.2390 -0.2211 -1.0260
  684MPD2    H310175   0.606   1.437  16.796  0.3635  1.5285 -0.6674
  684MPD2     N10176   0.530   1.648  16.408  0.1381 -0.5311  0.2273
  684MPD2    H510177   0.559   1.731  16.459 -0.0219 -0.0516 -0.4646
  684MPD2    N110178   0.554   1.162  16.431 -0.2356  0.0059  0.0086
  684MPD2    H710179   0.515   1.160  16.337 -2.4805  2.9113  0.8856
  685TMC3    C110180   0.661   0.961  16.367 -0.2536  0.7359 -0.8425
  685TMC3    C210181   0.551   0.897  16.333 -0.2866 -0.4952 -0.1112
  685TMC3    C310182   0.569   0.779  16.266  0.5390  0.3280  0.1006
  685TMC3    C410183   0.791   0.920  16.335 -0.2428 -0.2069 -0.2582
  685TMC3    C510184   0.803   0.799  16.265  0.1188  0.1624 -0.2175
  685TMC3    C610185   0.693   0.729  16.229  0.0893 -0.5775 -0.6808
  685TMC3     C10186   0.644   1.063  16.464 -0.6328 -0.0073  0.1404
  685TMC3     O10187   0.719   1.061  16.557  0.0578 -0.3794 -0.5459
  685TMC3     H10188   0.455   0.921  16.378 -0.9108 -2.3916 -0.4572
  685TMC3    H110189   0.877   0.963  16.386  1.0120 -1.1657 -1.5938
  685TMC3    H210190   0.700   0.650  16.155 -2.0791 -0.7586 -0.6787
  685TMC3    C710191   0.935   0.755  16.217  0.0294  0.3122  0.8088
  685TMC3    C810192   0.439   0.713  16.233 -0.5290 -0.5211  0.0464
  685TMC3    O110193   0.945   0.659  16.140 -0.2194 -0.1497 -0.5064
  685TMC3    O210194   0.458   0.594  16.195  0.0162 -0.1952  0.3097
  686MPD2     C10195   2.183   1.077  15.597  0.1797 -0.2054  0.0488
  686MPD2    C110196   2.210   1.012  15.714  0.5715 -0.3856  0.4237
  686MPD2    C210197   2.258   0.885  15.703 -0.3340  0.4068  0.1442
  686MPD2    C310198   2.260   0.820  15.581  0.3255  0.4601 -0.8498
  686MPD2    C410199   2.220   0.887  15.471 -0.0954  0.7394 -0.0283
  686MPD2    C510200   2.182   1.010  15.480  0.0314 -1.0567 -0.3040
  686MPD2     H10201   2.304   0.832  15.786 -0.1779  1.3523  0.6640
  686MPD2    H110202   2.202   0.827  15.382 -1.1530 -0.1089  0.7639
  686MPD2    H210203   2.149   1.179  15.601  1.2758  0.1466  0.4999
  686MPD2    H310204   2.148   1.068  15.396  0.6151  0.8104  0.7334
  686MPD2     N10205   2.309   0.690  15.571 -0.3955 -0.1215 -0.2348
  686MPD2    H510206   2.324   0.670  15.472 -1.1147 -0.8791 -0.1945
  686MPD2    N110207   2.184   1.079  15.834 -0.0321  0.7840  0.0884
  686MPD2    H710208   2.160   1.177  15.833 -0.4026  0.6893 -0.2844
  687TMC3    C110209   2.259   0.591  15.786 -0.2290  0.9864  0.2200
  687TMC3    C210210   2.124   0.628  15.780 -0.7027  0.7332  0.2103
  687TMC3    C310211   2.064   0.634  15.900  0.1604  0.4340 -0.4242
  687TMC3    C410212   2.333   0.572  15.898  0.1843 -0.3634 -0.2640
  687TMC3    C510213   2.266   0.576  16.017  0.4273 -0.2153 -0.1045
  687TMC3    C610214   2.127   0.593  16.016  0.1109  0.2594  0.0682
  687TMC3     C10215   2.339   0.599  15.663  0.1422  0.0153 -0.7230
  687TMC3     O10216   2.408   0.501  15.639  0.1135  0.4945  0.1266
  687TMC3     H10217   2.067   0.636  15.689  0.5894  1.0986 -0.5705
  687TMC3    H110218   2.438   0.550  15.882 -0.4268 -2.0953 -1.9581
  687TMC3    H210219   2.090   0.645  16.103  0.1052  0.0997  0.1625
  687TMC3    C710220   2.333   0.647  16.120  0.3683 -0.7620  0.1020
  687TMC3    C810221   1.944   0.711  15.916  0.4739  0.6102 -0.5419
  687TMC3    O110222   2.280   0.638  16.228  0.2610 -0.0737 -0.3181
  687TMC3    O210223   1.885   0.701  16.022 -0.1213  0.4939  0.4350
  688MPD2     C10224   1.049   0.151  17.332  0.0155 -0.3679  0.7118
  688MPD2    C110225   1.080   0.016  17.365 -0.6728 -0.3878  0.3993
  688MPD2    C210226   1.191   4.693  17.310  0.7490  0.3469  1.0754
  688MPD2    C310227   1.291   0.038  17.253 -0.1984  0.4537  0.2250
  688MPD2    C410228   1.272   0.171  17.245 -0.9992  0.0502 -0.1435
  688MPD2    C510229   1.146   0.227  17.268  0.3976  0.1458  0.3234
  688MPD2     H10230   1.216   4.589  17.327 -1.3529 -0.8006 -3.0442
  688MPD2    H110231   1.347   0.231  17.194 -1.0143 -0.2248 -0.4892
  688MPD2    H210232   0.953   0.194  17.357 -0.9832 -2.5927  0.7123
  688MPD2    H310233   1.126   0.326  17.231  1.6974 -0.5208 -2.1551
  688MPD2     N10234   1.421   4.729  17.219  0.2153  0.1799  0.4210
  688MPD2    H510235   1.488   0.062  17.190  0.0181  0.4829  0.6961
  688MPD2    N110236   1.009   4.679  17.464  0.2804  0.4340 -0.3615
  688MPD2    H710237   1.045   4.587  17.486  1.1266  0.6174 -0.9872
  689TMC3    C110238   0.884   4.647  17.676  0.3952  0.2756  0.0751
  689TMC3    C210239   0.894   4.715   0.050 -0.1192  0.9791  0.1736
  689TMC3    C310240   0.827   4.658   0.155 -0.5060 -0.0717 -0.1836
  689TMC3    C410241   0.812   4.532  17.656  0.3227 -0.5356  0.2836
  689TMC3    C510242   0.756   4.484   0.021 -0.0724  0.5195  0.0888
  689TMC3    C610243   0.753   4.546   0.141  0.6274 -0.5426 -0.4533
  689TMC3     C10244   0.918   4.733  17.561 -0.5052 -0.1596 -0.2150
  689TMC3     O10245   0.874   0.109  17.569 -0.2686  0.2011  0.4206
  689TMC3     H10246   0.967   0.057   0.064  1.5289 -0.7616  1.4680
  689TMC3    H110247   0.801   4.483  17.560 -0.2901  3.0403 -1.4906
  689TMC3    H210248   0.689   4.518   0.225 -1.3189  3.2728 -0.6857
  689TMC3    C710249   0.665   4.374   0.003  0.3158  0.1738  0.7818
  689TMC3    C810250   0.841   4.721   0.290  0.5404  0.1913  0.2886
  689TMC3    O110251   0.627   4.352  17.636  0.4986  0.2330 -0.2393
  689TMC3    O210252   0.899   0.097   0.294 -0.3555 -0.1799 -0.2924
  690MPD2     C10253   3.718   1.245  16.148  0.0690  1.0359  0.8319
  690MPD2    C110254   3.653   1.362  16.106 -0.0836 -0.0193  0.5780
  690MPD2    C210255   3.726   1.460  16.037  0.0970 -0.0416  1.0097
  690MPD2    C310256   3.870   1.447  16.024  0.0488 -0.1912 -0.3265
  690MPD2    C410257   3.933   1.340  16.088  0.0401  0.5181 -0.2630
  690MPD2    C510258   3.859   1.239  16.138  0.3510  0.0662 -0.2648
  690MPD2     H10259   3.670   1.548  16.007 -0.3837 -1.7417 -2.9712
  690MPD2    H110260   4.041   1.338  16.094  0.0098  0.1145  0.1507
  690MPD2    H210261   3.683   1.161  16.207  2.0371  0.6225  1.4085
  690MPD2    H310262   3.908   1.153  16.182  0.9908 -0.2106 -1.5258
  690MPD2     N10263   3.931   1.555  15.956  0.5368 -0.1000 -0.2452
  690MPD2    H510264   3.862   1.617  15.917 -0.2152 -2.0349 -2.0070
  690MPD2    N110265   3.517   1.389  16.122 -0.0955 -0.2538 -0.4214
  690MPD2    H710266   3.478   1.466  16.068 -0.4819 -1.4439 -1.8063
  691TMC3    C110267   3.292   1.371  16.201 -0.3245 -0.2717 -0.0598
  691TMC3    C210268   3.249   1.429  16.084  0.5642 -0.3136 -0.6632
  691TMC3    C310269   3.115   1.433  16.067 -0.2982 -0.2412 -0.3854
  691TMC3    C410270   3.208   1.310  16.292 -0.0622 -0.2901  1.1712
  691TMC3    C510271   3.075   1.317  16.275 -0.2129 -0.5759 -0.7759
  691TMC3    C610272   3.028   1.372  16.158 -0.4342 -0.0701  0.4844
  691TMC3     C10273   3.431   1.327  16.211 -0.1283  0.4443  0.5145
  691TMC3     O10274   3.465   1.266  16.312 -0.3833  0.1029  0.1303
  691TMC3     H10275   3.310   1.465  16.002 -0.5167  0.6113 -1.0522
  691TMC3    H110276   3.250   1.268  16.383 -1.5742  0.7148  2.3451
  691TMC3    H210277   2.922   1.356  16.142  0.0794 -3.6855  0.6195
  691TMC3    C710278   3.010   1.196  16.313  0.2978 -0.7337 -0.1622
  691TMC3    C810279   3.065   1.475  15.939  0.3304  0.0601 -0.6703
  691TMC3    O110280   3.019   1.168  16.432  0.1515  0.0411 -0.4717
  691TMC3    O210281   3.141   1.486  15.842 -0.6354 -0.7859  0.4177
  692TMC3    C110282   4.636   2.567  15.665  0.1437 -0.3088  0.3601
  692TMC3    C210283   4.712   2.679  15.689 -0.1513  0.1793  0.2485
  692TMC3    C310284   0.112   2.668  15.685 -0.6820 -0.5326  0.0803
  692TMC3    C410285   4.696   2.446  15.643 -0.1831 -0.2575 -0.1127
  692TMC3    C510286   0.092   2.446  15.641  0.2351 -0.2002 -0.9864
  692TMC3    C610287   0.174   2.551  15.671 -0.2174 -0.2109  0.2770
  692TMC3     C10288   4.492   2.564  15.679  0.2838 -0.0640 -0.0329
  692TMC3     O10289   4.431   2.497  15.594 -0.5169 -0.1493 -0.2969
  692TMC3     H10290   4.664   2.775  15.674  1.0227  0.6684 -0.3710
  692TMC3    H110291   4.641   2.354  15.628  0.5584 -0.8225  0.6258
  692TMC3    H210292   0.281   2.553  15.657 -0.4673  1.3254 -1.3572
  692TMC3    C710293   0.158   2.320  15.618  0.4051 -0.4805  0.3632
  692TMC3    C810294   0.179   2.782  15.744 -0.1053  0.3387  0.1569
  692TMC3    O110295   0.103   2.247  15.537  0.2860  0.0906  0.3900
  692TMC3    O210296   0.300   2.777  15.743  0.0413 -0.0361 -0.1568
  693MPD2     C10297   0.016   0.878  10.719  0.0365 -0.6154 -0.9923
  693MPD2    C110298   4.715   0.799  10.824  0.0829  0.4495 -0.3591
  693MPD2    C210299   0.075   0.729  10.899  0.3208 -0.1685 -0.1950
  693MPD2    C310300   0.208   0.735  10.859 -0.0069  0.5177  0.4677
  693MPD2    C410301   0.249   0.806  10.753  0.2100 -0.2290  0.4026
  693MPD2    C510302   0.151   0.875  10.685 -0.0330  0.2254  0.0174
  693MPD2     H10303   0.043   0.655  10.973 -0.5169 -1.6669 -2.0622
  693MPD2    H110304   0.354   0.809  10.727  0.3061  0.6627  0.9004
  693MPD2    H210305   4.686   0.935  10.657  0.6747  0.8334 -0.3519
  693MPD2    H310306   0.171   0.933  10.595 -1.1399  3.2348  1.7111
  693MPD2     N10307   0.306   0.663  10.927  0.1479  0.5339  0.2203
  693MPD2    H510308   0.403   0.676  10.898 -0.2042  2.6589  0.0334
  693MPD2    N110309   4.579   0.783  10.863  0.0412 -0.1188  0.6654
  693MPD2    H710310   4.565   0.720  10.942 -0.9160 -1.8258 -0.8647
  694TMC3    C110311   4.344   0.811  10.860  0.2832  0.1271  0.4299
  694TMC3    C210312   4.243   0.777  10.773  0.2147  0.8733 -0.1654
  694TMC3    C310313   4.134   0.712  10.821 -0.5234 -0.3912 -0.7094
  694TMC3    C410314   4.342   0.764  10.991 -0.1588  0.1373 -0.2535
  694TMC3    C510315   4.228   0.707  11.035  0.5314 -0.8031 -0.2127
  694TMC3    C610316   4.120   0.681  10.953  0.2790  0.2310 -0.4666
  694TMC3     C10317   4.470   0.837  10.795 -0.6113 -0.3801 -0.7985
  694TMC3     O10318   4.470   0.878  10.680 -0.3411  0.6909  0.1486
  694TMC3     H10319   4.254   0.792  10.666  1.4466 -1.2927 -0.3330
  694TMC3    H110320   4.431   0.751  11.051 -0.5377  0.2995  0.3484
  694TMC3    H210321   4.020   0.656  10.988  0.4556  0.4060  0.1800
  694TMC3    C710322   4.210   0.721  11.176  0.2341  0.1712  0.8866
  694TMC3    C810323   4.028   0.661  10.738 -0.4101 -0.2230  0.2445
  694TMC3    O110324   4.279   0.799  11.239 -0.3435  0.1274 -0.0302
  694TMC3    O210325   3.959   0.565  10.783  0.0223 -0.2236  0.6203
  695MPD2     C10326   0.445   2.460  13.710  0.3692  0.3754 -0.0150
  695MPD2    C110327   0.399   2.417  13.829 -0.2166  0.2510  0.5817
  695MPD2    C210328   0.269   2.454  13.857  0.0425 -0.3386 -0.5333
  695MPD2    C310329   0.194   2.538  13.779 -0.5231 -0.5349 -0.3173
  695MPD2    C410330   0.247   2.577  13.659 -0.0672 -0.1866  0.1322
  695MPD2    C510331   0.374   2.544  13.636 -0.2942  0.3032 -0.2728
  695MPD2     H10332   0.219   2.419  13.946  3.9257 -1.7149  1.0841
  695MPD2    H110333   0.198   2.650  13.595  3.8926  2.4706  0.0809
  695MPD2    H210334   0.544   2.429  13.678  0.9009  2.4974 -0.4395
  695MPD2    H310335   0.429   2.579  13.549 -1.1111 -1.5257 -1.5363
  695MPD2     N10336   0.068   2.584  13.829  0.0910  0.3241  0.2087
  695MPD2    H510337   0.045   2.569  13.927  0.6145 -2.6165 -0.1208
  695MPD2    N110338   0.473   2.352  13.925  0.1278  0.6847  0.3159
  695MPD2    H710339   0.419   2.332  14.009 -2.3465 -1.0224 -1.7123
  696TMC3    C110340   4.602   2.690  13.825 -0.1337  1.0621 -0.2057
  696TMC3    C210341   4.563   2.586  13.911  0.3692 -0.1928  0.1529
  696TMC3    C310342   4.451   2.624  13.987 -0.5167 -0.1553  0.3344
  696TMC3    C410343   4.532   2.802  13.801 -0.0583  0.1348 -0.0146
  696TMC3    C510344   4.429   2.831  13.882  0.2175  0.1474 -0.3750
  696TMC3    C610345   4.386   2.744  13.974  0.6036  0.3303  0.9187
  696TMC3     C10346   4.728   2.673  13.760 -0.1051  0.0118  0.2179
  696TMC3     O10347   0.005   2.726  13.651  0.3426  0.1720  0.6551
  696TMC3     H10348   4.605   2.486  13.916  1.7383  0.3326 -1.0623
  696TMC3    H110349   4.574   2.877  13.735 -0.8765  1.3613  0.8576
  696TMC3    H210350   4.320   2.783  14.050 -0.4343 -0.9049  0.6433
  696TMC3    C710351   4.378   2.968  13.886  0.3516  0.3188  0.3412
  696TMC3    C810352   4.384   2.533  14.084 -0.1293  0.1025 -0.1324
  696TMC3    O110353   4.385   3.018  13.771 -0.1492  0.0472  0.2940
  696TMC3    O210354   4.296   2.580  14.152  0.1338  0.0716  0.6143
  697MPD2     C10355   0.040   3.762  15.486 -0.0440 -0.1124  0.8818
  697MPD2    C110356   4.680   3.826  15.413  0.2611 -0.4783  0.2437
  697MPD2    C210357   4.708   3.925  15.323 -0.0376  0.0466 -0.0121
  697MPD2    C310358   0.094   3.983  15.310  0.6224 -0.2444 -0.0996
  697MPD2    C410359   0.191   3.928  15.394  0.5407 -0.4290  0.0130
  697MPD2    C510360   0.164   3.822  15.484  0.3086  0.2591 -0.3335
  697MPD2     H10361   4.622   3.971  15.276 -1.3770  0.0499  2.4645
  697MPD2    H110362   0.295   3.957  15.391  0.4082  0.0419  0.0887
  697MPD2    H210363   0.024   3.684  15.559  0.1168 -0.2499  0.7685
  697MPD2    H310364   0.245   3.784  15.544  0.0113  0.6055  0.2831
  697MPD2     N10365   0.110   4.084  15.209 -0.1856 -0.2320  0.6234
  697MPD2    H510366   0.024   4.110  15.161 -0.0173 -0.1314  0.3745
  697MPD2    N110367   4.547   3.788  15.423  0.5057  0.0223  0.0771
  697MPD2    H710368   4.476   3.813  15.356 -0.5142  2.5289  2.1196
  698TMC3    C110369   0.206   4.280  15.125 -0.2777 -0.6759 -1.2662
  698TMC3    C210370   0.292   4.379  15.149 -0.2048  1.0765  0.5644
  698TMC3    C310371   0.258   4.506  15.110  0.5151  0.3040  0.5127
  698TMC3    C410372   0.087   4.303  15.061 -0.1775  0.1427  0.0725
  698TMC3    C510373   0.045   4.430  15.028 -0.2692  0.0378  0.3915
  698TMC3    C610374   0.134   4.534  15.053 -0.4816 -0.5634 -0.3110
  698TMC3     C10375   0.222   4.161  15.205  0.0824 -0.2436 -0.3728
  698TMC3     O10376   0.331   4.129  15.251 -0.1879 -0.0255  0.3690
  698TMC3     H10377   0.391   4.366  15.192 -0.6521 -0.0422  1.2619
  698TMC3    H110378   0.010   4.232  15.035  0.5251  0.4329 -2.7142
  698TMC3    H210379   0.111   4.634  15.019  0.7384 -0.1770  0.0203
  698TMC3    C710380   4.684   4.450  14.919  0.3897  0.2722  0.6321
  698TMC3    C810381   0.328   4.622  15.167 -0.6808 -0.6034 -0.3561
  698TMC3    O110382   4.645   4.354  14.860  0.3289 -0.4813 -0.2907
  698TMC3    O210383   0.363   4.603  15.285 -0.0279  0.1482  0.6783
  699TMC3    C110384   4.521   2.628  13.426 -0.0513  0.1216  0.0486
  699TMC3    C210385   4.532   2.506  13.495 -0.1569 -0.7412  0.5761
  699TMC3    C310386   4.435   2.475  13.589  0.2557 -0.6369  0.9322
  699TMC3    C410387   4.420   2.724  13.454 -0.3849  0.0421 -0.5280
  699TMC3    C510388   4.326   2.679  13.545  0.1841  0.1350  0.3227
  699TMC3    C610389   4.332   2.560  13.616 -1.2528  0.1798 -0.8266
  699TMC3     C10390   4.622   2.678  13.329  0.7935  0.3927  0.5566
  699TMC3     O10391   4.597   2.787  13.275  0.3166 -0.5775 -0.5015
  699TMC3     H10392   4.594   2.432  13.447  1.9201 -0.4938  2.8785
  699TMC3    H110393   4.415   2.817  13.398 -1.9679  0.0772 -0.3167
  699TMC3    H210394   4.252   2.539  13.686 -2.3008  0.9034 -1.8039
  699TMC3    C710395   4.194   2.739  13.534 -0.0586  0.1019  0.2525
  699TMC3    C810396   4.448   2.361  13.675  0.5472 -0.2049 -0.3559
  699TMC3    O110397   4.105   2.659  13.559 -0.6656  0.1749  0.9488
  699TMC3    O210398   4.354   2.339  13.753  0.1856 -0.6297 -0.0240
  700TMC3    C110399   3.653   0.146  17.585  0.8180 -0.2578 -0.0161
  700TMC3    C210400   3.624   0.024  17.552 -0.1614  0.2444  0.0778
  700TMC3    C310401   3.708   4.665  17.605 -0.1471 -0.2295  0.1357
  700TMC3    C410402   3.757   0.183  17.671 -0.7260 -0.2147 -0.4322
  700TMC3    C510403   3.841   0.086  17.717 -0.3897 -0.6996 -0.4740
  700TMC3    C610404   3.812   4.694  17.689  0.3837  0.2332  0.2840
  700TMC3     C10405   3.571   0.243  17.506 -0.6894 -0.5877 -0.0267
  700TMC3     O10406   3.451   0.222  17.494 -0.0061 -0.4652  0.1554
  700TMC3     H10407   3.553   4.733  17.475  2.1740 -1.6029 -1.3854
  700TMC3    H110408   3.777   0.285  17.701  2.1902 -0.5355 -1.2142
  700TMC3    H210409   3.878   4.613  17.718 -2.9361 -2.4628  0.3144
  700TMC3    C710410   3.954   0.129   0.044 -0.0891  0.1214  0.2803
  700TMC3    C810411   3.728   4.545  17.526  0.0814 -0.7516  0.4425
  700TMC3    O110412   3.940   0.227   0.112 -0.4941  0.6063  0.1210
  700TMC3    O210413   3.710   4.548  17.405 -0.2601 -0.5481 -0.4739
  701TMC3    C110414   3.792   3.721  15.861 -0.3473  0.0781  0.2148
  701TMC3    C210415   3.823   3.648  15.751 -0.6020  0.4108 -0.6241
  701TMC3    C310416   3.915   3.696  15.665  0.2916  0.9966 -0.3576
  701TMC3    C410417   3.851   3.845  15.888 -0.3226  0.0345  0.2934
  701TMC3    C510418   3.953   3.878  15.804 -0.5041  0.0362  0.0668
  701TMC3    C610419   3.985   3.810  15.692  0.5904 -0.1906  0.6280
  701TMC3     C10420   3.692   3.666  15.943  0.3044  0.9353 -0.4930
  701TMC3     O10421   3.699   3.704  16.058  0.3840  0.0306 -0.3375
  701TMC3     H10422   3.783   3.549  15.733  0.9386 -0.6581  1.8512
  701TMC3    H110423   3.823   3.918  15.963 -2.8947 -0.3987 -0.2253
  701TMC3    H210424   4.071   3.830  15.629  0.4275  0.4327  0.6105
  701TMC3    C710425   4.005   4.008  15.801  0.4304  0.2033  0.0525
  701TMC3    C810426   3.945   3.623  15.535  0.3485  0.5871  0.9194
  701TMC3    O110427   4.040   4.054  15.691 -0.0771 -0.1857  0.5347
  701TMC3    O210428   4.043   3.667  15.477 -0.7477 -0.0369 -0.4396
  702MPD2     C10429   3.760   0.973  10.870 -0.0282 -0.3378 -0.0365
  702MPD2    C110430   3.780   1.102  10.918 -0.1188  0.3933  0.2147
  702MPD2    C210431   3.812   1.208  10.829 -0.2109  0.2108 -0.2964
  702MPD2    C310432   3.834   1.184  10.698  0.1357 -0.3753  0.4612
  702MPD2    C410433   3.821   1.058  10.653 -0.2875 -0.1193  0.1743
  702MPD2    C510434   3.786   0.951  10.741 -0.0809  0.5634 -0.0616
  702MPD2     H10435   3.802   1.309  10.868  0.5223  0.4447 -0.7245
  702MPD2    H110436   3.833   1.029  10.549 -1.3854  1.6743 -0.4528
  702MPD2    H210437   3.739   0.889  10.936 -1.8341  1.4814  1.7057
  702MPD2    H310438   3.777   0.848  10.710 -0.6785  0.9906 -1.2976
  702MPD2     N10439   3.862   1.291  10.616 -0.0354  0.0912  0.3961
  702MPD2    H510440   3.847   1.384  10.654  1.8144  0.9295 -0.9062
  702MPD2    N110441   3.736   1.127  11.050 -0.4414  0.5445  0.5332
  702MPD2    H710442   3.685   1.049  11.090 -2.1235  1.5952  0.4305
  703TMC3    C110443   3.948   1.411  10.431  0.1224 -0.2032 -0.0626
  703TMC3    C210444   3.859   1.513  10.459 -0.1688 -0.3895  0.1579
  703TMC3    C310445   3.865   1.629  10.384  0.1417 -1.0563 -0.5366
  703TMC3    C410446   4.064   1.427  10.362 -0.0832  0.0651  0.0074
  703TMC3    C510447   4.079   1.558  10.307  0.4282  0.7264  0.5683
  703TMC3    C610448   3.977   1.650  10.309  0.2747 -0.0834  0.2179
  703TMC3     C10449   3.923   1.282  10.490  0.2296  0.4746  0.3943
  703TMC3     O10450   3.967   1.184  10.436  0.3034  0.3419  0.4018
  703TMC3     H10451   3.767   1.492  10.512 -0.4040  1.8866  0.6762
  703TMC3    H110452   4.136   1.348  10.346 -0.8316 -0.4337 -0.8967
  703TMC3    H210453   3.988   1.741  10.251 -0.3199  1.4098  2.4290
  703TMC3    C710454   4.203   1.598  10.240 -0.6386  0.3619  0.0200
  703TMC3    C810455   3.789   1.751  10.415  0.4734  0.1969  0.0315
  703TMC3    O110456   4.192   1.695  10.167  0.2448  0.2854 -0.6005
  703TMC3    O210457   3.835   1.858  10.382 -0.0426  0.2079  0.1183
  704TMC3    C110458   1.531   3.991  12.931  0.2005  0.6873 -0.3657
  704TMC3    C210459   1.597   3.970  12.816  0.3023  0.8128 -0.3851
  704TMC3    C310460   1.620   3.842  12.777  0.2691 -0.2458 -0.1307
  704TMC3    C410461   1.515   3.891  13.022 -0.1128 -0.5453 -0.2729
  704TMC3    C510462   1.536   3.762  12.981 -0.1751  0.5413  0.5129
  704TMC3    C610463   1.577   3.738  12.856  0.9515 -0.0410  0.3526
  704TMC3     C10464   1.417   4.078  12.914  0.2148  0.1079  0.8488
  704TMC3     O10465   1.353   4.110  13.014  0.6812 -0.3119 -0.1500
  704TMC3     H10466   1.624   4.058  12.760 -2.5852  0.9561 -1.5740
  704TMC3    H110467   1.468   3.908  13.118 -1.0379 -1.8801 -0.4794
  704TMC3    H210468   1.579   3.639  12.811 -0.9729 -0.5976  1.4919
  704TMC3    C710469   1.451   3.647  13.028  0.1794  0.2579 -0.6577
  704TMC3    C810470   1.568   3.825  12.644 -0.1729 -0.3379  0.2162
  704TMC3    O110471   1.441   3.548  12.959  0.0913  0.3344 -0.1052
  704TMC3    O210472   1.481   3.738  12.633  0.2190 -0.5763  0.2847
  705MPD2     C10473   0.158   2.170  16.524  0.1905 -0.1779 -0.0741
  705MPD2    C110474   0.178   2.305  16.519 -0.4101  0.0299 -0.0653
  705MPD2    C210475   0.104   2.393  16.594 -0.1969  0.6302  0.2450
  705MPD2    C310476   0.012   2.344  16.684 -0.9178 -0.8423 -0.2054
  705MPD2    C410477   4.737   2.212  16.695  0.3246 -0.8392 -0.2467
  705MPD2    C510478   0.079   2.122  16.627  0.0273 -0.6560  0.6549
  705MPD2     H10479   0.120   2.500  16.587  2.0420  0.3244  0.7464
  705MPD2    H110480   4.665   2.162  16.759  0.1398 -0.2358  0.0151
  705MPD2    H210481   0.211   2.098  16.463 -0.6075 -1.3999  0.6899
  705MPD2    H310482   0.048   2.019  16.632 -0.0223 -0.6335  0.7972
  705MPD2     N10483   4.665   2.425  16.764 -0.2222 -0.4732 -0.4517
  705MPD2    H510484   4.585   2.373  16.798  0.2347  0.3639  1.8731
  705MPD2    N110485   0.281   2.359  16.442  0.2463 -0.5011  0.1170
  705MPD2    H710486   0.288   2.460  16.445 -1.1291 -0.4188  0.5500
  706TMC3    C110487   0.630   2.397  16.124  0.0528 -0.3711  0.3073
  706TMC3    C210488   0.643   2.528  16.138 -0.9091  0.0511  0.0807
  706TMC3    C310489   0.570   2.580  16.245  0.4141 -0.3786  0.1807
  706TMC3    C410490   0.529   2.322  16.182 -0.4001 -0.1552 -0.0774
  706TMC3    C510491   0.461   2.375  16.284 -0.4172  0.3569  0.0098
  706TMC3    C610492   0.480   2.508  16.319 -0.4052 -0.0675 -0.7737
  706TMC3     C10493   0.716   2.323  16.030 -0.0553 -0.5887  0.6005
  706TMC3     O10494   0.687   2.211  15.996  0.0024 -0.1679  0.3275
  706TMC3     H10495   0.718   2.593  16.095 -0.4563  0.0902  0.9274
  706TMC3    H110496   0.513   2.217  16.160  3.2689 -0.6421 -0.4039
  706TMC3    H210497   0.409   2.557  16.385 -0.0394  1.7693 -1.7418
  706TMC3    C710498   0.362   2.296  16.349 -0.1324 -0.2100 -0.2196
  706TMC3    C810499   0.578   2.726  16.258 -0.0853 -0.7098  0.9423
  706TMC3    O110500   0.348   2.180  16.317  0.4504  0.9050  0.6379
  706TMC3    O210501   0.625   2.784  16.161  1.1389 -0.7323 -0.0291
  707TMC3    C110502   1.817   1.836   0.505  0.4445 -0.0711  0.5458
  707TMC3    C210503   1.814   1.700   0.533 -0.5031 -0.1173  0.0679
  707TMC3    C310504   1.781   1.613   0.428 -0.0635  0.4732  0.1080
  707TMC3    C410505   1.781   1.891   0.382 -0.0991  0.2989  0.2182
  707TMC3    C510506   1.762   1.800   0.281 -0.4397  0.4771  0.3660
  707TMC3    C610507   1.770   1.663   0.302 -0.5735  0.2337 -0.8487
  707TMC3     C10508   1.896   1.914   0.607 -0.2035 -0.6717  0.1848
  707TMC3     O10509   1.942   1.856   0.704 -0.6059 -0.5502  0.3620
  707TMC3     H10510   1.851   1.674   0.631  1.7159 -0.6346 -0.9004
  707TMC3    H110511   1.769   1.997   0.363 -1.3095 -0.0217 -0.8204
  707TMC3    H210512   1.741   1.590   0.227 -1.8198  1.1608 -1.2708
  707TMC3    C710513   1.709   1.836   0.157  0.4187  0.4321  0.2027
  707TMC3    C810514   1.804   1.469   0.434  0.1234 -0.1137  0.1096
  707TMC3    O110515   1.657   1.755   0.084  0.4492 -0.5080  0.5363
  707TMC3    O210516   1.746   1.396   0.356  0.1347 -0.2893 -0.3231
  708MPD2     C10517   3.640   0.317  14.260 -0.6499  0.5180 -0.4620
  708MPD2    C110518   3.542   0.388  14.332  0.4884 -0.0722 -1.0332
  708MPD2    C210519   3.504   0.342  14.459  0.2122  0.4075  0.5268
  708MPD2    C310520   3.572   0.233  14.514  0.9842  0.3560 -0.3338
  708MPD2    C410521   3.683   0.172  14.456 -0.2851 -0.1816  0.4012
  708MPD2    C510522   3.719   0.220  14.330  0.0797  0.3271 -0.3476
  708MPD2     H10523   3.425   0.394  14.512 -1.7926 -1.6989 -0.4471
  708MPD2    H110524   3.723   0.082  14.502  0.4910 -1.3867 -2.6401
  708MPD2    H210525   3.664   0.336  14.156  0.0601  0.0574 -0.3831
  708MPD2    H310526   3.807   0.175  14.286  1.0277  1.1311  0.7355
  708MPD2     N10527   3.535   0.183  14.644  0.6935  0.1036 -0.1638
  708MPD2    H510528   3.600   0.111  14.677 -0.2241 -0.6558  0.0133
  708MPD2    N110529   3.463   0.480  14.253 -0.4058  0.0285 -0.0565
  708MPD2    H710530   3.470   0.472  14.152 -0.0767 -0.4192  0.0026
  709TMC3    C110531   3.296   0.641  14.214  0.7132 -0.0061  0.8619
  709TMC3    C210532   3.223   0.565  14.124 -0.6461 -0.0326 -0.6342
  709TMC3    C310533   3.094   0.593  14.092 -0.3868 -0.0981 -0.2093
  709TMC3    C410534   3.222   0.734  14.280  0.2761 -0.5048  0.3652
  709TMC3    C510535   3.095   0.757  14.255 -0.0535  0.1633 -0.4642
  709TMC3    C610536   3.030   0.697  14.153  0.1226 -1.1597 -0.1356
  709TMC3     C10537   3.392   0.577  14.309  0.0309 -0.4774  0.7176
  709TMC3     O10538   3.417   0.626  14.418  0.5935  0.1429 -0.4961
  709TMC3     H10539   3.272   0.476  14.084 -0.8559  0.2946 -1.6057
  709TMC3    H110540   3.265   0.798  14.356 -0.9234  0.2943  0.3556
  709TMC3    H210541   2.923   0.698  14.137 -0.2182  0.9372  2.4511
  709TMC3    C710542   3.023   0.746  14.377 -0.0669 -0.1559  0.3768
  709TMC3    C810543   3.020   0.519  13.994 -0.1571  0.3507  0.2619
  709TMC3    O110544   2.904   0.778  14.371  0.1211  0.0125 -0.9092
  709TMC3    O210545   2.906   0.483  14.017 -0.3005 -0.2148 -0.1736
  710TMC3    C110546   4.616   1.845   0.071 -0.2099  0.4981  0.3506
  710TMC3    C210547   4.713   1.781  17.742 -0.4314  0.0087  0.5149
  710TMC3    C310548   0.045   1.679   0.049 -0.0842 -0.5340 -0.5961
  710TMC3    C410549   4.569   1.785   0.184 -0.2051  0.3517 -0.1537
  710TMC3    C510550   4.635   1.670   0.233 -0.3438 -0.1332  0.6927
  710TMC3    C610551   0.013   1.624   0.166  0.6738 -0.0650 -0.5529
  710TMC3     C10552   4.546   1.963   0.028  0.5709  0.0734  0.0292
  710TMC3     O10553   4.550   1.989  17.656  0.3366 -0.1503 -0.1892
  710TMC3     H10554   0.014   1.833  17.655 -1.2406 -0.2631  0.0008
  710TMC3    H110555   4.483   1.824   0.238 -2.6174  0.5282 -4.1445
  710TMC3    H210556   0.060   1.533   0.201  0.3992 -0.0477 -0.1331
  710TMC3    C710557   4.589   1.611   0.362 -0.6824  0.1102  0.8604
  710TMC3    C810558   0.178   1.680   0.014 -0.3276 -0.2001 -0.2863
  710TMC3    O110559   4.558   1.700   0.441 -0.0819  0.1729 -0.6849
  710TMC3    O210560   0.199   1.709  17.644  0.0968 -0.1115  0.4115
  711TMC3    C110561   4.055   2.899  15.753  0.2049 -0.6871 -0.3754
  711TMC3    C210562   4.075   2.981  15.864  0.1012 -0.2580  0.1503
  711TMC3    C310563   4.209   3.026  15.877 -0.2368  0.2425  0.0623
  711TMC3    C410564   4.148   2.892  15.649 -0.8466  0.0734 -0.4880
  711TMC3    C510565   4.273   2.943  15.667 -0.7865 -0.2884 -0.6583
  711TMC3    C610566   4.310   2.999  15.784  0.3616  0.4344  0.3973
  711TMC3     C10567   3.920   2.864  15.709 -0.0056  0.5921 -0.6535
  711TMC3     O10568   3.896   2.849  15.588 -0.2855  0.0710 -0.5823
  711TMC3     H10569   3.997   3.008  15.934  1.4274  0.9015  1.1562
  711TMC3    H110570   4.130   2.816  15.573  2.0672 -1.3792  0.2577
  711TMC3    H210571   4.413   3.029  15.799 -0.6256  4.4056 -0.9012
  711TMC3    C710572   4.374   2.918  15.574  0.2712  0.8659 -0.4344
  711TMC3    C810573   4.235   3.146  15.962  1.1610  0.4282  0.0984
  711TMC3    O110574   4.491   2.930  15.613 -0.3211  0.6778 -0.5236
  711TMC3    O210575   4.148   3.158  16.045  0.2428  0.1677  0.5087
  712MPD2     C10576   1.362   4.028  14.153  0.0029 -0.3645  0.3197
  712MPD2    C110577   1.228   4.023  14.122 -0.6209  1.2790 -0.2847
  712MPD2    C210578   1.157   4.149  14.109  0.4044  0.0728  0.0846
  712MPD2    C310579   1.216   4.271  14.148 -0.5977  0.1705  0.0927
  712MPD2    C410580   1.352   4.273  14.173 -0.1152 -0.3730 -0.6614
  712MPD2    C510581   1.414   4.152  14.166  0.1389  0.6265  0.6306
  712MPD2     H10582   1.056   4.144  14.070  0.8145 -3.6580 -0.4877
  712MPD2    H110583   1.405   4.365  14.195 -1.5481  0.3819 -0.4073
  712MPD2    H210584   1.421   3.940  14.176  0.4923 -0.0802  0.1403
  712MPD2    H310585   1.521   4.162  14.182  0.4449 -1.8144  0.1265
  712MPD2     N10586   1.139   4.389  14.137 -0.3325  0.0454 -0.1548
  712MPD2    H510587   1.188   4.474  14.111  0.1055 -0.8230 -2.1960
  712MPD2    N110588   1.163   3.898  14.089 -0.1840 -0.6123 -0.7734
  712MPD2    H710589   1.218   3.812  14.086 -0.0870 -0.6311  1.3070
  713TMC3    C110590   0.949   4.521  14.075  0.1204  0.0059 -0.7275
  713TMC3    C210591   1.030   4.618  14.017  0.9252  0.5690 -0.0968
  713TMC3    C310592   0.961   4.711  13.939 -0.0375  0.2000  0.0449
  713TMC3    C410593   0.812   4.519  14.062 -0.7447 -0.0604 -0.4773
  713TMC3    C510594   0.752   4.618  13.989 -0.7335 -0.1060 -0.5276
  713TMC3    C610595   0.824   4.717  13.930  0.1887  0.1867  0.0697
  713TMC3     C10596   1.007   4.397  14.135  0.0370  0.2622 -0.4865
  713TMC3     O10597   0.926   4.314  14.179 -0.1834  0.3915  0.0673
  713TMC3     H10598   1.138   4.605  14.020  0.6169 -2.1728 -1.1527
  713TMC3    H110599   0.765   4.430  14.103 -1.6539  0.3478 -0.6366
  713TMC3    H210600   0.780   0.066  13.880  1.1436 -1.2944 -3.3716
  713TMC3    C710601   0.615   4.600  13.952  0.3123 -0.4215 -0.3286
  713TMC3    C810602   1.043   0.063  13.864  0.0062 -0.4905  0.5909
  713TMC3    O110603   0.566   4.519  14.023 -0.7536  0.2361 -0.4812
  713TMC3    O210604   1.000   0.173  13.833 -0.2144 -0.1890 -0.5321
  714MPD2     C10605   3.265   3.472   1.348 -0.4468  0.5125 -0.9214
  714MPD2    C110606   3.248   3.337   1.345 -0.1862 -0.1895  0.1034
  714MPD2    C210607   3.119   3.290   1.355 -0.0488  0.1323 -0.8033
  714MPD2    C310608   3.005   3.371   1.362 -0.0596  0.9091  1.2213
  714MPD2    C410609   3.031   3.505   1.390 -0.1989 -0.9077 -0.0652
  714MPD2    C510610   3.154   3.558   1.363 -0.0033 -0.0972  0.3151
  714MPD2     H10611   3.103   3.183   1.356 -2.3184  0.4814  0.1999
  714MPD2    H110612   2.951   3.576   1.404 -1.0433 -1.3400 -2.5492
  714MPD2    H210613   3.361   3.521   1.341  1.1254 -2.4174  0.0569
  714MPD2    H310614   3.154   3.666   1.362  0.7179 -0.0831  1.9013
  714MPD2     N10615   2.880   3.316   1.380 -0.2701  0.1275  0.3968
  714MPD2    H510616   2.877   3.216   1.360 -1.6756  0.1104  0.7353
  714MPD2    N110617   3.365   3.256   1.329 -0.2103  0.4613 -0.3258
  714MPD2    H710618   3.452   3.308   1.319  0.2282 -0.6230 -2.2077
  715TMC3    C110619   3.490   3.079   1.239  0.0334 -0.2618 -0.0509
  715TMC3    C210620   3.511   2.945   1.248  0.0423  0.1657 -0.6198
  715TMC3    C310621   3.626   2.893   1.204 -0.1469 -0.3996 -0.0661
  715TMC3    C410622   3.589   3.169   1.187  0.2876  0.0095  0.0478
  715TMC3    C510623   3.708   3.113   1.150  0.3296  0.1466 -0.1573
  715TMC3    C610624   3.729   2.975   1.156  0.2353  0.4627 -0.5679
  715TMC3     C10625   3.364   3.122   1.295 -0.0459  0.2982  0.3883
  715TMC3     O10626   3.268   3.044   1.308  0.6914 -0.2782  0.3148
  715TMC3     H10627   3.441   2.871   1.284  1.3026 -1.3765 -1.3243
  715TMC3    H110628   3.563   3.273   1.170  0.3150  0.1022  0.5798
  715TMC3    H210629   3.817   2.924   1.118 -0.2138 -2.1305  1.8961
  715TMC3    C710630   3.831   3.194   1.140  0.6429  0.4659  0.4624
  715TMC3    C810631   3.639   2.750   1.231 -0.5088  0.4358 -0.5007
  715TMC3    O110632   3.934   3.129   1.124 -0.8899  0.1666  0.5132
  715TMC3    O210633   3.546   2.692   1.280  0.1797  0.2942  0.1222
  716MPD2     C10634   2.990   1.585  10.181 -0.2852  0.0647 -0.4565
  716MPD2    C110635   3.037   1.670  10.080 -0.4206  0.1019 -0.0213
  716MPD2    C210636   3.121   1.618   9.980  0.0275 -1.0738 -0.0233
  716MPD2    C310637   3.158   1.487   9.980  0.5087 -0.7491  0.5778
  716MPD2    C410638   3.117   1.410  10.085  0.2962 -0.1184 -0.0201
  716MPD2    C510639   3.033   1.454  10.184 -0.3620 -0.5704  0.7103
  716MPD2     H10640   3.162   1.678   9.900 -0.2448 -1.5462 -0.5150
  716MPD2    H110641   3.144   1.306  10.098 -1.0044 -0.7003 -1.9727
  716MPD2    H210642   2.927   1.620  10.262 -1.5577 -0.6652 -1.1216
  716MPD2    H310643   3.002   1.384  10.261 -0.8630 -0.8004  0.2981
  716MPD2     N10644   3.242   1.443   9.873 -0.0837 -0.5002 -0.1215
  716MPD2    H510645   3.264   1.507   9.797  1.0555  0.4227  0.9815
  716MPD2    N110646   3.006   1.808  10.071  0.7475  0.5482  0.1797
  716MPD2    H710647   3.045   1.860   9.993  0.6975 -0.4358 -0.4963
  717TMC3    C110648   3.394   1.336   9.740  0.2172  0.1376  0.7344
  717TMC3    C210649   3.344   1.412   9.633 -0.6329 -0.1026  0.3277
  717TMC3    C310650   3.414   1.410   9.512  0.1728  0.5784 -0.0055
  717TMC3    C410651   3.503   1.258   9.719 -0.0889 -0.4020 -0.9023
  717TMC3    C510652   3.571   1.278   9.606 -0.0871  0.5933  0.8248
  717TMC3    C610653   3.537   1.354   9.498  0.2155 -0.0798 -0.0538
  717TMC3     C10654   3.324   1.336   9.869  0.3312 -0.2512 -0.3962
  717TMC3     O10655   3.343   1.241   9.941  0.3147  0.5035 -0.0681
  717TMC3     H10656   3.250   1.466   9.638  0.1376  1.1795  1.1557
  717TMC3    H110657   3.536   1.187   9.794  1.4422 -0.4752 -1.6589
  717TMC3    H210658   3.590   1.363   9.404  2.2456 -0.4028  1.0676
  717TMC3    C710659   3.699   1.216   9.597  0.5922 -0.7360  0.0761
  717TMC3    C810660   3.347   1.469   9.398  0.4081 -0.7968 -0.4654
  717TMC3    O110661   3.708   1.114   9.659 -0.0680 -0.2569 -0.6086
  717TMC3    O210662   3.264   1.556   9.419 -0.3825 -0.7010 -0.1815
  718MPD2     C10663   2.802   4.175  12.703 -0.1711  0.3726 -0.6584
  718MPD2    C110664   2.731   4.149  12.590 -0.4847 -0.7741 -0.2626
  718MPD2    C210665   2.626   4.061  12.605  0.4965 -0.1874  0.6768
  718MPD2    C310666   2.585   4.015  12.729 -0.1103 -0.1316  0.3031
  718MPD2    C410667   2.669   4.035  12.837 -0.2978 -0.6453  0.3209
  718MPD2    C510668   2.774   4.122  12.823 -0.4382  0.2353  0.5696
  718MPD2     H10669   2.550   4.046  12.529  0.7742  0.1155  0.3381
  718MPD2    H110670   2.651   4.001  12.938  0.0840 -1.9173 -0.0422
  718MPD2    H210671   2.898   4.226  12.705  0.2900 -0.5617  1.0311
  718MPD2    H310672   2.841   4.138  12.908  2.5558 -0.0012 -1.7382
  718MPD2     N10673   2.459   3.960  12.742 -0.2853 -0.2221 -0.5729
  718MPD2    H510674   2.407   3.961  12.655  1.9923 -2.0969 -1.9555
  718MPD2    N110675   2.748   4.224  12.476 -0.5755 -0.5589  0.2352
  718MPD2    H710676   2.799   4.311  12.484 -0.1378 -0.7269 -0.6398
  719TMC3    C110677   2.646   4.337  12.288  0.6756  0.5239 -0.2125
  719TMC3    C210678   2.518   4.346  12.237  0.3697 -0.5765  0.3456
  719TMC3    C310679   2.462   4.469  12.249  0.1897  0.4622 -0.5161
  719TMC3    C410680   2.716   4.444  12.336 -0.4603  0.1929 -0.5817
  719TMC3    C510681   2.654   4.564  12.339  0.0670  0.0112  0.2254
  719TMC3    C610682   2.522   4.580  12.294  0.2456  0.0397 -0.2126
  719TMC3     C10683   2.664   4.215  12.366  0.1518 -0.7043 -0.5968
  719TMC3     O10684   2.614   4.118  12.311  0.2148 -0.3326 -0.4725
  719TMC3     H10685   2.456   4.258  12.230 -0.2278 -0.1374  0.1299
  719TMC3    H110686   2.820   4.423  12.355 -0.7181  2.4605  3.3989
  719TMC3    H210687   2.475   4.678  12.299 -0.7752 -0.5863  2.3041
  719TMC3    C710688   2.738   4.680  12.359 -0.3596 -0.1097  0.6033
  719TMC3    C810689   2.330   4.451  12.302  0.0574 -0.2698 -0.2756
  719TMC3    O110690   2.858   4.662  12.344 -0.2258  0.1507 -0.5698
  719TMC3    O210691   2.334   4.460  12.426  0.1158 -0.7858  0.4475
  720MPD2     C10692   1.634   0.772  13.772 -0.2468  0.3224 -0.4590
  720MPD2    C110693   1.628   0.908  13.783 -0.2417  0.7131  0.9377
  720MPD2    C210694   1.702   0.972  13.880 -0.0212 -0.2449  0.4397
  720MPD2    C310695   1.759   0.900  13.984  0.0195 -0.0773 -0.4477
  720MPD2    C410696   1.753   0.760  13.982  0.3452 -0.4334 -0.1935
  720MPD2    C510697   1.696   0.704  13.873 -1.0741 -0.2107 -0.4075
  720MPD2     H10698   1.703   1.080  13.877  0.8371 -0.3166 -1.7422
  720MPD2    H110699   1.797   0.693  14.055 -0.8634 -0.2277  0.7372
  720MPD2    H210700   1.596   0.713  13.689  1.2980 -3.1685  1.3265
  720MPD2    H310701   1.706   0.596  13.872  0.6542 -0.0658  1.4796
  720MPD2     N10702   1.838   0.964  14.075 -0.3988 -0.4083  0.0444
  720MPD2    H510703   1.874   1.055  14.050  1.2590 -1.4635 -1.4336
  720MPD2    N110704   1.570   0.980  13.677 -0.9882  0.3658 -0.1122
  720MPD2    H710705   1.548   0.933  13.589  0.7145  0.7136 -0.7243
  721TMC3    C110706   1.987   0.989  14.258  0.0820  0.7947 -0.1700
  721TMC3    C210707   2.011   0.982  14.390 -0.0944 -0.0683  0.4675
  721TMC3    C310708   2.133   1.028  14.435  0.2202  0.1836 -0.4821
  721TMC3    C410709   2.080   1.039  14.166 -0.3823 -0.3127 -0.3588
  721TMC3    C510710   2.188   1.099  14.223 -0.3632  0.3587  0.0488
  721TMC3    C610711   2.217   1.094  14.355 -0.3902  0.1066  0.5763
  721TMC3     C10712   1.861   0.931  14.208  0.6754  0.0649  0.4494
  721TMC3     O10713   1.805   0.843  14.271  0.6218 -0.1637 -0.1139
  721TMC3     H10714   1.934   0.944  14.457  1.2478 -0.1621  1.9591
  721TMC3    H110715   2.080   1.057  14.059  2.1336 -3.2122 -0.8727
  721TMC3    H210716   2.314   1.122  14.396  0.4638 -3.2760  0.8792
  721TMC3    C710717   2.311   1.135  14.138 -0.1612 -0.7738  0.0660
  721TMC3    C810718   2.176   0.999  14.566  0.0858  0.0961  0.2437
  721TMC3    O110719   2.386   1.225  14.184  0.7273 -0.1070  0.3706
  721TMC3    O210720   2.288   0.965  14.580 -0.1245 -0.0687  0.4980
  722MPD2     C10721   4.479   0.091  12.799  0.3701  0.8419 -0.9837
  722MPD2    C110722   4.445   0.171  12.903 -0.0230 -0.4990  0.3342
  722MPD2    C210723   4.318   0.222  12.907 -0.0398  0.1909  0.1578
  722MPD2    C310724   4.223   0.191  12.824  0.2112  0.0913 -0.3927
  722MPD2    C410725   4.255   0.108  12.715 -0.8274 -0.0055  0.4877
  722MPD2    C510726   4.384   0.059  12.706 -0.0792 -0.5258 -0.3058
  722MPD2     H10727   4.301   0.285  12.993  0.4291  2.7770 -1.6315
  722MPD2    H110728   4.181   0.095  12.636 -1.0228 -0.8172  0.8103
  722MPD2    H210729   4.580   0.054  12.784  0.6187  0.7330  0.9700
  722MPD2    H310730   4.403   0.002  12.615  0.7414 -0.9976  0.1685
  722MPD2     N10731   4.094   0.241  12.841  0.2702  0.0210  0.1337
  722MPD2    H510732   4.068   0.292  12.925 -1.4469  0.4537 -0.6659
  722MPD2    N110733   4.537   0.213  13.011 -0.2997  0.3033  0.0797
  722MPD2    H710734   4.503   0.274  13.084  0.2631  1.7374 -0.8725
  723TMC3    C110735   3.869   0.301  12.789  1.2511 -0.5352  0.1365
  723TMC3    C210736   3.759   0.249  12.719 -0.7778  0.0055  0.0541
  723TMC3    C310737   3.631   0.262  12.775 -0.1725 -0.7278 -0.1500
  723TMC3    C410738   3.851   0.360  12.912 -0.3649 -0.0582 -0.0864
  723TMC3    C510739   3.727   0.349  12.971 -0.0621  0.6222  0.6273
  723TMC3    C610740   3.613   0.304  12.907 -0.6531 -0.4937 -0.3428
  723TMC3     C10741   3.983   0.224  12.760  1.0178 -0.1419  1.1448
  723TMC3     O10742   3.968   0.135  12.676 -0.5124 -0.1164  0.1825
  723TMC3     H10743   3.769   0.203  12.622  1.3411  0.9245 -0.1537
  723TMC3    H110744   3.937   0.400  12.965  0.4646 -2.5108  0.4174
  723TMC3    H210745   3.519   0.293  12.960 -0.9212  1.9531 -0.3092
  723TMC3    C710746   3.723   0.390  13.114 -0.9202 -0.1829 -0.0484
  723TMC3    C810747   3.546   0.153  12.740  0.1667 -0.2860 -0.1679
  723TMC3    O110748   3.805   0.468  13.151 -0.1312  0.5907 -0.3744
  723TMC3    O210749   3.430   0.191  12.726  0.2753  0.2729 -0.1638
  724TMC3    C110750   0.697   2.844  10.414 -0.6767 -0.7753 -0.6128
  724TMC3    C210751   0.663   2.838  10.281  0.1910  0.7617 -0.2984
  724TMC3    C310752   0.706   2.939  10.194 -0.0732 -0.3003 -0.4517
  724TMC3    C410753   0.766   2.946  10.457  0.4274  0.4302 -0.2803
  724TMC3    C510754   0.819   3.035  10.366 -0.0336  0.0815  0.1470
  724TMC3    C610755   0.802   3.029  10.229  0.1855  0.8249 -0.5761
  724TMC3     C10756   0.660   2.728  10.495 -0.6737  1.2668 -0.0287
  724TMC3     O10757   0.642   2.628  10.428  0.3680 -0.0028  0.2569
  724TMC3     H10758   0.581   2.772  10.256 -0.1431  0.5907  1.2720
  724TMC3    H110759   0.813   2.942  10.555  0.8730  0.6178 -0.4845
  724TMC3    H210760   0.852   3.095  10.160  1.2187 -0.0752 -0.6861
  724TMC3    C710761   0.909   3.141  10.414  0.2525  1.2248 -0.6385
  724TMC3    C810762   0.634   2.953  10.072 -0.1241 -0.0180  0.0830
  724TMC3    O110763   0.960   3.216  10.333 -0.4914  0.3767  0.3372
  724TMC3    O210764   0.547   2.875  10.035  0.3134  0.2419 -0.7822
  725TMC3    C110765   2.172   1.614  12.913  0.6947  0.0995  0.1811
  725TMC3    C210766   2.096   1.667  12.813 -0.1758  0.2610  0.0097
  725TMC3    C310767   2.076   1.595  12.700 -0.2524  1.0482 -0.1252
  725TMC3    C410768   2.251   1.506  12.891 -0.4232 -0.6527 -0.1595
  725TMC3    C510769   2.228   1.437  12.776  0.0205 -0.6071  0.4417
  725TMC3    C610770   2.138   1.473  12.683 -0.8772  0.3525 -0.4135
  725TMC3     C10771   2.218   1.713  13.007  0.3972  0.4366  0.1794
  725TMC3     O10772   2.141   1.805  13.023 -0.0381  0.3913 -0.1568
  725TMC3     H10773   2.040   1.759  12.825  1.4110  1.2195  0.0636
  725TMC3    H110774   2.311   1.468  12.972 -0.8562  0.3146  0.6111
  725TMC3    H210775   2.122   1.419  12.590  1.9864  0.3956 -0.9369
  725TMC3    C710776   2.332   1.335  12.728  0.0696  0.3449  0.6959
  725TMC3    C810777   1.941   1.611  12.642 -0.3115 -0.4849 -0.6646
  725TMC3    O110778   2.297   1.280  12.626  0.2093 -0.2610  0.3975
  725TMC3    O210779   1.867   1.516  12.631 -0.6318 -0.0087  0.1718
  726MPD2     C10780   0.068   3.212  10.824  0.4493 -0.3013 -0.4183
  726MPD2    C110781   0.038   3.332  10.772  0.3401 -0.3683 -0.0185
  726MPD2    C210782   4.675   3.410  10.832  0.1016  0.3607  0.6193
  726MPD2    C310783   4.583   3.355  10.918 -0.3945  0.1911 -0.2166
  726MPD2    C410784   4.598   3.223  10.952 -0.1359 -0.5568  1.3471
  726MPD2    C510785   4.711   3.155  10.904  0.4779  0.0126  0.9487
  726MPD2     H10786   4.657   3.508  10.790  0.6137  0.3658  0.4178
  726MPD2    H110787   4.526   3.174  11.016 -0.7883 -1.5178 -0.1311
  726MPD2    H210788   0.149   3.148  10.791  0.8651  0.4965 -0.9736
  726MPD2    H310789   4.725   3.051  10.930 -0.1256  0.1625  1.8495
  726MPD2     N10790   4.465   3.433  10.951 -0.3545 -0.4382 -0.0564
  726MPD2    H510791   4.458   3.529  10.920  0.6274 -0.9511 -1.8643
  726MPD2    N110792   0.111   3.391  10.666  0.3547 -0.3768  0.1320
  726MPD2    H710793   0.078   3.484  10.640  0.5404 -0.3816 -0.1212
  727TMC3    C110794   0.235   3.395  10.467  0.2078 -0.3040  0.1605
  727TMC3    C210795   0.282   3.519  10.492 -0.2394  0.4314 -0.0588
  727TMC3    C310796   0.268   3.619  10.394  0.0087 -0.5039  0.9224
  727TMC3    C410797   0.161   3.377  10.352  1.0272 -0.1533  0.3653
  727TMC3    C510798   0.145   3.468  10.262 -0.0018  0.0215 -0.4786
  727TMC3    C610799   0.200   3.589  10.277  0.0410 -0.3868 -0.3922
  727TMC3     C10800   0.186   3.315  10.571  0.2234 -0.1612  0.7912
  727TMC3     O10801   0.206   3.195  10.560 -0.0447  0.3637 -0.2823
  727TMC3     H10802   0.353   3.539  10.571  1.2605  0.0369 -1.2982
  727TMC3    H110803   0.106   3.284  10.338  0.0416  0.2397  1.5815
  727TMC3    H210804   0.197   3.664  10.198  1.2859  0.6708  0.5726
  727TMC3    C710805   0.073   3.434  10.140 -0.6145 -0.1774 -0.5679
  727TMC3    C810806   0.331   3.744  10.413  0.3494  0.3373  0.0149
  727TMC3    O110807   0.049   3.316  10.111  0.0334  0.2526  0.1167
  727TMC3    O210808   0.422   3.742  10.495 -0.1989 -0.3500  0.2066
  728TMC3    C110809   4.106   1.705  15.900  0.1805 -0.4601 -0.5661
  728TMC3    C210810   4.222   1.759  15.945  0.4478  0.4417 -0.4814
  728TMC3    C310811   4.319   1.800  15.856 -0.1839  0.5715 -0.1191
  728TMC3    C410812   4.080   1.692  15.768  0.2270 -0.0420  0.0312
  728TMC3    C510813   4.182   1.732  15.690 -0.8061  0.3547 -0.3513
  728TMC3    C610814   4.304   1.781  15.724  0.3499  0.3391  0.7729
  728TMC3     C10815   4.066   1.586  15.972 -0.7823  0.2199  1.3991
  728TMC3     O10816   4.151   1.534  16.045  0.2930 -0.2332 -0.3628
  728TMC3     H10817   4.232   1.779  16.051  0.1309  0.8609 -0.5319
  728TMC3    H110818   3.983   1.655  15.737  1.0784 -1.1105 -1.3363
  728TMC3    H210819   4.374   1.809  15.647 -1.7008  1.5373 -0.6380
  728TMC3    C710820   4.153   1.741  15.545  0.1295  0.0324  0.4964
  728TMC3    C810821   4.447   1.844  15.902 -0.7831 -0.6361  0.7901
  728TMC3    O110822   4.240   1.698  15.472  0.2354  0.0047  0.2638
  728TMC3    O210823   4.547   1.833  15.835  0.5932 -0.4088  0.0583
  729MPD2     C10824   0.773   3.420  16.691  0.7011 -0.3306  0.2212
  729MPD2    C110825   0.876   3.362  16.763  0.5416  0.4888 -0.2190
  729MPD2    C210826   0.901   3.395  16.892 -0.0137  0.6673 -0.6138
  729MPD2    C310827   0.817   3.472  16.967  0.3573 -0.0865 -0.1048
  729MPD2    C410828   0.702   3.518  16.908 -0.1771 -0.5155  0.1972
  729MPD2    C510829   0.681   3.487  16.773  0.1853  0.1413 -0.1208
  729MPD2     H10830   0.999   3.376  16.935 -0.6596 -2.7095 -0.6457
  729MPD2    H110831   0.631   3.582  16.959 -0.4464 -0.6337 -0.0281
  729MPD2    H210832   0.752   3.385  16.591  0.3092  2.1626 -0.5643
  729MPD2    H310833   0.588   3.529  16.737 -1.4392 -0.2274  3.5507
  729MPD2     N10834   0.847   3.528  17.093 -0.9202  0.2183 -0.4291
  729MPD2    H510835   0.777   3.582  17.143 -1.5335  0.0273 -1.0756
  729MPD2    N110836   0.968   3.289  16.685 -0.9140 -0.7639  0.0458
  729MPD2    H710837   0.965   3.310  16.586  0.9811 -0.9877 -0.0484
  730TMC3    C110838   0.981   3.603  17.277 -0.5623  0.4213 -0.3613
  730TMC3    C210839   1.107   3.641  17.308  0.2884  0.3394  0.6424
  730TMC3    C310840   1.121   3.724  17.415  1.0893 -0.3514  0.5345
  730TMC3    C410841   0.867   3.634  17.348  0.1902  0.2567 -0.0003
  730TMC3    C510842   0.887   3.720  17.456  0.4198  0.2886 -0.5578
  730TMC3    C610843   1.015   3.759  17.497 -0.4846 -0.3234  0.1389
  730TMC3     C10844   0.974   3.524  17.153 -0.7124 -0.1204  0.3077
  730TMC3     O10845   1.082   3.482  17.107 -0.0384 -0.0510 -0.6532
  730TMC3     H10846   1.187   3.624  17.236 -0.4591 -1.6851  0.3001
  730TMC3    H110847   0.769   3.593  17.326  0.2706  1.4385 -2.5520
  730TMC3    H210848   1.026   3.836  17.572  3.6185 -0.7924 -0.0165
  730TMC3    C710849   0.769   3.743  17.542  0.2724 -0.2245 -0.3553
  730TMC3    C810850   1.222   3.830  17.392 -0.5494 -0.5817  0.4105
  730TMC3    O110851   0.703   3.640  17.569 -0.0269  0.0140 -0.5037
  730TMC3    O210852   1.278   3.827  17.286 -0.2025 -0.0474 -0.0251
  731MPD2     C10853   1.388   1.252  12.328 -0.1313  0.3333 -0.2821
  731MPD2    C110854   1.521   1.292  12.323 -0.2161  0.1768 -0.4081
  731MPD2    C210855   1.572   1.344  12.442  0.3237 -0.1347 -0.2095
  731MPD2    C310856   1.501   1.341  12.563  0.1694  0.3426 -0.3717
  731MPD2    C410857   1.374   1.284  12.566 -0.3448  0.2082  0.3335
  731MPD2    C510858   1.320   1.248  12.446 -0.4605  0.4968 -0.8226
  731MPD2     H10859   1.670   1.390  12.447  0.8539 -1.4900  1.7402
  731MPD2    H110860   1.307   1.284  12.650  0.8119 -0.1083  1.2628
  731MPD2    H210861   1.334   1.224  12.238 -1.6802  0.7661  0.5137
  731MPD2    H310862   1.214   1.227  12.438 -1.2183  3.3482  1.9332
  731MPD2     N10863   1.572   1.386  12.675 -0.2156 -0.2816 -0.3146
  731MPD2    H510864   1.664   1.426  12.662 -0.5775  1.0003  1.0039
  731MPD2    N110865   1.588   1.300  12.198  0.0158 -0.3951  0.1206
  731MPD2    H710866   1.530   1.283  12.116  0.3579  0.7049 -0.3597
  732TMC3    C110867   1.728   1.348  12.026 -0.0636 -0.7326 -0.1207
  732TMC3    C210868   1.618   1.375  11.948 -0.2807 -0.5800 -0.5835
  732TMC3    C310869   1.632   1.389  11.813  0.5868 -0.0880  0.0737
  732TMC3    C410870   1.847   1.312  11.975  0.1000  0.0578 -0.2888
  732TMC3    C510871   1.855   1.322  11.840  0.0064 -0.3189 -0.6717
  732TMC3    C610872   1.755   1.361  11.756 -0.6717 -0.4908  0.0251
  732TMC3     C10873   1.715   1.322  12.164 -0.5877 -0.3475  0.1631
  732TMC3     O10874   1.812   1.333  12.234 -0.0041 -0.1145 -0.0747
  732TMC3     H10875   1.525   1.405  11.994  0.7804 -0.4697  1.5272
  732TMC3    H110876   1.922   1.271  12.041  0.9754  2.5035  0.1893
  732TMC3    H210877   1.770   1.389  11.652  1.3444 -4.4154 -0.7240
  732TMC3    C710878   1.965   1.263  11.768  0.2770  0.4437  0.5492
  732TMC3    C810879   1.522   1.411  11.725  0.5844  0.4636  0.8930
  732TMC3    O110880   1.973   1.284  11.648  0.4525 -0.0759 -0.4957
  732TMC3    O210881   1.552   1.426  11.607  0.5294  0.8853 -0.0161
  733TMC3    C110882   2.056   3.901  12.964  0.0090 -0.5406  0.9527
  733TMC3    C210883   2.187   3.871  12.959 -0.2904 -0.6106 -0.1064
  733TMC3    C310884   2.257   3.896  12.844 -0.6147  0.3127  0.1019
  733TMC3    C410885   1.994   3.944  12.860 -0.0295  1.1620  0.2252
  733TMC3    C510886   2.057   3.944  12.739 -0.1984  0.8246  0.5831
  733TMC3    C610887   2.190   3.924  12.729  0.7171  0.3963  0.1265
  733TMC3     C10888   2.003   3.926  13.097 -0.0234  0.8267 -0.2306
  733TMC3     O10889   1.923   4.024  13.108 -0.1505  0.0475 -0.5906
  733TMC3     H10890   2.247   3.836  13.043 -1.4429  1.9369  1.7805
  733TMC3    H110891   1.891   3.974  12.867 -1.2994 -2.9273 -0.5595
  733TMC3    H210892   2.237   3.911  12.632  0.0981  1.1689 -0.2751
  733TMC3    C710893   1.989   3.996  12.624  0.3434 -0.3950 -0.5544
  733TMC3    C810894   2.404   3.910  12.855 -0.1843 -0.7434  0.5628
  733TMC3    O110895   1.868   3.998  12.623 -0.2252  0.0853 -0.5454
  733TMC3    O210896   2.466   3.860  12.952  0.9051  0.3154  0.0313
  734MPD2     C10897   4.213   1.899  12.073  0.2282 -0.3730  0.2311
  734MPD2    C110898   4.251   1.786  11.998 -0.1868 -0.5063 -0.3243
  734MPD2    C210899   4.300   1.800  11.873  0.2219 -0.6005  0.3617
  734MPD2    C310900   4.301   1.922  11.817 -0.3372  0.0421  0.0450
  734MPD2    C410901   4.253   2.034  11.886 -0.3408  0.5945  0.3937
  734MPD2    C510902   4.210   2.025  12.016  0.2918 -0.1545 -0.2518
  734MPD2     H10903   4.329   1.717  11.809 -1.1883 -1.4062  0.7908
  734MPD2    H110904   4.244   2.131  11.839  0.6281  0.0550 -0.9017
  734MPD2    H210905   4.177   1.879  12.173 -2.7194 -0.4774 -0.8433
  734MPD2    H310906   4.164   2.112  12.060  0.2759 -0.0688 -0.4351
  734MPD2     N10907   4.337   1.936  11.685 -0.7450 -0.1437  0.3905
  734MPD2    H510908   4.335   1.850  11.632 -0.5210 -0.5614  1.0529
  734MPD2    N110909   4.237   1.657  12.057 -0.5468 -0.1944  0.4714
  734MPD2    H710910   4.217   1.658  12.157  1.0172  3.1311  0.7378
  735TMC3    C110911   4.272   1.416  12.075 -0.4981 -0.4321  0.4083
  735TMC3    C210912   4.230   1.300  12.009  0.0652 -0.4585 -0.1750
  735TMC3    C310913   4.315   1.199  12.009 -0.4737 -0.0601  0.4918
  735TMC3    C410914   4.381   1.426  12.163  0.4785  0.5497  0.5368
  735TMC3    C510915   4.461   1.312  12.169 -0.2029  0.1031  0.4649
  735TMC3    C610916   4.418   1.201  12.100  0.4050  0.1763 -0.2213
  735TMC3     C10917   4.249   1.533  11.994 -0.2662 -0.5481 -0.5244
  735TMC3     O10918   4.218   1.506  11.883 -0.2021  0.1687 -0.3003
  735TMC3     H10919   4.144   1.301  11.943  0.2515 -1.0326 -0.4233
  735TMC3    H110920   4.427   1.517  12.201  0.1000  0.5301  1.0426
  735TMC3    H210921   4.476   1.110  12.088 -1.3663 -0.6074 -2.6405
  735TMC3    C710922   4.603   1.337  12.154  0.1414  0.1139  0.5622
  735TMC3    C810923   4.383   1.171  11.882  0.1167  0.4300  0.0839
  735TMC3    O110924   4.651   1.289  12.054 -0.4484 -0.4556  0.2465
  735TMC3    O210925   4.444   1.067  11.869  0.3643 -0.2987 -0.5513
  736MPD2     C10926   0.063   1.611  12.312  0.3022  0.1004  0.6873
  736MPD2    C110927   0.026   1.523  12.210 -0.2000  0.1453  0.3311
  736MPD2    C210928   0.100   1.518  12.092 -0.4028 -0.4320 -0.1140
  736MPD2    C310929   0.201   1.609  12.073 -0.7371  0.1997  0.3769
  736MPD2    C410930   0.226   1.710  12.166 -0.1780 -0.2078  0.1417
  736MPD2    C510931   0.165   1.705  12.291  0.1931  0.4805  0.0128
  736MPD2     H10932   0.064   1.456  12.011 -1.4697 -0.4058  0.3389
  736MPD2    H110933   0.289   1.796  12.148 -1.0242  0.0408 -1.7063
  736MPD2    H210934   0.017   1.598  12.409  0.8183  1.6789  1.1438
  736MPD2    H310935   0.199   1.779  12.363  0.0943 -1.0288  1.6309
  736MPD2     N10936   0.277   1.604  11.955 -0.1369 -0.2017  0.7111
  736MPD2    H510937   0.339   1.682  11.936 -1.7213  0.7623 -0.5956
  736MPD2    N110938   4.646   1.444  12.235 -0.8002 -0.2237  0.3600
  736MPD2    H710939   4.599   1.465  12.323 -2.1944 -0.0648 -0.4121
  737TMC3    C110940   0.356   1.508  11.751  0.0270  0.1868  0.5201
  737TMC3    C210941   0.369   1.629  11.687  0.4540  0.8354 -0.6000
  737TMC3    C310942   0.438   1.639  11.568  0.7678 -0.1575  0.7217
  737TMC3    C410943   0.412   1.400  11.689 -0.0924 -0.0680 -0.0841
  737TMC3    C510944   0.477   1.410  11.566 -0.2406  0.4472  0.0462
  737TMC3    C610945   0.483   1.532  11.496 -0.1054  0.0212 -0.5791
  737TMC3     C10946   0.291   1.490  11.879 -0.3842 -0.4526 -1.0317
  737TMC3     O10947   0.251   1.374  11.900 -0.0382  0.0831  0.0849
  737TMC3     H10948   0.339   1.722  11.734  2.7402  0.6870  1.1735
  737TMC3    H110949   0.394   1.303  11.734 -1.9107  0.2184 -0.1955
  737TMC3    H210950   0.521   1.529  11.395  1.2105 -1.8003 -0.0421
  737TMC3    C710951   0.555   1.293  11.534 -0.1398 -1.1782 -0.1860
  737TMC3    C810952   0.442   1.778  11.511 -0.2264  0.2931 -0.2828
  737TMC3    O110953   0.525   1.189  11.588 -0.1945  0.0371  0.0424
  737TMC3    O210954   0.401   1.873  11.574  0.3342  0.3114 -0.2837
  738MPD2     C10955   0.425   0.157  15.259  0.0815  0.5178 -0.6590
  738MPD2    C110956   0.392   0.122  15.127 -0.5357  0.2214  0.7069
  738MPD2    C210957   0.405   0.224  15.035  0.7054 -0.7220 -0.5233
  738MPD2    C310958   0.458   0.352  15.062  0.0118  0.4557 -0.3028
  738MPD2    C410959   0.497   0.375  15.194  0.1364 -0.2539 -0.3152
  738MPD2    C510960   0.471   0.278  15.289  0.4898  0.6138  0.1460
  738MPD2     H10961   0.390   0.200  14.931 -1.3757  0.2319 -0.4353
  738MPD2    H110962   0.556   0.460  15.226 -2.1498  0.6158  1.5969
  738MPD2    H210963   0.397   0.093  15.343  0.3632  2.1781  0.7042
  738MPD2    H310964   0.489   0.312  15.390  0.1518 -1.0334  0.7644
  738MPD2     N10965   0.488   0.449  14.957  0.1030  0.2576 -0.5718
  738MPD2    H510966   0.538   0.533  14.986 -1.2021 -0.1466  2.8082
  738MPD2    N110967   0.339   4.732  15.081  0.5498  0.0186 -0.3598
  738MPD2    H710968   0.309   4.722  14.984 -0.4693  1.2888 -0.1766
  739TMC3    C110969   0.515   0.552  14.748 -0.5431 -0.2605  0.3078
  739TMC3    C210970   0.456   0.575  14.629  0.3069 -0.6765 -1.0165
  739TMC3    C310971   0.511   0.664  14.547  0.1359  0.4579  0.0015
  739TMC3    C410972   0.637   0.610  14.785  0.2848 -0.1335  0.2473
  739TMC3    C510973   0.693   0.705  14.696  1.0202 -0.4850  0.2021
  739TMC3    C610974   0.630   0.724  14.573 -0.1253 -0.4585 -0.0995
  739TMC3     C10975   0.456   0.441  14.825 -0.6414 -0.0963  0.1560
  739TMC3     O10976   0.378   0.372  14.765  0.1181 -0.4135 -0.0200
  739TMC3     H10977   0.365   0.527  14.593  0.3583 -0.8792 -0.8825
  739TMC3    H110978   0.684   0.576  14.876  2.4498  0.0433 -0.7938
  739TMC3    H210979   0.668   0.800  14.505 -0.9526  1.3164  1.4304
  739TMC3    C710980   0.797   0.796  14.742 -0.4089 -0.7687 -0.4840
  739TMC3    C810981   0.468   0.661  14.404 -0.2441  0.6490  0.3491
  739TMC3    O110982   0.857   0.860  14.660  0.2831  0.4154  0.2210
  739TMC3    O210983   0.361   0.616  14.386 -0.2870  0.3514  0.6011
  740TMC3    C110984   1.259   1.561  14.474 -0.0173 -0.0527 -0.9563
  740TMC3    C210985   1.263   1.456  14.570  0.1431 -0.0850  0.1510
  740TMC3    C310986   1.380   1.397  14.594 -0.7044  0.2706 -0.7391
  740TMC3    C410987   1.370   1.597  14.402  0.0778 -0.5300 -0.6819
  740TMC3    C510988   1.484   1.528  14.429 -0.1664  0.6017  0.3658
  740TMC3    C610989   1.495   1.430  14.525 -0.9984 -0.1960 -0.3112
  740TMC3     C10990   1.143   1.640  14.456 -0.7123  0.0955 -0.5819
  740TMC3     O10991   1.151   1.740  14.386  0.0701  0.3589 -0.3748
  740TMC3     H10992   1.182   1.422  14.633  0.4800 -3.1149 -1.0318
  740TMC3    H110993   1.367   1.682  14.334 -1.9924 -0.0460  0.0039
  740TMC3    H210994   1.592   1.392  14.556 -2.6411 -2.0096  2.5839
  740TMC3    C710995   1.600   1.556  14.351 -0.3918  0.2712  0.0672
  740TMC3    C810996   1.394   1.332  14.723  0.0097 -1.1764  0.1077
  740TMC3    O110997   1.708   1.521  14.398  0.3167 -0.1720  0.1184
  740TMC3    O210998   1.340   1.377  14.822  1.0343  0.2407 -0.3406
  741TMC3    C110999   0.143   1.476  14.037  0.4479 -0.0683 -0.4266
  741TMC3    C211000   0.109   1.344  14.084  0.1734  0.3718  0.1242
  741TMC3    C311001   0.207   1.270  14.137 -0.2530  0.2696  0.0239
  741TMC3    C411002   0.274   1.510  14.019 -0.6464  0.1583  0.1386
  741TMC3    C511003   0.370   1.423  14.067 -0.7216 -0.0001 -0.1996
  741TMC3    C611004   0.336   1.304  14.119  0.8301 -0.0402  0.2656
  741TMC3     C11005   0.043   1.558  13.970 -0.3181  0.0077 -0.3677
  741TMC3     O11006   0.077   1.662  13.920 -0.0142  0.0911 -0.7976
  741TMC3     H11007   0.008   1.321  14.116  1.0150 -2.1667  0.9502
  741TMC3    H111008   0.303   1.606  13.979 -1.3031  0.9718  1.5996
  741TMC3    H211009   0.420   1.242  14.149  0.4844 -0.6863 -0.1081
  741TMC3    C711010   0.503   1.427  14.004  0.4956 -0.1907 -0.3510
  741TMC3    C811011   0.185   1.139  14.188  0.9858  0.2954 -0.2333
  741TMC3    O111012   0.520   1.524  13.929 -0.4272 -0.1806 -0.1700
  741TMC3    O211013   0.278   1.088  14.245  0.5649  0.5611  0.3349
  742TMC3    C111014   0.844   0.112  15.318 -0.0626  0.2133  0.0811
  742TMC3    C211015   0.829   0.137  15.186 -0.7411 -0.5188  0.2428
  742TMC3    C311016   0.889   0.046  15.099  0.0129  0.3627 -0.3291
  742TMC3    C411017   0.933   0.026  15.374  1.1845 -0.4257 -0.4026
  742TMC3    C511018   1.001   4.683  15.285 -0.4445  0.2874  0.0481
  742TMC3    C611019   0.973   4.690  15.149  0.2141  0.0236 -0.5550
  742TMC3     C11020   0.781   0.205  15.408 -0.1986 -0.1723  0.1333
  742TMC3     O11021   0.770   0.320  15.372 -0.1778  0.2412  0.5356
  742TMC3     H11022   0.746   0.194  15.149 -0.8211  0.1588  1.4782
  742TMC3    H111023   0.960   0.028  15.479  1.3993  0.0526 -0.4674
  742TMC3    H211024   1.018   4.616  15.084 -0.1300 -1.5752  1.0558
  742TMC3    C711025   1.074   4.567  15.326  0.2258  0.4263 -0.2014
  742TMC3    C811026   0.793   4.729  15.002 -0.3393  1.0419 -0.3463
  742TMC3    O111027   1.159   4.524  15.252  0.5747  0.0827 -0.1003
  742TMC3    O211028   0.769   4.612  15.024  0.1584  0.1102 -0.1881
  743MPD2     C11029   2.463   1.656   1.401 -0.1586  0.3284  0.7384
  743MPD2    C111030   2.523   1.533   1.376  0.0386  0.3695  0.2903
  743MPD2    C211031   2.605   1.480   1.467  0.2490 -0.0039  0.0781
  743MPD2    C311032   2.660   1.552   1.577  0.6993 -0.1512 -0.1323
  743MPD2    C411033   2.608   1.677   1.594 -0.4295  0.7819 -0.0789
  743MPD2    C511034   2.501   1.723   1.514  1.0503  0.2131 -0.4168
  743MPD2     H11035   2.646   1.381   1.449  0.7821  0.1733  0.3045
  743MPD2    H111036   2.627   1.733   1.684 -1.2178  0.6011  0.2049
  743MPD2    H211037   2.375   1.700   1.357  0.7826  1.3576 -0.1128
  743MPD2    H311038   2.437   1.808   1.531 -0.3405 -0.6404 -1.4013
  743MPD2     N11039   2.759   1.493   1.650  0.0764 -0.4768  0.2733
  743MPD2    H511040   2.781   1.396   1.626  1.1121  0.0193 -0.7600
  743MPD2    N111041   2.481   1.464   1.264  0.1420 -0.3365  0.0912
  743MPD2    H711042   2.415   1.512   1.203  2.7974  1.3895 -1.3910
  744TMC3    C111043   2.528   1.335   1.066 -0.0746  0.3979 -0.3239
  744TMC3    C211044   2.395   1.330   1.035 -0.0835 -0.2023 -0.3637
  744TMC3    C311045   2.369   1.250   0.924 -0.0559 -0.0647  1.5321
  744TMC3    C411046   2.630   1.284   0.991  0.4188  0.9009  0.8650
  744TMC3    C511047   2.592   1.217   0.878 -0.1636  0.9634  0.2291
  744TMC3    C611048   2.466   1.196   0.841 -0.3618  0.0716  0.5342
  744TMC3     C11049   2.566   1.375   1.202  0.3230  0.7473  0.0195
  744TMC3     O11050   2.682   1.341   1.230  0.2679  0.0010  0.4867
  744TMC3     H11051   2.320   1.376   1.097 -0.3108  1.0705 -1.5730
  744TMC3    H111052   2.733   1.284   1.023  0.7810  0.0347 -0.2943
  744TMC3    H211053   2.439   1.154   0.745 -0.2229 -0.9811  0.9563
  744TMC3    C711054   2.689   1.138   0.810 -0.3733 -0.4224 -0.2794
  744TMC3    C811055   2.238   1.278   0.869 -0.1765 -0.6002 -0.1455
  744TMC3    O111056   2.802   1.169   0.834 -0.2249  0.1202 -0.3862
  744TMC3    O211057   2.172   1.371   0.910  0.0252  0.3973 -0.3019
  745TMC3    C111058   0.980   3.759  14.034  0.0684 -0.2809 -0.3791
  745TMC3    C211059   0.844   3.772  14.060 -0.1156 -0.2355 -0.1408
  745TMC3    C311060   0.750   3.776  13.958  0.2880  0.2854  0.4202
  745TMC3    C411061   1.015   3.737  13.903 -0.1713 -0.1417 -0.1666
  745TMC3    C511062   0.926   3.740  13.803 -0.2498  0.1394 -0.6729
  745TMC3    C611063   0.794   3.761  13.828 -0.2625 -0.0189  0.4761
  745TMC3     C11064   1.029   3.876  14.093 -0.5016  0.1985 -0.1323
  745TMC3     O11065   0.942   3.954  14.128  0.1472 -0.3122 -0.1492
  745TMC3     H11066   0.805   3.765  14.161 -1.3357 -0.6977 -0.6338
  745TMC3    H111067   1.116   3.705  13.881 -0.6695 -2.9243  1.5449
  745TMC3    H211068   0.734   3.773  13.739 -0.1937 -0.0762  0.4217
  745TMC3    C711069   0.983   3.767  13.672 -0.1801  0.7517 -0.2703
  745TMC3    C811070   0.629   3.869  13.977 -0.5001  0.4390 -0.6717
  745TMC3    O111071   0.945   3.697  13.581  0.2603 -0.0501  0.4938
  745TMC3    O211072   0.535   3.868  13.895 -0.6127 -0.1453 -0.5956
  746TMC3    C111073   3.569   1.413  11.376 -0.7271  0.0368 -0.0452
  746TMC3    C211074   3.672   1.379  11.303 -0.3158 -0.6928  0.4536
  746TMC3    C311075   3.655   1.270  11.226 -0.0703  0.3214 -0.2138
  746TMC3    C411076   3.452   1.349  11.391 -0.2323 -0.0403  0.4875
  746TMC3    C511077   3.443   1.233  11.317 -0.3186 -0.4636  0.4565
  746TMC3    C611078   3.543   1.195  11.226 -0.2039 -0.2229 -0.7556
  746TMC3     C11079   3.550   1.552  11.397  0.1281  0.4164 -0.3658
  746TMC3     O11080   3.508   1.574  11.509  0.2818  0.0885 -0.3195
  746TMC3     H11081   3.760   1.443  11.305 -2.1055  1.7663  0.3343
  746TMC3    H111082   3.365   1.397  11.434 -0.5764  1.1834 -1.5827
  746TMC3    H211083   3.521   1.106  11.169  0.5627 -0.7945 -0.1380
  746TMC3    C711084   3.317   1.202  11.263  0.3436 -0.0204  0.2416
  746TMC3    C811085   3.750   1.248  11.119 -0.5892 -0.3300  0.4642
  746TMC3    O111086   3.317   1.184  11.142 -0.2264 -0.2133 -0.0902
  746TMC3    O211087   3.836   1.336  11.119 -0.2594 -0.5887 -0.2711
  747TMC3    C111088   1.276   1.294  10.828  0.0809 -0.1478  0.0367
  747TMC3    C211089   1.228   1.204  10.919 -0.6457  0.3802 -0.2378
  747TMC3    C311090   1.237   1.235  11.052 -0.5308 -0.6322 -0.8481
  747TMC3    C411091   1.352   1.395  10.876  0.5987  0.7909  0.5653
  747TMC3    C511092   1.369   1.423  11.011  0.5851 -0.3796  0.1181
  747TMC3    C611093   1.308   1.341  11.103  0.5861  0.1057  0.3130
  747TMC3     C11094   1.261   1.279  10.683  0.4225 -0.3112 -0.1013
  747TMC3     O11095   1.278   1.386  10.625 -0.2030  0.0002 -0.9222
  747TMC3     H11096   1.154   1.127  10.902  1.3610 -1.2353 -1.7077
  747TMC3    H111097   1.392   1.464  10.803  0.1088  0.6030  0.1241
  747TMC3    H211098   1.324   1.350  11.210 -0.7246 -0.1164  0.5288
  747TMC3    C711099   1.426   1.546  11.063 -0.0302  0.5401  0.7801
  747TMC3    C811100   1.165   1.148  11.140  0.5573 -0.5865 -0.8607
  747TMC3    O111101   1.416   1.561  11.183 -0.2631  0.5621  0.1201
  747TMC3    O211102   1.169   1.030  11.117  0.4139  0.8888  0.4515
  748MPD2     C11103   2.374   1.656   0.916 -0.1488  0.1387  0.3918
  748MPD2    C111104   2.296   1.752   0.980  0.2125  0.3241  0.3789
  748MPD2    C211105   2.352   1.860   1.052  0.3515 -0.3269 -0.6728
  748MPD2    C311106   2.486   1.847   1.067 -0.2049 -0.3905  0.5079
  748MPD2    C411107   2.567   1.756   0.999 -0.3934  0.4216  0.2309
  748MPD2    C511108   2.508   1.660   0.923  0.1538 -0.3105 -0.2389
  748MPD2     H11109   2.300   1.937   1.109 -1.7089 -0.5078 -2.2816
  748MPD2    H111110   2.675   1.756   1.006 -0.3721  1.5690  0.0161
  748MPD2    H211111   2.328   1.574   0.862 -0.7132  1.4475 -1.1255
  748MPD2    H311112   2.569   1.590   0.868 -1.3202 -1.6258 -0.2105
  748MPD2     N11113   2.547   1.952   1.139  0.5524  0.5032  0.4322
  748MPD2    H511114   2.487   2.026   1.173 -1.8103 -0.6641 -1.2436
  748MPD2    N111115   2.159   1.739   0.962  0.5584 -0.5265 -0.6337
  748MPD2    H711116   2.121   1.672   0.896  0.1054  2.0428 -2.9949
  749TMC3    C111117   2.690   2.070   1.287  0.5485  0.5274  0.4543
  749TMC3    C211118   2.749   2.046   1.404  0.2341 -0.5178 -0.4438
  749TMC3    C311119   2.788   2.158   1.477 -0.3103 -0.8076 -0.2185
  749TMC3    C411120   2.671   2.197   1.233 -0.7250 -0.6364  0.1713
  749TMC3    C511121   2.722   2.308   1.306 -0.2051  0.2699  0.4217
  749TMC3    C611122   2.769   2.289   1.437 -0.1814  0.6902  0.1864
  749TMC3     C11123   2.673   1.949   1.201 -0.2747 -0.2655  0.4472
  749TMC3     O11124   2.741   1.850   1.222 -0.1651  0.1428 -0.1349
  749TMC3     H11125   2.760   1.940   1.428  0.5465 -0.8529 -2.0720
  749TMC3    H111126   2.638   2.202   1.130  0.6298  0.8443 -0.1970
  749TMC3    H211127   2.809   2.378   1.484  2.0029  1.4768 -3.1941
  749TMC3    C711128   2.757   2.429   1.237 -0.6708 -0.2022  0.0626
  749TMC3    C811129   2.877   2.130   1.589 -0.2400 -0.2677 -0.1016
  749TMC3    O111130   2.767   2.534   1.297 -0.8863 -0.7334  0.7282
  749TMC3    O211131   2.907   2.230   1.654 -1.0459 -0.6585 -0.9756
  750MPD2     C11132   3.302   3.329  11.353 -0.0817  0.1121  0.3809
  750MPD2    C111133   3.199   3.245  11.378 -0.6381 -0.2939  0.0336
  750MPD2    C211134   3.169   3.140  11.293  0.5186  0.1313  0.3187
  750MPD2    C311135   3.259   3.103  11.191 -0.5430 -0.2014 -0.0255
  750MPD2    C411136   3.355   3.199  11.161  0.0181  0.3403  0.3293
  750MPD2    C511137   3.376   3.302  11.239  0.1876 -1.0684 -0.0339
  750MPD2     H11138   3.088   3.078  11.329  2.8568 -2.8488  0.3572
  750MPD2    H111139   3.423   3.191  11.077 -1.5094  2.3657 -1.0797
  750MPD2    H211140   3.331   3.405  11.423  2.5380 -0.8643  0.3425
  750MPD2    H311141   3.458   3.369  11.217 -0.4524 -0.2897 -0.0076
  750MPD2     N11142   3.264   2.985  11.110  0.3481 -0.6004 -0.0420
  750MPD2    H511143   3.330   2.981  11.033 -0.0488  0.6870 -0.4502
  750MPD2    N111144   3.131   3.272  11.500  0.2637  0.4855  0.8027
  750MPD2    H711145   3.154   3.356  11.552  0.3514 -0.4200  2.2131
  751TMC3    C111146   3.185   2.775  11.040  0.3907  0.7283 -0.1580
  751TMC3    C211147   3.120   2.669  11.082  0.4820 -0.3704 -0.1899
  751TMC3    C311148   3.152   2.548  11.027  0.6991  0.5910  0.1911
  751TMC3    C411149   3.295   2.770  10.948  0.4156 -0.0918 -0.8506
  751TMC3    C511150   3.320   2.649  10.885  0.3628 -0.0652 -0.0277
  751TMC3    C611151   3.251   2.533  10.927 -0.4476 -0.2660  0.2898
  751TMC3     C11152   3.168   2.887  11.124 -0.0562 -0.0023 -0.0874
  751TMC3     O11153   3.096   2.876  11.223 -0.2380 -0.0397  0.3700
  751TMC3     H11154   3.035   2.684  11.148  1.0185 -0.3008  0.4899
  751TMC3    H111155   3.343   2.856  10.903 -0.0189 -0.4206 -1.9514
  751TMC3    H211156   3.271   2.437  10.881 -0.5933 -0.1895  0.0657
  751TMC3    C711157   3.419   2.646  10.790  0.0770 -0.5223 -0.6808
  751TMC3    C811158   3.101   2.422  11.082 -0.3182 -0.6201 -0.0745
  751TMC3    O111159   3.442   2.741  10.710  0.1078 -0.9857 -0.0356
  751TMC3    O211160   3.132   2.320  11.029  0.6841 -0.1782 -0.1252
  752TMC3    C111161   1.870   3.028  17.485 -0.7503 -0.1134  0.3259
  752TMC3    C211162   1.903   2.936  17.576  0.3889  0.3795  0.1109
  752TMC3    C311163   1.897   2.982  17.706  0.3705 -0.0634 -1.1428
  752TMC3    C411164   1.821   3.154  17.506 -0.2262  0.4336  0.4908
  752TMC3    C511165   1.811   3.186  17.638  0.9110 -0.2381  0.9372
  752TMC3    C611166   1.848   3.105  17.737 -0.0664 -0.5680 -0.1813
  752TMC3     C11167   1.876   2.981  17.351  0.5711  0.2318  0.1954
  752TMC3     O11168   1.953   2.891  17.327  0.4756 -0.0552  0.3678
  752TMC3     H11169   1.951   2.841  17.556  1.6891  0.8538  0.9144
  752TMC3    H111170   1.798   3.228  17.430  1.8933  0.0259 -0.5424
  752TMC3    H211171   1.817   3.120   0.093  1.5676 -1.6241  0.4553
  752TMC3    C711172   1.773   3.322  17.681  0.3338  0.1710 -0.2352
  752TMC3    C811173   1.910   2.873   0.059  0.5057  0.1232  0.0567
  752TMC3    O111174   1.807   3.343   0.050  0.2434  0.8847 -0.4829
  752TMC3    O211175   1.930   2.761   0.022  0.8312  0.0681  0.3802
  753TMC3    C111176   4.007   3.838  13.415  0.2230  0.0760 -0.3220
  753TMC3    C211177   4.087   3.837  13.524 -0.1720  0.0148 -0.4159
  753TMC3    C311178   4.145   3.716  13.562 -0.3983 -0.4170  0.3536
  753TMC3    C411179   3.994   3.731  13.330  0.3195 -1.4812  0.0564
  753TMC3    C511180   4.067   3.616  13.367  0.6042 -0.5808 -0.2191
  753TMC3    C611181   4.138   3.608  13.483 -0.3407 -0.2337 -0.0305
  753TMC3     C11182   3.936   3.955  13.385 -0.4364 -0.1391  0.1398
  753TMC3     O11183   3.827   3.930  13.331 -0.3291  0.8557 -0.1030
  753TMC3     H11184   4.097   3.933  13.573  1.1421  0.4700 -1.5890
  753TMC3    H111185   3.941   3.753  13.238  2.9098  0.6391 -0.9400
  753TMC3    H211186   4.196   3.524  13.518  0.7304  0.0171 -1.2059
  753TMC3    C711187   4.071   3.502  13.286 -0.0394  0.0442 -0.0859
  753TMC3    C811188   4.227   3.711  13.680 -0.2588 -0.0741  0.0787
  753TMC3    O111189   4.160   3.425  13.308 -0.0076  0.0271 -0.1636
  753TMC3    O211190   4.284   3.609  13.712  0.2874  0.0511 -0.2336
  754MPD2     C11191   2.687   3.054  13.057 -0.0965  0.6534 -0.0046
  754MPD2    C111192   2.741   2.929  13.080  0.2951  0.0223  0.5447
  754MPD2    C211193   2.662   2.815  13.082  0.6941 -0.6457 -0.2095
  754MPD2    C311194   2.522   2.824  13.078  0.0499 -0.6337  0.7280
  754MPD2    C411195   2.474   2.950  13.056  0.0437  0.1826 -0.2573
  754MPD2    C511196   2.556   3.057  13.033  0.4372 -0.8498  0.3572
  754MPD2     H11197   2.709   2.718  13.095 -3.5020 -2.4451  1.6756
  754MPD2    H111198   2.368   2.969  13.047 -0.2399 -2.0936 -1.5679
  754MPD2    H211199   2.740   3.149  13.060 -1.5124  1.4363  0.0146
  754MPD2    H311200   2.520   3.159  13.023  0.8690 -0.5810  1.6279
  754MPD2     N11201   2.426   2.719  13.100  0.1107 -0.5643 -0.0967
  754MPD2    H511202   2.327   2.744  13.098 -0.0503 -1.3890 -2.6450
  754MPD2    N111203   2.881   2.935  13.108 -0.1652  0.1567 -0.5336
  754MPD2    H711204   2.918   3.027  13.084 -0.6961  0.0507 -1.7567
  755MPD2     C11205   1.637   2.910  13.293  0.3263  0.4693 -0.0260
  755MPD2    C111206   1.643   2.794  13.371  0.0932 -0.0900 -0.6154
  755MPD2    C211207   1.754   2.708  13.357 -0.2745 -0.2606  0.0352
  755MPD2    C311208   1.854   2.736  13.262 -0.3028 -0.1361  0.6918
  755MPD2    C411209   1.834   2.847  13.181  0.4746 -0.1933  0.0327
  755MPD2    C511210   1.726   2.933  13.194 -0.3214 -0.7815 -0.1371
  755MPD2     H11211   1.760   2.620  13.419 -2.8434 -1.2249 -1.0741
  755MPD2    H111212   1.915   2.869  13.113 -0.4659 -1.5776 -1.5208
  755MPD2    H211213   1.554   2.977  13.311  0.0414 -0.1436  0.9835
  755MPD2    H311214   1.714   3.029  13.146 -1.3640 -1.2512 -0.8076
  755MPD2     N11215   1.977   2.668  13.249 -0.1128  0.3747 -0.8996
  755MPD2    H511216   2.043   2.700  13.179  0.1482  0.9831 -0.3841
  755MPD2    N111217   1.539   2.755  13.461  0.7276 -0.0272 -0.0763
  755MPD2    H711218   1.546   2.658  13.490 -1.5094  0.3323  1.6151
  756MPD2     C11219   3.280   4.604  10.047 -0.3281  0.5685 -0.4149
  756MPD2    C111220   3.189   4.506  10.088  0.1354 -0.3314 -1.1182
  756MPD2    C211221   3.082   4.486   9.996  1.0408  0.9380  0.3984
  756MPD2    C311222   3.063   4.565   9.881 -0.0416  0.3789  0.1235
  756MPD2    C411223   3.155   4.662   9.860 -0.2647 -0.5221  0.0998
  756MPD2    C511224   3.263   4.678   9.935  0.5913  0.2342 -0.5199
  756MPD2     H11225   3.014   4.410  10.031  0.3754  1.0620 -0.6255
  756MPD2    H111226   3.151   4.711   9.764 -0.0230 -0.1444  0.2860
  756MPD2    H211227   3.366   4.633  10.106  0.3539 -2.2111 -0.0536
  756MPD2    H311228   3.331   0.020   9.907 -0.1774  0.5407 -1.5285
  756MPD2     N11229   2.961   4.526   9.791 -0.3783 -0.2996  0.5574
  756MPD2    H511230   2.891   4.458   9.818  0.3269 -0.6213  1.5821
  756MPD2    N111231   3.193   4.421  10.200 -0.3748  0.2411  0.3076
  756MPD2    H711232   3.120   4.352  10.212  0.9002 -1.2008 -0.1868
  757MPD2     C11233   2.080   4.115   9.675 -0.0685  0.1120 -0.6816
  757MPD2    C111234   2.145   4.084   9.554 -0.1425 -0.2831  0.2148
  757MPD2    C211235   2.257   4.157   9.528  0.1297  0.2184 -0.0867
  757MPD2    C311236   2.304   4.263   9.610 -0.1562 -1.0646  0.4148
  757MPD2    C411237   2.247   4.282   9.733  0.4122 -1.8187  0.5253
  757MPD2    C511238   2.138   4.204   9.761  0.6633  0.5996  0.1564
  757MPD2     H11239   2.310   4.144   9.434 -0.7791 -1.8713 -0.3020
  757MPD2    H111240   2.276   4.357   9.805  1.5458 -1.2591 -0.5049
  757MPD2    H211241   1.990   4.065   9.709  0.2420  1.0586  1.5678
  757MPD2    H311242   2.087   4.223   9.855  0.2083 -2.3013  0.4843
  757MPD2     N11243   2.418   4.337   9.576 -0.0954 -0.0227  0.1834
  757MPD2    H511244   2.450   4.318   9.481 -0.5875  1.1903 -0.2201
  757MPD2    N111245   2.109   3.978   9.472  0.0674 -0.2582  0.5835
  757MPD2    H711246   2.031   3.921   9.504  1.8175 -3.1617 -0.4274
  758MPD2     C11247   2.789   2.309  15.837 -0.1894 -0.6019 -0.1470
  758MPD2    C111248   2.797   2.217  15.937 -0.3517 -0.3187  0.2311
  758MPD2    C211249   2.720   2.231  16.054  0.4290  0.1734  0.2353
  758MPD2    C311250   2.637   2.344  16.075 -0.0684  0.6910 -0.2872
  758MPD2    C411251   2.629   2.432  15.972 -0.0430 -0.6301 -0.2201
  758MPD2    C511252   2.696   2.411  15.851 -0.1529 -0.0201 -0.2428
  758MPD2     H11253   2.713   2.141  16.114 -1.6237  0.3248  0.2229
  758MPD2    H111254   2.561   2.516  15.983 -0.2975 -0.6319 -1.7968
  758MPD2    H211255   2.836   2.299  15.739 -0.7573 -0.8532 -0.3926
  758MPD2    H311256   2.683   2.483  15.770  0.1398  0.3794  0.0661
  758MPD2     N11257   2.565   2.362  16.196  0.0064 -0.4704  0.1818
  758MPD2    H511258   2.520   2.453  16.198  0.5863 -0.2662  3.5905
  758MPD2    N111259   2.879   2.109  15.911  0.8259  0.2705  0.5073
  758MPD2    H711260   2.925   2.113  15.820  1.6301 -1.7637  0.8356
  759MPD2     C11261   1.661   1.186  10.575 -0.4403  0.1930 -0.6189
  759MPD2    C111262   1.618   1.127  10.461  1.1028  0.4836 -0.2728
  759MPD2    C211263   1.659   1.186  10.342  0.5974 -0.1811 -0.0454
  759MPD2    C311264   1.732   1.302  10.338 -0.2548  0.2028  0.3011
  759MPD2    C411265   1.780   1.355  10.458 -0.3291 -0.3280 -0.0940
  759MPD2    C511266   1.728   1.299  10.572 -0.1713 -0.6236 -0.0721
  759MPD2     H11267   1.622   1.145  10.249 -0.3522  1.3836 -0.3588
  759MPD2    H111268   1.831   1.449  10.475 -0.1162 -0.1269 -1.8853
  759MPD2    H211269   1.634   1.148  10.674  2.3466 -3.7087 -1.3812
  759MPD2    H311270   1.761   1.343  10.666 -0.3588  4.1821 -2.2592
  759MPD2     N11271   1.771   1.358  10.209 -0.2890 -0.3401 -0.0431
  759MPD2    H511272   1.741   1.303  10.129 -0.0757 -1.7021  0.8144
  759MPD2    N111273   1.560   0.999  10.456  0.5110  0.3320 -0.4603
  759MPD2    H711274   1.535   0.959  10.366 -0.4743  1.6916 -0.7998
  760MPD2     C11275   1.480   3.005  11.839  0.2932 -0.1846  0.6669
  760MPD2    C111276   1.459   2.957  11.971 -0.2511 -0.1491 -0.3097
  760MPD2    C211277   1.491   2.824  11.994  0.8493 -0.0485  0.3229
  760MPD2    C311278   1.552   2.744  11.899  0.1570  0.1150  0.1417
  760MPD2    C411279   1.584   2.803  11.778 -0.4642  0.7217  0.1197
  760MPD2    C511280   1.550   2.931  11.754  0.1106 -0.3249  0.7451
  760MPD2     H11281   1.473   2.789  12.095 -0.0199  0.3002  0.2851
  760MPD2    H111282   1.614   2.737  11.698 -1.0607  0.1418  0.3753
  760MPD2    H211283   1.445   3.102  11.805  1.8393  0.0948 -0.1085
  760MPD2    H311284   1.582   2.972  11.659 -1.0217 -0.5732  0.2549
  760MPD2     N11285   1.587   2.613  11.910 -0.1986  0.5609 -0.9538
  760MPD2    H511286   1.646   2.570  11.840  1.2432  0.2374  0.4446
  760MPD2    N111287   1.401   3.030  12.074 -0.5754 -0.0149 -0.2320
  760MPD2    H711288   1.385   2.986  12.164 -1.0924  0.3252 -0.1544
  761MPD2     C11289   2.727   2.148  11.284 -1.0717  0.1533  1.2382
  761MPD2    C111290   2.817   2.117  11.181 -0.4234  0.1762  0.6894
  761MPD2    C211291   2.902   2.211  11.138 -0.2773  0.0309 -0.6495
  761MPD2    C311292   2.915   2.332  11.207 -0.2978  0.5126 -0.2682
  761MPD2    C411293   2.823   2.358  11.310 -0.1361  0.4407 -0.6056
  761MPD2    C511294   2.732   2.272  11.342  0.0653 -1.2466  0.2284
  761MPD2     H11295   2.976   2.176  11.067 -0.1217 -3.0449  1.0122
  761MPD2    H111296   2.826   2.451  11.365  2.1394 -0.0233  0.0374
  761MPD2    H211297   2.663   2.068  11.317 -0.6028  0.2658  2.4006
  761MPD2    H311298   2.669   2.289  11.429  0.5198 -0.2376  0.3654
  761MPD2     N11299   3.007   2.434  11.182  0.4273 -0.2547 -0.2029
  761MPD2    H511300   3.016   2.518  11.237  0.3205  0.2875 -1.0163
  761MPD2    N111301   2.825   1.984  11.130  0.1515 -0.5958 -0.4442
  761MPD2    H711302   2.781   1.903  11.173 -0.4894 -1.0713 -1.9888
  762MPD2     C11303   3.436   2.007  10.687 -0.5673 -0.2587 -0.4397
  762MPD2    C111304   3.422   1.870  10.723 -0.3629  0.1018 -0.3874
  762MPD2    C211305   3.501   1.774  10.664 -0.3576 -0.9471 -0.8102
  762MPD2    C311306   3.597   1.817  10.564 -0.1770 -0.3775 -0.7953
  762MPD2    C411307   3.601   1.947  10.529 -0.3718  0.3998  0.1269
  762MPD2    C511308   3.528   2.041  10.595  0.0547  0.3923  0.1066
  762MPD2     H11309   3.503   1.674  10.705 -0.3080 -1.9638 -3.2994
  762MPD2    H111310   3.662   1.986  10.448 -0.8416 -1.9098 -1.3232
  762MPD2    H211311   3.375   2.088  10.726  1.6320  0.3431  1.7158
  762MPD2    H311312   3.536   2.146  10.569  1.6183  0.5537  1.2350
  762MPD2     N11313   3.686   1.719  10.501  0.0480  0.5231 -0.3225
  762MPD2    H511314   3.675   1.620  10.518  0.8562  0.2792 -1.2129
  762MPD2    N111315   3.325   1.838  10.816 -0.9215  0.5942  1.2561
  762MPD2    H711316   3.282   1.918  10.862 -0.8826  0.1854  1.9927
  763MPD2     C11317   0.246   2.583  16.104 -0.0176 -0.4821  0.8164
  763MPD2    C111318   0.145   2.514  16.176 -0.4145 -0.9822 -0.3489
  763MPD2    C211319   0.086   2.579  16.282 -0.0078  0.1943 -0.6301
  763MPD2    C311320   0.115   2.709  16.309 -0.6104  0.5651 -0.7240
  763MPD2    C411321   0.218   2.772  16.238 -0.1794 -0.0623 -0.1631
  763MPD2    C511322   0.287   2.705  16.142  0.4050 -0.2600  0.1795
  763MPD2     H11323   0.013   2.522  16.338  0.2708  0.7313  0.2722
  763MPD2    H111324   0.247   2.870  16.274 -0.3138 -0.4103  0.9065
  763MPD2    H211325   0.303   2.541  16.021 -0.8444 -2.4219  1.2356
  763MPD2    H311326   0.367   2.753  16.087 -0.7755  2.0112  0.4322
  763MPD2     N11327   0.047   2.799  16.399 -0.4233  0.4157  0.3016
  763MPD2    H511328   0.090   2.889  16.417  1.2743 -0.6749  1.7785
  763MPD2    N111329   0.108   2.387  16.143  0.0322  0.6002  0.3548
  763MPD2    H711330   0.022   2.356  16.187  1.2265 -3.3185 -0.0521
  764MPD2     C11331   2.441   3.585  17.542  0.0478  0.6346  0.0050
  764MPD2    C111332   2.355   3.693  17.569 -0.2030 -0.5461  0.1394
  764MPD2    C211333   2.320   3.710  17.700 -0.2439 -1.0271  0.2681
  764MPD2    C311334   2.358   3.617   0.053  0.0504 -0.2750  0.1248
  764MPD2    C411335   2.445   3.513   0.031  0.3976  0.1682 -0.1701
  764MPD2    C511336   2.472   3.497  17.645 -0.1522  0.4749  0.0647
  764MPD2     H11337   2.260   3.797  17.727 -1.2452 -0.9910 -2.0988
  764MPD2    H111338   2.491   3.450   0.106  0.0658 -0.1948 -0.2719
  764MPD2    H211339   2.472   3.562  17.441  1.7927 -0.0548  0.7100
  764MPD2    H311340   2.531   3.409  17.621 -1.2472  0.0092 -0.8725
  764MPD2     N11341   2.306   3.639   0.180 -0.2274  0.0263  0.4416
  764MPD2    H511342   2.249   3.723   0.185  0.8630  0.8582 -1.0249
  764MPD2    N111343   2.300   3.784  17.468  0.4034 -0.1786 -0.2641
  764MPD2    H711344   2.219   3.838  17.497 -0.1149 -1.4634  0.7204
  765MPD2     C11345   2.682   1.658  15.654  0.5680 -0.9087 -0.3987
  765MPD2    C111346   2.663   1.710  15.779 -0.1256  0.7280 -0.0749
  765MPD2    C211347   2.747   1.667  15.884 -0.9793 -0.0794  0.0367
  765MPD2    C311348   2.860   1.591  15.862 -0.6242  0.3907 -0.0700
  765MPD2    C411349   2.879   1.552  15.729  0.1247 -0.8681 -0.5521
  765MPD2    C511350   2.792   1.581  15.629 -0.2002 -0.2340  0.1499
  765MPD2     H11351   2.723   1.702  15.984 -1.4766 -0.8173  0.1745
  765MPD2    H111352   2.969   1.499  15.699  1.3344  0.7459  0.2146
  765MPD2    H211353   2.623   1.676  15.565 -0.6022  1.2008  0.8155
  765MPD2    H311354   2.800   1.554  15.525 -1.5717 -0.0840  0.0085
  765MPD2     N11355   2.941   1.533  15.962 -0.1173 -0.2118 -0.3893
  765MPD2    H511356   2.900   1.536  16.055 -1.2724  2.6729 -0.9803
  765MPD2    N111357   2.553   1.788  15.794 -0.0615  0.5260 -0.4301
  765MPD2    H711358   2.486   1.791  15.718  0.9558 -0.7539 -1.3695
  766MPD2     C11359   1.859   1.835  15.580 -0.3127  0.9359  0.0255
  766MPD2    C111360   1.988   1.794  15.579 -0.5021 -0.3773  0.3251
  766MPD2    C211361   2.034   1.735  15.464 -0.4320  0.3284  0.4688
  766MPD2    C311362   1.962   1.710  15.350  0.0727  0.2736  0.1299
  766MPD2    C411363   1.834   1.758  15.352 -0.4691 -0.2767  0.0173
  766MPD2    C511364   1.784   1.820  15.466  0.0188  0.1675 -0.4785
  766MPD2     H11365   2.140   1.713  15.464 -0.3627  0.6302 -1.3974
  766MPD2    H111366   1.769   1.748  15.266 -0.9232 -0.9738  0.4446
  766MPD2    H211367   1.815   1.889  15.664  1.5320 -0.0853  1.6481
  766MPD2    H311368   1.690   1.873  15.454 -1.0652 -2.0151 -1.7833
  766MPD2     N11369   2.013   1.647  15.231  0.3871  0.0906  0.1915
  766MPD2    H511370   1.950   1.656  15.151 -0.0362 -1.1419  0.3871
  766MPD2    N111371   2.086   1.822  15.687 -0.0895  0.1465  0.2728
  766MPD2    H711372   2.180   1.788  15.670  0.4391  0.7794  1.9348
  767MPD2     C11373   1.582   2.063  15.154  0.3226  0.3201 -0.5066
  767MPD2    C111374   1.716   2.041  15.120  0.7703  0.5543  0.1645
  767MPD2    C211375   1.749   2.003  14.992 -0.0822 -0.7435 -0.5395
  767MPD2    C311376   1.653   1.966  14.899 -0.0413 -0.6260  0.3106
  767MPD2    C411377   1.524   1.995  14.934 -0.0028 -0.1402 -0.3077
  767MPD2    C511378   1.497   2.056  15.054 -0.0177 -0.3344  0.3523
  767MPD2     H11379   1.853   1.983  14.969  0.2396  3.1125 -2.4504
  767MPD2    H111380   1.439   1.981  14.867 -0.7320  2.2931  0.0905
  767MPD2    H211381   1.555   2.086  15.257 -1.8951  0.4463 -1.1056
  767MPD2    H311382   1.395   2.091  15.066 -0.1504 -1.1973  1.8517
  767MPD2     N11383   1.692   1.918  14.775 -0.1123 -0.3735  0.1350
  767MPD2    H511384   1.789   1.897  14.756 -0.0080  0.0150  0.2441
  767MPD2    N111385   1.811   2.060  15.218 -0.8213  0.1123 -0.0537
  767MPD2    H711386   1.775   2.085  15.310  1.2302 -2.0901  1.3310
  768MPD2     C11387   3.216   0.755  10.534  0.4889  0.0674  1.4864
  768MPD2    C111388   3.144   0.726  10.654 -0.1495  0.2752 -0.2169
  768MPD2    C211389   3.208   0.654  10.753 -0.2028 -0.4471  0.1752
  768MPD2    C311390   3.339   0.622  10.743 -0.7641 -0.6357 -0.1295
  768MPD2    C411391   3.406   0.655  10.634  0.8060 -0.0181  0.6916
  768MPD2    C511392   3.351   0.728  10.532  0.3269  0.5747  1.2318
  768MPD2     H11393   3.145   0.632  10.838 -2.3437  2.4898 -0.6449
  768MPD2    H111394   3.513   0.647  10.625  0.6963 -0.6156 -0.0824
  768MPD2    H211395   3.179   0.820  10.455  0.1392 -1.4275  0.4359
  768MPD2    H311396   3.424   0.765  10.461 -0.5854 -2.1168 -1.0964
  768MPD2     N11397   3.403   0.574  10.853  0.3788  0.3005  0.5398
  768MPD2    H511398   3.504   0.564  10.846  0.0790 -0.5360 -2.5472
  768MPD2    N111399   3.015   0.769  10.684 -0.5702 -0.0915 -0.1279
  768MPD2    H711400   2.971   0.726  10.764 -0.1257  0.3350  0.3452
  769MPD2     C11401   3.878   3.328  15.118 -0.0295 -0.1946 -0.1655
  769MPD2    C111402   3.777   3.307  15.203 -0.0910 -0.3751 -0.3845
  769MPD2    C211403   3.776   3.361  15.326 -0.0373 -0.7670  0.7899
  769MPD2    C311404   3.882   3.442  15.370  0.5680 -0.9853 -0.8381
  769MPD2    C411405   3.991   3.462  15.281  0.4821 -0.0511 -0.2062
  769MPD2    C511406   3.985   3.398  15.159  0.1525 -0.6278  0.1586
  769MPD2     H11407   3.688   3.355  15.388  0.7006  2.5969  2.1874
  769MPD2    H111408   4.084   3.506  15.313  1.8308 -1.7867 -1.6847
  769MPD2    H211409   3.879   3.285  15.018 -1.0103  1.2104 -0.7777
  769MPD2    H311410   4.065   3.398  15.086 -1.0990  1.9747 -1.1991
  769MPD2     N11411   3.861   3.517  15.489 -0.0878 -0.3595 -0.9417
  769MPD2    H511412   3.783   3.491  15.549 -0.8398  0.9161 -1.3870
  769MPD2    N111413   3.668   3.223  15.172 -0.3504 -0.5398 -0.0332
  769MPD2    H711414   3.594   3.218  15.242 -1.3422 -1.3441 -1.1375
  770MPD2     C11415   3.111   2.398  15.308 -0.6950 -0.4064  0.1549
  770MPD2    C111416   3.143   2.389  15.174 -0.0359 -0.4496 -0.5632
  770MPD2    C211417   3.211   2.497  15.115 -0.3653 -0.3788 -0.3707
  770MPD2    C311418   3.237   2.609  15.192 -0.6151  0.3265  0.5722
  770MPD2    C411419   3.202   2.612  15.323  0.6009  0.4274  0.1743
  770MPD2    C511420   3.142   2.506  15.381 -0.0141  0.7820 -0.2033
  770MPD2     H11421   3.238   2.496  15.010 -0.2662 -0.8752 -0.3418
  770MPD2    H111422   3.208   2.701  15.386 -0.4759 -1.6612  3.2328
  770MPD2    H211423   3.072   2.314  15.363 -2.4060  0.8016  0.8053
  770MPD2    H311424   3.122   2.509  15.488 -0.3471 -0.5425 -0.2334
  770MPD2     N11425   3.282   2.730  15.136  0.7843 -0.3623 -0.0303
  770MPD2    H511426   3.292   2.727  15.035  1.2626 -2.6498  0.0676
  770MPD2    N111427   3.119   2.265  15.109 -0.5995 -0.3173  0.6520
  770MPD2    H711428   3.083   2.191  15.168 -0.5405 -0.5467  0.3992
  771MPD2     C11429   4.313   1.190  13.958 -0.2114  0.0746  0.3087
  771MPD2    C111430   4.195   1.263  13.967  0.2232  0.4782  0.2095
  771MPD2    C211431   4.074   1.212  13.913  0.1189  0.1631  0.4797
  771MPD2    C311432   4.082   1.096  13.837  0.8908  0.1967 -0.3898
  771MPD2    C411433   4.201   1.029  13.826  0.5224 -0.1152  0.3049
  771MPD2    C511434   4.315   1.071  13.894 -0.4909  0.2740  0.7074
  771MPD2     H11435   3.980   1.267  13.912  0.0747  0.0891  0.5336
  771MPD2    H111436   4.210   0.929  13.785  2.2258  0.3643 -0.4925
  771MPD2    H211437   4.408   1.230  13.993 -0.7331  1.4791  0.1303
  771MPD2    H311438   4.413   1.026  13.887 -1.4831 -1.4525 -2.1163
  771MPD2     N11439   3.967   1.058  13.770  0.1166  0.1143  0.3833
  771MPD2    H511440   3.883   1.107  13.798 -1.0350 -1.3096 -0.5624
  771MPD2    N111441   4.199   1.393  14.021  0.0390 -0.8155 -0.0899
  771MPD2    H711442   4.124   1.458  14.000  2.5630  2.7085  1.8057
  772MPD2     C11443   3.709   1.732  13.998 -0.0821  0.3879  0.3047
  772MPD2    C111444   3.785   1.802  14.090  0.8434  0.4605 -0.1358
  772MPD2    C211445   3.724   1.888  14.179 -0.1278  0.2760 -0.1550
  772MPD2    C311446   3.584   1.891  14.179 -0.9598  0.1716 -0.0376
  772MPD2    C411447   3.516   1.828  14.075 -0.4988 -0.0784  0.6321
  772MPD2    C511448   3.576   1.745  13.986  0.2798 -0.7598  0.7645
  772MPD2     H11449   3.785   1.939  14.252  1.1894 -1.6377  0.0596
  772MPD2    H111450   3.409   1.832  14.063 -0.3120  1.7135 -0.4014
  772MPD2    H211451   3.761   1.673  13.923 -1.0615  1.6302 -1.3611
  772MPD2    H311452   3.511   1.699  13.913 -0.2042  0.3112  0.5202
  772MPD2     N11453   3.509   1.968  14.272  0.5412 -0.1914  0.1690
  772MPD2    H511454   3.408   1.961  14.268  0.3401  3.1504 -0.6761
  772MPD2    N111455   3.929   1.776  14.086 -0.2140 -0.0874  0.5816
  772MPD2    H711456   3.949   1.690  14.036 -0.4454 -0.0631  0.4433
  773MPD2     C11457   3.309   2.994   0.152  0.0706 -0.1743  0.4549
  773MPD2    C111458   3.247   2.875   0.119  0.4426 -0.4393  0.0498
  773MPD2    C211459   3.298   2.765   0.191 -0.1128  0.1012  0.1764
  773MPD2    C311460   3.389   2.779   0.299  0.1288  0.0516 -0.7527
  773MPD2    C411461   3.435   2.906   0.331 -0.8659 -0.0685  0.5548
  773MPD2    C511462   3.396   3.008   0.254  0.2735  0.3618 -0.3067
  773MPD2     H11463   3.266   2.663   0.170  2.2521 -0.2319 -1.7377
  773MPD2    H111464   3.497   2.935   0.416 -3.1808  0.5053  2.0401
  773MPD2    H211465   3.274   3.080   0.097 -1.8067 -0.2431  1.5322
  773MPD2    H311466   3.426   3.110   0.274 -1.8820  0.8927  0.2772
  773MPD2     N11467   3.429   2.668   0.373 -0.1345 -0.3783  0.4040
  773MPD2    H511468   3.407   2.579   0.331  1.4695 -2.0379  3.1464
  773MPD2    N111469   3.149   2.863   0.018  0.1602  0.7811  0.0615
  773MPD2    H711470   3.105   2.772   0.008  3.5161 -1.0038  1.8824
  774MPD2     C11471   3.067   1.858  13.350  0.1508  0.5672 -0.1465
  774MPD2    C111472   2.963   1.904  13.425 -0.6786 -0.6652  0.2926
  774MPD2    C211473   2.942   2.040  13.426 -0.8956  0.4086  0.6164
  774MPD2    C311474   3.018   2.123  13.347 -1.3992 -0.0026 -0.9757
  774MPD2    C411475   3.110   2.073  13.253 -0.2426  0.4959  0.4854
  774MPD2    C511476   3.135   1.936  13.261  0.5802  0.7467 -0.1069
  774MPD2     H11477   2.874   2.084  13.498 -1.1303 -0.8141  1.1390
  774MPD2    H111478   3.173   2.138  13.193  1.7358 -0.1267  1.8552
  774MPD2    H211479   3.091   1.753  13.343  1.3514  0.6950  2.0098
  774MPD2    H311480   3.202   1.886  13.192 -0.8382  0.7511 -1.5038
  774MPD2     N11481   2.998   2.268  13.364  0.2782  0.5432  0.1064
  774MPD2    H511482   2.949   2.288  13.451  1.2643 -0.0676  0.8065
  774MPD2    N111483   2.899   1.816  13.512  0.5430 -0.3841 -0.1880
  774MPD2    H711484   2.910   1.715  13.503 -1.4741 -0.5146 -1.2894
  775MPD2     C11485   3.765   3.181  15.854  0.0794  0.2911 -0.1583
  775MPD2    C111486   3.832   3.264  15.938  0.2242  0.0091 -0.2438
  775MPD2    C211487   3.941   3.328  15.886 -0.0107  0.0030  0.4618
  775MPD2    C311488   3.973   3.305  15.755 -0.0882 -0.1793  0.2428
  775MPD2    C411489   3.895   3.227  15.673  0.0122  1.0094  0.0698
  775MPD2    C511490   3.796   3.160  15.726 -0.7720 -0.4560  1.5638
  775MPD2     H11491   4.013   3.384  15.945 -0.0715  0.0926  0.4497
  775MPD2    H111492   3.928   3.217  15.570 -1.4123  0.8935 -0.3777
  775MPD2    H211493   3.681   3.126  15.897 -0.1398 -1.2090 -2.5254
  775MPD2    H311494   3.750   3.084  15.664  0.8412  1.3455 -1.8433
  775MPD2     N11495   4.086   3.361  15.691 -0.4096  0.1470 -0.1070
  775MPD2    H511496   4.086   3.351  15.590 -0.2100 -2.0141  0.1159
  775MPD2    N111497   3.797   3.269  16.076 -0.3729  0.3935 -0.0856
  775MPD2    H711498   3.723   3.209  16.109  1.1609 -2.4130 -1.7305
  776MPD2     C11499   2.552   3.797  11.741  0.1312  0.0328 -0.3360
  776MPD2    C111500   2.687   3.787  11.747  0.3603  0.3399 -0.2866
  776MPD2    C211501   2.772   3.894  11.730 -0.6913 -0.5393  0.2379
  776MPD2    C311502   2.719   4.017  11.699  0.0546 -0.8906  0.5766
  776MPD2    C411503   2.582   4.025  11.669  0.5296  0.0961  0.2252
  776MPD2    C511504   2.496   3.917  11.701  0.0257 -0.8276 -0.1483
  776MPD2     H11505   2.879   3.886  11.746 -0.3337  3.6893 -0.0483
  776MPD2    H111506   2.540   4.121  11.642  1.7093  0.6242  0.2526
  776MPD2    H211507   2.484   3.717  11.770  0.2438  0.3962  0.8997
  776MPD2    H311508   2.388   3.925  11.704 -0.0224 -0.7633 -2.5745
  776MPD2     N11509   2.800   4.128  11.675  0.1561  0.1353 -0.1689
  776MPD2    H511510   2.761   4.202  11.618 -1.2362  0.2310  0.9113
  776MPD2    N111511   2.730   3.652  11.771 -0.0581 -0.1170 -0.6469
  776MPD2    H711512   2.662   3.581  11.794  0.0391 -0.4507 -1.3964
  777MPD2     C11513   3.785   1.264   1.174 -0.2836  0.7819  0.2099
  777MPD2    C111514   3.661   1.219   1.210  0.1975 -0.1533  0.0199
  777MPD2    C211515   3.595   1.146   1.115  0.1164  0.0672  0.1547
  777MPD2    C311516   3.647   1.113   0.994  0.2392  0.1776 -0.7746
  777MPD2    C411517   3.765   1.165   0.956 -0.2482  0.3510  0.6930
  777MPD2    C511518   3.834   1.231   1.054 -0.4983 -0.8692 -0.8027
  777MPD2     H11519   3.499   1.103   1.141  0.4566 -0.3778  0.6678
  777MPD2    H111520   3.815   1.143   0.862 -2.1997  1.9020 -0.7113
  777MPD2    H211521   3.850   1.317   1.243 -0.4364  0.0840  0.8822
  777MPD2    H311522   3.937   1.252   1.026  0.8210 -5.3598  0.8291
  777MPD2     N11523   3.567   1.030   0.913  0.2554 -0.4026  0.2115
  777MPD2    H511524   3.484   0.991   0.957 -0.6712  2.1718  0.7683
  777MPD2    N111525   3.620   1.262   1.339 -0.2665 -0.8508  0.1927
  777MPD2    H711526   3.699   1.304   1.387  0.5748 -0.0151 -1.9227
  778MPD2     C11527   4.687   1.675  14.890  0.5235  0.4521 -0.4103
  778MPD2    C111528   4.674   1.545  14.861  0.1917 -0.6495 -0.4322
  778MPD2    C211529   0.004   1.496  14.747 -0.1102 -0.0933  0.1560
  778MPD2    C311530   0.098   1.573  14.682  0.2829  0.2770  0.1408
  778MPD2    C411531   0.119   1.707  14.718 -0.3076  0.0805 -0.3261
  778MPD2    C511532   0.037   1.756  14.819  0.0196 -0.9260  0.0541
  778MPD2     H11533   4.727   1.392  14.724 -0.0470 -0.0865  0.0880
  778MPD2    H111534   0.197   1.768  14.673 -0.6616  2.1589  1.8951
  778MPD2    H211535   4.625   1.731  14.959  0.5194  1.0440 -0.8958
  778MPD2    H311536   0.055   1.861  14.839 -1.7872 -0.9082  1.5766
  778MPD2     N11537   0.185   1.503  14.591 -0.6480  0.1807 -0.4181
  778MPD2    H511538   0.169   1.403  14.584 -0.1169  0.1884 -1.6924
  778MPD2    N111539   4.581   1.458  14.922  0.6835  0.6122  0.2159
  778MPD2    H711540   4.574   1.361  14.893  0.7332  0.6638  0.0319
  779MPD2     C11541   3.892   0.156  13.927  0.3105  0.2771  0.0442
  779MPD2    C111542   4.003   0.174  14.006 -0.6525 -0.7399 -0.1246
  779MPD2    C211543   4.045   0.300  14.040  0.1841  0.0114 -0.3280
  779MPD2    C311544   3.981   0.415  13.992 -0.2304 -0.0399 -0.3934
  779MPD2    C411545   3.865   0.399  13.920 -0.2515  0.2996  0.1126
  779MPD2    C511546   3.824   0.274  13.895 -0.2253  0.2189  0.4050
  779MPD2     H11547   4.134   0.305  14.101  1.1108  1.7745 -1.8106
  779MPD2    H111548   3.808   0.482  13.879  1.1380  2.2699  2.1799
  779MPD2    H211549   3.860   0.056  13.903 -2.5421  0.2213  4.2771
  779MPD2    H311550   3.738   0.268  13.828 -1.6977 -1.0958  2.3855
  779MPD2     N11551   4.035   0.541  14.023  0.5015 -1.1781  0.7800
  779MPD2    H511552   4.109   0.526  14.091 -0.6057  0.0398  2.2544
  779MPD2    N111553   4.094   0.072  14.038  0.2547 -0.1408 -0.2097
  779MPD2    H711554   4.176   0.087  14.095 -1.6546  3.0003  1.6957
  780MPD2     C11555   3.454   0.279   1.281  0.3459 -0.7538  0.0379
  780MPD2    C111556   3.442   0.230   1.154 -0.4919 -0.6367 -0.6860
  780MPD2    C211557   3.538   0.264   1.058  0.2051  0.6774 -0.0003
  780MPD2    C311558   3.642   0.344   1.095 -0.0105  0.0593 -0.1996
  780MPD2    C411559   3.656   0.394   1.221 -1.0653  0.3869 -0.6657
  780MPD2    C511560   3.560   0.363   1.312  0.2136  0.8689  0.2720
  780MPD2     H11561   3.539   0.241   0.953 -1.2366  4.4581 -0.8450
  780MPD2    H111562   3.740   0.454   1.254 -0.5803 -0.3221 -0.6033
  780MPD2    H211563   3.385   0.253   1.360  0.5281  0.9241  0.7512
  780MPD2    H311564   3.569   0.394   1.415  0.4800  0.8503  0.2554
  780MPD2     N11565   3.736   0.365   0.993 -0.2825  0.4367 -0.4699
  780MPD2    H511566   3.718   0.335   0.897  0.8588  0.2983 -0.6460
  780MPD2    N111567   3.335   0.144   1.133 -0.3850 -0.1665  0.0237
  780MPD2    H711568   3.275   0.115   1.209  0.5089 -2.2203 -0.0373
  781MPD2     C11569   1.226   1.836  11.952  0.6189 -0.3383 -0.2077
  781MPD2    C111570   1.296   1.947  11.998  0.1316  0.7344 -0.3130
  781MPD2    C211571   1.407   1.983  11.927 -0.6852 -0.5022  0.6680
  781MPD2    C311572   1.444   1.927  11.805  0.1404 -0.7050  0.3208
  781MPD2    C411573   1.372   1.818  11.764 -0.3124 -0.4918 -0.7300
  781MPD2    C511574   1.257   1.781  11.829 -0.5597  0.7142 -0.0595
  781MPD2     H11575   1.462   2.069  11.963 -0.5848 -0.1951 -0.2352
  781MPD2    H111576   1.381   1.781  11.663  0.0788  0.6678 -1.1093
  781MPD2    H211577   1.149   1.794  12.016  0.6478 -1.8788 -1.1696
  781MPD2    H311578   1.193   1.717  11.769 -0.0796 -0.3610  0.5799
  781MPD2     N11579   1.555   1.979  11.721 -0.1312 -0.1700  0.8580
  781MPD2    H511580   1.583   1.915  11.647 -0.1314 -0.8737  1.4673
  781MPD2    N111581   1.280   2.000  12.128 -0.5187  0.6085  0.3555
  781MPD2    H711582   1.353   2.063  12.161  0.1053 -1.0734  2.1677
  782MPD2     C11583   4.249   3.257  10.202 -0.1921 -0.1608  0.6021
  782MPD2    C111584   4.163   3.190  10.278 -0.1436  0.4987  0.0563
  782MPD2    C211585   4.114   3.232  10.398  0.3769  0.3013  0.3944
  782MPD2    C311586   4.170   3.350  10.453  0.3172  0.7519 -0.1084
  782MPD2    C411587   4.253   3.428  10.374  0.1025 -0.1260 -0.0556
  782MPD2    C511588   4.289   3.381  10.251  0.0553 -0.5296 -0.3895
  782MPD2     H11589   4.041   3.183  10.461 -2.6265  0.7373 -2.7753
  782MPD2    H111590   4.295   3.522  10.408  0.6358 -0.8474  1.2827
  782MPD2    H211591   4.288   3.220  10.108 -1.4338  0.4317 -0.1376
  782MPD2    H311592   4.355   3.444  10.192  1.7090 -1.3241  0.6093
  782MPD2     N11593   4.119   3.390  10.581  0.2403  0.2126 -0.1839
  782MPD2    H511594   4.033   3.344  10.610  1.3807 -1.1243  1.0836
  782MPD2    N111595   4.124   3.063  10.226 -0.3952 -0.0021  0.9534
  782MPD2    H711596   4.151   3.045  10.130  1.9671 -0.0842  1.6208
  783MPD2     C11597   3.627   2.352  10.735  0.3621 -0.6346  0.0179
  783MPD2    C111598   3.584   2.478  10.701 -0.1701  0.1491  0.5530
  783MPD2    C211599   3.640   2.553  10.605  0.4539  0.3465 -0.0964
  783MPD2    C311600   3.747   2.495  10.541  0.4439  0.4209  0.3389
  783MPD2    C411601   3.777   2.359  10.563  0.4153  0.5070  0.0009
  783MPD2    C511602   3.724   2.293  10.665  0.1425 -0.4412  0.5208
  783MPD2     H11603   3.596   2.646  10.570 -4.5885 -1.7726  0.4671
  783MPD2    H111604   3.851   2.304  10.507  0.1946 -0.1966  0.4013
  783MPD2    H211605   3.588   2.293  10.817 -0.2376 -0.4898 -0.1584
  783MPD2    H311606   3.763   2.195  10.688 -0.6820 -1.2183 -1.3986
  783MPD2     N11607   3.818   2.577  10.452 -1.1077  0.3936 -0.1766
  783MPD2    H511608   3.803   2.676  10.466  0.8711  0.6981 -0.1889
  783MPD2    N111609   3.484   2.525  10.788 -0.2684 -0.6590 -0.0555
  783MPD2    H711610   3.456   2.459  10.860  0.9960 -0.0657  0.9867
  784MPD2     C11611   1.060   3.048   0.917  0.1031  0.1697 -0.3927
  784MPD2    C111612   1.071   3.166   0.993 -0.1282  0.0383  0.6444
  784MPD2    C211613   0.973   3.259   0.975  0.0046 -0.7464  0.3308
  784MPD2    C311614   0.862   3.249   0.893  0.2435  0.4701  0.1548
  784MPD2    C411615   0.851   3.134   0.832 -0.8048  0.5660  0.7613
  784MPD2    C511616   0.946   3.032   0.841 -0.5049  0.9181 -0.0791
  784MPD2     H11617   0.992   3.354   1.022  1.7816 -0.2466 -1.4221
  784MPD2    H111618   0.767   3.116   0.765 -2.9767 -0.7959  3.8201
  784MPD2    H211619   1.146   2.983   0.915 -0.3778 -0.5046  0.6253
  784MPD2    H311620   0.925   2.937   0.795 -0.3866  0.4476  0.8303
  784MPD2     N11621   0.754   3.342   0.892  0.0686 -0.1755 -0.3606
  784MPD2    H511622   0.763   3.420   0.956 -2.0097  0.6100 -1.0396
  784MPD2    N111623   1.186   3.206   1.065 -0.1832  0.5084 -0.4308
  784MPD2    H711624   1.187   3.293   1.118 -0.7334 -0.4443  1.1162
  785MPD2     C11625   2.151   2.079  10.265  0.4021 -0.1596  0.0271
  785MPD2    C111626   2.052   2.124  10.359 -0.2701  0.2733  0.2309
  785MPD2    C211627   1.923   2.065  10.353 -0.3797  0.4748 -0.2899
  785MPD2    C311628   1.896   1.964  10.261  0.1249 -0.6746 -0.2516
  785MPD2    C411629   1.989   1.933  10.163  0.2406  0.0992  0.0896
  785MPD2    C511630   2.114   1.992  10.168  0.6247 -0.1775  0.4455
  785MPD2     H11631   1.845   2.103  10.418  1.4000  3.2421  0.2172
  785MPD2    H111632   1.967   1.852  10.095  0.3316 -1.0402  1.4292
  785MPD2    H211633   2.251   2.121  10.278 -0.8653  2.5030  1.2356
  785MPD2    H311634   2.184   1.972  10.088 -0.0077  1.3855 -0.4918
  785MPD2     N11635   1.769   1.904  10.263 -0.3937  0.1824  0.0440
  785MPD2    H511636   1.711   1.937  10.339  0.5420 -0.5270  1.0664
  785MPD2    N111637   2.083   2.225  10.452 -0.4239 -0.6046  0.2680
  785MPD2    H711638   2.169   2.278  10.438 -0.2324 -1.4873 -1.9285
  786MPD2     C11639   0.521   0.035  14.572  0.1534 -0.2093  0.1301
  786MPD2    C111640   0.527   4.664  14.663  0.5876 -0.9696  0.7780
  786MPD2    C211641   0.593   4.685  14.789  0.4231 -0.4098  0.0927
  786MPD2    C311642   0.657   0.067  14.811  0.0146 -0.0546 -0.0884
  786MPD2    C411643   0.641   0.172  14.723  0.0922 -0.1621 -0.0681
  786MPD2    C511644   0.573   0.156  14.604  0.3568  1.0914 -0.3841
  786MPD2     H11645   0.598   4.608  14.865 -1.5376 -1.2568 -0.6234
  786MPD2    H111646   0.686   0.266  14.750 -1.5487  1.2475 -2.2624
  786MPD2    H211647   0.468   0.035  14.478 -1.7732  0.9165  1.2112
  786MPD2    H311648   0.552   0.243  14.543 -0.9456 -1.9895 -4.3398
  786MPD2     N11649   0.739   0.092  14.922 -0.1940  0.0259 -0.9133
  786MPD2    H511650   0.796   0.176  14.928 -2.5110  1.4187  1.5321
  786MPD2    N111651   0.449   4.545  14.648  0.2328  0.5902  0.5024
  786MPD2    H711652   0.415   4.501  14.733  0.9350 -1.7813 -0.4680
  787MPD2     C11653   4.648   3.964  14.916  0.0488 -0.7836 -0.2975
  787MPD2    C111654   0.042   3.979  14.882  0.5487  0.5375 -0.0113
  787MPD2    C211655   0.136   3.880  14.927  0.6768  0.0227  0.0811
  787MPD2    C311656   0.091   3.765  14.996 -0.0990 -0.2343  0.2107
  787MPD2    C411657   4.695   3.759  15.031 -0.0704 -0.0754 -0.6938
  787MPD2    C511658   4.609   3.857  14.993 -0.5629 -0.5232 -0.1613
  787MPD2     H11659   0.243   3.889  14.911  0.8284  0.2288  1.2203
  787MPD2    H111660   4.645   3.677  15.082  2.2519 -1.0997 -0.0641
  787MPD2    H211661   4.573   4.036  14.885 -0.8339  0.0815  3.8449
  787MPD2    H311662   4.505   3.861  15.022 -0.0724  2.5958  1.1100
  787MPD2     N11663   0.183   3.662  15.024 -0.3282 -0.2353 -0.1751
  787MPD2    H511664   0.281   3.681  15.003 -0.4138  1.2659  0.8436
  787MPD2    N111665   0.068   4.086  14.793 -0.0576 -0.3528  0.5224
  787MPD2    H711666   4.730   4.151  14.770 -0.1475 -0.7473 -0.3188
  788MPD2     C11667   2.009   3.033   1.353  0.0290  0.2250  0.7001
  788MPD2    C111668   2.118   2.975   1.289 -0.5789 -0.2941  0.3349
  788MPD2    C211669   2.168   3.044   1.179  0.2493  0.5193 -0.1699
  788MPD2    C311670   2.098   3.147   1.122 -0.4552 -0.4067 -0.0661
  788MPD2    C411671   1.993   3.197   1.184 -0.2796 -0.5361  0.0398
  788MPD2    C511672   1.948   3.140   1.303  0.5517 -0.1034 -0.7274
  788MPD2     H11673   2.265   3.022   1.136 -1.3955 -2.7790 -2.2726
  788MPD2    H111674   1.938   3.280   1.142  1.0434  1.1756  1.7001
  788MPD2    H211675   1.976   2.994   1.449 -2.0263  2.6978  0.9991
  788MPD2    H311676   1.867   3.188   1.356  0.5417 -0.4205 -0.4577
  788MPD2     N11677   2.118   3.191   0.991 -0.3730 -1.0334 -0.0455
  788MPD2    H511678   2.056   3.266   0.960  0.0816 -0.1564  1.1831
  788MPD2    N111679   2.184   2.850   1.327 -0.3350 -0.6192 -0.0485
  788MPD2    H711680   2.268   2.835   1.272 -1.3526 -3.0317 -0.9189
  789MPD2     C11681   2.272   2.518  16.962 -0.1902 -1.1156  0.0595
  789MPD2    C111682   2.185   2.470  16.862 -0.6876 -0.0864  0.0766
  789MPD2    C211683   2.055   2.514  16.862  1.0746  0.5103 -0.0731
  789MPD2    C311684   2.013   2.598  16.963 -0.4444  0.0026  0.8575
  789MPD2    C411685   2.102   2.631  17.067 -0.3264  0.2510  0.1297
  789MPD2    C511686   2.229   2.591  17.069 -0.2232  0.6745 -0.0767
  789MPD2     H11687   1.981   2.482  16.790  0.5474 -0.2455  0.7963
  789MPD2    H111688   2.073   2.673  17.162 -0.9050 -1.0562  0.5193
  789MPD2    H211689   2.376   2.488  16.970  0.6394  2.1136  1.9535
  789MPD2    H311690   2.285   2.617  17.158  0.9819  0.0797 -0.6494
  789MPD2     N11691   1.873   2.626  16.986 -0.8566  0.0947 -0.3313
  789MPD2    H511692   1.863   2.669  17.078  0.4296  2.0825 -1.1167
  789MPD2    N111693   2.233   2.379  16.762  0.3527 -0.4383 -0.4089
  789MPD2    H711694   2.166   2.352  16.691  1.3508  0.0013 -1.5228
  790MPD2     C11695   3.169   3.520  13.601  0.5021  0.8910 -0.5567
  790MPD2    C111696   3.214   3.622  13.514 -0.4157 -0.0031 -0.5415
  790MPD2    C211697   3.154   3.626  13.388  0.4326 -0.4577 -0.1144
  790MPD2    C311698   3.055   3.534  13.358 -0.2208  0.0550 -0.1797
  790MPD2    C411699   3.006   3.442  13.452 -0.3467 -0.3111  0.4913
  790MPD2    C511700   3.067   3.431  13.576  0.3025 -0.0018 -0.3759
  790MPD2     H11701   3.200   3.691  13.315  2.6452 -1.6210  0.2449
  790MPD2    H111702   2.934   3.366  13.424 -0.6404 -0.2351  1.0407
  790MPD2    H211703   3.233   3.512  13.688 -0.8858 -2.2216  0.1746
  790MPD2    H311704   3.032   3.362  13.651  1.3543  0.5329  0.6082
  790MPD2     N11705   2.999   3.533  13.228 -0.0253 -0.5334  0.2367
  790MPD2    H511706   3.037   3.605  13.168  2.1970  0.0918  2.3815
  790MPD2    N111707   3.334   3.697  13.553  0.5597 -0.4813 -0.7122
  790MPD2    H711708   3.381   3.668  13.638  1.8616 -0.2202 -1.3486
  791MPD2     C11709   2.318   3.465  12.835 -0.4880 -0.0346  0.1478
  791MPD2    C111710   2.396   3.358  12.815 -0.3845 -1.0697 -0.3983
  791MPD2    C211711   2.343   3.231  12.770  0.9324  0.2613  0.5826
  791MPD2    C311712   2.201   3.225  12.772 -0.5073  0.0576  0.2581
  791MPD2    C411713   2.124   3.338  12.790  0.4909  0.3992 -0.1932
  791MPD2    C511714   2.181   3.454  12.825  0.3140  0.1511  0.4665
  791MPD2     H11715   2.416   3.151  12.760  1.5638  0.9434 -0.2674
  791MPD2    H111716   2.017   3.330  12.773  0.2852  2.2519  0.2997
  791MPD2    H211717   2.358   3.559  12.871 -1.6462 -0.2213  1.9418
  791MPD2    H311718   2.121   3.543  12.841 -2.7993 -1.9293  0.5083
  791MPD2     N11719   2.141   3.095  12.754 -1.0399  0.1513  0.0119
  791MPD2    H511720   2.202   3.022  12.718 -0.9433  1.9508 -3.3810
  791MPD2    N111721   2.535   3.376  12.847 -0.0668  0.3967 -0.6294
  791MPD2    H711722   2.576   3.459  12.889  0.3947  0.7294 -1.7212
  792MPD2     C11723   3.421   3.975  11.634 -0.6430 -0.9573  0.2154
  792MPD2    C111724   3.389   4.025  11.512 -0.5631  0.4633 -0.8707
  792MPD2    C211725   3.268   3.984  11.464 -0.8423  0.6593 -0.4800
  792MPD2    C311726   3.183   3.904  11.542 -0.3988 -0.6994 -0.1034
  792MPD2    C411727   3.215   3.859  11.672 -0.2016  0.2503 -0.6863
  792MPD2    C511728   3.338   3.899  11.717 -0.5723  0.4166 -0.2818
  792MPD2     H11729   3.233   4.016  11.367  1.7600 -0.2125 -1.7005
  792MPD2    H111730   3.138   3.824  11.739  0.1395  0.5492 -0.1411
  792MPD2    H211731   3.502   4.025  11.684  0.3923 -0.6753 -1.7385
  792MPD2    H311732   3.375   3.875  11.816 -0.4910 -1.8030 -0.8436
  792MPD2     N11733   3.046   3.872  11.510 -0.0372 -0.4539 -0.3779
  792MPD2    H511734   3.002   3.822  11.587 -1.0405 -1.0696 -1.3612
  792MPD2    N111735   3.478   4.114  11.451  0.2829 -0.2935 -0.2957
  792MPD2    H711736   3.571   4.127  11.489  0.7282  2.0558 -2.1580
  793MPD2     C11737   2.721   4.182  10.697 -0.2717  0.6213 -0.6294
  793MPD2    C111738   2.841   4.176  10.772  0.0724 -0.5771 -0.3748
  793MPD2    C211739   2.828   4.126  10.899  0.5484 -0.0450 -0.8377
  793MPD2    C311740   2.707   4.087  10.953 -0.7811 -0.0071  0.1338
  793MPD2    C411741   2.588   4.100  10.882 -0.4360 -0.3788 -0.4707
  793MPD2    C511742   2.598   4.151  10.758 -0.7717 -0.6972  0.1480
  793MPD2     H11743   2.918   4.115  10.959  1.2701  1.8947 -1.5466
  793MPD2    H111744   2.489   4.071  10.918 -0.1918  1.5032  1.7197
  793MPD2    H211745   2.718   4.214  10.593 -0.0395  2.8099  0.0443
  793MPD2    H311746   2.507   4.150  10.699  0.2388  0.6576 -1.4149
  793MPD2     N11747   2.712   4.040  11.079  0.2499  0.2673 -0.3168
  793MPD2    H511748   2.806   4.033  11.117  1.0413  2.5374 -1.8576
  793MPD2    N111749   2.971   4.213  10.729 -0.1407  1.1750  0.8700
  793MPD2    H711750   3.052   4.218  10.790 -1.3239  0.7637  2.4818
  794MPD2     C11751   2.540   3.281  17.283  0.1396  0.8455  0.7692
  794MPD2    C111752   2.612   3.189  17.212  0.3358 -0.4494  0.5548
  794MPD2    C211753   2.572   3.166  17.082  0.2514  0.2032 -0.2739
  794MPD2    C311754   2.480   3.247  17.022 -0.1081  1.0211 -0.1518
  794MPD2    C411755   2.415   3.343  17.094 -0.0932 -1.0127  0.0879
  794MPD2    C511756   2.446   3.357  17.223 -0.0197  0.4347 -0.3355
  794MPD2     H11757   2.614   3.089  17.020 -0.1819 -0.1635 -0.1100
  794MPD2    H111758   2.331   3.401  17.057  0.5257  0.4511  0.9617
  794MPD2    H211759   2.549   3.296  17.390  0.7110  1.0219  0.6955
  794MPD2    H311760   2.388   3.426  17.284  0.4149 -0.8457  1.5211
  794MPD2     N11761   2.412   3.226  16.895  0.5507 -0.2410 -0.0054
  794MPD2    H511762   2.331   3.285  16.877  1.5158  2.0050  3.0299
  794MPD2    N111763   2.708   3.099  17.263 -0.1428 -0.2413  0.1797
  794MPD2    H711764   2.737   3.016  17.213  0.0416 -1.4486  2.2870
  795MPD2     C11765   0.202   4.586  13.668  0.0359 -0.7643  0.0801
  795MPD2    C111766   0.271   4.701  13.625  0.1202  0.2512 -0.4144
  795MPD2    C211767   0.389   4.729  13.692 -0.0790  0.6876  0.1514
  795MPD2    C311768   0.437   4.645  13.788  1.0386 -0.1493  0.0387
  795MPD2    C411769   0.364   4.527  13.815  0.0357 -0.0983 -0.0525
  795MPD2    C511770   0.249   4.499  13.758 -0.7063  0.0456 -0.2465
  795MPD2     H11771   0.446   0.079  13.661  0.2835  0.2619 -0.3599
  795MPD2    H111772   0.403   4.455  13.886  0.0881  0.5226  0.5401
  795MPD2    H211773   0.105   4.553  13.635  0.5398 -2.1443 -0.0194
  795MPD2    H311774   0.191   4.409  13.774  1.0137 -0.9614  0.3450
  795MPD2     N11775   0.562   4.676  13.852  0.2861  0.1601  0.2407
  795MPD2    H511776   0.608   0.023  13.820  2.7716 -1.4326 -0.4262
  795MPD2    N111777   0.235   0.048  13.513 -0.2341  0.3369 -0.0863
  795MPD2    H711778   0.296   0.123  13.486  0.2707  0.0945  0.3781
  796MPD2     C11779   0.506   1.959  15.630 -0.3925 -0.8338  0.1850
  796MPD2    C111780   0.512   2.028  15.750  0.0043 -0.1898  0.4278
  796MPD2    C211781   0.437   2.141  15.759 -0.4058  0.4827  0.6161
  796MPD2    C311782   0.350   2.177  15.658 -0.8817  0.1888  0.2847
  796MPD2    C411783   0.347   2.106  15.545  0.2480  1.1056 -0.6878
  796MPD2    C511784   0.430   2.001  15.526  0.3673  0.1734 -0.2257
  796MPD2     H11785   0.436   2.203  15.849 -0.1262  0.9636  0.2858
  796MPD2    H111786   0.280   2.122  15.461  0.2909 -1.5935 -1.2523
  796MPD2    H211787   0.568   1.870  15.621  1.4095  0.5236 -0.8331
  796MPD2    H311788   0.424   1.943  15.434  0.1516  1.1703 -0.8488
  796MPD2     N11789   0.271   2.291  15.681 -0.2786  0.4679 -0.0338
  796MPD2    H511790   0.292   2.356  15.756  1.3935  0.0331 -0.1325
  796MPD2    N111791   0.592   1.994  15.857 -0.4508 -0.1840  0.0552
  796MPD2    H711792   0.601   2.061  15.933  2.3067 -1.5448  0.9403
  797MPD2     C11793   1.134   1.931  17.307 -0.1005 -0.0937 -0.0677
  797MPD2    C111794   1.097   2.053  17.359  0.8677  0.9205  0.7423
  797MPD2    C211795   1.029   2.143  17.278 -0.3023  0.2359 -0.3106
  797MPD2    C311796   1.001   2.110  17.149  0.3163 -0.2843  0.0445
  797MPD2    C411797   1.026   1.985  17.097 -0.5179 -0.4199  0.4146
  797MPD2    C511798   1.101   1.896  17.175  0.4410 -0.4032  0.9012
  797MPD2     H11799   1.013   2.244  17.313  0.2437  1.1878 -2.7952
  797MPD2    H111800   1.007   1.960  16.994 -3.1971  1.2118  0.4854
  797MPD2    H211801   1.202   1.866  17.360  2.0620  0.6255 -1.9436
  797MPD2    H311802   1.135   1.802  17.132  0.1995 -0.0716 -0.0122
  797MPD2     N11803   0.943   2.211  17.056  0.1159 -0.2307  0.0306
  797MPD2    H511804   0.935   2.189  16.957  3.3258 -1.4801  0.0321
  797MPD2    N111805   1.132   2.104  17.488  0.2299  0.2335 -0.0180
  797MPD2    H711806   1.089   2.194  17.504  1.5213  0.7163  0.7906
  798MPD2     C11807   0.949   2.790  17.436 -0.3232 -0.1810  0.1097
  798MPD2    C111808   1.034   2.723  17.356  0.3109 -0.5909  0.0767
  798MPD2    C211809   1.138   2.652  17.412 -0.2964  0.2369  0.2367
  798MPD2    C311810   1.149   2.639  17.550 -0.0340 -0.4039 -0.9228
  798MPD2    C411811   1.064   2.710  17.629  0.2197  0.3843 -0.2311
  798MPD2    C511812   0.972   2.806  17.571 -0.3167  0.6697 -0.4537
  798MPD2     H11813   1.182   2.586  17.339  0.1742 -0.0327  0.7621
  798MPD2    H111814   1.063   2.696  17.737 -1.6533 -0.2058 -0.3265
  798MPD2    H211815   0.871   2.847  17.386 -1.0592 -0.8296  0.5231
  798MPD2    H311816   0.909   2.868  17.633 -2.1718 -0.4386 -1.2475
  798MPD2     N11817   1.236   2.544  17.588  0.4264 -0.5202 -0.4593
  798MPD2    H511818   1.284   2.491  17.516  1.2233 -2.1043  1.2381
  798MPD2    N111819   1.011   2.715  17.213 -0.0938 -0.1302  0.1094
  798MPD2    H711820   0.932   2.759  17.168 -1.2698 -0.9595  1.3537
  799MPD2     C11821   0.516   3.075  14.847  0.0708  0.3621  0.3846
  799MPD2    C111822   0.390   3.016  14.845  0.6514  0.7053  0.8209
  799MPD2    C211823   0.273   3.094  14.808 -0.2746 -0.8999  0.1342
  799MPD2    C311824   0.281   3.218  14.753  0.2797 -0.1151 -0.1142
  799MPD2    C411825   0.412   3.271  14.748 -0.1493 -0.0901  0.2352
  799MPD2    C511826   0.520   3.198  14.788  0.3998  0.7976  0.1741
  799MPD2     H11827   0.176   3.058  14.839 -1.6256  3.0433  0.5006
  799MPD2    H111828   0.440   3.366  14.702  1.8071 -0.3972  0.7914
  799MPD2    H211829   0.602   3.024  14.888 -0.7750 -2.3498 -1.1821
  799MPD2    H311830   0.619   3.240  14.769  0.9074 -0.1696  0.6765
  799MPD2     N11831   0.176   3.308  14.720 -0.4306 -0.4321  0.3496
  799MPD2    H511832   0.204   3.398  14.683 -0.8701 -1.3479 -2.2015
  799MPD2    N111833   0.366   2.885  14.906  0.1228 -0.6047  0.2899
  799MPD2    H711834   0.269   2.857  14.919 -0.7527  0.7443 -3.3475
  800MPD2     C11835   0.452   4.302  14.180  0.4724  0.2465  0.1052
  800MPD2    C111836   0.559   4.263  14.257  0.0116  0.0237  0.6524
  800MPD2    C211837   0.633   4.158  14.199  0.3084 -0.5265  0.0700
  800MPD2    C311838   0.583   4.066  14.110 -0.3933 -0.1904 -0.2632
  800MPD2    C411839   0.455   4.091  14.064  0.7921  0.3035 -0.2972
  800MPD2    C511840   0.392   4.207  14.095 -0.4009  0.1648  0.8322
  800MPD2     H11841   0.733   4.139  14.235  0.4168  0.5567  0.3678
  800MPD2    H111842   0.405   4.012  14.009  1.2125  0.1492 -0.4620
  800MPD2    H211843   0.392   4.386  14.212  0.7354  0.8443 -0.9874
  800MPD2    H311844   0.286   4.220  14.076  0.3247  3.2664 -1.1263
  800MPD2     N11845   0.660   3.957  14.078  0.9496 -0.1841  0.1777
  800MPD2    H511846   0.755   3.958  14.114  0.8270 -1.2762  0.5270
  800MPD2    N111847   0.608   4.354  14.360  0.4980  0.3396  0.2890
  800MPD2    H711848   0.565   4.446  14.362  0.2985  0.2314  0.9811
  801MPD2     C11849   0.741   0.241  14.114 -0.4398 -0.4228  0.5089
  801MPD2    C111850   0.673   0.177  14.216  0.0494 -0.0014 -1.0116
  801MPD2    C211851   0.540   0.193  14.238 -0.3723 -0.1300  0.5704
  801MPD2    C311852   0.465   0.281  14.152 -1.3064 -0.1564 -0.5404
  801MPD2    C411853   0.532   0.353  14.057 -0.6750 -0.1865  0.0327
  801MPD2    C511854   0.670   0.335  14.042 -0.6518 -0.6983  0.4453
  801MPD2     H11855   0.483   0.132  14.307 -0.7380 -0.4945 -0.0567
  801MPD2    H111856   0.482   0.420  13.987 -1.2200  0.1741  0.7602
  801MPD2    H211857   0.847   0.230  14.093 -0.2893  0.4710  0.8301
  801MPD2    H311858   0.711   0.394  13.960 -2.3823 -0.3912 -0.2038
  801MPD2     N11859   0.324   0.308  14.171 -0.1275 -0.2691  0.1081
  801MPD2    H511860   0.272   0.360  14.101  2.7547  2.2691 -0.1371
  801MPD2    N111861   0.723   0.075  14.295 -0.0755  0.6610 -0.1523
  801MPD2    H711862   0.664   0.021  14.357  0.6387 -0.4296 -0.4162
  802MPD2     C11863   4.678   0.944   0.122  0.0017 -0.3469  0.7718
  802MPD2    C111864   0.020   0.860   0.199  0.1801 -0.3395 -0.1365
  802MPD2    C211865   0.012   0.726   0.173  0.1907 -0.4515  0.9565
  802MPD2    C311866   4.690   0.678   0.057 -0.2141  0.0295  0.1884
  802MPD2    C411867   4.631   0.768  17.713 -0.4564 -0.9534 -0.5630
  802MPD2    C511868   4.618   0.899   0.003 -0.4840 -0.1316 -0.1725
  802MPD2     H11869   0.063   0.655   0.237 -1.7063 -2.7404 -0.0675
  802MPD2    H111870   4.604   0.732  17.614 -1.2030 -0.3650 -0.5726
  802MPD2    H211871   4.666   1.047   0.152  1.7298  0.0402  0.0959
  802MPD2    H311872   4.576   0.969  17.678  0.8939 -1.2088 -2.0190
  802MPD2     N11873   4.701   0.539   0.032 -0.1833 -0.4367 -0.6584
  802MPD2    H511874   0.035   0.478   0.071  0.9038  0.5188 -1.1526
  802MPD2    N111875   0.082   0.901   0.310  0.1704 -0.1577 -0.4049
  802MPD2    H711876   0.122   0.827   0.368  0.6731  0.9837  0.6955
  803MPD2     C11877   1.049   3.243  12.186  0.2530  0.4569 -0.6550
  803MPD2    C111878   1.017   3.342  12.269 -0.0779 -0.4212  0.3208
  803MPD2    C211879   1.007   3.309  12.401  0.8199  0.7913 -0.3994
  803MPD2    C311880   1.007   3.176  12.447  0.2919 -0.0817 -0.6447
  803MPD2    C411881   1.036   3.079  12.360 -0.6847  0.0645  0.4582
  803MPD2    C511882   1.048   3.116  12.229  0.8954 -0.3438 -0.4602
  803MPD2     H11883   1.001   3.384  12.478  0.9006  0.9452 -0.5440
  803MPD2    H111884   1.052   2.977  12.392  2.4681  0.2642 -0.5266
  803MPD2    H211885   1.070   3.262  12.081 -3.0422  2.3543 -0.9590
  803MPD2    H311886   1.059   3.037  12.155 -1.8070 -1.8947  0.7644
  803MPD2     N11887   0.985   3.142  12.585 -0.5074  0.2820 -0.4174
  803MPD2    H511888   0.988   3.044  12.612 -1.6293  0.1906 -0.5997
  803MPD2    N111889   0.995   3.472  12.231  0.7164 -0.0839  0.0459
  803MPD2    H711890   0.976   3.531  12.311 -1.1117 -0.0274 -0.4257
  804MPD2     C11891   0.785   0.530  17.107  0.8772 -0.3480 -0.5916
  804MPD2    C111892   0.801   0.507  17.245 -0.2837  0.7804  0.3830
  804MPD2    C211893   0.882   0.589  17.323 -0.3652 -0.1696  0.4208
  804MPD2    C311894   0.954   0.694  17.257  0.4504 -0.0500  0.4493
  804MPD2    C411895   0.925   0.718  17.128 -0.1979 -0.2818  0.0683
  804MPD2    C511896   0.843   0.639  17.055  0.1531 -0.2602  0.4330
  804MPD2     H11897   0.918   0.562  17.422  2.1516  2.5401  0.2246
  804MPD2    H111898   0.957   0.800  17.065 -3.1775  2.2444  1.8969
  804MPD2    H211899   0.723   0.473  17.039 -1.4568  0.7439  0.6204
  804MPD2    H311900   0.824   0.656  16.950  0.2449 -1.0352  0.2873
  804MPD2     N11901   1.032   0.785  17.324 -0.5984 -0.8006  0.4080
  804MPD2    H511902   1.030   0.779  17.426  0.1212  1.7312  0.5765
  804MPD2    N111903   0.737   0.389  17.303 -0.3074 -0.1556 -0.5141
  804MPD2    H711904   0.743   0.374  17.404 -2.0473 -1.9545 -0.6880
  805MPD2     C11905   4.332   3.387  16.102 -0.4507  0.1920  0.2367
  805MPD2    C111906   4.411   3.311  16.016 -0.3414 -0.3194  0.1364
  805MPD2    C211907   4.547   3.343  16.007 -0.8553  0.5183  0.3354
  805MPD2    C311908   4.603   3.445  16.086 -0.7284  0.2243  0.0327
  805MPD2    C411909   4.519   3.521  16.161 -0.1671  0.7372  0.1459
  805MPD2    C511910   4.384   3.493  16.166 -0.1871  0.1360  0.1862
  805MPD2     H11911   4.617   3.279  15.954  0.5417  1.3524  1.1535
  805MPD2    H111912   4.550   3.608  16.219 -0.0161  1.3019 -0.7763
  805MPD2    H211913   4.230   3.363  16.131 -0.0404 -0.8234  0.8207
  805MPD2    H311914   4.314   3.551  16.225  0.3123 -1.1950  2.1166
  805MPD2     N11915   0.006   3.462  16.082  0.4093  0.1857 -0.6630
  805MPD2    H511916   0.055   3.415  16.007 -0.5149  1.6801 -2.2030
  805MPD2    N111917   4.357   3.202  15.944 -0.1070  0.9019  0.5185
  805MPD2    H711918   4.413   3.153  15.876 -0.7578  1.2105 -0.2386
  806MPD2     C11919   0.272   2.994   1.136  0.3425  0.1002  0.0692
  806MPD2    C111920   0.387   3.067   1.115 -0.2211 -0.0145 -0.1280
  806MPD2    C211921   0.440   3.062   0.989  0.0866  0.0632  0.1017
  806MPD2    C311922   0.389   2.979   0.894  0.2800 -0.0297 -0.0286
  806MPD2    C411923   0.270   2.904   0.916  0.6065 -1.3291 -0.5367
  806MPD2    C511924   0.216   2.915   1.035  0.4484 -0.5094  0.5327
  806MPD2     H11925   0.534   3.115   0.971  0.2612 -0.0939  0.5536
  806MPD2    H111926   0.219   2.840   0.845 -1.7389  0.8175 -0.8103
  806MPD2    H211927   0.222   3.003   1.232 -0.8021  0.1466 -0.5342
  806MPD2    H311928   0.132   2.850   1.057 -2.5223  3.2520  0.2443
  806MPD2     N11929   0.449   2.972   0.768 -0.0536 -0.3838 -0.7082
  806MPD2    H511930   0.514   3.046   0.746 -0.5047 -0.3740 -2.0129
  806MPD2    N111931   0.441   3.152   1.218  0.2218  0.2668 -0.0587
  806MPD2    H711932   0.387   3.157   1.303 -0.1695  0.4948 -0.3200
  807MPD2     C11933   0.236   3.447   1.836  0.4417 -0.2782 -0.7083
  807MPD2    C111934   0.246   3.327   1.761 -0.0855 -0.2465 -0.1753
  807MPD2    C211935   0.149   3.229   1.779 -0.2847 -0.5484  0.0232
  807MPD2    C311936   0.069   3.226   1.892 -0.2718 -0.8786  0.3144
  807MPD2    C411937   0.081   3.327   1.986 -0.3537  0.1121 -0.3202
  807MPD2    C511938   0.150   3.439   1.949  0.4973  0.0558 -0.1451
  807MPD2     H11939   0.154   3.148   1.707  1.2882 -1.8044  1.5531
  807MPD2    H111940   0.025   3.335   2.078  0.7330  0.6434  0.2919
  807MPD2    H211941   0.305   3.528   1.815  0.1320  0.1031 -0.2512
  807MPD2    H311942   0.137   3.529   2.008  2.4177 -0.1405  0.5588
  807MPD2     N11943   4.712   3.121   1.891  0.6690 -0.1372  0.2796
  807MPD2    H511944   4.705   3.054   1.814 -0.4913  0.2655  0.0314
  807MPD2    N111945   0.347   3.315   1.664  0.4212  0.3306  0.0195
  807MPD2    H711946   0.352   3.235   1.601  1.3986 -0.1332  0.6886
  808MPD2     C11947   1.158   4.180   9.960  1.0446  0.0215 -0.1026
  808MPD2    C111948   1.092   4.194   9.842 -1.1833 -0.4850  0.3321
  808MPD2    C211949   1.111   4.312   9.771  0.5010  0.5499 -0.2074
  808MPD2    C311950   1.182   4.417   9.824  0.3531 -0.1785  0.3239
  808MPD2    C411951   1.245   4.397   9.943 -0.2177 -0.3713  0.5983
  808MPD2    C511952   1.229   4.278  10.013  0.1154 -0.2385  0.3620
  808MPD2     H11953   1.062   4.324   9.675 -1.6988 -1.4129  0.6601
  808MPD2    H111954   1.312   4.467   9.990 -0.8661  1.2921 -0.9698
  808MPD2    H211955   1.145   4.085  10.013 -1.1194  0.3411 -0.0302
  808MPD2    H311956   1.277   4.267  10.109  0.9740  2.2918  0.2271
  808MPD2     N11957   1.175   4.548   9.775  0.3156  0.0823 -0.2440
  808MPD2    H511958   1.209   4.620   9.838  0.8530 -0.5567  0.1923
  808MPD2    N111959   1.023   4.087   9.773  0.3979 -0.5051 -0.1663
  808MPD2    H711960   0.990   4.111   9.680  0.1020 -0.7655 -0.1271
  809MPD2     C11961   1.441   0.025   8.877 -0.9527  0.4076 -0.8784
  809MPD2    C111962   1.515   0.073   8.986 -0.1977 -0.2181  0.0943
  809MPD2    C211963   1.451   0.098   9.107  0.0345 -0.5324  0.2400
  809MPD2    C311964   1.314   0.067   9.125  0.3839 -0.2863 -0.0697
  809MPD2    C411965   1.245   0.015   9.012  0.3774 -0.0468 -1.3959
  809MPD2    C511966   1.308   4.735   8.890 -0.1835  0.9450 -0.2641
  809MPD2     H11967   1.504   0.146   9.187  1.7440 -2.8979  0.5237
  809MPD2    H111968   1.138   4.735   9.021  0.6622 -2.3158 -2.3500
  809MPD2    H211969   1.478   0.020   8.775 -0.9387  0.3644 -0.8714
  809MPD2    H311970   1.241   4.700   8.812 -0.9554 -0.8715  1.1783
  809MPD2     N11971   1.241   0.088   9.243 -0.0218  0.0145 -0.6843
  809MPD2    H511972   1.150   0.044   9.247 -0.0443  0.2147  1.1330
  809MPD2    N111973   1.650   0.110   8.984 -0.3230 -0.0049  0.4672
  809MPD2    H711974   1.695   0.126   9.073  1.2056  0.0913 -0.3181
  810MPD2     C11975   1.163   3.935  10.272  0.3076  0.0453 -0.2312
  810MPD2    C111976   1.061   3.894  10.351 -0.6119 -0.2093  0.4801
  810MPD2    C211977   1.011   3.974  10.455  0.4324  0.4558  0.1765
  810MPD2    C311978   1.056   4.109  10.459 -0.5737 -0.5188  0.4687
  810MPD2    C411979   1.156   4.153  10.375 -0.2508 -0.4658  0.2387
  810MPD2    C511980   1.213   4.061  10.287 -0.0679  1.5932  1.0228
  810MPD2     H11981   0.926   3.942  10.513  0.3247  1.9021  0.8139
  810MPD2    H111982   1.201   4.251  10.378  0.0319 -0.5521 -1.5895
  810MPD2    H211983   1.210   3.862  10.207  2.5680 -0.0735  1.5662
  810MPD2    H311984   1.308   4.089  10.241  0.3138 -0.3946  0.6021
  810MPD2     N11985   0.972   4.189  10.534  0.1468  0.2906  0.0278
  810MPD2    H511986   0.894   4.137  10.573 -0.3692  1.0924  0.0522
  810MPD2    N111987   1.014   3.761  10.322  0.2435  0.1654  0.2637
  810MPD2    H711988   1.046   3.714  10.239  0.8385 -1.2402  1.2856
  811MPD2     C11989   0.305   3.627   9.889 -0.4199 -0.5922  0.1946
  811MPD2    C111990   0.383   3.690   9.985  0.1830 -0.5051 -0.2393
  811MPD2    C211991   0.371   3.827  10.010  0.3349 -0.0597 -0.0941
  811MPD2    C311992   0.273   3.901   9.943  0.1850  0.5337  0.7427
  811MPD2    C411993   0.204   3.838   9.838  0.1541  0.4627  0.2565
  811MPD2    C511994   0.229   3.705   9.809  0.8020  0.2406 -0.5136
  811MPD2     H11995   0.423   3.883  10.088 -0.4381  0.8646 -0.2419
  811MPD2    H111996   0.128   3.884   9.775  1.5157  1.0758 -0.9226
  811MPD2    H211997   0.305   3.520   9.873  0.0759 -0.6281  0.4368
  811MPD2    H311998   0.174   3.654   9.730  1.4805 -0.2734 -0.6529
  811MPD2     N11999   0.258   4.036   9.977 -0.2443  0.0589  0.2889
  811MPD2    H512000   0.331   4.079  10.033 -0.3809  0.9897 -0.2511
  811MPD2    N112001   0.475   3.613  10.059 -0.5719  0.7739  0.2437
  811MPD2    H712002   0.479   3.514  10.036 -2.5496  0.0874  2.8197
  812MPD2     C12003   3.798   3.608  12.327 -0.1722  0.8998 -0.5182
  812MPD2    C112004   3.844   3.715  12.395 -0.3291 -0.5910  0.4594
  812MPD2    C212005   3.942   3.693  12.494  0.3676 -0.5070  0.4284
  812MPD2    C312006   3.990   3.564  12.518 -0.2012  0.0468  0.0921
  812MPD2    C412007   3.948   3.458  12.437  0.2274  0.4176  0.3363
  812MPD2    C512008   3.852   3.480  12.338 -0.4382 -0.7360 -0.0136
  812MPD2     H12009   3.988   3.782  12.536  0.1337 -1.1983  2.1281
  812MPD2    H112010   3.992   3.359  12.440 -2.0766 -0.6187 -0.7074
  812MPD2    H212011   3.726   3.625  12.247  0.9059  3.4876 -0.9334
  812MPD2    H312012   3.815   3.397  12.279 -1.6927  1.0959 -1.7775
  812MPD2     N12013   4.092   3.550  12.615 -0.0080  0.2028  0.5359
  812MPD2    H512014   4.104   3.632  12.674 -3.1449 -0.0213  1.4784
  812MPD2    N112015   3.782   3.846  12.369  0.0066  0.1344  0.1385
  812MPD2    H712016   3.698   3.848  12.313 -0.3835 -2.7642  0.6649
  813MPD2     C12017   2.990   0.203  13.055 -0.9566  0.2965  0.2451
  813MPD2    C112018   2.986   0.343  13.054  0.6386 -0.0878  0.4863
  813MPD2    C212019   2.890   0.409  13.125 -0.8113 -0.1541 -0.3175
  813MPD2    C312020   2.824   0.344  13.226 -0.2140  0.6698 -0.5867
  813MPD2    C412021   2.826   0.213  13.221  0.3137 -0.0635  0.6614
  813MPD2    C512022   2.901   0.139  13.137 -0.1283  0.3658 -0.7889
  813MPD2     H12023   2.875   0.517  13.124  0.7365  0.0568  0.5677
  813MPD2    H112024   2.771   0.155  13.294  1.7387 -0.6296  1.2965
  813MPD2    H212025   3.054   0.142  12.992 -0.8739  1.4399 -0.7851
  813MPD2    H312026   2.892   0.031  13.137  0.1519  0.3443  0.4489
  813MPD2     N12027   2.753   0.425  13.319  0.5932  0.4580  0.3206
  813MPD2    H512028   2.768   0.525  13.327 -2.5188  1.1451 -2.2471
  813MPD2    N112029   3.082   0.426  13.003  0.3794 -0.1628 -0.0538
  813MPD2    H712030   3.051   0.522  12.994 -0.5220 -0.3581  1.0405
  814MPD2     C12031   3.811   1.867  12.553 -0.4867 -0.3383  0.1907
  814MPD2    C112032   3.805   1.927  12.433  0.5697  0.1570 -0.6014
  814MPD2    C212033   3.839   2.064  12.426  0.4148 -0.4335  0.2538
  814MPD2    C312034   3.855   2.143  12.543 -0.6919  0.4365 -0.3362
  814MPD2    C412035   3.865   2.081  12.663 -0.9237  0.3693  0.0488
  814MPD2    C512036   3.839   1.946  12.664 -0.3104  0.0548  0.1148
  814MPD2     H12037   3.842   2.107  12.327  0.3152  1.1642  0.9410
  814MPD2    H112038   3.908   2.131  12.749  0.5864 -0.8391  0.0036
  814MPD2    H212039   3.808   1.760  12.569  2.4744  0.0201  3.0441
  814MPD2    H312040   3.859   1.901  12.760  2.8885  2.3023  0.4865
  814MPD2     N12041   3.895   2.275  12.540  0.3914  0.0149  0.2865
  814MPD2    H512042   3.898   2.328  12.626 -0.3500 -0.9981  0.9396
  814MPD2    N112043   3.780   1.858  12.314  0.3527 -0.0830 -0.2807
  814MPD2    H712044   3.766   1.918  12.233  2.9349  1.8064  0.6865
  815MPD2     C12045   4.096   0.118  12.204 -0.1136 -0.0482  0.1834
  815MPD2    C112046   4.023   0.089  12.091  0.0925 -0.7393  0.3066
  815MPD2    C212047   3.890   0.110  12.111 -0.1436  0.5637  0.6965
  815MPD2    C312048   3.835   0.158  12.227 -0.4253  0.6670 -0.4670
  815MPD2    C412049   3.912   0.181  12.336 -0.5632  0.6157 -0.6772
  815MPD2    C512050   4.048   0.159  12.328  0.1517  0.3580 -1.0943
  815MPD2     H12051   3.822   0.093  12.028 -0.9108  3.8763  0.6594
  815MPD2    H112052   3.872   0.210  12.433  1.4657  0.4144  0.2114
  815MPD2    H212053   4.203   0.098  12.199 -0.5024 -1.7816 -0.9746
  815MPD2    H312054   4.112   0.189  12.410 -1.1679  0.8535 -0.2263
  815MPD2     N12055   3.695   0.177  12.224  0.5026 -0.4927 -1.3120
  815MPD2    H512056   3.643   0.153  12.140 -1.2886 -0.8550 -0.0978
  815MPD2    N112057   4.080   0.040  11.967  0.4588  0.0591 -0.4837
  815MPD2    H712058   4.178   0.015  11.976 -0.0080 -2.0042 -1.1775
  816MPD2     C12059   3.787   4.196  17.627 -0.5758 -0.6524  0.1479
  816MPD2    C112060   3.802   4.309  17.549 -0.4885 -0.1738 -0.2080
  816MPD2    C212061   3.851   4.298  17.415  0.9224  0.3888  0.4234
  816MPD2    C312062   3.898   4.176  17.368  0.6277 -0.5915  0.0911
  816MPD2    C412063   3.892   4.065  17.457  0.5667 -0.5264 -0.2136
  816MPD2    C512064   3.831   4.074  17.579  0.8680  0.1661  0.1158
  816MPD2     H12065   3.865   4.381  17.347  1.4907 -0.0323  0.0247
  816MPD2    H112066   3.935   3.969  17.433  2.0226 -0.0313  0.4045
  816MPD2    H212067   3.734   4.198  17.721 -0.3494  1.6236  0.2275
  816MPD2    H312068   3.823   3.979  17.632  0.5064 -0.0217 -0.2818
  816MPD2     N12069   3.968   4.167  17.243 -0.2106 -0.1413  0.3196
  816MPD2    H512070   3.950   4.240  17.175 -1.1643 -0.6701  0.0091
  816MPD2    N112071   3.747   4.432  17.602 -1.1908 -0.1398  0.3573
  816MPD2    H712072   3.718   4.437  17.699 -0.1477  1.4982  0.5940
  817MPD2     C12073   3.583   1.479  10.092 -0.5693 -0.3876  0.1182
  817MPD2    C112074   3.688   1.560  10.043 -0.6766 -0.4207 -0.7933
  817MPD2    C212075   3.675   1.692  10.065 -0.0537  0.0098 -0.7934
  817MPD2    C312076   3.565   1.754  10.136  0.9785  0.7326 -0.3684
  817MPD2    C412077   3.462   1.671  10.167 -0.2380  0.3312 -0.4410
  817MPD2    C512078   3.470   1.534  10.149 -0.2385 -0.1766 -0.6076
  817MPD2     H12079   3.755   1.755  10.029 -1.0392  0.3955 -2.3197
  817MPD2    H112080   3.367   1.712  10.198  0.1162 -0.1870  1.3268
  817MPD2    H212081   3.584   1.374  10.065  1.6731 -0.1114 -0.9021
  817MPD2    H312082   3.393   1.466  10.182 -2.6238  2.9224  0.1586
  817MPD2     N12083   3.569   1.894  10.156 -0.8388 -0.3244 -0.1850
  817MPD2    H512084   3.658   1.935  10.129 -0.4366 -0.4270  0.9780
  817MPD2    N112085   3.814   1.517   9.987 -0.8299  0.1264  0.2863
  817MPD2    H712086   3.888   1.585   9.970  0.4436 -0.8775  1.8614
  818MPD2     C12087   2.688   1.859   9.772  0.8400 -0.0679  0.6541
  818MPD2    C112088   2.615   1.753   9.815  0.1401  0.0485 -0.2507
  818MPD2    C212089   2.595   1.646   9.733 -0.4985  0.7225  1.0539
  818MPD2    C312090   2.655   1.639   9.612 -0.0357  0.0655  0.1414
  818MPD2    C412091   2.729   1.751   9.560  0.1810 -0.1988 -0.0203
  818MPD2    C512092   2.745   1.858   9.645  0.1327 -0.1770  0.1924
  818MPD2     H12093   2.549   1.556   9.772  1.9311 -0.4895  1.1135
  818MPD2    H112094   2.777   1.745   9.463  1.1981  2.9901  0.2840
  818MPD2    H212095   2.707   1.945   9.836  0.0458 -0.4315  1.3798
  818MPD2    H312096   2.790   1.954   9.622 -0.6482 -0.1215 -1.1299
  818MPD2     N12097   2.642   1.530   9.527  0.4247 -0.5084  0.1744
  818MPD2    H512098   2.699   1.525   9.444 -0.1821  0.2558 -0.2845
  818MPD2    N112099   2.545   1.749   9.937  0.4739  0.5144  0.6308
  818MPD2    H712100   2.484   1.669   9.954  0.9048  0.0610  0.0648
  819MPD2     C12101   0.552   3.087  15.558 -0.3515  0.1645 -0.6981
  819MPD2    C112102   0.564   2.947  15.575 -0.2458 -0.2551 -0.0372
  819MPD2    C212103   0.628   2.902  15.684  0.2181  0.4443  0.0594
  819MPD2    C312104   0.674   2.982  15.787  0.1127 -0.1617 -0.7027
  819MPD2    C412105   0.665   3.122  15.772  0.7262 -0.1091  0.5403
  819MPD2    C512106   0.606   3.171  15.652 -0.2038 -0.2538  0.2468
  819MPD2     H12107   0.652   2.797  15.694  1.8952  0.8969  0.9149
  819MPD2    H112108   0.705   3.193  15.843  0.3466  3.6386 -2.9990
  819MPD2    H212109   0.507   3.128  15.468 -0.1679  0.7877 -0.5114
  819MPD2    H312110   0.591   3.278  15.640 -0.9154 -0.4320 -0.3954
  819MPD2     N12111   0.762   2.941  15.892 -0.0863  0.8779 -0.2414
  819MPD2    H512112   0.801   2.847  15.882 -0.0202  1.1955 -3.0062
  819MPD2    N112113   0.515   2.865  15.473  0.2216  0.9448  0.7006
  819MPD2    H712114   0.460   2.916  15.404 -1.9581 -0.6462  1.2833
  820MPD2     C12115   4.325   2.837  15.226 -0.2635  0.0773 -0.1952
  820MPD2    C112116   4.390   2.835  15.347 -0.1786 -0.6102 -0.1389
  820MPD2    C212117   4.515   2.784  15.351  0.2446 -0.1366 -0.1285
  820MPD2    C312118   4.580   2.734  15.242 -0.1137 -0.0863 -0.0870
  820MPD2    C412119   4.512   2.734  15.122  0.2641 -0.2271  0.6912
  820MPD2    C512120   4.389   2.788  15.121  0.6250 -0.6404  0.3301
  820MPD2     H12121   4.552   2.771  15.451  1.5463 -1.1239 -0.7362
  820MPD2    H112122   4.562   2.687  15.038  0.1870 -0.0064  0.5224
  820MPD2    H212123   4.227   2.880  15.210 -0.7921 -1.3926 -0.8446
  820MPD2    H312124   4.345   2.791  15.022  1.0096 -1.3793  0.1427
  820MPD2     N12125   4.713   2.676  15.252  1.0996  0.3455  0.3246
  820MPD2    H512126   0.011   2.613  15.181  0.6387  2.7121 -2.0018
  820MPD2    N112127   4.323   2.895  15.453 -0.3925 -0.0719  0.1676
  820MPD2    H712128   4.228   2.929  15.444 -0.3185  0.3727  1.1020
  821MPD2     C12129   1.129   3.876  13.446  0.1284  0.0582 -0.3359
  821MPD2    C112130   1.128   3.940  13.569  0.6989  0.4099  0.1635
  821MPD2    C212131   1.217   4.044  13.597 -0.0754  0.6073 -0.3638
  821MPD2    C312132   1.300   4.088  13.491 -0.4497 -0.0611 -0.1721
  821MPD2    C412133   1.295   4.026  13.367 -0.1150 -0.4206  0.7981
  821MPD2    C512134   1.212   3.919  13.346  0.1090 -0.5645  0.6566
  821MPD2     H12135   1.208   4.100  13.690  1.4319  1.3191 -0.6395
  821MPD2    H112136   1.359   4.053  13.283 -2.8895  0.1949 -1.1225
  821MPD2    H212137   1.074   3.787  13.416  2.4562 -1.3927 -0.2649
  821MPD2    H312138   1.211   3.864  13.253 -0.1267  0.7922 -0.1408
  821MPD2     N12139   1.400   4.186  13.497  0.1038  0.5888  0.0266
  821MPD2    H512140   1.449   4.229  13.420  0.3515  1.4899  0.6871
  821MPD2    N112141   1.046   3.890  13.677 -0.2428 -0.2929 -0.2948
  821MPD2    H712142   1.057   3.937  13.766 -0.6942 -0.4456 -0.1599
  822MPD2     C12143   1.625   4.415  15.923 -0.1150 -0.2237 -0.4013
  822MPD2    C112144   1.592   4.399  16.051 -0.1027 -0.4275  0.0357
  822MPD2    C212145   1.517   4.495  16.109  0.3503 -0.0526  0.2013
  822MPD2    C312146   1.477   4.607  16.045  0.2188  0.5107  0.0206
  822MPD2    C412147   1.502   4.621  15.911 -0.7116 -0.5322  0.1959
  822MPD2    C512148   1.581   4.528  15.858 -0.7627 -0.4954 -0.3653
  822MPD2     H12149   1.492   4.481  16.213  0.3689  1.2676  0.3884
  822MPD2    H112150   1.457   4.698  15.849  1.6315  1.0439  0.4336
  822MPD2    H212151   1.683   4.346  15.863 -1.3989 -0.6085 -1.1929
  822MPD2    H312152   1.601   4.522  15.751 -0.8572  2.0282 -0.5432
  822MPD2     N12153   1.417   4.709  16.124 -0.6031  0.2448 -0.7757
  822MPD2    H512154   1.378   4.672  16.210 -1.8793  0.6000 -1.2105
  822MPD2    N112155   1.623   4.286  16.130 -0.4561  0.4665 -0.5932
  822MPD2    H712156   1.575   4.266  16.217  2.0127  1.0416  0.8809
  823MPD2     C12157   0.972   0.268  16.787  0.0195  0.6916 -1.2838
  823MPD2    C112158   1.038   0.180  16.703  0.9398 -0.8365 -0.3294
  823MPD2    C212159   1.073   0.060  16.747  0.6165 -0.3436 -0.2240
  823MPD2    C312160   1.046   0.019  16.877  0.1113 -0.1201  0.5782
  823MPD2    C412161   0.974   0.107  16.956 -0.3405  0.3304 -0.1972
  823MPD2    C512162   0.931   0.231  16.913 -0.3621  0.1776 -0.3450
  823MPD2     H12163   1.121   4.724  16.682 -1.1614 -1.3727 -0.3895
  823MPD2    H112164   0.953   0.090  17.061  0.1751 -0.5088 -0.2348
  823MPD2    H212165   0.935   0.365  16.754  0.0353  0.3846 -2.2117
  823MPD2    H312166   0.891   0.306  16.981 -1.5674  0.3127 -1.2025
  823MPD2     N12167   1.077   4.634  16.933 -0.0795 -0.1137  0.1471
  823MPD2    H512168   1.037   4.605  17.022 -0.9256  3.1875  0.8189
  823MPD2    N112169   1.079   0.221  16.571 -0.4652 -0.0788 -0.1089
  823MPD2    H712170   1.068   0.317  16.541 -0.1183  0.1461  0.4869
  824MPD2     C12171   1.738   3.437  16.360 -0.3571  0.1939  0.5408
  824MPD2    C112172   1.810   3.521  16.281 -0.1847  0.0768  0.8640
  824MPD2    C212173   1.916   3.472  16.199  0.3199  0.0208  0.1660
  824MPD2    C312174   1.940   3.340  16.196 -0.2744 -0.2972  0.2592
  824MPD2    C412175   1.867   3.254  16.277  0.3048  0.2773  0.5551
  824MPD2    C512176   1.769   3.304  16.356 -0.3069  0.3657  0.1715
  824MPD2     H12177   1.978   3.533  16.134 -0.1804  0.2421 -0.1010
  824MPD2    H112178   1.887   3.148  16.266 -0.4061  0.1055  0.8978
  824MPD2    H212179   1.649   3.454  16.419 -0.8097 -0.7219  0.1325
  824MPD2    H312180   1.707   3.241  16.419 -1.0738 -1.4440 -2.4045
  824MPD2     N12181   2.051   3.300  16.111 -0.8184  0.7864 -0.2343
  824MPD2    H512182   2.095   3.368  16.051  0.2404 -0.1928 -0.5719
  824MPD2    N112183   1.780   3.654  16.290  0.2429  0.5387 -0.5587
  824MPD2    H712184   1.711   3.688  16.357 -0.7496 -2.0735 -0.2795
  825MPD2     C12185   2.373   3.551  15.416 -0.3019 -0.2356  0.7417
  825MPD2    C112186   2.394   3.557  15.549 -0.2671 -0.0857  0.1522
  825MPD2    C212187   2.432   3.675  15.613  0.5524  0.3958 -0.1779
  825MPD2    C312188   2.457   3.782  15.537  0.2007 -0.3888  0.2434
  825MPD2    C412189   2.437   3.780  15.401 -0.2052 -0.7767  0.2381
  825MPD2    C512190   2.397   3.662  15.343  0.2493  0.3894 -0.3672
  825MPD2     H12191   2.427   3.680  15.721 -1.6637 -2.2852 -0.1399
  825MPD2    H112192   2.464   3.861  15.333  2.1025 -2.1101 -0.4267
  825MPD2    H212193   2.340   3.461  15.365  1.4143 -0.9204  0.8309
  825MPD2    H312194   2.386   3.648  15.236  1.5763 -3.9728  0.0402
  825MPD2     N12195   2.476   3.912  15.592  0.4266  0.0133 -0.8744
  825MPD2    H512196   2.469   3.996  15.535  0.6250  0.0989 -0.7710
  825MPD2    N112197   2.346   3.445  15.620  0.2282  0.0008  0.1563
  825MPD2    H712198   2.304   3.368  15.570 -0.0613 -0.7320  1.5403
  826MPD2     C12199   1.607   3.175  13.741  0.1601  0.6805 -0.4917
  826MPD2    C112200   1.715   3.255  13.695  0.1088  0.0358 -0.7018
  826MPD2    C212201   1.746   3.374  13.769 -0.5120  0.1047 -0.0069
  826MPD2    C312202   1.668   3.409  13.885 -0.4969 -0.2357 -0.7276
  826MPD2    C412203   1.559   3.335  13.915 -1.1431 -0.5868 -0.2608
  826MPD2    C512204   1.537   3.218  13.849  0.0612 -0.2532 -0.0825
  826MPD2     H12205   1.831   3.436  13.743 -0.7895  0.4271 -0.1418
  826MPD2    H112206   1.497   3.348  14.003  0.4464 -2.8513  1.1888
  826MPD2    H212207   1.583   3.075  13.705  0.6942  0.9377 -1.5536
  826MPD2    H312208   1.455   3.154  13.879  0.5485 -0.9757 -0.2823
  826MPD2     N12209   1.705   3.518  13.960 -0.3151  0.0703  0.0506
  826MPD2    H512210   1.640   3.553  14.029 -1.3899 -0.9606 -0.4513
  826MPD2    N112211   1.794   3.213  13.585 -0.1152 -0.2712  0.9435
  826MPD2    H712212   1.770   3.128  13.535  2.4819  0.6741 -1.8823
  827MPD2     C12213   3.376   0.274   9.909  0.8689 -0.3647  0.0359
  827MPD2    C112214   3.278   0.292  10.004  0.2881 -0.1948 -0.2758
  827MPD2    C212215   3.158   0.350   9.969  0.3000 -0.3349 -0.5239
  827MPD2    C312216   3.140   0.396   9.839 -0.4003 -0.0343  0.2665
  827MPD2    C412217   3.245   0.385   9.750 -0.5229  1.0448 -0.2353
  827MPD2    C512218   3.357   0.324   9.785  0.5725 -0.1567  0.0447
  827MPD2     H12219   3.081   0.363  10.044  0.2868 -1.6050 -0.3176
  827MPD2    H112220   3.236   0.430   9.652  0.8722 -0.8456 -1.2279
  827MPD2    H212221   3.467   0.218   9.926  2.3366  2.1984  0.5515
  827MPD2    H312222   3.431   0.315   9.706 -0.0470 -0.7352 -0.4713
  827MPD2     N12223   3.018   0.472   9.804 -0.2592  0.6929  0.0569
  827MPD2    H512224   2.948   0.468   9.877 -1.2933 -2.1974 -1.0969
  827MPD2    N112225   3.317   0.259  10.136  0.6307 -0.0636  0.0176
  827MPD2    H712226   3.405   0.208  10.143  0.4247 -0.2894  0.9895
  828MPD2     C12227   1.824   4.386  12.667  0.0460  0.4480  0.2565
  828MPD2    C112228   1.725   4.439  12.577 -0.8116  0.8166  0.6513
  828MPD2    C212229   1.766   4.513  12.470  0.6093  0.2557 -0.8288
  828MPD2    C312230   1.904   4.547  12.450 -0.3876  0.4337  0.1593
  828MPD2    C412231   1.992   4.504  12.546  0.6940  0.2268 -0.1140
  828MPD2    C512232   1.951   4.419  12.647  0.0785 -0.2166  0.7408
  828MPD2     H12233   1.690   4.551  12.403 -0.3306  2.1055  1.2781
  828MPD2    H112234   2.099   4.520  12.542  0.9278 -0.9947  1.2066
  828MPD2    H212235   1.797   4.316  12.745  1.0059  1.7437  1.7855
  828MPD2    H312236   2.033   4.392  12.712 -0.7283 -2.7234  0.7098
  828MPD2     N12237   1.957   4.618  12.343 -0.1789 -0.7023 -1.0137
  828MPD2    H512238   2.058   4.626  12.345 -0.5806  4.1225  1.0559
  828MPD2    N112239   1.586   4.423  12.600  0.7689  0.6847  0.3206
  828MPD2    H712240   1.522   4.470  12.537  1.1773  0.9950  0.1349
  829MPD2     C12241   0.952   0.006  12.085  0.2062 -0.1534  0.2132
  829MPD2    C112242   0.878   4.685  12.180  0.1578  0.0568  0.0009
  829MPD2    C212243   0.941   4.619  12.288 -0.3393 -0.1981 -0.5101
  829MPD2    C312244   1.080   4.632  12.304 -1.0258 -0.1340 -0.5542
  829MPD2    C412245   1.155   4.694  12.197  0.2242 -0.2979  0.2333
  829MPD2    C512246   1.089   0.009  12.094 -0.0856 -0.1352 -0.3560
  829MPD2     H12247   0.874   4.567  12.355 -2.7749  3.1039 -0.3829
  829MPD2    H112248   1.263   4.708  12.198  0.3135 -0.9217 -0.7984
  829MPD2    H212249   0.904   0.057  12.003 -0.2049 -0.2725  0.3810
  829MPD2    H312250   1.143   0.063  12.018  0.2226  1.5600  1.0753
  829MPD2     N12251   1.155   4.595  12.415 -0.1705 -0.4047  0.3225
  829MPD2    H512252   1.256   4.596  12.415 -0.1727 -0.1753  0.0498
  829MPD2    N112253   0.739   4.685  12.156 -0.4476 -0.1695  0.3279
  829MPD2    H712254   0.707   4.735  12.073  0.7606 -0.1358 -0.1172
  830MPD2     C12255   1.479   2.628  16.044 -0.2416  0.0970 -0.0904
  830MPD2    C112256   1.422   2.705  15.946 -0.6718 -0.0171 -0.0673
  830MPD2    C212257   1.494   2.730  15.828 -0.9990 -0.1591  0.2356
  830MPD2    C312258   1.614   2.666  15.814  0.2768 -0.6650  0.2833
  830MPD2    C412259   1.667   2.583  15.910  0.3505  0.3631  0.4352
  830MPD2    C512260   1.599   2.562  16.025  0.5186  0.3426  0.3403
  830MPD2     H12261   1.447   2.792  15.753 -0.4205  1.3866  1.1562
  830MPD2    H112262   1.758   2.526  15.894  0.6108  1.4833 -2.1799
  830MPD2    H212263   1.427   2.608  16.137 -1.7928  0.9993 -0.7606
  830MPD2    H312264   1.641   2.506  16.108  0.0758 -0.7641 -0.1826
  830MPD2     N12265   1.699   2.692  15.705  0.2511  1.0533 -0.4851
  830MPD2    H512266   1.794   2.663  15.729  0.0749  0.7409 -0.1668
  830MPD2    N112267   1.296   2.762  15.968  0.5500 -0.7065 -0.1462
  830MPD2    H712268   1.260   2.756  16.063 -0.0457  1.9556 -0.2026
  831MPD2     C12269   1.660   0.086  16.443 -0.1151  0.1366  0.4656
  831MPD2    C112270   1.692   4.695  16.410 -0.3367  0.3326 -0.1223
  831MPD2    C212271   1.591   4.594  16.425 -0.1269  0.3354 -0.8129
  831MPD2    C312272   1.464   4.629  16.477  0.2316  0.3846  0.1600
  831MPD2    C412273   1.444   0.025  16.514  0.8843  0.9297  0.5953
  831MPD2    C512274   1.540   0.119  16.500 -0.6773  0.6514 -0.8272
  831MPD2     H12275   1.620   4.490  16.415 -2.1894 -0.4967  1.6788
  831MPD2    H112276   1.353   0.063  16.559 -0.8822 -1.0609 -1.2946
  831MPD2    H212277   1.738   0.161  16.442  1.9531 -2.0756 -2.3010
  831MPD2    H312278   1.514   0.216  16.540 -0.8140  0.6504 -0.9165
  831MPD2     N12279   1.353   4.537  16.485  0.3534  0.4302  0.6760
  831MPD2    H512280   1.263   4.573  16.515  0.8445  0.0348  2.6264
  831MPD2    N112281   1.816   4.673  16.353 -0.4399  0.5928  0.6256
  831MPD2    H712282   1.866   0.017  16.319 -0.5026 -0.8510 -2.8501
  832MPD2     C12283   4.712   0.486  17.315  0.4407  0.0488  0.5625
  832MPD2    C112284   4.720   0.619  17.289  0.4446  0.2369 -0.4260
  832MPD2    C212285   4.617   0.689  17.232  0.2899  0.1204 -0.2379
  832MPD2    C312286   4.509   0.618  17.195 -0.6025 -0.3450  0.2357
  832MPD2    C412287   4.507   0.484  17.210 -0.0118 -0.0418  0.2653
  832MPD2    C512288   4.607   0.415  17.269 -0.1371 -0.6065 -0.0739
  832MPD2     H12289   4.614   0.798  17.228  0.4971  0.1060 -0.7505
  832MPD2    H112290   4.417   0.427  17.188 -0.9568  1.8473 -0.7672
  832MPD2    H212291   0.061   0.439  17.362  0.2190 -1.2476 -0.3272
  832MPD2    H312292   4.608   0.308  17.288  3.4768 -0.3528  1.1735
  832MPD2     N12293   4.389   0.676  17.145 -0.6680  0.0543  0.5318
  832MPD2    H512294   4.323   0.606  17.113 -3.8227  3.7797 -1.0816
  832MPD2    N112295   0.085   0.691  17.355  0.2261  0.7604 -0.0661
  832MPD2    H712296   0.143   0.646  17.425  1.6651  1.5270 -0.7605
  833MPD2     C12297   2.692   2.213  12.714 -0.2481 -0.0292 -0.9949
  833MPD2    C112298   2.559   2.213  12.702 -0.0193  0.3957  0.3216
  833MPD2    C212299   2.492   2.135  12.609  0.4745 -0.2208  0.3818
  833MPD2    C312300   2.568   2.079  12.509 -0.5328  0.0254 -0.4692
  833MPD2    C412301   2.699   2.089  12.516 -0.8063 -0.7199  0.2461
  833MPD2    C512302   2.770   2.158  12.614 -0.2422 -0.2943 -0.0085
  833MPD2     H12303   2.384   2.131  12.610  0.4678  0.4024  3.0991
  833MPD2    H112304   2.754   2.039  12.438  0.5029  0.8481  0.1596
  833MPD2    H212305   2.726   2.268  12.801  1.4639 -1.9059 -0.4699
  833MPD2    H312306   2.878   2.166  12.618 -0.3771  1.4511  0.2172
  833MPD2     N12307   2.521   2.031  12.383  0.2165  0.3215  0.2365
  833MPD2    H512308   2.592   1.998  12.319  0.9035  1.4970  0.3956
  833MPD2    N112309   2.489   2.271  12.814 -0.0744  1.1937 -0.4449
  833MPD2    H712310   2.546   2.276  12.898  0.2777 -0.0092 -0.5994
  834MPD2     C12311   1.750   1.691  11.686 -0.0406  0.5466  0.4563
  834MPD2    C112312   1.862   1.743  11.617  0.5905  0.0420 -0.3026
  834MPD2    C212313   1.962   1.812  11.691 -0.2083 -0.2051  0.8853
  834MPD2    C312314   1.948   1.832  11.826 -0.1067 -0.2249  0.2547
  834MPD2    C412315   1.831   1.789  11.890  1.3534  0.7590  0.1575
  834MPD2    C512316   1.740   1.705  11.822 -0.6304  0.2797 -0.1677
  834MPD2     H12317   2.060   1.829  11.647 -0.3520 -0.1279  0.5933
  834MPD2    H112318   1.803   1.806  11.993 -0.1645 -1.1240  0.0676
  834MPD2    H212319   1.671   1.637  11.634  1.9706 -0.3796 -1.6360
  834MPD2    H312320   1.660   1.656  11.877  0.0611 -1.9884 -1.1677
  834MPD2     N12321   2.054   1.904  11.889  0.3304  0.0682  0.2808
  834MPD2    H512322   2.130   1.947  11.836 -0.3016  0.2042 -0.5168
  834MPD2    N112323   1.865   1.710  11.484  0.1867  0.2063 -0.1325
  834MPD2    H712324   1.786   1.660  11.445 -1.2605  1.6715  0.9241
  835MPD2     C12325   2.427   0.489  11.324  0.3408 -0.2563 -1.0578
  835MPD2    C112326   2.356   0.547  11.432  0.0657 -0.0837  0.2030
  835MPD2    C212327   2.420   0.533  11.560 -0.1844  0.1192 -0.1385
  835MPD2    C312328   2.533   0.453  11.578 -0.5582  0.2765 -0.2040
  835MPD2    C412329   2.595   0.400  11.466 -0.4138  0.6395  0.1834
  835MPD2    C512330   2.542   0.425  11.342  0.0224  0.1706 -0.4902
  835MPD2     H12331   2.366   0.587  11.636  1.6004 -0.9344  1.8777
  835MPD2    H112332   2.677   0.329  11.466 -0.3549  0.6915 -2.4286
  835MPD2    H212333   2.385   0.471  11.226 -1.4332 -1.8640 -0.0138
  835MPD2    H312334   2.589   0.383  11.254  1.5089  1.7051 -0.4318
  835MPD2     N12335   2.587   0.411  11.706  0.4608 -0.6223 -0.0090
  835MPD2    H512336   2.642   0.326  11.707 -0.0196 -0.9575 -1.3984
  835MPD2    N112337   2.232   0.613  11.412  0.4222 -0.2346  0.4595
  835MPD2    H712338   2.175   0.636  11.493  2.4452  0.8126  1.5810
  836MPD2     C12339   1.984   0.404  12.012  0.6869  0.0272 -0.0507
  836MPD2    C112340   2.064   0.339  12.104 -0.1507 -0.3546 -0.4927
  836MPD2    C212341   2.015   0.309  12.226  0.6559 -0.1451 -0.1792
  836MPD2    C312342   1.878   0.333  12.245  0.2584 -0.3825 -0.3522
  836MPD2    C412343   1.799   0.395  12.157 -0.0296 -0.4311  0.7611
  836MPD2    C512344   1.853   0.430  12.036 -0.1369 -0.5111 -0.3919
  836MPD2     H12345   2.076   0.259  12.300  0.2564 -0.7297 -0.2402
  836MPD2    H112346   1.692   0.396  12.172 -0.2914 -2.2457 -0.9602
  836MPD2    H212347   2.023   0.431  11.915  1.8840 -0.9711  0.1524
  836MPD2    H312348   1.788   0.479  11.965 -0.1351 -0.2917 -0.2421
  836MPD2     N12349   1.813   0.288  12.363 -0.5800 -0.6904 -0.0991
  836MPD2    H512350   1.715   0.314  12.371 -0.5015 -0.3388 -0.2464
  836MPD2    N112351   2.202   0.327  12.078  0.2768  0.8731  0.3648
  836MPD2    H712352   2.234   0.376  11.995  1.6866 -0.3544  0.1808
  837MPD2     C12353   0.484   0.063   9.889  0.1281 -0.2075 -0.2855
  837MPD2    C112354   0.418   0.050  10.010  0.3614  0.3344 -0.6435
  837MPD2    C212355   0.371   0.156  10.082  0.8973 -0.2662 -0.5977
  837MPD2    C312356   0.392   0.283  10.029  0.5642 -0.0564 -0.2900
  837MPD2    C412357   0.473   0.301   9.921  0.2644  0.0197 -0.2843
  837MPD2    C512358   0.517   0.190   9.847 -0.0703 -0.5108 -0.4004
  837MPD2     H12359   0.307   0.144  10.169  1.7695 -0.8696 -0.0397
  837MPD2    H112360   0.495   0.402   9.891 -1.3067  0.9184  1.5887
  837MPD2    H212361   0.528   4.720   9.830  0.5001  0.3130 -0.7163
  837MPD2    H312362   0.576   0.203   9.757  0.0665  1.5785 -0.0146
  837MPD2     N12363   0.315   0.390  10.088 -0.4195  0.4938 -0.6536
  837MPD2    H512364   0.245   0.358  10.155  0.5007  0.7145  0.4181
  837MPD2    N112365   0.358   4.663  10.042 -0.1886  0.1480  0.3873
  837MPD2    H712366   0.290   4.664  10.118 -0.2223  1.6983  0.3286
  838MPD2     C12367   3.490   3.182  12.111 -0.1340  0.1234  0.7512
  838MPD2    C112368   3.430   3.075  12.049  0.4423  0.7998 -0.8585
  838MPD2    C212369   3.395   2.964  12.126 -0.5206 -0.7454 -0.6427
  838MPD2    C312370   3.410   2.961  12.263  0.5205 -0.8380 -0.0530
  838MPD2    C412371   3.476   3.069  12.322  0.0562 -0.8504 -0.6294
  838MPD2    C512372   3.512   3.180  12.247 -0.3419 -0.1768 -0.4467
  838MPD2     H12373   3.344   2.879  12.082 -0.3430 -2.5690  2.6670
  838MPD2    H112374   3.499   3.068  12.428 -0.0135 -0.1990 -0.6090
  838MPD2    H212375   3.506   3.273  12.055 -0.5111  0.2254  0.8101
  838MPD2    H312376   3.575   3.254  12.293 -1.8621  0.0287  1.3020
  838MPD2     N12377   3.369   2.854  12.343 -0.5315 -0.1266 -0.4608
  838MPD2    H512378   3.376   2.872  12.443 -0.9725  1.1572 -0.6554
  838MPD2    N112379   3.406   3.067  11.913  0.2256  0.1154  0.1381
  838MPD2    H712380   3.359   2.987  11.872  0.1383  0.7979 -1.0670
  839MPD2     C12381   2.793   2.552  11.704  0.1318 -0.6214  0.1950
  839MPD2    C112382   2.918   2.505  11.684 -0.9558 -0.2489  0.3514
  839MPD2    C212383   3.020   2.603  11.677 -0.4307 -0.6500  0.1918
  839MPD2    C312384   3.002   2.739  11.692  0.3719 -0.2390  0.1088
  839MPD2    C412385   2.874   2.778  11.719  0.8469  0.3689 -0.5209
  839MPD2    C512386   2.771   2.687  11.730  0.0548 -0.2411  0.0477
  839MPD2     H12387   3.119   2.569  11.651 -0.9118  0.2242 -2.7711
  839MPD2    H112388   2.856   2.879  11.754  1.0361  1.1494 -2.7050
  839MPD2    H212389   2.704   2.492  11.720  0.1342 -1.0868 -1.6159
  839MPD2    H312390   2.672   2.715  11.766  2.0933  1.1148  4.6451
  839MPD2     N12391   3.101   2.832  11.665  0.4945 -0.2573  0.7270
  839MPD2    H512392   3.088   2.929  11.689 -0.8555 -0.3516  0.4291
  839MPD2    N112393   2.954   2.377  11.643  0.1586  0.2022  0.1296
  839MPD2    H712394   3.042   2.361  11.595 -0.7702  2.2206 -2.2253
  840MPD2     C12395   3.725   0.691  10.331  0.2081  0.0614  0.5559
  840MPD2    C112396   3.741   0.593  10.425 -0.4960  0.5396  0.2220
  840MPD2    C212397   3.838   0.609  10.522 -0.1110  0.5510  0.2436
  840MPD2    C312398   3.923   0.717  10.523  0.0867  0.4012 -0.6908
  840MPD2    C412399   3.914   0.804  10.420 -0.8240  0.3091  0.5597
  840MPD2    C512400   3.812   0.798  10.324  0.1201 -0.3273 -0.1905
  840MPD2     H12401   3.853   0.530  10.596 -1.3779 -2.4629 -2.7071
  840MPD2    H112402   3.992   0.877  10.401 -1.7411  0.6266 -2.0215
  840MPD2    H212403   3.664   0.672  10.244 -2.4147 -1.0287  2.6680
  840MPD2    H312404   3.803   0.865  10.239  2.8995 -0.1385 -0.3565
  840MPD2     N12405   4.020   0.736  10.618 -0.4876  0.3846 -0.1380
  840MPD2    H512406   4.080   0.818  10.607 -1.1544  0.7144 -1.2672
  840MPD2    N112407   3.654   0.483  10.424  0.3694  0.2284  0.8501
  840MPD2    H712408   3.582   0.496  10.353 -0.2152 -0.3065  1.3379
  841MPD2     C12409   3.786   4.478  14.301  0.9566 -0.2106 -0.3694
  841MPD2    C112410   3.852   4.419  14.411  0.0996 -0.0091 -0.3485
  841MPD2    C212411   3.956   4.483  14.476 -0.2217 -0.1451  0.4550
  841MPD2    C312412   4.002   4.601  14.438 -0.8917  0.6686 -0.3155
  841MPD2    C412413   3.947   4.659  14.320  1.2760 -0.3513 -1.3643
  841MPD2    C512414   3.842   4.597  14.253 -0.6132  0.2097  0.6959
  841MPD2     H12415   4.005   4.441  14.563  3.0817 -0.4530 -1.5574
  841MPD2    H112416   3.978   0.020  14.287 -0.0525  0.6342  0.2921
  841MPD2    H212417   3.702   4.434  14.250 -0.2775  1.4244  0.2175
  841MPD2    H312418   3.791   4.652  14.175  0.3367  1.4424  0.9412
  841MPD2     N12419   4.082   4.677  14.533 -0.6785  0.2100  0.8003
  841MPD2    H512420   4.104   4.640  14.625 -0.0766  2.7486  1.6675
  841MPD2    N112421   3.809   4.291  14.465  0.1517  0.3043 -0.1245
  841MPD2    H712422   3.869   4.259  14.541  1.6880  1.1513 -0.9908
  842MPD2     C12423   4.061   1.430  16.874  0.4055 -0.0437 -0.6132
  842MPD2    C112424   3.992   1.329  16.923  0.5244  0.0875  0.0049
  842MPD2    C212425   4.040   1.275  17.038 -0.5529 -0.3549 -0.3592
  842MPD2    C312426   4.160   1.320  17.095 -0.8132 -0.8340 -0.6525
  842MPD2    C412427   4.231   1.420  17.039 -0.4868  0.4760  0.0242
  842MPD2    C512428   4.180   1.477  16.925  0.1009 -0.1267  0.1838
  842MPD2     H12429   3.976   1.213  17.099 -1.1845  2.0001  1.4033
  842MPD2    H112430   4.324   1.455  17.081 -1.0779  0.7963  1.0678
  842MPD2    H212431   4.033   1.484  16.784 -0.7186  0.0160 -0.2331
  842MPD2    H312432   4.238   1.560  16.886  0.3641  0.1885  1.2462
  842MPD2     N12433   4.210   1.272  17.216  0.2012  0.6724 -0.0345
  842MPD2    H512434   4.288   1.321  17.257  2.7768 -1.8166 -1.9594
  842MPD2    N112435   3.874   1.293  16.859  0.6527  0.1311 -0.7467
  842MPD2    H712436   3.863   1.338  16.769  0.2989  1.4277 -0.0555
  843MPD2     C12437   0.909   2.194   0.078  0.0559 -0.0056  0.0474
  843MPD2    C112438   0.991   2.130   0.169 -0.5063 -0.4255 -0.4002
  843MPD2    C212439   1.061   2.206   0.261 -0.1781  0.6788  0.0502
  843MPD2    C312440   1.074   2.340   0.245 -0.8712 -0.0592  0.5349
  843MPD2    C412441   0.992   2.401   0.155 -0.5280 -0.8696  0.0839
  843MPD2    C512442   0.913   2.333   0.071  0.2161 -0.4290  0.2005
  843MPD2     H12443   1.127   2.154   0.329 -0.6027  0.8807  0.6166
  843MPD2    H112444   0.977   2.508   0.143  1.7065 -0.5869 -0.0753
  843MPD2    H212445   0.839   2.132   0.023  0.9279  0.0712 -1.1393
  843MPD2    H312446   0.841   2.387   0.010 -0.0247 -0.0305  0.8408
  843MPD2     N12447   1.156   2.426   0.328 -0.1695 -0.1120  0.0443
  843MPD2    H512448   1.175   2.522   0.303 -1.2088  0.9466  3.2927
  843MPD2    N112449   1.002   1.990   0.150 -0.3988  0.3084 -0.2032
  843MPD2    H712450   0.957   1.955   0.066  2.3278 -0.9059 -1.1729
  844MPD2     C12451   4.235   0.536  16.696  0.2047 -0.1014 -0.8202
  844MPD2    C112452   4.327   0.429  16.711 -0.3577  0.3570  0.7596
  844MPD2    C212453   4.447   0.457  16.777 -0.2275 -0.3274  0.4613
  844MPD2    C312454   4.470   0.590  16.821  0.0861  0.1855  0.4866
  844MPD2    C412455   4.369   0.687  16.810  0.3358 -0.1518 -0.1418
  844MPD2    C512456   4.252   0.662  16.748  0.0217 -0.3348  1.1377
  844MPD2     H12457   4.511   0.375  16.807  0.8704  0.5220  0.4463
  844MPD2    H112458   4.388   0.789  16.841  0.7743 -0.0618 -0.7013
  844MPD2    H212459   4.149   0.527  16.630  0.6927  1.1542 -1.6328
  844MPD2    H312460   4.193   0.745  16.713 -0.2812 -0.2672  1.8122
  844MPD2     N12461   4.606   0.616  16.870  0.3092  0.2340  0.3223
  844MPD2    H512462   4.671   0.539  16.869  0.1495  0.1515 -2.2298
  844MPD2    N112463   4.306   0.303  16.649 -0.1478  0.3625  0.9309
  844MPD2    H712464   4.378   0.233  16.650 -1.0606 -0.5863  0.1206
  845MPD2     C12465   0.282   1.494  17.137  0.5901  0.7238 -0.2020
  845MPD2    C112466   0.186   1.419  17.207 -0.3255  0.2131  0.6027
  845MPD2    C212467   0.157   1.293  17.158  0.1769  0.1273  0.6552
  845MPD2    C312468   0.235   1.239  17.057  0.4678 -0.5911 -0.4999
  845MPD2    C412469   0.331   1.316  16.992  0.2274  0.6983 -0.1263
  845MPD2    C512470   0.354   1.442  17.036  0.3752 -0.2213 -0.1645
  845MPD2     H12471   0.078   1.228  17.195  1.3925 -0.1942  2.6803
  845MPD2    H112472   0.396   1.279  16.913 -0.4891  0.0205 -0.3954
  845MPD2    H212473   0.318   1.592  17.166 -0.2047  0.6100  1.1669
  845MPD2    H312474   0.440   1.498  17.001 -0.7254  1.7425  0.2797
  845MPD2     N12475   0.208   1.105  17.018  0.6223 -0.1317  0.2255
  845MPD2    H512476   0.122   1.064  17.053 -0.6607  2.5975  0.2745
  845MPD2    N112477   0.117   1.483  17.312 -0.4860 -0.9465 -0.4455
  845MPD2    H712478   0.120   1.584  17.310 -2.6515 -0.8802 -0.4596
  846MPD2     C12479   1.873   1.631  13.911 -1.0750  0.2034 -0.7540
  846MPD2    C112480   1.740   1.669  13.892 -0.2442 -0.0981  0.4917
  846MPD2    C212481   1.648   1.656  13.997  0.6574  0.0582 -0.5538
  846MPD2    C312482   1.685   1.625  14.127  0.3454 -0.1337 -0.1440
  846MPD2    C412483   1.821   1.600  14.146 -0.0719  0.0295 -0.3684
  846MPD2    C512484   1.910   1.591  14.045  0.0671  0.7039 -0.4389
  846MPD2     H12485   1.547   1.677  13.964  0.6695  1.8210  0.5533
  846MPD2    H112486   1.857   1.580  14.246 -2.1560  1.4918  0.6697
  846MPD2    H212487   1.956   1.642  13.843 -0.9771 -3.4751 -1.2408
  846MPD2    H312488   2.008   1.557  14.076 -0.2932 -1.4639 -1.7194
  846MPD2     N12489   1.577   1.594  14.222  0.2177 -0.6935 -0.1010
  846MPD2    H512490   1.480   1.603  14.195  0.4352  0.0418 -0.6385
  846MPD2    N112491   1.690   1.714  13.767  0.1632 -0.6057  0.5415
  846MPD2    H712492   1.589   1.718  13.754  0.5407  4.0382 -0.8752
  847MPD2     C12493   1.228   2.732  14.546 -0.1442 -0.1940  0.3406
  847MPD2    C112494   1.345   2.794  14.590  0.1299  0.0540 -0.0764
  847MPD2    C212495   1.445   2.718  14.635  0.3876 -0.0322  0.5191
  847MPD2    C312496   1.442   2.583  14.627  0.0346  0.2400  1.1130
  847MPD2    C412497   1.326   2.518  14.585 -0.2844  1.1450  0.0679
  847MPD2    C512498   1.216   2.598  14.553 -0.1242  0.3052  0.0345
  847MPD2     H12499   1.537   2.760  14.675 -0.8342  0.6463  2.6255
  847MPD2    H112500   1.317   2.411  14.566 -0.1350  1.4150 -1.5757
  847MPD2    H212501   1.136   2.783  14.519  0.0316  0.0871  0.2822
  847MPD2    H312502   1.121   2.557  14.522  0.5152  1.1182 -3.0144
  847MPD2     N12503   1.566   2.514  14.651  0.1313  0.5102 -0.0584
  847MPD2    H512504   1.646   2.572  14.673  1.0426 -0.4497 -0.8019
  847MPD2    N112505   1.365   2.936  14.593 -0.1518  0.5172  0.1328
  847MPD2    H712506   1.459   2.964  14.617  0.2161 -1.4300  0.9429
  848MPD2     C12507   4.069   1.061  16.553 -0.3779 -0.4522 -1.2501
  848MPD2    C112508   4.144   1.100  16.653 -0.8116  0.7168  0.4919
  848MPD2    C212509   4.232   1.211  16.632  0.0185  0.0295  0.0205
  848MPD2    C312510   4.226   1.280  16.514  0.1276  0.9141 -0.8240
  848MPD2    C412511   4.138   1.237  16.420  0.8609 -0.7188 -0.2065
  848MPD2    C512512   4.061   1.126  16.434 -0.0595  0.3451  0.1577
  848MPD2     H12513   4.304   1.242  16.707 -2.7832  0.4635  2.5238
  848MPD2    H112514   4.124   1.304  16.336  1.1677 -0.2839  0.0875
  848MPD2    H212515   4.005   0.976  16.572  0.4820 -0.5790  1.0826
  848MPD2    H312516   3.992   1.091  16.358 -0.9621 -1.2652  1.7300
  848MPD2     N12517   4.303   1.395  16.485  0.1807 -0.5799 -0.1804
  848MPD2    H512518   4.296   1.427  16.389 -0.6793  0.5009  0.2437
  848MPD2    N112519   4.136   1.038  16.777  0.3678  0.0201 -0.2215
  848MPD2    H712520   4.213   1.050  16.842 -0.8089  0.2184  1.1410
  849MPD2     C12521   2.950   0.701  14.679  0.7556  0.2782 -0.2450
  849MPD2    C112522   3.061   0.657  14.615 -0.4837  0.0832  0.5931
  849MPD2    C212523   3.158   0.590  14.690  0.6681  0.2649  0.6558
  849MPD2    C312524   3.152   0.573  14.825 -0.1147 -0.1529 -0.8427
  849MPD2    C412525   3.039   0.616  14.894  0.2211 -0.7149 -0.3611
  849MPD2    C512526   2.943   0.681  14.814 -0.2150  0.5052  0.0741
  849MPD2     H12527   3.244   0.556  14.635  0.8940  1.7734  0.0886
  849MPD2    H112528   3.020   0.605  15.000 -1.1838  2.2531 -0.3002
  849MPD2    H212529   2.864   0.750  14.635  1.5199  1.1522 -0.7438
  849MPD2    H312530   2.847   0.714  14.853 -0.8623 -2.0301  0.6554
  849MPD2     N12531   3.267   0.527  14.888 -0.3180  0.5699 -0.4860
  849MPD2    H512532   3.354   0.531  14.837 -0.5159  0.4877 -0.8319
  849MPD2    N112533   3.094   0.687  14.476 -0.5097  0.3143  0.2933
  849MPD2    H712534   3.192   0.667  14.456 -0.0933 -0.4196  3.0100
  850MPD2     C12535   1.532   3.739  14.766 -0.4119  0.2426 -0.4096
  850MPD2    C112536   1.497   3.770  14.893  1.0735 -0.0469 -0.3676
  850MPD2    C212537   1.590   3.848  14.975  0.8026  0.0770  0.0218
  850MPD2    C312538   1.720   3.863  14.918  0.0645  0.4694 -0.6335
  850MPD2    C412539   1.752   3.816  14.794  0.0526 -0.2731  0.6429
  850MPD2    C512540   1.657   3.749  14.719  0.3374 -0.2367  0.1113
  850MPD2     H12541   1.565   3.902  15.066 -1.9549 -1.0077 -0.0926
  850MPD2    H112542   1.850   3.831  14.751  0.4083 -1.3930  1.0741
  850MPD2    H212543   1.461   3.699  14.695 -0.5233  1.3733 -0.9412
  850MPD2    H312544   1.676   3.725  14.615 -1.6064  0.6031 -0.4547
  850MPD2     N12545   1.825   3.927  14.983 -0.2857 -0.6273  0.2448
  850MPD2    H512546   1.910   3.942  14.930 -0.7042  1.7370  0.2406
  850MPD2    N112547   1.366   3.736  14.927 -0.0841 -0.1389  0.2452
  850MPD2    H712548   1.320   3.696  14.846  1.5127 -1.8015  0.1613
  851MPD2     C12549   1.781   3.594  15.693  0.4690 -0.9615 -0.6825
  851MPD2    C112550   1.731   3.540  15.576  1.0271  0.3301  0.2541
  851MPD2    C212551   1.770   3.416  15.528  0.2582 -0.4980  0.6228
  851MPD2    C312552   1.844   3.337  15.609 -0.1097  0.5040  0.4706
  851MPD2    C412553   1.891   3.382  15.733  0.5651 -0.4030 -0.3286
  851MPD2    C512554   1.863   3.510  15.775 -0.2811  0.5798 -0.1847
  851MPD2     H12555   1.736   3.377  15.433 -0.9998  1.3318  0.3310
  851MPD2    H112556   1.948   3.323  15.804  0.3915 -0.7343 -0.4649
  851MPD2    H212557   1.759   3.691  15.736  2.1280 -1.4072  1.1713
  851MPD2    H312558   1.906   3.552  15.866 -1.7045  0.0617  0.7347
  851MPD2     N12559   1.867   3.211  15.558  0.3994 -0.7490  0.4786
  851MPD2    H512560   1.844   3.186  15.463 -2.0871  0.1335  0.8399
  851MPD2    N112561   1.649   3.626  15.505 -0.2444  0.3492 -0.7504
  851MPD2    H712562   1.642   3.715  15.553  1.3788 -0.9811  1.9286
  852MPD2     C12563   1.150   2.167   9.917  0.1537 -0.3922  0.3254
  852MPD2    C112564   1.249   2.215   9.999  0.4458  0.6443  0.6229
  852MPD2    C212565   1.276   2.353  10.009 -0.2243  0.2536 -0.2637
  852MPD2    C312566   1.210   2.442   9.932 -0.0369  0.3760 -0.2422
  852MPD2    C412567   1.123   2.391   9.833  0.5301  0.3530  0.7531
  852MPD2    C512568   1.095   2.256   9.831  0.4589  0.2356  0.0051
  852MPD2     H12569   1.347   2.380  10.087  1.4226 -2.3353 -0.8340
  852MPD2    H112570   1.081   2.461   9.761 -1.0250 -1.5709 -0.2139
  852MPD2    H212571   1.124   2.062   9.923  1.0329 -0.6139  0.2488
  852MPD2    H312572   1.010   2.221   9.774 -0.5262  1.8154  0.4898
  852MPD2     N12573   1.263   2.574   9.938  0.4091  0.3695  0.6509
  852MPD2    H512574   1.306   2.590  10.029  1.6998  0.4517  0.0165
  852MPD2    N112575   1.323   2.136  10.087 -0.4850  0.1555 -1.0316
  852MPD2    H712576   1.374   2.180  10.163 -2.0900  0.7669 -0.3219
  853MPD2     C12577   3.294   0.858  12.592  0.6875  0.7856  0.1874
  853MPD2    C112578   3.214   0.968  12.555 -0.3975 -0.0130  0.1735
  853MPD2    C212579   3.232   1.022  12.430 -0.7550 -0.1382  0.3474
  853MPD2    C312580   3.331   0.974  12.337  0.3780 -0.2543 -0.8745
  853MPD2    C412581   3.417   0.882  12.387  0.7589  0.1275  0.0691
  853MPD2    C512582   3.395   0.824  12.506  0.0749 -0.1561  0.1591
  853MPD2     H12583   3.170   1.101  12.389 -0.3579 -0.2765 -0.5195
  853MPD2    H112584   3.502   0.847  12.329  0.6943  0.7402 -0.4014
  853MPD2    H212585   3.277   0.801  12.682 -2.2435  1.6105  0.1390
  853MPD2    H312586   3.454   0.738  12.533  1.6557  0.8125 -0.2072
  853MPD2     N12587   3.359   1.024  12.213  0.7486 -0.8780  0.4443
  853MPD2    H512588   3.432   0.970  12.167 -0.0099 -2.7416  1.4398
  853MPD2    N112589   3.115   1.009  12.646  0.1536 -0.4985  0.1280
  853MPD2    H712590   3.103   0.948  12.726  1.3471 -1.6961 -0.6163
  854MPD2     C12591   4.625   1.935  13.009 -0.0425  0.8381  0.3539
  854MPD2    C112592   4.688   1.874  12.904  0.1390 -0.1121 -0.1441
  854MPD2    C212593   0.050   1.780  12.922 -0.0514 -0.2637  0.7901
  854MPD2    C312594   0.092   1.752  13.049  0.7623  0.0376  0.1051
  854MPD2    C412595   0.036   1.820  13.157 -0.6942  0.6491 -0.4043
  854MPD2    C512596   4.669   1.905  13.136 -0.7892  0.1878  0.7133
  854MPD2     H12597   0.090   1.731  12.833 -0.8534 -1.1638  0.9199
  854MPD2    H112598   0.080   1.805  13.255  0.3204 -1.8891 -1.2480
  854MPD2    H212599   4.554   2.016  13.003 -0.6153  0.4051  1.2573
  854MPD2    H312600   4.642   1.964  13.222  1.8483  1.3188  0.7773
  854MPD2     N12601   0.194   1.665  13.088  0.4900  0.1588 -0.6833
  854MPD2    H512602   0.212   1.658  13.188 -1.0113  0.5564 -0.3959
  854MPD2    N112603   4.637   1.902  12.777  0.4651  0.4228 -0.1390
  854MPD2    H712604   4.553   1.958  12.776  0.2516  0.1388  3.6730
  855MPD2     C12605   4.573   1.111  13.558  0.8386  0.2634 -0.1196
  855MPD2    C112606   4.697   1.052  13.575  0.0572 -0.3156  0.5357
  855MPD2    C212607   0.065   1.111  13.510 -0.4458  0.2700  0.7270
  855MPD2    C312608   0.052   1.233  13.452 -0.6280  0.3826  0.2606
  855MPD2    C412609   4.670   1.300  13.456 -0.2823 -0.0719  0.2681
  855MPD2    C512610   4.558   1.238  13.506 -0.0709  0.5482 -0.4573
  855MPD2     H12611   0.163   1.064  13.515  0.3959  1.6939 -2.0594
  855MPD2    H112612   4.647   1.401  13.423 -1.6000 -0.5161 -0.1732
  855MPD2    H212613   4.490   1.058  13.603  0.1334  0.6032 -1.0336
  855MPD2    H312614   4.459   1.281  13.500 -0.6626 -0.6584  0.7022
  855MPD2     N12615   0.150   1.303  13.373 -0.0926  0.3954  1.0277
  855MPD2    H512616   0.114   1.381  13.319  2.5813  0.9186 -0.0308
  855MPD2    N112617   4.711   0.932  13.653 -0.1641  0.7598 -0.4256
  855MPD2    H712618   0.071   0.906  13.662 -0.9085 -1.7205  0.5032
  856MPD2     C12619   2.046   2.120  13.997 -0.3913 -0.2267  0.0492
  856MPD2    C112620   2.044   2.169  14.128 -0.3119 -0.1669 -0.4974
  856MPD2    C212621   1.927   2.222  14.170  0.6791 -0.3319  0.9072
  856MPD2    C312622   1.826   2.245  14.085 -0.0495  0.0152 -0.4538
  856MPD2    C412623   1.826   2.204  13.956  0.2929  0.0152 -0.1609
  856MPD2    C512624   1.942   2.139  13.910 -0.2775 -0.2883 -0.3159
  856MPD2     H12625   1.915   2.259  14.272  0.1712 -0.7108  0.9821
  856MPD2    H112626   1.740   2.214  13.891  0.0164  1.2069  0.3914
  856MPD2    H212627   2.134   2.073  13.954 -0.9472 -3.1692  2.0588
  856MPD2    H312628   1.949   2.094  13.811 -2.6743 -0.1668 -0.5362
  856MPD2     N12629   1.706   2.307  14.120  0.0093 -0.0650 -0.3475
  856MPD2    H512630   1.632   2.302  14.051  0.2730  3.0847 -0.8465
  856MPD2    N112631   2.153   2.165  14.215  0.0990  0.2905 -0.1769
  856MPD2    H712632   2.130   2.190  14.311 -0.5604  1.3768 -0.6245
  857MPD2     C12633   3.427   4.409  12.651  0.3778 -0.8731 -0.1606
  857MPD2    C112634   3.548   4.415  12.717 -0.2541  0.7027  0.2434
  857MPD2    C212635   3.598   4.538  12.743 -1.1011 -0.4388  0.4686
  857MPD2    C312636   3.548   4.657  12.692 -0.0884  0.3115 -0.0509
  857MPD2    C412637   3.437   4.656  12.612  0.2065 -0.9765 -0.4420
  857MPD2    C512638   3.377   4.531  12.606  0.3289 -0.0905 -0.0044
  857MPD2     H12639   3.685   4.547  12.807  0.3768 -0.7805 -1.4845
  857MPD2    H112640   3.378   4.736  12.569  2.3353 -0.1659 -1.8552
  857MPD2    H212641   3.373   4.316  12.633  0.7713 -0.7227 -2.1215
  857MPD2    H312642   3.282   4.521  12.555  1.0516  1.0923 -1.5746
  857MPD2     N12643   3.608   0.032  12.745  0.4748  0.2403 -0.3914
  857MPD2    H512644   3.699   0.017  12.787 -0.0313  0.3276  0.7569
  857MPD2    N112645   3.607   4.294  12.764 -0.1749 -0.0219 -0.1819
  857MPD2    H712646   3.553   4.208  12.763  0.4319 -0.3533 -3.4826
  858MPD2     C12647   4.400   3.495  16.695 -0.3264  0.3042  0.2018
  858MPD2    C112648   4.509   3.411  16.723 -0.3822  0.6121  0.6985
  858MPD2    C212649   4.580   3.436  16.845  0.2998  0.1770  0.2611
  858MPD2    C312650   4.556   3.547  16.924  0.3484  0.1151  0.2590
  858MPD2    C412651   4.447   3.630  16.888 -0.3709  0.6677 -0.1802
  858MPD2    C512652   4.374   3.602  16.775 -0.3807 -0.4592  0.2044
  858MPD2     H12653   4.643   3.359  16.888  1.0002  0.0499 -0.9960
  858MPD2    H112654   4.425   3.707  16.960  0.1116 -0.6386  1.3742
  858MPD2    H212655   4.337   3.492  16.607 -2.2556  1.4644  1.5315
  858MPD2    H312656   4.289   3.665  16.753 -0.6810 -2.1392 -3.3145
  858MPD2     N12657   4.621   3.574  17.049  0.0345 -0.4667  0.4760
  858MPD2    H512658   4.578   3.645  17.108  2.5492  0.7099  0.8850
  858MPD2    N112659   4.543   3.313  16.629 -0.5890 -0.0250  0.2607
  858MPD2    H712660   4.471   3.298  16.559  0.1317  0.8211 -0.6534
  859MPD2     C12661   3.238   0.652  15.418  0.0718  0.2036  0.4143
  859MPD2    C112662   3.369   0.659  15.390  0.0998  0.8482 -0.7070
  859MPD2    C212663   3.472   0.602  15.465  0.0526 -0.5914  0.5108
  859MPD2    C312664   3.429   0.524  15.573  1.2013 -0.0698  0.1993
  859MPD2    C412665   3.295   0.518  15.601  1.2553  0.8301 -0.7390
  859MPD2    C512666   3.199   0.587  15.532  0.3341 -0.2191  0.9553
  859MPD2     H12667   3.579   0.615  15.450  0.1161 -1.9364 -0.2936
  859MPD2    H112668   3.262   0.457  15.685  1.0071  1.7039 -0.1947
  859MPD2    H212669   3.164   0.675  15.342 -0.3150 -0.0295  0.7261
  859MPD2    H312670   3.094   0.568  15.552 -0.3747  1.7675 -0.8950
  859MPD2     N12671   3.514   0.456  15.658 -0.6220 -0.0786 -0.0508
  859MPD2    H512672   3.467   0.403  15.731 -0.7965 -0.8853 -0.7499
  859MPD2    N112673   3.407   0.717  15.263  0.1825  0.3255 -0.0599
  859MPD2    H712674   3.508   0.717  15.255  0.2983 -2.3200  1.4911
  860MPD2     C12675   1.250   1.460  11.604  0.3127  0.6864  0.3408
  860MPD2    C112676   1.277   1.434  11.734  0.6290 -0.6794 -0.1566
  860MPD2    C212677   1.176   1.424  11.826 -0.1113 -1.0876  0.5187
  860MPD2    C312678   1.043   1.435  11.788  0.0934  0.0880  0.6684
  860MPD2    C412679   1.016   1.471  11.659 -0.9321 -0.0043 -0.3852
  860MPD2    C512680   1.115   1.477  11.566  0.7138  0.2896 -0.2037
  860MPD2     H12681   1.203   1.417  11.931 -0.2831  0.0335  0.6373
  860MPD2    H112682   0.917   1.490  11.620 -0.1627  0.3320 -2.1583
  860MPD2    H212683   1.327   1.448  11.528  0.6705  2.3770  0.4502
  860MPD2    H312684   1.084   1.498  11.465  3.0718  1.8150 -0.6292
  860MPD2     N12685   0.939   1.396  11.883  0.5591  0.3186  0.3007
  860MPD2    H512686   0.966   1.372  11.978 -0.4409  0.6814  0.6708
  860MPD2    N112687   1.398   1.407  11.789 -0.1560  0.0520  0.3496
  860MPD2    H712688   1.392   1.381  11.887 -2.4457  0.0703  0.2286
  861MPD2     C12689   0.390   4.128  11.002  0.0605 -0.2813  0.4342
  861MPD2    C112690   0.286   4.183  11.076 -0.7055  0.0914  0.3613
  861MPD2    C212691   0.189   4.258  11.015  0.0299 -0.4357 -0.9913
  861MPD2    C312692   0.202   4.284  10.876  0.8622 -0.1837 -0.3702
  861MPD2    C412693   0.304   4.220  10.805 -0.3791  0.0120  0.8796
  861MPD2    C512694   0.406   4.152  10.866 -0.0843  0.7290 -0.4672
  861MPD2     H12695   0.106   4.297  11.072  0.0503  0.1857 -1.3831
  861MPD2    H112696   0.311   4.239  10.698 -2.3168 -0.4495  0.6751
  861MPD2    H212697   0.468   4.071  11.051  1.6121  0.8680 -0.7190
  861MPD2    H312698   0.479   4.092  10.813 -0.8637 -0.4140 -0.2686
  861MPD2     N12699   0.116   4.373  10.804 -0.1728  0.0310  0.5906
  861MPD2    H512700   0.137   4.392  10.706  2.0612 -2.0192  0.6619
  861MPD2    N112701   0.268   4.156  11.216 -0.6983  0.0716  0.0373
  861MPD2    H712702   0.191   4.200  11.266  1.5992  1.4862  2.3196
  862MPD2     C12703   4.291   4.411  10.253  0.0925  0.3897 -0.3776
  862MPD2    C112704   4.389   4.411  10.348 -0.2240  0.4863 -0.8979
  862MPD2    C212705   4.368   4.337  10.466  0.0334  0.9550  0.1485
  862MPD2    C312706   4.253   4.266  10.484  0.7593 -0.4509  0.3344
  862MPD2    C412707   4.159   4.254  10.386 -0.3125 -0.6388 -0.4547
  862MPD2    C512708   4.180   4.328  10.268 -0.6475 -0.1913 -0.3782
  862MPD2     H12709   4.442   4.335  10.545  1.3734  1.2293 -1.1230
  862MPD2    H112710   4.078   4.183  10.394  0.7198 -1.5081  2.0638
  862MPD2    H212711   4.309   4.463  10.159  1.0632 -0.8971 -0.9170
  862MPD2    H312712   4.119   4.314  10.180 -1.9345  1.0659  0.3075
  862MPD2     N12713   4.237   4.198  10.604 -0.0946  0.0393 -0.0289
  862MPD2    H512714   4.157   4.135  10.604  2.1367 -2.8026 -1.2339
  862MPD2    N112715   4.509   4.473  10.316  0.0577 -0.1364  0.1772
  862MPD2    H712716   4.529   4.481  10.217  0.7111  1.0176  0.4097
  863MPD2     C12717   2.981   2.019  16.700 -0.5115 -0.1557  0.0329
  863MPD2    C112718   2.943   2.143  16.754 -0.6265 -0.0676 -1.0055
  863MPD2    C212719   3.018   2.197  16.857  0.1348 -0.2582  0.0484
  863MPD2    C312720   3.128   2.120  16.898  0.1994  0.5541 -0.0926
  863MPD2    C412721   3.166   2.003  16.848  0.2825 -1.1349  0.5168
  863MPD2    C512722   3.090   1.948  16.746  0.7461  0.3628  0.4056
  863MPD2     H12723   2.994   2.296  16.895  0.7394 -0.3006  0.5293
  863MPD2    H112724   3.249   1.942  16.883 -0.3899 -1.7666  0.9980
  863MPD2    H212725   2.933   1.994  16.606 -0.5970 -0.4257  0.1506
  863MPD2    H312726   3.123   1.859  16.693 -1.0134  0.6243 -1.1487
  863MPD2     N12727   3.200   2.151  17.016 -0.2372  0.4215 -0.4907
  863MPD2    H512728   3.258   2.079  17.057  0.1437  0.8619 -0.2501
  863MPD2    N112729   2.834   2.210  16.692 -0.2173  0.5767  0.0414
  863MPD2    H712730   2.797   2.160  16.612  1.4322 -1.1660  0.3710
  864MPD2     C12731   3.399   3.355  17.584 -0.3277 -0.0739 -0.6253
  864MPD2    C112732   3.433   3.274  17.481 -0.6265  0.2551 -0.3631
  864MPD2    C212733   3.521   3.325  17.385  0.0661 -0.0938  0.3280
  864MPD2    C312734   3.574   3.457  17.397  0.3173  0.5433  0.1928
  864MPD2    C412735   3.534   3.537  17.501 -0.1541  0.4514  0.0090
  864MPD2    C512736   3.452   3.484  17.591  0.5388 -0.0568 -0.3182
  864MPD2     H12737   3.551   3.265  17.300  0.3505  2.0116 -1.0644
  864MPD2    H112738   3.573   3.637  17.518 -0.9397  0.4650  1.7438
  864MPD2    H212739   3.340   3.327  17.670 -0.2651  1.8488  0.0490
  864MPD2    H312740   3.438   3.540  17.683  0.5075 -0.8172  0.1465
  864MPD2     N12741   3.655   3.525  17.303 -0.2478  0.3709  0.1404
  864MPD2    H512742   3.676   3.621  17.325 -1.6302  0.6708  0.1545
  864MPD2    N112743   3.370   3.145  17.463  0.5557 -0.2621 -0.7830
  864MPD2    H712744   3.303   3.126  17.537  3.7072 -1.2686  1.7750
  865MPD2     C12745   3.612   3.900  16.515 -0.6312  0.2599  0.3245
  865MPD2    C112746   3.661   3.799  16.597 -0.2201 -0.2796  0.6023
  865MPD2    C212747   3.660   3.814  16.734  0.3158  0.4603  0.4376
  865MPD2    C312748   3.641   3.943  16.790  0.6646  0.4621 -0.6178
  865MPD2    C412749   3.610   4.046  16.703  0.1863  0.2569 -0.3002
  865MPD2    C512750   3.585   4.023  16.567  0.6806 -0.0409 -0.5795
  865MPD2     H12751   3.689   3.724  16.786 -1.0069 -1.1614 -1.6138
  865MPD2    H112752   3.592   4.145  16.746 -0.3822 -1.2020  2.8522
  865MPD2    H212753   3.599   3.894  16.407 -0.9547  2.9022  0.2138
  865MPD2    H312754   3.549   4.104  16.504  0.7761 -0.5997 -1.3604
  865MPD2     N12755   3.644   3.980  16.926  0.3661  0.3112  0.1587
  865MPD2    H512756   3.611   4.074  16.947 -2.5948 -0.6682 -0.1938
  865MPD2    N112757   3.701   3.677  16.538  0.8045 -0.6697 -0.5370
  865MPD2    H712758   3.709   3.677  16.437  1.6573 -0.7723 -0.4675
  866MPD2     C12759   0.662   4.326  11.543  0.5642 -0.3464 -0.3147
  866MPD2    C112760   0.638   4.320  11.406  0.7455 -0.4486  0.1913
  866MPD2    C212761   0.535   4.394  11.351 -0.1172  0.1828  0.4781
  866MPD2    C312762   0.448   4.464  11.436 -0.6593 -0.0716  0.1198
  866MPD2    C412763   0.468   4.455  11.565 -0.6320  0.0015 -0.0212
  866MPD2    C512764   0.568   4.385  11.625  0.1712  0.5597  0.0722
  866MPD2     H12765   0.502   4.378  11.249 -1.3019  1.0925  0.7260
  866MPD2    H112766   0.406   4.514  11.632 -1.1617 -1.5548  0.8605
  866MPD2    H212767   0.748   4.274  11.583 -0.7365 -2.7247 -0.6363
  866MPD2    H312768   0.582   4.394  11.732  1.4668 -1.6097  0.0725
  866MPD2     N12769   0.332   4.531  11.391 -0.2350  0.1282  0.7753
  866MPD2    H512770   0.275   4.572  11.465  0.2603 -0.5780  1.5521
  866MPD2    N112771   0.710   4.229  11.330  0.0383  0.1789  0.1002
  866MPD2    H712772   0.778   4.169  11.376 -0.1146 -0.6061 -0.6913
  867MPD2     C12773   2.139   3.723  16.416  0.1297  0.5380 -0.3990
  867MPD2    C112774   2.122   3.639  16.523 -0.3113  1.1149  0.4170
  867MPD2    C212775   2.098   3.688  16.649 -0.3217  0.3595  0.2306
  867MPD2    C312776   2.098   3.825  16.671 -0.5040  0.6317  0.7369
  867MPD2    C412777   2.106   3.912  16.565  0.0636  0.1974  1.0725
  867MPD2    C512778   2.133   3.857  16.439 -0.7831  0.4438 -0.1958
  867MPD2     H12779   2.074   3.621  16.730 -1.9177 -0.0156 -0.5606
  867MPD2    H112780   2.086   4.018  16.571  1.0599  0.4060  0.7369
  867MPD2    H212781   2.170   3.687  16.318 -1.5480 -0.6101 -0.5069
  867MPD2    H312782   2.164   3.922  16.358  2.3464 -2.4081 -1.2556
  867MPD2     N12783   2.098   3.887  16.801 -0.0995  0.0689 -0.5452
  867MPD2    H512784   2.076   3.986  16.807  0.6309  0.1935  0.0314
  867MPD2    N112785   2.143   3.499  16.499  0.0799  0.1671 -0.1121
  867MPD2    H712786   2.191   3.481  16.411  2.2279  2.8360  0.5158
  868MPD2     C12787   4.087   3.073  13.440 -0.1205  0.9504  0.4473
  868MPD2    C112788   4.077   2.940  13.457  0.4665  0.8445 -0.8893
  868MPD2    C212789   3.950   2.884  13.443 -0.3493 -0.5601  1.0535
  868MPD2    C312790   3.837   2.954  13.406  0.5104  0.2875  0.0717
  868MPD2    C412791   3.849   3.087  13.388 -0.8931 -0.4212 -0.1159
  868MPD2    C512792   3.974   3.146  13.412  0.0398 -0.5581  0.1205
  868MPD2     H12793   3.941   2.776  13.450  0.4633 -0.5378  2.2779
  868MPD2    H112794   3.761   3.146  13.364  0.1785  1.5592  0.8258
  868MPD2    H212795   4.186   3.118  13.445  0.5828 -0.7636  1.8613
  868MPD2    H312796   3.977   3.249  13.378 -0.7211 -1.3843 -2.4679
  868MPD2     N12797   3.723   2.877  13.407 -0.7961  0.2863 -0.2955
  868MPD2    H512798   3.733   2.777  13.421 -1.2853 -0.0383 -2.2107
  868MPD2    N112799   4.193   2.870  13.492 -0.1762  0.9908 -0.6837
  868MPD2    H712800   4.279   2.923  13.502  0.8033 -0.7863  0.3626
  869MPD2     C12801   0.138   0.551   0.925  0.4488  0.0123  0.6685
  869MPD2    C112802   0.237   0.527   0.835  0.4772  0.0990  0.6051
  869MPD2    C212803   0.347   0.605   0.818  0.2973 -0.4176 -0.1129
  869MPD2    C312804   0.371   0.710   0.900  0.3761 -0.3187 -0.0624
  869MPD2    C412805   0.271   0.741   0.992  0.7535 -0.6558 -0.4342
  869MPD2    C512806   0.154   0.667   1.000 -0.3445 -0.8459  0.4264
  869MPD2     H12807   0.428   0.561   0.761  0.5526  0.6513 -0.5715
  869MPD2    H112808   0.272   0.819   1.068  0.0896 -3.0768  2.0843
  869MPD2    H212809   0.047   0.495   0.938  0.4569 -0.2920 -0.5734
  869MPD2    H312810   0.077   0.701   1.069  1.4799  1.1838  1.4591
  869MPD2     N12811   0.486   0.798   0.907  0.6594  0.2496 -0.5678
  869MPD2    H512812   0.484   0.882   0.965 -1.1768  1.6432 -2.6514
  869MPD2    N112813   0.218   0.406   0.767  0.5149  0.2701  0.6720
  869MPD2    H712814   0.149   0.342   0.805 -0.1060  0.9809  0.7160
  870MPD2     C12815   0.464   4.283   1.684 -0.4749  0.2553 -0.6207
  870MPD2    C112816   0.382   4.252   1.577 -0.8375 -1.0110 -0.5579
  870MPD2    C212817   0.291   4.349   1.530  0.2009  0.8855 -0.0150
  870MPD2    C312818   0.291   4.478   1.588  0.0062 -0.9563  0.6584
  870MPD2    C412819   0.378   4.511   1.693 -0.3568  0.0526 -0.3153
  870MPD2    C512820   0.472   4.415   1.725 -0.5622 -0.1873 -0.4589
  870MPD2     H12821   0.206   4.313   1.473  0.0521  0.3792  0.5275
  870MPD2    H112822   0.385   4.606   1.745 -0.5783  1.1046 -2.2065
  870MPD2    H212823   0.538   4.212   1.719  0.2551  3.1358  3.7175
  870MPD2    H312824   0.549   4.438   1.797  1.2697 -1.3207 -2.0454
  870MPD2     N12825   0.200   4.571   1.529  0.0715  0.2126  0.3275
  870MPD2    H512826   0.137   4.545   1.453  0.7565  1.8433 -0.7842
  870MPD2    N112827   0.394   4.120   1.529  0.6416  0.4318 -0.3107
  870MPD2    H712828   0.451   4.057   1.584 -0.1044 -0.3970 -0.4804
  871MPD2     C12829   1.356   4.038  16.555  0.3687  0.5599  0.6303
  871MPD2    C112830   1.298   3.982  16.666  0.1261 -0.6530 -0.1692
  871MPD2    C212831   1.269   3.849  16.663  0.0627  0.3896  0.0062
  871MPD2    C312832   1.313   3.767  16.561  0.0911  0.8822 -0.3087
  871MPD2    C412833   1.378   3.818  16.451 -0.1058 -0.0393  0.7762
  871MPD2    C512834   1.400   3.952  16.459 -0.4652  0.0220  0.7370
  871MPD2     H12835   1.206   3.800  16.737  2.3640 -1.2775  0.8586
  871MPD2    H112836   1.393   3.763  16.359  2.2578  1.0107  0.5462
  871MPD2    H212837   1.386   4.142  16.549  0.5500  0.4102 -1.1665
  871MPD2    H312838   1.451   3.997  16.375  0.7836 -3.4971 -0.3896
  871MPD2     N12839   1.295   3.627  16.581  0.1910  0.5159  0.0609
  871MPD2    H512840   1.255   3.590  16.666  0.4557  1.2066  0.4852
  871MPD2    N112841   1.267   4.083  16.759  0.6724 -0.0483 -0.0347
  871MPD2    H712842   1.303   4.178  16.758 -2.1728  1.0309  0.3294
  872MPD2     C12843   2.677   1.107  13.800  0.2285 -0.0620 -0.2935
  872MPD2    C112844   2.619   1.216  13.861 -0.3268 -0.2192 -0.2292
  872MPD2    C212845   2.498   1.200  13.925  0.8586  0.0535  0.4713
  872MPD2    C312846   2.443   1.075  13.940 -0.4023 -0.3775 -0.0352
  872MPD2    C412847   2.497   0.970  13.869 -0.1288 -0.1537 -0.1149
  872MPD2    C512848   2.618   0.985  13.817 -0.4399  0.1840  0.0060
  872MPD2     H12849   2.455   1.288  13.974 -0.4551  1.2446 -2.8475
  872MPD2    H112850   2.459   0.869  13.871 -4.7832  1.5458 -1.7018
  872MPD2    H212851   2.777   1.107  13.757 -0.1033  0.7399 -1.0616
  872MPD2    H312852   2.670   0.895  13.788 -0.4195  0.4879 -0.8786
  872MPD2     N12853   2.328   1.058  14.027 -0.2720 -0.5491 -0.2969
  872MPD2    H512854   2.276   0.972  14.015 -0.5899 -0.3570 -0.3060
  872MPD2    N112855   2.673   1.344  13.842  0.5274 -0.5794  0.0676
  872MPD2    H712856   2.641   1.416  13.906 -1.9188 -2.5016  1.0277
  873MPD2     C12857   4.227   1.233   1.413  0.0750 -0.0748  0.3835
  873MPD2    C112858   4.097   1.257   1.451  0.3246 -0.2455  0.0937
  873MPD2    C212859   3.998   1.158   1.431 -0.7289  1.3088 -0.0749
  873MPD2    C312860   4.034   1.036   1.372  0.6255  0.4039  0.5189
  873MPD2    C412861   4.173   1.017   1.339  0.0251 -0.9781  0.4132
  873MPD2    C512862   4.268   1.106   1.377 -0.7269 -0.7547 -0.0066
  873MPD2     H12863   3.894   1.174   1.456 -1.1242 -3.0957  1.0801
  873MPD2    H112864   4.205   0.925   1.291  1.3450 -0.0938 -0.3970
  873MPD2    H212865   4.302   1.305   1.443 -0.4733  1.4319 -1.8270
  873MPD2    H312866   4.372   1.089   1.352 -1.2652 -0.9543 -2.1124
  873MPD2     N12867   3.937   0.942   1.336 -0.0992  0.1355  0.2906
  873MPD2    H512868   3.975   0.861   1.289  1.5799 -1.3808  4.2946
  873MPD2    N112869   4.067   1.383   1.508 -0.6023  0.2364 -0.3807
  873MPD2    H712870   4.152   1.438   1.515  0.5658 -1.7828  1.1408
  874MPD2     C12871   3.695   1.628  16.293  1.0065  0.1664 -0.4852
  874MPD2    C112872   3.766   1.537  16.368  0.1263 -0.4381 -0.0886
  874MPD2    C212873   3.901   1.564  16.383  0.5036  0.0993  0.5192
  874MPD2    C312874   3.963   1.674  16.328 -0.1126  0.1122 -0.6395
  874MPD2    C412875   3.889   1.748  16.241  0.5440 -0.0860 -0.4060
  874MPD2    C512876   3.755   1.724  16.231  0.6492  0.0579 -0.5464
  874MPD2     H12877   3.965   1.492  16.434 -0.7062  0.1102  2.0679
  874MPD2    H112878   3.930   1.833  16.187 -0.7324  1.0756  0.4569
  874MPD2    H212879   3.589   1.608  16.284  1.2877 -2.1576  1.5480
  874MPD2    H312880   3.689   1.795  16.183 -2.0009 -1.3589  1.0490
  874MPD2     N12881   4.097   1.694  16.366  0.3267 -0.0381 -0.0661
  874MPD2    H512882   4.141   1.625  16.426  1.5490  0.2424 -0.6532
  874MPD2    N112883   3.697   1.429  16.435  0.3055  0.7060  0.4697
  874MPD2    H712884   3.605   1.399  16.405  0.6015 -1.1899  1.4148
  875MPD2     C12885   4.501   0.031  14.550  0.2760  0.1209  0.0516
  875MPD2    C112886   4.518   4.636  14.546 -0.1578  0.1616 -0.7474
  875MPD2    C212887   4.563   4.570  14.664 -0.3369  0.5115  1.4038
  875MPD2    C312888   4.610   4.641  14.780 -1.0520  0.0566 -0.2039
  875MPD2    C412889   4.589   0.041  14.786 -1.0118  1.0389  0.1147
  875MPD2    C512890   4.537   0.097  14.673  1.2294  0.6254 -0.0099
  875MPD2     H12891   4.573   4.462  14.665 -0.7397  0.4582 -1.0426
  875MPD2    H112892   4.591   0.109  14.871 -0.1144 -2.0281  2.5411
  875MPD2    H212893   4.455   0.091  14.473 -0.8947  0.2936  0.8928
  875MPD2    H312894   4.511   0.203  14.678 -1.3526 -0.0066  0.1552
  875MPD2     N12895   4.673   4.581  14.889  0.6040 -0.6559 -0.1444
  875MPD2    H512896   4.698   4.643  14.965  1.0661  1.2106 -1.8350
  875MPD2    N112897   4.470   4.560  14.432 -0.6566  0.8481  0.4514
  875MPD2    H712898   4.432   4.467  14.442  0.0349  0.6345  1.0536
  876MPD2     C12899   3.405   1.078  15.956  0.4805  0.0671  0.5694
  876MPD2    C112900   3.536   1.048  15.910 -0.3143  0.5024  0.3174
  876MPD2    C212901   3.602   0.939  15.967 -0.2402 -0.7281  0.0818
  876MPD2    C312902   3.542   0.857  16.065 -0.1556 -0.4101 -0.1691
  876MPD2    C412903   3.416   0.899  16.117  0.3631 -0.5600  0.0418
  876MPD2    C512904   3.355   1.009  16.066  0.0172  0.1113 -0.5289
  876MPD2     H12905   3.699   0.903  15.934 -0.2324  0.3996 -1.1170
  876MPD2    H112906   3.364   0.843  16.193 -0.3434 -0.7308 -0.5663
  876MPD2    H212907   3.348   1.155  15.903  1.4859  1.5443  1.6340
  876MPD2    H312908   3.255   1.034  16.101  0.8212  1.6954  0.6558
  876MPD2     N12909   3.610   0.743  16.106  0.2973  0.1712 -0.4374
  876MPD2    H512910   3.706   0.736  16.073  0.4351 -0.2371  0.0667
  876MPD2    N112911   3.590   1.145  15.822  0.5156  0.3723 -0.7292
  876MPD2    H712912   3.529   1.223  15.797 -0.7729 -0.6309 -0.7348
  877MPD2     C12913   3.369   1.437  15.182 -0.1886 -0.0952  0.3699
  877MPD2    C112914   3.506   1.411  15.172 -0.2927  0.4626 -0.5360
  877MPD2    C212915   3.551   1.401  15.040  0.3951  0.3443 -0.2542
  877MPD2    C312916   3.466   1.400  14.929  0.5076  1.2880 -0.3077
  877MPD2    C412917   3.332   1.400  14.953  0.4411  0.7945  0.0959
  877MPD2    C512918   3.290   1.426  15.078 -0.1824 -0.0615  0.4405
  877MPD2     H12919   3.656   1.377  15.028 -0.0466 -0.8185 -1.7540
  877MPD2    H112920   3.262   1.386  14.871 -0.1390 -0.9002  0.8896
  877MPD2    H212921   3.314   1.460  15.272 -1.0402 -0.7635  0.0158
  877MPD2    H312922   3.183   1.439  15.082 -0.1392  0.6311 -0.7757
  877MPD2     N12923   3.510   1.380  14.796  0.7656  0.2778  0.0133
  877MPD2    H512924   3.437   1.362  14.728 -0.4759 -1.9535  1.9199
  877MPD2    N112925   3.597   1.402  15.278 -0.7556  0.4544  0.3456
  877MPD2    H712926   3.693   1.377  15.259 -1.3246 -1.9723  0.5582
  878MPD2     C12927   3.016   0.318  13.519 -0.3898 -0.2020  0.1091
  878MPD2    C112928   3.108   0.417  13.519  0.4432 -0.4572 -0.3108
  878MPD2    C212929   3.132   0.479  13.644 -0.2029  0.1252  1.2082
  878MPD2    C312930   3.066   0.446  13.762  0.3686  0.2078  0.6985
  878MPD2    C412931   2.966   0.349  13.754 -0.8080  0.9263  0.1394
  878MPD2    C512932   2.951   0.283  13.633 -0.4166 -0.2349 -0.3642
  878MPD2     H12933   3.209   0.554  13.654 -0.1637  0.1079  1.0458
  878MPD2    H112934   2.911   0.313  13.840  0.9534  1.0625  1.3203
  878MPD2    H212935   2.984   0.271  13.426 -0.0410 -2.7222  1.2605
  878MPD2    H312936   2.869   0.212  13.622 -1.4154  1.0237 -0.9858
  878MPD2     N12937   3.096   0.517  13.881 -0.0547  0.2334 -0.4162
  878MPD2    H512938   3.180   0.574  13.880  1.2864 -1.6781  2.5671
  878MPD2    N112939   3.174   0.448  13.398 -0.1362  0.2072  0.1776
  878MPD2    H712940   3.169   0.375  13.328 -0.1497 -1.3304  1.8019
  879MPD2     C12941   4.019   2.468  16.916 -0.2645  0.0732 -0.0100
  879MPD2    C112942   3.935   2.410  17.012  0.0359 -0.7694  0.1261
  879MPD2    C212943   3.879   2.289  16.982  1.0722 -0.4286  0.9096
  879MPD2    C312944   3.919   2.220  16.868 -0.4565 -0.4829 -0.0640
  879MPD2    C412945   4.001   2.283  16.778 -0.4841 -0.3113  0.4656
  879MPD2    C512946   4.050   2.406  16.799 -0.6384 -0.6386 -0.5183
  879MPD2     H12947   3.812   2.258  17.061  0.1795  0.8830  0.6665
  879MPD2    H112948   4.038   2.233  16.689  1.9610  2.0534  0.1736
  879MPD2    H212949   4.063   2.567  16.924 -2.3454  1.1091 -1.5440
  879MPD2    H312950   4.116   2.448  16.724 -2.3111 -0.6731 -2.0318
  879MPD2     N12951   3.865   2.093  16.834  0.0691 -0.3226  0.3393
  879MPD2    H512952   3.891   2.056  16.743  0.8316  0.4428  0.2448
  879MPD2    N112953   3.897   2.489  17.120 -0.0178  0.0406 -0.0191
  879MPD2    H712954   3.939   2.582  17.126 -0.1301 -0.0006  1.4411
  880MPD2     C12955   4.605   3.846   0.498 -0.5743  0.0341  0.1303
  880MPD2    C112956   4.725   3.911   0.491  0.6134  0.5469 -0.2695
  880MPD2    C212957   0.095   3.842   0.540 -1.2002 -0.3943 -0.5004
  880MPD2    C312958   0.087   3.714   0.589  0.2562  0.1645 -0.0653
  880MPD2    C412959   4.697   3.650   0.592 -0.6811  0.0574  0.3078
  880MPD2    C512960   4.591   3.716   0.545  0.0466 -0.1169 -0.4843
  880MPD2     H12961   0.197   3.879   0.527 -0.5453 -2.1675 -0.3997
  880MPD2    H112962   4.687   3.546   0.620  1.2721  0.2915  1.8473
  880MPD2    H212963   4.512   3.891   0.465  0.2208  0.5240 -1.4243
  880MPD2    H312964   4.495   3.667   0.544 -0.8419  1.5928  1.4406
  880MPD2     N12965   0.202   3.654   0.647  0.2852 -0.4761 -0.5993
  880MPD2    H512966   0.288   3.709   0.649  1.6367 -2.5696 -0.4348
  880MPD2    N112967   4.728   4.042   0.438  0.3690  0.0755 -0.0165
  880MPD2    H712968   4.640   4.080   0.404  0.2642  0.5219  0.7536
  881MPD2     C12969   0.590   0.186   0.159 -0.6754  0.2295  0.2034
  881MPD2    C112970   0.540   0.080   0.085 -0.2795  0.2719 -0.7186
  881MPD2    C212971   0.442   4.732   0.147  0.0394 -0.0731 -0.3293
  881MPD2    C312972   0.426   4.734   0.284  0.1108  0.0154  0.2692
  881MPD2    C412973   0.496   0.095   0.357  0.3247  0.6674  0.1176
  881MPD2    C512974   0.561   0.190   0.295  0.2091 -0.2910  0.3947
  881MPD2     H12975   0.384   4.667   0.082  1.1855 -0.3565 -1.0786
  881MPD2    H112976   0.479   0.107   0.463 -2.5088 -0.6372 -0.1773
  881MPD2    H212977   0.659   0.263   0.126 -0.1041  0.2647  1.4918
  881MPD2    H312978   0.607   0.265   0.359  2.3617 -2.0234  0.8528
  881MPD2     N12979   0.351   4.642   0.356  0.4492  0.7620 -0.2364
  881MPD2    H512980   0.357   4.653   0.457  0.3370 -0.9629 -0.0447
  881MPD2    N112981   0.558   0.098  17.690  0.4403 -0.6142 -0.0143
  881MPD2    H712982   0.618   0.174  17.661  2.3899 -1.9786  0.4384
  882MPD2     C12983   3.475   0.941  14.067 -0.2559 -0.2398  0.0970
  882MPD2    C112984   3.420   1.028  14.160  0.5728  0.3232 -0.4080
  882MPD2    C212985   3.287   1.062  14.164 -0.5900 -0.3189 -0.2057
  882MPD2    C312986   3.205   1.016  14.063 -0.8913 -0.2514  0.6556
  882MPD2    C412987   3.253   0.920  13.977 -0.3515 -0.0338 -0.0631
  882MPD2    C512988   3.385   0.884  13.977  0.3099  0.3630  0.3877
  882MPD2     H12989   3.252   1.134  14.236 -1.7040  0.4235 -1.4935
  882MPD2    H112990   3.191   0.857  13.914 -0.1689 -0.9476  0.6671
  882MPD2    H212991   3.582   0.923  14.065 -0.2619 -0.4681  2.0858
  882MPD2    H312992   3.420   0.812  13.903  1.1143  1.8682 -0.7191
  882MPD2     N12993   3.066   1.044  14.063 -0.9977  0.2287  0.2152
  882MPD2    H512994   3.008   0.979  14.011 -0.7736  0.1763  0.0322
  882MPD2    N112995   3.510   1.079  14.256  0.6190  0.6025  0.2247
  882MPD2    H712996   3.609   1.057  14.246  0.9984  1.9718  0.9951
  883MPD2     C12997   0.788   1.394  16.197 -0.2557  0.5773 -0.1271
  883MPD2    C112998   0.854   1.478  16.108  0.1262 -0.3541  0.6370
  883MPD2    C212999   0.936   1.579  16.150 -0.7177  0.5389  0.4119
  883MPD2    C313000   0.963   1.594  16.285 -0.0527 -0.4640 -0.2701
  883MPD2    C413001   0.903   1.511  16.375 -0.1729  0.1641 -0.0500
  883MPD2    C513002   0.818   1.421  16.331 -0.2103 -0.7026 -0.0134
  883MPD2     H13003   0.979   1.640  16.072 -2.0306  1.8896  0.7331
  883MPD2    H113004   0.912   1.510  16.482 -0.9838  1.3831  0.0333
  883MPD2    H213005   0.713   1.318  16.180 -1.9514  2.4677 -1.0104
  883MPD2    H313006   0.765   1.366  16.408  0.6772 -0.6671  0.6260
  883MPD2     N13007   1.037   1.710  16.322 -0.1242  0.2633 -0.4084
  883MPD2    H513008   1.081   1.760  16.245 -0.7753 -2.5990 -2.6420
  883MPD2    N113009   0.835   1.463  15.972  0.2442 -0.2426 -0.2526
  883MPD2    H713010   0.885   1.528  15.912 -1.2432 -0.5438 -1.8515
  884MPD2     C13011   2.810   1.909  15.388 -0.2121 -0.2188 -0.2316
  884MPD2    C113012   2.747   1.933  15.263  0.3417  0.6968 -0.4525
  884MPD2    C213013   2.619   1.975  15.265 -0.8921 -0.2638  0.6148
  884MPD2    C313014   2.554   2.003  15.383  0.3649 -0.1552  0.4010
  884MPD2    C413015   2.626   1.982  15.501  0.0120 -0.5974  0.1689
  884MPD2    C513016   2.750   1.935  15.508 -0.5187 -0.1289  0.0797
  884MPD2     H13017   2.565   1.999  15.174  1.9062  0.4640 -0.8427
  884MPD2    H113018   2.580   2.001  15.598 -1.2715  0.9810 -0.7546
  884MPD2    H213019   2.915   1.881  15.389 -0.7093 -2.0178 -0.1119
  884MPD2    H313020   2.814   1.931  15.596  0.5785 -0.1968 -0.7247
  884MPD2     N13021   2.421   2.036  15.380 -0.4580 -0.4666 -0.6605
  884MPD2    H513022   2.376   2.051  15.291 -1.8094  1.3302  0.3235
  884MPD2    N113023   2.817   1.932  15.146  0.2572 -0.9464 -0.0268
  884MPD2    H713024   2.769   1.962  15.062 -0.4926 -3.0176 -0.3442
  885MPD2     C13025   0.923   2.585   0.535  0.3116  0.0921  0.0446
  885MPD2    C113026   1.033   2.653   0.578 -0.4079 -0.2626  0.0154
  885MPD2    C213027   1.080   2.760   0.501  1.1883 -0.3036 -0.5758
  885MPD2    C313028   1.016   2.783   0.376 -0.0422 -0.0700  0.3179
  885MPD2    C413029   0.910   2.705   0.336  0.2909 -0.5782 -0.0250
  885MPD2    C513030   0.859   2.610   0.418 -0.5801  0.6840  0.5631
  885MPD2     H13031   1.158   2.829   0.533 -0.4300  2.1638 -1.9601
  885MPD2    H113032   0.856   2.719   0.243 -0.6502 -4.5263 -0.0853
  885MPD2    H213033   0.886   2.503   0.597  1.3648 -0.4029  0.0214
  885MPD2    H313034   0.764   2.561   0.399  0.6802 -0.2650 -3.4024
  885MPD2     N13035   1.076   2.887   0.296 -0.0394 -0.1347  0.5118
  885MPD2    H513036   1.142   2.939   0.353 -1.7093  1.7749  0.7272
  885MPD2    N113037   1.079   2.615   0.704 -0.0205  0.5554 -0.0556
  885MPD2    H713038   1.045   2.526   0.740 -1.7010  0.5454 -1.6988
  886MPD2     C13039   2.635   0.989  15.672 -0.2368  0.4550 -0.9470
  886MPD2    C113040   2.644   0.885  15.579  0.0169  0.3993 -0.3467
  886MPD2    C213041   2.586   0.910  15.451 -0.3849 -0.6568 -0.2394
  886MPD2    C313042   2.525   1.026  15.417  0.3291  0.0512 -1.0644
  886MPD2    C413043   2.515   1.123  15.516 -0.8440 -0.7521 -0.4468
  886MPD2    C513044   2.571   1.103  15.638  0.2176  0.2156  0.1817
  886MPD2     H13045   2.583   0.826  15.382  0.2612 -0.8279 -0.0624
  886MPD2    H113046   2.459   1.213  15.493 -0.1894  0.2080  1.7331
  886MPD2    H213047   2.668   0.978  15.774 -1.7570 -2.5238 -0.7728
  886MPD2    H313048   2.561   1.184  15.709 -2.7696 -1.0378  1.1859
  886MPD2     N13049   2.491   1.041  15.280  0.4482 -0.3386  0.7212
  886MPD2    H513050   2.512   0.957  15.227  2.1375  0.2537  0.4562
  886MPD2    N113051   2.714   0.766  15.604  0.4354  0.4485 -0.8342
  886MPD2    H713052   2.712   0.701  15.525 -0.1259  0.9043 -1.1987
  887MPD2     C13053   2.959   0.680  16.250  0.3253  0.6018 -0.4884
  887MPD2    C113054   2.994   0.742  16.129 -0.4497 -1.0810 -0.4191
  887MPD2    C213055   2.994   0.880  16.118 -0.0521  0.3905 -0.3424
  887MPD2    C313056   2.972   0.965  16.224  0.1873  0.7841  0.2678
  887MPD2    C413057   2.943   0.906  16.344 -0.3613 -0.9610 -0.2740
  887MPD2    C513058   2.929   0.765  16.353 -0.1152 -0.9339  0.1463
  887MPD2     H13059   3.010   0.931  16.024 -0.6280  2.4001  0.6494
  887MPD2    H113060   2.903   0.962  16.428 -1.2351  0.2646 -1.4850
  887MPD2    H213061   2.958   0.572  16.266 -2.1482  0.7549  0.3743
  887MPD2    H313062   2.897   0.725  16.449 -0.8237  0.9105  0.6770
  887MPD2     N13063   2.997   1.104  16.204 -0.2071 -0.7090  0.0190
  887MPD2    H513064   3.018   1.135  16.110  3.2741 -2.9355  0.0373
  887MPD2    N113065   3.024   0.672  16.011  0.0968 -0.0434 -0.1445
  887MPD2    H713066   3.044   0.720  15.924 -2.3645  1.0179 -0.1066
  888MPD2     C13067   4.621   0.944  15.031 -0.0970  0.9114 -0.0071
  888MPD2    C113068   4.679   0.989  15.151  0.2123  0.1706  0.0378
  888MPD2    C213069   0.038   1.091  15.142  0.1026  0.1671  0.3305
  888MPD2    C313070   0.077   1.148  15.028 -0.5976  0.9445  0.3423
  888MPD2    C413071   0.028   1.091  14.910  0.0229  0.1789 -0.4024
  888MPD2    C513072   4.673   0.991  14.913  0.3701  0.3601 -0.2223
  888MPD2     H13073   0.081   1.134  15.232 -1.6515  1.2910  0.6279
  888MPD2    H113074   0.069   1.121  14.814  0.5426 -1.6155 -0.7370
  888MPD2    H213075   4.543   0.869  15.024  1.3856 -0.7006  0.6448
  888MPD2    H313076   4.641   0.947  14.819 -0.6493  0.1975  0.2000
  888MPD2     N13077   0.168   1.257  15.034  0.0274 -0.0865 -0.2463
  888MPD2    H513078   0.184   1.292  15.128 -0.7034  0.2321 -0.2373
  888MPD2    N113079   4.635   0.946  15.274  1.0447  0.4204  0.7274
  888MPD2    H713080   4.701   0.971  15.347  1.0472  1.2592  0.4452
  889MPD2     C13081   3.526   0.240  13.382  0.3035  0.2900 -0.0359
  889MPD2    C113082   3.606   0.331  13.319  0.0568 -0.4147  0.0716
  889MPD2    C213083   3.646   0.440  13.391 -0.1645  0.2255 -1.2154
  889MPD2    C313084   3.589   0.472  13.510 -0.2683 -0.4548 -0.5004
  889MPD2    C413085   3.488   0.394  13.563 -0.4867 -0.6385  0.0299
  889MPD2    C513086   3.475   0.267  13.511 -0.5871 -0.1502  0.0687
  889MPD2     H13087   3.716   0.514  13.353  1.3904  0.2747  1.7609
  889MPD2    H113088   3.432   0.429  13.649 -0.7196 -1.0067  0.0253
  889MPD2    H213089   3.481   0.156  13.330  0.4089  0.4361 -0.3619
  889MPD2    H313090   3.405   0.198  13.557 -0.3205  0.0293  0.7360
  889MPD2     N13091   3.633   0.598  13.567 -0.0744  0.7131 -0.6532
  889MPD2    H513092   3.702   0.646  13.510  0.6506 -0.2792 -0.6192
  889MPD2    N113093   3.624   0.318  13.182 -0.1215  0.1507  0.0282
  889MPD2    H713094   3.576   0.240  13.138  2.1679 -1.1451 -0.2006
  890MPD2     C13095   3.912   1.929  15.160  0.4696  0.2926 -0.5084
  890MPD2    C113096   3.831   1.949  15.266  0.1025  0.4836 -0.2535
  890MPD2    C213097   3.869   1.881  15.384  0.4807 -0.1065  0.3108
  890MPD2    C313098   3.986   1.812  15.391 -0.3959  0.1933 -0.9539
  890MPD2    C413099   4.065   1.801  15.278  0.4886  0.3216  0.0016
  890MPD2    C513100   4.031   1.869  15.166  0.5936  0.1912  0.5694
  890MPD2     H13101   3.818   1.905  15.477  0.5327  0.7687  0.1079
  890MPD2    H113102   4.162   1.752  15.274 -0.1047 -0.8640  0.0995
  890MPD2    H213103   3.888   1.983  15.069 -0.3391  1.8247  0.6309
  890MPD2    H313104   4.091   1.871  15.075  1.4397 -0.0484  1.1216
  890MPD2     N13105   4.024   1.777  15.523 -0.2375 -0.2646 -0.2716
  890MPD2    H513106   3.975   1.808  15.606 -1.5822 -0.2984 -1.0430
  890MPD2    N113107   3.715   2.029  15.251 -0.9176  0.6974 -0.4285
  890MPD2    H713108   3.711   2.091  15.170 -2.8372  2.0864  0.7158
  891MPD2     C13109   1.691   0.748  16.950  0.0674 -0.5932  0.2287
  891MPD2    C113110   1.765   0.847  16.894  0.1460 -0.2149 -0.4785
  891MPD2    C213111   1.891   0.870  16.950  0.0676 -0.0921 -0.2175
  891MPD2    C313112   1.933   0.806  17.066  0.0537  0.2230 -0.0678
  891MPD2    C413113   1.859   0.695  17.118 -0.1216 -0.2424  0.0615
  891MPD2    C513114   1.742   0.665  17.048 -0.2862  0.5321  0.5005
  891MPD2     H13115   1.948   0.953  16.910 -2.3332  1.5090 -0.3049
  891MPD2    H113116   1.895   0.631  17.197 -0.9613 -2.1548 -1.1233
  891MPD2    H213117   1.599   0.729  16.896  0.1808 -0.4631 -0.0159
  891MPD2    H313118   1.681   0.581  17.080  2.2506 -1.7975 -0.8086
  891MPD2     N13119   2.042   0.855  17.133 -0.2158  0.1137  0.1897
  891MPD2    H513120   2.088   0.934  17.089  1.4874 -1.2626 -0.5044
  891MPD2    N113121   1.714   0.912  16.780 -0.2140  0.1059  0.4417
  891MPD2    H713122   1.617   0.893  16.755 -0.0665 -0.0723 -0.0115
  892MPD2     C13123   2.784   1.572  14.820  0.0768  0.2774 -0.0625
  892MPD2    C113124   2.665   1.557  14.752 -0.3097  0.0811 -0.0575
  892MPD2    C213125   2.671   1.482  14.635 -0.4627 -0.4287 -0.0357
  892MPD2    C313126   2.782   1.417  14.587  0.2710  0.2463 -0.1584
  892MPD2    C413127   2.899   1.430  14.661 -0.2215  0.1383  0.6996
  892MPD2    C513128   2.898   1.510  14.770  0.1168  0.3893 -0.2115
  892MPD2     H13129   2.580   1.476  14.576 -0.3397  0.4119 -0.3021
  892MPD2    H113130   2.994   1.384  14.636  0.5790  1.8080  0.6565
  892MPD2    H213131   2.791   1.627  14.913 -0.9825  0.4153 -0.0584
  892MPD2    H313132   2.987   1.507  14.832 -1.2963 -0.0855  1.7944
  892MPD2     N13133   2.775   1.353  14.465  0.0090  1.0880 -0.3222
  892MPD2    H513134   2.861   1.339  14.414  0.1085 -1.4427  0.4932
  892MPD2    N113135   2.542   1.612  14.801  0.6189  0.0385 -0.0235
  892MPD2    H713136   2.463   1.607  14.738  0.6673  2.4625 -0.2494
  893MPD2     C13137   3.982   0.563   1.500 -0.0664 -0.6402 -0.0110
  893MPD2    C113138   4.093   0.614   1.565 -0.1854  0.3098 -0.7871
  893MPD2    C213139   4.068   0.701   1.667 -0.3225  0.9205  0.3622
  893MPD2    C313140   3.934   0.739   1.708  0.4562 -0.7367  0.0567
  893MPD2    C413141   3.825   0.682   1.642  1.1013  0.2760 -0.9335
  893MPD2    C513142   3.853   0.589   1.546 -0.1632  0.7094  0.3662
  893MPD2     H13143   4.150   0.745   1.722 -0.6942  0.3467  1.3828
  893MPD2    H113144   3.723   0.686   1.677  1.7952  0.5260  1.0370
  893MPD2    H213145   4.006   0.507   1.410 -0.6122 -1.4887  0.3771
  893MPD2    H313146   3.768   0.537   1.502 -0.9175  1.7278  0.6300
  893MPD2     N13147   3.902   0.825   1.817 -0.2729  0.2460  0.1696
  893MPD2    H513148   3.803   0.849   1.824 -0.0050  1.4999 -0.2343
  893MPD2    N113149   4.220   0.578   1.517  0.0294  0.3272  0.4837
  893MPD2    H713150   4.226   0.522   1.433 -0.1444 -0.3697  0.9243
  894MPD2     C13151   2.377   2.557   1.774 -0.4275 -0.7173 -0.6157
  894MPD2    C113152   2.280   2.658   1.791 -0.2662  0.7953  0.7907
  894MPD2    C213153   2.307   2.786   1.760 -0.1564  1.0771  0.0364
  894MPD2    C313154   2.421   2.834   1.711  0.1150  0.0316 -0.0614
  894MPD2    C413155   2.516   2.735   1.690 -0.2061 -0.0734 -0.0501
  894MPD2    C513156   2.490   2.600   1.722 -0.8007 -0.0645 -0.2376
  894MPD2     H13157   2.227   2.859   1.769 -0.2043  0.7973  1.8816
  894MPD2    H113158   2.611   2.752   1.641 -1.0901  1.8321 -1.1018
  894MPD2    H213159   2.360   2.450   1.782 -1.0135 -0.6389 -0.8075
  894MPD2    H313160   2.566   2.523   1.716 -1.2983 -0.4207 -1.9985
  894MPD2     N13161   2.434   2.967   1.673  0.7004 -0.0822  0.2866
  894MPD2    H513162   2.352   3.025   1.662  0.3883 -0.3757  1.1061
  894MPD2    N113163   2.151   2.638   1.853  0.8496  0.4921 -0.0789
  894MPD2    H713164   2.085   2.714   1.846  0.1038 -0.1740 -0.2691
  895MPD2     C13165   1.941   0.538  13.586 -0.5853 -0.1505  0.3328
  895MPD2    C113166   1.909   0.659  13.542 -0.0144  0.5292 -0.0006
  895MPD2    C213167   1.798   0.678  13.461  0.1420  0.7296 -0.2168
  895MPD2    C313168   1.705   0.580  13.450  0.0198  0.7595 -0.1447
  895MPD2    C413169   1.737   0.456  13.499  0.1333 -0.1584  0.6576
  895MPD2    C513170   1.854   0.436  13.564 -0.8937  0.3078  0.2384
  895MPD2     H13171   1.768   0.778  13.431  2.5374  1.0671 -1.5367
  895MPD2    H113172   1.671   0.371  13.489  1.1094 -0.7766 -0.5245
  895MPD2    H213173   2.026   0.522  13.652  0.4207 -1.4540 -1.2835
  895MPD2    H313174   1.873   0.336  13.600 -2.1772 -0.8133 -2.1654
  895MPD2     N13175   1.575   0.596  13.403  0.1722 -0.1922 -0.0841
  895MPD2    H513176   1.520   0.514  13.378 -0.9175  0.4924  0.0628
  895MPD2    N113177   1.983   0.773  13.570  0.3080  0.0505 -0.0790
  895MPD2    H713178   1.959   0.850  13.509  1.1591  0.2593 -0.1602
  896MPD2     C13179   4.236   4.029   1.063  0.0547 -0.6589  0.2963
  896MPD2    C113180   4.140   3.948   1.022 -0.6995 -0.1671  0.2086
  896MPD2    C213181   4.008   3.969   1.037 -0.2015  0.4412  0.1936
  896MPD2    C313182   3.971   4.078   1.113  0.2629 -0.2345 -0.6727
  896MPD2    C413183   4.061   4.162   1.169 -0.6518 -0.5968  0.4097
  896MPD2    C513184   4.196   4.141   1.133 -0.6178  0.1164 -0.3411
  896MPD2     H13185   3.934   3.901   0.996  0.6924 -0.3360 -0.1297
  896MPD2    H113186   4.043   4.254   1.223 -3.3261  0.3492 -2.0847
  896MPD2    H213187   4.341   4.021   1.036  0.4575 -1.3795  2.0374
  896MPD2    H313188   4.268   4.220   1.152  1.0411 -1.0520 -1.7216
  896MPD2     N13189   3.829   4.093   1.130  0.8069  0.0652 -0.6539
  896MPD2    H513190   3.773   4.032   1.071  0.9636  0.2062 -0.9509
  896MPD2    N113191   4.185   3.841   0.944  1.1434 -0.2353 -0.0673
  896MPD2    H713192   4.284   3.828   0.962  1.0694 -0.6608  0.0452
  897MPD2     C13193   0.600   0.181  10.358 -0.1014  0.5032 -0.0723
  897MPD2    C113194   0.635   0.308  10.403 -0.1557 -0.1225  0.5850
  897MPD2    C213195   0.612   0.331  10.537  0.5062 -0.3292  0.8944
  897MPD2    C313196   0.559   0.239  10.623 -0.5857  0.3085  0.1220
  897MPD2    C413197   0.515   0.123  10.569  0.0497 -0.9430  0.4160
  897MPD2    C513198   0.534   0.094  10.436  0.8322  0.5831 -0.9160
  897MPD2     H13199   0.655   0.425  10.569  1.3403 -0.9741  1.7016
  897MPD2    H113200   0.457   0.050  10.624 -3.3496 -0.1143 -2.0274
  897MPD2    H213201   0.614   0.155  10.254  1.0173 -0.1116  0.2353
  897MPD2    H313202   0.502   4.735  10.396  0.5405  1.0435 -1.7972
  897MPD2     N13203   0.553   0.280  10.759 -0.1600 -0.3540 -0.3855
  897MPD2    H513204   0.602   0.367  10.777  0.1138 -0.1657 -2.0317
  897MPD2    N113205   0.697   0.390  10.304 -0.0488 -0.1022 -0.1675
  897MPD2    H713206   0.708   0.354  10.210  1.5580 -0.8357  0.3087
  898MPD2     C13207   2.135   1.268   0.165  0.0139 -0.2792 -0.3086
  898MPD2    C113208   2.232   1.301   0.069  0.1692 -0.5810  0.3909
  898MPD2    C213209   2.221   1.416  17.745  0.1056  0.0782 -0.3741
  898MPD2    C313210   2.115   1.497   0.017  0.1288 -0.1652  0.2814
  898MPD2    C413211   2.024   1.465   0.114  0.5041 -0.3208  0.7468
  898MPD2    C513212   2.031   1.345   0.182  0.5540 -0.7366 -0.2026
  898MPD2     H13213   2.298   1.443  17.674  1.2705  0.8359  1.1846
  898MPD2    H113214   1.947   1.537   0.140 -1.0158 -1.0050 -1.8504
  898MPD2    H213215   2.164   1.190   0.234  1.1199  1.9309  1.7210
  898MPD2    H313216   1.950   1.320   0.250 -0.0538  1.7571 -0.0242
  898MPD2     N13217   2.107   1.626  17.695 -0.0336  0.0287  0.1229
  898MPD2    H513218   2.151   1.652  17.607 -0.3963  1.7861  0.4650
  898MPD2    N113219   2.350   1.234   0.052 -0.4913 -0.4541  0.3461
  898MPD2    H713220   2.426   1.276  17.746 -0.7942  0.2823  0.4905
  899MPD2     C13221   3.194   1.706  17.458  0.0823 -0.0462 -0.0844
  899MPD2    C113222   3.226   1.830  17.517  0.8210 -0.0883  0.2325
  899MPD2    C213223   3.206   1.839  17.652  0.2443  0.4319 -0.6318
  899MPD2    C313224   3.142   1.745  17.725 -0.2873  0.3037  0.1493
  899MPD2    C413225   3.115   1.630  17.660 -0.0246 -0.1175  0.3229
  899MPD2    C513226   3.141   1.606  17.530 -0.4278 -0.2942  0.0286
  899MPD2     H13227   3.220   1.935  17.702 -1.1398  0.5818 -0.5319
  899MPD2    H113228   3.065   1.553  17.717  0.4948  1.0756  2.3556
  899MPD2    H213229   3.212   1.680  17.354  1.3756  1.1974 -0.1577
  899MPD2    H313230   3.115   1.512  17.484  0.1636  0.6720 -2.2732
  899MPD2     N13231   3.073   1.779   0.099  0.1857 -0.3837  0.4181
  899MPD2    H513232   3.010   1.709   0.139 -2.5721  0.3349 -2.6523
  899MPD2    N113233   3.284   1.935  17.437  0.5893 -0.7574 -0.5585
  899MPD2    H713234   3.292   1.914  17.338  2.8147 -1.2870 -0.2805
  900MPD2     C13235   3.159   3.127  12.488  0.3262  0.9046 -0.0888
  900MPD2    C113236   3.052   3.074  12.560  0.4965  0.6657 -0.2051
  900MPD2    C213237   2.922   3.118  12.518  0.0307  0.4036  0.4085
  900MPD2    C313238   2.907   3.211  12.412  0.1548  0.2241  0.5063
  900MPD2    C413239   3.016   3.250  12.340 -0.8512 -0.4418  0.8165
  900MPD2    C513240   3.140   3.221  12.388 -0.3217  0.0410  0.0878
  900MPD2     H13241   2.830   3.076  12.557  0.0780 -0.1503 -0.0664
  900MPD2    H113242   3.009   3.314  12.253 -2.2832 -3.6494 -1.3911
  900MPD2    H213243   3.261   3.093  12.505 -0.0613  0.1585  0.7359
  900MPD2    H313244   3.218   3.252  12.320 -0.7050 -0.3258 -0.5176
  900MPD2     N13245   2.776   3.256  12.383  0.5781 -0.0105 -0.0494
  900MPD2    H513246   2.700   3.214  12.437  0.1228  0.5688 -0.2338
  900MPD2    N113247   3.076   2.979  12.668  0.0783 -0.3158 -0.1810
  900MPD2    H713248   3.174   2.959  12.688  0.2605 -0.3096 -1.0752
  901MPD2     C13249   2.803   2.020  13.065 -1.1141  0.0392 -0.6144
  901MPD2    C113250   2.896   2.008  12.964 -1.2052  0.1288  0.1109
  901MPD2    C213251   2.963   2.121  12.912  0.4460  0.1021  0.7034
  901MPD2    C313252   2.924   2.246  12.953 -0.6772  0.5764 -0.3985
  901MPD2    C413253   2.825   2.258  13.057 -0.1735 -0.2810 -0.6784
  901MPD2    C513254   2.769   2.145  13.115 -0.2151  0.0544 -0.3422
  901MPD2     H13255   3.031   2.115  12.828 -0.8424 -0.2914 -0.3238
  901MPD2    H113256   2.787   2.350  13.100  0.0829 -0.3487 -0.3087
  901MPD2    H213257   2.747   1.940  13.111  0.3271 -0.0374  1.0085
  901MPD2    H313258   2.693   2.147  13.192  0.5797 -0.2768  0.4398
  901MPD2     N13259   2.988   2.363  12.901 -0.3000 -0.4791 -0.1866
  901MPD2    H513260   3.067   2.352  12.838  1.0407  0.3357  1.3845
  901MPD2    N113261   2.921   1.880  12.915  0.4881  0.1351 -0.3021
  901MPD2    H713262   2.873   1.801  12.956  2.0455  0.1999  1.5979
  902MPD2     C13263   2.575   1.119  12.909 -0.1462  0.1299  0.0722
  902MPD2    C113264   2.504   1.177  12.805  0.1142 -0.0466  0.2123
  902MPD2    C213265   2.516   1.109  12.679 -0.0132  0.2081 -0.6904
  902MPD2    C313266   2.594   0.996  12.664 -0.2422  0.2405  0.3228
  902MPD2    C413267   2.657   0.946  12.779 -0.1432 -0.6623 -0.6161
  902MPD2    C513268   2.653   1.010  12.899  0.6396  0.0311 -0.1170
  902MPD2     H13269   2.480   1.154  12.588 -2.0334  0.1511  0.0814
  902MPD2    H113270   2.718   0.857  12.773 -2.4690 -2.2481 -0.4265
  902MPD2    H213271   2.566   1.166  13.007 -1.0865 -1.9589  0.9901
  902MPD2    H313272   2.709   0.969  12.983  1.3421 -0.3201 -0.7569
  902MPD2     N13273   2.586   0.933  12.542 -0.0394  0.0183 -0.7122
  902MPD2    H513274   2.521   0.982  12.481 -2.5404 -1.6143  0.6630
  902MPD2    N113275   2.419   1.286  12.824 -0.7207 -0.2124 -0.3979
  902MPD2    H713276   2.415   1.326  12.917 -0.0506  0.8700 -0.8383
  903MPD2     C13277   2.310   0.874  11.744  0.3531 -0.4011  0.0451
  903MPD2    C113278   2.287   0.905  11.880 -0.1215  0.9706  0.8371
  903MPD2    C213279   2.195   1.009  11.906  0.2052 -0.1093  0.2386
  903MPD2    C313280   2.137   1.085  11.808 -0.3472 -0.1697  0.1412
  903MPD2    C413281   2.161   1.057  11.675 -0.3598  0.5210  0.0285
  903MPD2    C513282   2.246   0.951  11.649 -0.2341  0.2179  0.7622
  903MPD2     H13283   2.176   1.047  12.005  0.9826 -0.5578  0.5554
  903MPD2    H113284   2.139   1.124  11.592 -1.1239 -1.2065 -1.1729
  903MPD2    H213285   2.380   0.800  11.706  0.9885  1.7614 -2.9818
  903MPD2    H313286   2.267   0.931  11.544  1.0587  3.4457  0.4059
  903MPD2     N13287   2.035   1.180  11.853 -0.2897 -0.4161  0.3526
  903MPD2    H513288   2.019   1.189  11.953 -1.0904  1.1223  0.0810
  903MPD2    N113289   2.354   0.829  11.982  0.1136 -0.1057  0.0568
  903MPD2    H713290   2.425   0.764  11.950  0.1290  1.0127 -2.2145
  904MPD2     C13291   1.488   0.263  13.880  0.4205 -0.2965  1.0652
  904MPD2    C113292   1.456   0.213  14.004  0.2283  0.2417  0.1211
  904MPD2    C213293   1.547   0.130  14.062  0.4979 -0.2995  0.1919
  904MPD2    C313294   1.673   0.108  14.001 -0.1456  0.4232  0.3807
  904MPD2    C413295   1.695   0.158  13.872 -0.2638 -0.0236 -0.6335
  904MPD2    C513296   1.597   0.226  13.809 -0.0956 -0.2277 -0.9560
  904MPD2     H13297   1.524   0.071  14.151 -1.1583 -1.1425 -0.7923
  904MPD2    H113298   1.787   0.133  13.819 -0.1129 -0.1157 -0.3274
  904MPD2    H213299   1.417   0.320  13.821 -0.2521 -1.2275  0.9793
  904MPD2    H313300   1.616   0.259  13.708  0.2457  2.2342 -0.0928
  904MPD2     N13301   1.764   0.037  14.085  0.4678 -0.2041 -0.2058
  904MPD2    H513302   1.734   0.000  14.174 -1.5587  0.2606 -0.6709
  904MPD2    N113303   1.332   0.245  14.062 -0.3058 -0.1373  0.6009
  904MPD2    H713304   1.270   0.307  14.011  0.7260 -0.2974 -0.8262
  905MPD2     C13305   1.121   0.883  14.028  0.0096  0.0778 -0.2060
  905MPD2    C113306   1.076   0.756  13.984 -0.1065  0.8145 -0.0956
  905MPD2    C213307   1.078   0.731  13.851 -1.1112  0.0919  0.1212
  905MPD2    C313308   1.131   0.824  13.764 -0.8028 -0.3431 -0.0877
  905MPD2    C413309   1.180   0.946  13.807 -0.4127 -0.6796 -0.4120
  905MPD2    C513310   1.170   0.974  13.939  0.7983 -0.4077  0.1534
  905MPD2     H13311   1.022   0.647  13.811  0.3861 -0.2500 -1.2757
  905MPD2    H113312   1.203   1.021  13.733 -2.4558 -0.0048 -0.3837
  905MPD2    H213313   1.144   0.898  14.133  1.9307  1.7396 -0.8708
  905MPD2    H313314   1.190   1.074  13.973  1.9493 -0.8825  0.8410
  905MPD2     N13315   1.134   0.797  13.626  1.5249  0.1034  0.4745
  905MPD2    H513316   1.147   0.878  13.567  0.0407 -0.8165 -1.1033
  905MPD2    N113317   1.030   0.661  14.081  0.4620 -0.0667 -0.2765
  905MPD2    H713318   1.056   0.695  14.173  0.2097 -0.4837 -0.0484
  906MPD2     C13319   4.083   0.726  11.451  0.4215 -0.7886  0.3621
  906MPD2    C113320   4.069   0.624  11.358 -0.3641 -0.1060 -0.3224
  906MPD2    C213321   3.995   0.505  11.393 -0.0477  0.2524 -0.2897
  906MPD2    C313322   3.941   0.484  11.515  0.4358 -0.1124  0.0976
  906MPD2    C413323   3.946   0.595  11.602 -0.0289 -0.3837  0.1747
  906MPD2    C513324   4.024   0.704  11.575 -0.1420 -0.1416  0.1830
  906MPD2     H13325   3.987   0.430  11.316  1.0803 -2.3558  2.1324
  906MPD2    H113326   3.901   0.593  11.701  0.0985 -0.5598  0.2301
  906MPD2    H213327   4.129   0.821  11.426 -1.4722  0.5459  1.9753
  906MPD2    H313328   4.031   0.777  11.655  0.7569 -1.6382  1.4541
  906MPD2     N13329   3.875   0.365  11.560 -0.0426 -0.0846 -0.0070
  906MPD2    H513330   3.817   0.370  11.644 -3.3523  1.4045 -2.3912
  906MPD2    N113331   4.121   0.635  11.225 -0.5308 -0.0896  0.4008
  906MPD2    H713332   4.086   0.564  11.161 -0.8791 -1.3238  1.9496
  907MPD2     C13333   2.647   4.416  16.284  0.3217  0.5840 -0.1808
  907MPD2    C113334   2.640   4.287  16.237  0.3313 -0.2029 -0.0616
  907MPD2    C213335   2.683   4.186  16.329  0.5024 -0.2982 -0.4188
  907MPD2    C313336   2.726   4.204  16.458  0.0015  0.1517 -0.1234
  907MPD2    C413337   2.737   4.335  16.498 -0.2965 -0.3416 -0.3550
  907MPD2    C513338   2.689   4.437  16.417  0.1091  0.4567 -0.0309
  907MPD2     H13339   2.687   4.086  16.288 -0.9763 -0.2281 -0.7550
  907MPD2    H113340   2.763   4.359  16.600  0.8546  1.0347 -0.9673
  907MPD2    H213341   2.617   4.505  16.229  1.6851  1.1047 -0.0887
  907MPD2    H313342   2.691   4.539  16.451  2.5449  0.3780  0.0529
  907MPD2     N13343   2.758   4.088  16.527 -0.2893 -0.1108 -0.1754
  907MPD2    H513344   2.781   4.005  16.475  1.8542  0.6353 -0.4106
  907MPD2    N113345   2.589   4.245  16.111  0.2286 -0.2325 -0.2638
  907MPD2    H713346   2.594   4.146  16.086  1.4696 -0.2209 -0.0877
  908MPD2     C13347   0.812   0.049   9.593 -0.0010 -0.3171 -0.5762
  908MPD2    C113348   0.812   0.012   9.728 -0.1077 -0.6009 -0.3995
  908MPD2    C213349   0.834   0.108   9.825  0.1313  0.2264  0.2161
  908MPD2    C313350   0.861   0.240   9.788  0.6912 -0.0558  0.1182
  908MPD2    C413351   0.863   0.271   9.653 -0.2181  0.2157  0.2479
  908MPD2    C513352   0.837   0.175   9.556 -0.2100  0.0994  0.6133
  908MPD2     H13353   0.827   0.085   9.930  0.6384  1.0956  0.4489
  908MPD2    H113354   0.871   0.374   9.620 -0.3289 -0.4116 -1.7811
  908MPD2    H213355   0.798   4.711   9.516  1.7120 -1.8524  0.5918
  908MPD2    H313356   0.829   0.203   9.452  1.8150  2.9602  1.2425
  908MPD2     N13357   0.882   0.337   9.896  0.4587  0.1029  0.0670
  908MPD2    H513358   0.882   0.303   9.992 -2.1478  1.7259  0.6358
  908MPD2    N113359   0.789   4.616   9.769  0.6456  0.0595 -0.1351
  908MPD2    H713360   0.768   4.552   9.692 -3.1696 -1.7780  2.4394
  909MPD2     C13361   1.184   3.083  11.718 -0.0911  0.3621  0.1986
  909MPD2    C113362   1.135   3.206  11.707 -0.1953 -0.1961  0.5536
  909MPD2    C213363   1.031   3.230  11.790 -0.5032 -0.2455  0.0963
  909MPD2    C313364   0.965   3.131  11.860 -0.1046 -0.1233  0.0721
  909MPD2    C413365   1.016   3.004  11.862 -0.0340 -1.2566 -0.3495
  909MPD2    C513366   1.124   2.983  11.791  0.2374 -0.0833  0.0932
  909MPD2     H13367   0.997   3.333  11.796  0.8839  0.1494  1.1498
  909MPD2    H113368   0.979   2.921  11.921 -0.2073 -1.0021 -0.0964
  909MPD2    H213369   1.270   3.054  11.658  1.7676  2.0096  2.0401
  909MPD2    H313370   1.153   2.880  11.779 -0.6755 -0.3905  0.4567
  909MPD2     N13371   0.851   3.173  11.939 -0.1008  0.1836 -0.2166
  909MPD2    H513372   0.836   3.273  11.943  3.3758  0.8096 -2.4650
  909MPD2    N113373   1.205   3.304  11.632 -0.5187 -0.1134  0.2043
  909MPD2    H713374   1.161   3.395  11.636 -2.1733 -0.7515 -3.3095
  910MPD2     C13375   2.047   0.167  16.565  0.3618 -0.5253  0.0282
  910MPD2    C113376   2.100   0.079  16.464  0.8290 -0.0662 -0.4973
  910MPD2    C213377   2.079   0.115  16.328  0.7513  0.1265  0.4835
  910MPD2    C313378   2.012   0.237  16.305 -0.1457 -0.1185  0.1320
  910MPD2    C413379   1.948   0.302  16.405  0.0723  0.0584  0.6025
  910MPD2    C513380   1.965   0.271  16.534 -0.7517  0.8937 -0.1735
  910MPD2     H13381   2.130   0.069  16.244 -1.0176 -0.6775 -0.1557
  910MPD2    H113382   1.881   0.384  16.380  1.3096  1.0486  0.5939
  910MPD2    H213383   2.031   0.144  16.670 -0.6594  0.2578  0.0430
  910MPD2    H313384   1.909   0.318  16.614  1.2556  0.0209  1.7852
  910MPD2     N13385   1.978   0.289  16.177 -0.2099 -0.2952  0.2263
  910MPD2    H513386   1.913   0.367  16.177  2.3902  1.8796 -1.5061
  910MPD2    N113387   2.176   4.701  16.489 -0.3901 -0.4250  0.1725
  910MPD2    H713388   2.219   4.644  16.417  0.8460  0.2877  0.3425
  911MPD2     C13389   0.133   0.513  16.483  0.3418  0.0821 -0.2187
  911MPD2    C113390   0.186   0.627  16.544 -0.4091 -0.0259  0.4483
  911MPD2    C213391   0.102   0.732  16.568 -0.6857 -0.3894  0.2603
  911MPD2    C313392   4.709   0.733  16.532 -0.4294 -0.3632 -0.6143
  911MPD2    C413393   4.652   0.627  16.462  0.6544 -0.2801 -0.6852
  911MPD2    C513394   0.000   0.519  16.437 -0.0519 -0.0699 -0.4323
  911MPD2     H13395   0.145   0.826  16.601  1.7735 -1.2720 -0.4588
  911MPD2    H113396   4.546   0.625  16.441  0.8896  0.4945 -1.9316
  911MPD2    H213397   0.181   0.418  16.461 -0.2750 -0.2180 -0.2937
  911MPD2    H313398   4.706   0.437  16.374  1.9708 -0.9270 -0.3394
  911MPD2     N13399   4.623   0.847  16.558 -0.0165 -0.3203 -0.1115
  911MPD2    H513400   4.534   0.841  16.509 -0.3384  0.7470  0.3436
  911MPD2    N113401   0.315   0.624  16.596 -0.1510  0.3463  0.6922
  911MPD2    H713402   0.375   0.543  16.592  0.6390  0.9575  0.1211
  912MPD2     C13403   4.258   0.782  16.025 -0.3801 -0.0816  0.5473
  912MPD2    C113404   4.272   0.768  16.153 -0.3484  0.6985  0.3408
  912MPD2    C213405   4.283   0.645  16.207 -0.5906 -0.2539  0.4869
  912MPD2    C313406   4.293   0.527  16.132 -0.1559 -0.2765 -0.2209
  912MPD2    C413407   4.284   0.537  15.994 -0.1818  0.2750 -0.4991
  912MPD2    C513408   4.256   0.666  15.947 -0.6593 -0.1332  0.2655
  912MPD2     H13409   4.289   0.636  16.315 -0.3998 -2.4964  0.2750
  912MPD2    H113410   4.272   0.448  15.934 -3.4732 -0.0142  0.5295
  912MPD2    H213411   4.253   0.881  15.980 -3.7239  0.6773  2.5842
  912MPD2    H313412   4.234   0.674  15.841 -2.2813  2.2274  0.7763
  912MPD2     N13413   4.279   0.409  16.207  0.0516  0.3188 -0.3905
  912MPD2    H513414   4.263   0.412  16.308  1.0050 -2.3907 -0.1479
  912MPD2    N113415   4.273   0.890  16.232 -0.6206  0.0529 -0.0751
  912MPD2    H713416   4.254   0.976  16.181 -1.9336 -0.2280 -0.0563
  913MPD2     C13417   1.119   1.633  10.288  0.4347  0.8047  0.1356
  913MPD2    C113418   1.099   1.743  10.362  0.0064  0.3847 -0.0174
  913MPD2    C213419   1.056   1.858  10.291  0.8495  0.3929 -0.2312
  913MPD2    C313420   1.018   1.855  10.159 -0.7830 -0.4842  0.3494
  913MPD2    C413421   1.043   1.745  10.085 -0.0904  0.0922  0.1161
  913MPD2    C513422   1.088   1.630  10.156 -0.3402 -0.7206  0.2504
  913MPD2     H13423   1.042   1.951  10.345 -0.1066 -0.7332  1.4380
  913MPD2    H113424   1.019   1.737   9.980  0.5834 -0.5644  0.0122
  913MPD2    H213425   1.145   1.539  10.335  0.2421  2.1142  2.8177
  913MPD2    H313426   1.100   1.538  10.100 -0.5760 -1.2955  1.1462
  913MPD2     N13427   0.943   1.960  10.098  0.2441  0.5657  0.6517
  913MPD2    H513428   0.932   1.943   9.998  0.7729  1.4767  0.4407
  913MPD2    N113429   1.112   1.732  10.504 -0.1817  0.1658  0.5849
  913MPD2    H713430   1.136   1.639  10.537  0.8493  0.3189  0.2713
  914MPD2     C13431   3.387   2.039  12.267 -0.6994 -0.4508 -0.0416
  914MPD2    C113432   3.287   2.088  12.346 -0.3167 -0.1939  0.1639
  914MPD2    C213433   3.207   1.993  12.416  0.5859  0.3904  1.0600
  914MPD2    C313434   3.237   1.856  12.407 -0.1670  0.3840 -0.2606
  914MPD2    C413435   3.344   1.813  12.332  0.3277 -0.1101 -0.1476
  914MPD2    C513436   3.416   1.907  12.266 -0.1590 -0.9189  0.2381
  914MPD2     H13437   3.119   2.019  12.475  2.3419  0.4158  3.6514
  914MPD2    H113438   3.370   1.708  12.330  1.5312  0.2020 -0.5275
  914MPD2    H213439   3.441   2.102  12.196 -1.4120 -2.1979 -2.1140
  914MPD2    H313440   3.490   1.876  12.193  0.5170 -1.3369  1.0998
  914MPD2     N13441   3.151   1.772  12.485  0.5550  0.0590  0.1194
  914MPD2    H513442   3.088   1.816  12.552 -1.1305 -1.8236 -0.2012
  914MPD2    N113443   3.258   2.228  12.346 -0.2831 -0.5056  0.4232
  914MPD2    H713444   3.331   2.286  12.304 -2.9408  2.1701 -0.5003
  915MPD2     C13445   1.162   2.322  15.762  0.1190 -0.7069  0.0952
  915MPD2    C113446   1.061   2.230  15.768 -0.3339  0.0278  0.3627
  915MPD2    C213447   0.952   2.248  15.856  0.3272 -0.3538  0.5465
  915MPD2    C313448   0.939   2.363  15.921  0.2546 -0.4267 -0.3714
  915MPD2    C413449   1.041   2.449  15.923 -0.7279  0.8759 -0.4167
  915MPD2    C513450   1.153   2.417  15.856  0.8129  0.5250  0.2383
  915MPD2     H13451   0.868   2.180  15.858 -0.4025  0.5699  1.0776
  915MPD2    H113452   1.030   2.541  15.980  1.5519  0.1529  1.2308
  915MPD2    H213453   1.255   2.305  15.709  0.2086 -0.8982  0.3162
  915MPD2    H313454   1.231   2.491  15.870  0.0201  1.0823  1.6705
  915MPD2     N13455   0.826   2.402  15.992 -0.2449 -0.4293  0.0148
  915MPD2    H513456   0.839   2.489  16.043 -0.9455  1.4784 -3.0985
  915MPD2    N113457   1.086   2.120  15.684  0.6578  0.6116 -0.2141
  915MPD2    H713458   1.167   2.126  15.624  1.0514 -0.4326  0.2104
  916MPD2     C13459   3.998   0.556  15.722  0.0170 -0.0608  0.3163
  916MPD2    C113460   3.995   0.447  15.814 -0.7126  0.2867 -0.7621
  916MPD2    C213461   4.069   0.334  15.775  0.1159  0.3501 -0.1678
  916MPD2    C313462   4.138   0.331  15.657 -0.5597  0.4698 -0.4421
  916MPD2    C413463   4.136   0.434  15.571 -0.8107 -0.3326  0.0624
  916MPD2    C513464   4.064   0.549  15.602 -0.4222  0.2164 -0.2826
  916MPD2     H13465   4.095   0.262  15.852 -1.7279 -0.0427  0.0875
  916MPD2    H113466   4.192   0.434  15.478 -0.8465 -2.1447  0.0425
  916MPD2    H213467   3.930   0.640  15.739  0.2422  0.1027  0.4118
  916MPD2    H313468   4.073   0.631  15.532  1.1037 -0.1440 -0.5020
  916MPD2     N13469   4.220   0.220  15.636 -0.7020 -0.0555 -1.1071
  916MPD2    H513470   4.229   0.144  15.703 -2.0353  1.6627  1.0103
  916MPD2    N113471   3.919   0.456  15.929  0.5282 -0.4780  0.3265
  916MPD2    H713472   3.872   0.545  15.941  0.1241 -0.7389  0.6583
  917MPD2     C13473   4.497   2.501  11.531  0.2311 -0.3059 -0.1820
  917MPD2    C113474   4.449   2.623  11.581  0.2990 -0.2855  0.2186
  917MPD2    C213475   4.500   2.738  11.531 -0.0961 -0.8165  0.5359
  917MPD2    C313476   4.608   2.745  11.442  0.5590 -0.4933  0.2359
  917MPD2    C413477   4.654   2.619  11.399  0.4736  0.0059 -0.3350
  917MPD2    C513478   4.599   2.504  11.438  0.1991 -0.4089  0.3018
  917MPD2     H13479   4.456   2.831  11.564  0.3068 -0.0779 -0.9571
  917MPD2    H113480   0.005   2.618  11.335  1.5801 -1.6529  1.2041
  917MPD2    H213481   4.471   2.406  11.576 -0.1520  0.8293  1.9788
  917MPD2    H313482   4.650   2.424  11.386 -0.7658 -0.0672 -1.1563
  917MPD2     N13483   4.658   2.866  11.389 -0.2120 -0.3704  0.3337
  917MPD2    H513484   4.729   2.860  11.317 -0.0072  0.7085  0.4507
  917MPD2    N113485   4.350   2.617  11.680 -0.7142  0.9277 -0.5964
  917MPD2    H713486   4.314   2.523  11.696  0.6194  0.5392  0.1617
  918MPD2     C13487   4.215   3.045  12.556 -0.0546 -0.1119 -0.0497
  918MPD2    C113488   4.323   2.992  12.489 -0.3370  0.5025  0.3329
  918MPD2    C213489   4.298   2.922  12.373  0.0273  0.2511  0.1742
  918MPD2    C313490   4.167   2.900  12.331 -0.7148  0.0889 -0.2789
  918MPD2    C413491   4.060   2.956  12.400 -0.6257  0.5963 -0.9770
  918MPD2    C513492   4.082   3.029  12.515  0.1287  0.6846 -0.5681
  918MPD2     H13493   4.379   2.875  12.319 -0.0949 -1.5504  1.5555
  918MPD2    H113494   3.957   2.945  12.370 -0.6030 -2.1813 -0.0925
  918MPD2    H213495   4.213   3.101  12.649 -3.5964 -0.4643  0.0812
  918MPD2    H313496   4.003   3.063  12.581  0.6900  0.7744  0.0587
  918MPD2     N13497   4.153   2.813  12.220 -0.1778 -0.1411  0.0012
  918MPD2    H513498   4.238   2.775  12.181  1.5430 -0.5582  4.1564
  918MPD2    N113499   4.455   2.984  12.546  0.1376 -0.1462  0.2116
  918MPD2    H713500   4.528   2.954  12.483  0.7546 -0.7506  1.2191
  919MPD2     C13501   0.423   1.989  11.301  0.0505  0.1264 -0.4641
  919MPD2    C113502   0.484   1.867  11.278 -0.4120  0.0659  0.4199
  919MPD2    C213503   0.535   1.837  11.156 -0.2103 -0.7308 -0.7868
  919MPD2    C313504   0.518   1.929  11.053  0.5014 -0.1496 -0.0951
  919MPD2    C413505   0.469   2.051  11.090  0.7909  0.4590 -0.4217
  919MPD2    C513506   0.427   2.084  11.212  0.3153  0.1906 -0.4490
  919MPD2     H13507   0.568   1.736  11.138 -0.4245 -0.6836 -1.4573
  919MPD2    H113508   0.478   2.135  11.022  0.0761  1.7641  1.0980
  919MPD2    H213509   0.378   2.029  11.392  1.5953  3.7009 -1.2757
  919MPD2    H313510   0.377   2.179  11.228 -0.2086  0.1750 -2.0343
  919MPD2     N13511   0.561   1.899  10.923  0.6120 -0.2429  0.3346
  919MPD2    H513512   0.530   1.966  10.853  0.5562  1.1612  1.6897
  919MPD2    N113513   0.495   1.767  11.384  0.0748 -0.5061 -0.2354
  919MPD2    H713514   0.543   1.680  11.362  0.6591 -0.5019  1.0418
  920MPD2     C13515   0.388   2.257  10.083  0.0547 -0.3411  0.2876
  920MPD2    C113516   0.386   2.126  10.062 -0.0516  0.0260  0.3590
  920MPD2    C213517   0.463   2.039  10.135  0.6312  0.2472 -0.8526
  920MPD2    C313518   0.545   2.087  10.240 -0.0136 -0.1095 -0.2286
  920MPD2    C413519   0.538   2.222  10.267 -0.9250  0.1367  0.1353
  920MPD2    C513520   0.460   2.300  10.186 -0.0194 -0.6550  0.2751
  920MPD2     H13521   0.451   1.932  10.119  2.8032 -0.0157 -0.7418
  920MPD2    H113522   0.609   2.267  10.336 -0.6294  1.5191 -1.0645
  920MPD2    H213523   0.325   2.334  10.039  1.0157  0.9059  1.0935
  920MPD2    H313524   0.459   2.403  10.218 -2.4029 -0.7655  0.5334
  920MPD2     N13525   0.600   1.993  10.328 -0.0500 -0.1898  0.2513
  920MPD2    H513526   0.607   1.899  10.290  0.5698 -0.5929  1.3614
  920MPD2    N113527   0.298   2.075   9.959 -0.1650 -0.6568  0.5016
  920MPD2    H713528   0.302   1.975   9.938 -0.9601 -0.7099  0.5906
  921MPD2     C13529   1.173   1.216  16.927 -0.0835  0.0071 -0.7618
  921MPD2    C113530   1.203   1.157  16.804 -0.7821 -0.0575  0.2642
  921MPD2    C213531   1.123   1.055  16.752 -0.4649 -0.3919  0.0548
  921MPD2    C313532   1.016   1.013  16.825 -0.6507 -0.4489  0.7633
  921MPD2    C413533   0.985   1.072  16.941 -0.6152  0.0893  0.0477
  921MPD2    C513534   1.065   1.167  16.991 -0.4691  0.9112  0.2325
  921MPD2     H13535   1.136   1.021  16.650  0.3160  0.5292 -0.1531
  921MPD2    H113536   0.897   1.043  16.997 -0.8690  0.7307 -0.0175
  921MPD2    H213537   1.228   1.296  16.975 -1.8920  0.6908  0.1589
  921MPD2    H313538   1.041   1.220  17.083 -0.8126  1.2934 -0.0805
  921MPD2     N13539   0.929   0.920  16.766  0.6979 -0.1540  0.2652
  921MPD2    H513540   0.968   0.883  16.680 -0.4660 -1.7594  0.4383
  921MPD2    N113541   1.311   1.203  16.743  0.4003 -0.2218  0.7318
  921MPD2    H713542   1.364   1.276  16.791  0.5600 -0.0771  0.3357
  922MPD2     C13543   1.479   4.254  17.446  0.4024  0.3964 -0.3775
  922MPD2    C113544   1.432   4.228  17.573 -0.1143 -0.0181 -0.2170
  922MPD2    C213545   1.353   4.113  17.587  0.2535 -0.6172 -0.0804
  922MPD2    C313546   1.326   4.036  17.479 -0.4700  0.1338 -0.1087
  922MPD2    C413547   1.365   4.081  17.354 -0.1074 -0.3125  0.9918
  922MPD2    C513548   1.448   4.181  17.341 -0.1516 -0.5995  0.3461
  922MPD2     H13549   1.310   4.089  17.683 -0.0215  1.6588  0.3747
  922MPD2    H113550   1.330   4.032  17.263 -0.3184  0.9705  0.3904
  922MPD2    H213551   1.529   4.349  17.425  0.2435  0.3562 -0.9342
  922MPD2    H313552   1.477   4.213  17.241 -0.4427 -0.5089  0.2925
  922MPD2     N13553   1.248   3.921  17.499 -0.2920 -0.6823  0.6015
  922MPD2    H513554   1.201   3.901  17.587 -0.6228 -1.8806  0.1492
  922MPD2    N113555   1.458   4.316  17.680 -0.6052 -0.4678  0.6621
  922MPD2    H713556   1.434   4.284   0.026 -0.6514  2.2298  1.5954
  923MPD2     C13557   3.149   1.480   8.929  0.1620  0.5474  0.4107
  923MPD2    C113558   3.094   1.524   9.046 -0.2874 -0.5498  0.4479
  923MPD2    C213559   3.160   1.496   9.165 -0.0807 -0.4293  0.3770
  923MPD2    C313560   3.289   1.443   9.164  0.1034  0.4133 -0.1880
  923MPD2    C413561   3.336   1.402   9.040 -0.2083 -0.1050  0.0113
  923MPD2    C513562   3.265   1.415   8.927  0.0234  0.2358 -0.8726
  923MPD2     H13563   3.111   1.521   9.259  1.6238  2.0530  0.5970
  923MPD2    H113564   3.431   1.350   9.036 -0.2120 -0.3618  2.9082
  923MPD2    H213565   3.101   1.507   8.835 -1.3372  0.0250  1.0238
  923MPD2    H313566   3.314   1.386   8.835  1.5080 -0.6994  0.2033
  923MPD2     N13567   3.365   1.418   9.274  0.1336  0.0631 -0.0545
  923MPD2    H513568   3.436   1.348   9.255 -0.7219 -0.4814 -1.2448
  923MPD2    N113569   2.967   1.582   9.033 -0.5696  0.4021 -0.1815
  923MPD2    H713570   2.931   1.615   8.944 -0.0895 -1.7558 -1.1797
  924MPD2     C13571   3.061   3.398  16.182 -0.0166  0.0087  0.1770
  924MPD2    C113572   3.001   3.366  16.298 -0.2821 -0.4319  0.7928
  924MPD2    C213573   2.996   3.469  16.400 -0.2817 -0.5347 -0.0850
  924MPD2    C313574   3.060   3.592  16.378  0.3881 -0.5031 -0.2944
  924MPD2    C413575   3.123   3.611  16.256  0.2317  0.4172  0.6554
  924MPD2    C513576   3.127   3.513  16.165  0.6317  0.2074  0.1915
  924MPD2     H13577   2.952   3.449  16.497 -0.8989  0.0345 -0.2492
  924MPD2    H113578   3.170   3.705  16.231 -1.3037  0.9564 -0.2317
  924MPD2    H213579   3.072   3.318  16.110  0.7177  0.5033 -0.2647
  924MPD2    H313580   3.196   3.522  16.082  1.0496 -1.5499  0.3527
  924MPD2     N13581   3.053   3.699  16.478  0.3685  0.0689  0.3384
  924MPD2    H513582   3.072   3.793  16.446 -0.7188  0.6412  1.3677
  924MPD2    N113583   2.947   3.234  16.318 -0.0513 -0.2194  0.1816
  924MPD2    H713584   2.981   3.162  16.254  0.6195 -1.7979  2.3378
  925MPD2     C13585   2.196   0.930  14.857  1.4605 -0.3388  0.5705
  925MPD2    C113586   2.097   1.013  14.805 -0.3105 -0.8817 -0.5676
  925MPD2    C213587   2.011   1.074  14.887  0.4269  0.0626 -0.0470
  925MPD2    C313588   2.027   1.064  15.023  0.0794  0.0050 -0.4866
  925MPD2    C413589   2.125   0.981  15.077  0.1782  0.6515 -0.0367
  925MPD2    C513590   2.202   0.906  14.993 -0.1662 -0.1255 -0.3804
  925MPD2     H13591   1.935   1.139  14.847  0.6461  0.4303  0.1314
  925MPD2    H113592   2.130   0.967  15.184 -1.5256  1.7462  0.1938
  925MPD2    H213593   2.274   0.881  14.800 -2.9444 -2.8281 -3.2516
  925MPD2    H313594   2.287   0.850  15.031  0.1603  0.3981 -0.3255
  925MPD2     N13595   1.950   1.136  15.112 -0.0342  0.0274  0.6266
  925MPD2    H513596   1.945   1.094  15.204 -0.0526 -0.9163  0.2014
  925MPD2    N113597   2.084   1.038  14.663 -0.3200  0.2025  0.0929
  925MPD2    H713598   2.001   1.090  14.637 -0.5483 -0.9493 -1.4730
  926MPD2     C13599   0.323   4.252  13.412  0.0788  0.0100  0.0499
  926MPD2    C113600   0.263   4.368  13.367  0.3600  0.3102  0.1817
  926MPD2    C213601   0.328   4.461  13.294 -0.5066  0.3092 -0.4182
  926MPD2    C313602   0.457   4.442  13.260  0.2763 -0.2726  0.0601
  926MPD2    C413603   0.522   4.330  13.308  0.5111  0.0233  0.2358
  926MPD2    C513604   0.452   4.233  13.383 -0.3987  0.5568  0.3686
  926MPD2     H13605   0.266   4.540  13.255 -1.9438  0.1575  1.5169
  926MPD2    H113606   0.623   4.301  13.279 -0.4835 -1.5470 -1.7021
  926MPD2    H213607   0.264   4.171  13.453  1.7523 -0.9447  0.5313
  926MPD2    H313608   0.486   4.134  13.412 -1.8269 -0.8302 -2.7067
  926MPD2     N13609   0.533   4.525  13.172  0.2880 -0.0921 -0.3587
  926MPD2    H513610   0.620   4.483  13.144  0.2506 -1.2271  1.2376
  926MPD2    N113611   0.127   4.394  13.387 -0.3303  0.3501 -0.5881
  926MPD2    H713612   0.096   4.483  13.350 -1.8018 -0.7493 -1.9943
  927MPD2     C13613   0.460   1.761   0.234  0.2291  0.0730 -0.0509
  927MPD2    C113614   0.396   1.750   0.112  0.0414 -0.1456 -0.5442
  927MPD2    C213615   0.452   1.795  17.739 -0.4554 -0.1223  0.1461
  927MPD2    C313616   0.586   1.841  17.746 -0.7453 -0.2188 -0.2824
  927MPD2    C413617   0.646   1.857   0.122 -0.3002  0.2949  0.1044
  927MPD2    C513618   0.578   1.821   0.239  0.4260 -0.6750 -0.0696
  927MPD2     H13619   0.404   1.784  17.643 -0.8170 -0.6262  0.3820
  927MPD2    H113620   0.746   1.897   0.134 -0.7883  1.3612  0.5597
  927MPD2    H213621   0.406   1.726   0.321 -1.9423  0.0262 -1.3926
  927MPD2    H313622   0.621   1.832   0.338  0.5141 -0.3067 -0.1501
  927MPD2     N13623   0.631   1.872  17.617  0.0161 -0.1794  0.1282
  927MPD2    H513624   0.572   1.867  17.535  3.2958  2.9129 -2.4298
  927MPD2    N113625   0.259   1.700   0.122  0.5211  0.3072 -0.2660
  927MPD2    H713626   0.216   1.683   0.212  0.1762 -3.0766 -1.0533
  928MPD2     C13627   2.632   0.844   0.602 -0.2842 -0.4385  0.3463
  928MPD2    C113628   2.710   0.936   0.670  0.1135 -0.4834 -0.0696
  928MPD2    C213629   2.849   0.920   0.682  0.1649  0.5157  0.2671
  928MPD2    C313630   2.911   0.810   0.629 -0.3420 -0.1575 -0.6535
  928MPD2    C413631   2.839   0.722   0.546 -0.2703  0.2915  0.3432
  928MPD2    C513632   2.703   0.745   0.541 -0.4110  0.0104 -0.1611
  928MPD2     H13633   2.911   0.992   0.733  0.2669 -0.2886  1.2788
  928MPD2    H113634   2.875   0.632   0.498 -0.6193 -0.1510  0.9059
  928MPD2    H213635   2.526   0.854   0.583 -0.4978  1.6844  2.6184
  928MPD2    H313636   2.641   0.674   0.487 -0.6049  0.4332 -0.5042
  928MPD2     N13637   3.051   0.786   0.657  0.4963  0.0587  0.1367
  928MPD2    H513638   3.082   0.704   0.606  0.0045  1.1651 -1.9307
  928MPD2    N113639   2.634   1.036   0.733  0.0190  0.2455  0.6181
  928MPD2    H713640   2.533   1.031   0.723  0.1246  1.3133 -0.9770
  929MPD2     C13641   3.263   1.030   9.625  0.0615 -0.7080 -0.1857
  929MPD2    C113642   3.151   0.962   9.672  0.9074 -0.1213  0.6839
  929MPD2    C213643   3.034   0.972   9.596 -0.3428 -0.3121 -0.7220
  929MPD2    C313644   3.023   1.060   9.490  0.2735 -0.2046  0.1000
  929MPD2    C413645   3.131   1.125   9.439 -0.9579 -0.2910  0.1409
  929MPD2    C513646   3.246   1.105   9.509 -0.0409  0.2416  0.1885
  929MPD2     H13647   2.943   0.924   9.629 -0.7880  1.6550  0.9304
  929MPD2    H113648   3.128   1.196   9.358  1.3596 -0.1387  0.2013
  929MPD2    H213649   3.364   1.015   9.660  0.5288 -0.0955 -1.2656
  929MPD2    H313650   3.335   1.154   9.472  1.0256 -0.9542  1.1635
  929MPD2     N13651   2.895   1.103   9.447 -0.0948  0.7100 -0.0227
  929MPD2    H513652   2.895   1.188   9.391 -2.4270  0.4395 -0.4489
  929MPD2    N113653   3.157   0.895   9.794 -0.4409 -0.0426 -0.3254
  929MPD2    H713654   3.243   0.891   9.848  0.5791  0.7274 -1.8798
  930MPD2     C13655   4.683   2.345  14.445  0.2069 -0.0206  0.3833
  930MPD2    C113656   4.611   2.462  14.432 -0.6823  0.2606 -0.1178
  930MPD2    C213657   4.513   2.472  14.333  0.4679  0.8938 -0.3589
  930MPD2    C313658   4.508   2.379  14.227  0.7127 -0.7236 -0.7475
  930MPD2    C413659   4.593   2.264  14.230  0.4604  0.6071 -0.1679
  930MPD2    C513660   4.664   2.249  14.348 -0.0911  0.3397  0.4104
  930MPD2     H13661   4.464   2.568  14.323 -0.1139  0.5610 -0.7341
  930MPD2    H113662   4.600   2.201  14.142 -0.8728 -1.1772  1.0067
  930MPD2    H213663   0.023   2.327  14.518 -0.2476  0.6305  1.0171
  930MPD2    H313664   4.716   2.154  14.353  1.1234  1.1343  2.6610
  930MPD2     N13665   4.457   2.414  14.104  0.0913  0.4106 -0.2143
  930MPD2    H513666   4.502   2.371  14.024  2.9269  1.0048  1.0471
  930MPD2    N113667   4.645   2.564  14.522 -0.1490  0.1170 -0.0843
  930MPD2    H713668   4.729   2.542  14.575  1.2600  1.3842 -1.8050
  931MPD2     C13669   4.555   1.263   0.461 -0.1875 -0.2861  0.3932
  931MPD2    C113670   4.575   1.400   0.484  0.3352  0.1803  0.1454
  931MPD2    C213671   4.584   1.448   0.616  0.6256 -0.0342 -0.3719
  931MPD2    C313672   4.608   1.360   0.722  0.2498 -0.5417 -0.4617
  931MPD2    C413673   4.603   1.223   0.689  0.6732  0.0029  0.4828
  931MPD2    C513674   4.575   1.181   0.567 -1.1763  0.0123  0.3205
  931MPD2     H13675   4.593   1.554   0.637 -2.3166  1.0096 -4.3637
  931MPD2    H113676   4.622   1.145   0.762 -1.6677  0.3892  1.5189
  931MPD2    H213677   4.553   1.223   0.360 -0.1367  1.7266 -0.4078
  931MPD2    H313678   4.557   1.076   0.551  1.5498 -0.7707  2.6015
  931MPD2     N13679   4.639   1.400   0.850 -0.2713  0.6207  0.7437
  931MPD2    H513680   4.669   1.322   0.908  0.3886  0.0296 -0.3893
  931MPD2    N113681   4.583   1.471   0.367  0.3196 -0.0641 -0.0589
  931MPD2    H713682   4.601   1.418   0.283  2.3377  0.6808 -0.0798
  932MPD2     C13683   1.804   1.137  10.973 -0.4378 -0.4367  0.3886
  932MPD2    C113684   1.905   1.204  11.033 -0.0516 -0.7659 -0.1038
  932MPD2    C213685   2.027   1.138  11.059  0.4494 -0.3046  0.0719
  932MPD2    C313686   2.038   1.005  11.024 -0.0054 -0.5604  0.1481
  932MPD2    C413687   1.945   0.947  10.949  0.1182 -0.3497 -0.1363
  932MPD2    C513688   1.827   1.014  10.925  0.0397  0.2789 -0.2673
  932MPD2     H13689   2.107   1.194  11.106 -0.5741 -0.9305  2.5535
  932MPD2    H113690   1.967   0.853  10.901 -0.5468 -0.7065  0.2557
  932MPD2    H213691   1.705   1.178  10.961 -1.2213 -2.5408 -0.4259
  932MPD2    H313692   1.755   0.964  10.861 -0.2546  0.1417  0.1739
  932MPD2     N13693   2.167   0.939  11.042  0.8266  0.1225  0.1483
  932MPD2    H513694   2.188   0.851  10.997 -0.9925  0.5729 -1.5938
  932MPD2    N113695   1.887   1.331  11.091 -0.2955 -0.0486  0.2760
  932MPD2    H713696   1.969   1.364  11.142 -0.1656 -1.1508  0.7707
  933MPD2     C13697   2.036   1.065   0.633  0.1426  0.6844 -0.3198
  933MPD2    C113698   2.088   1.176   0.691 -0.1477  0.2890 -0.0367
  933MPD2    C213699   2.037   1.297   0.658  0.1135  0.5169 -0.1409
  933MPD2    C313700   1.943   1.312   0.559 -0.2363  0.7514  0.5742
  933MPD2    C413701   1.899   1.200   0.498  0.6946 -0.4445 -0.4020
  933MPD2    C513702   1.947   1.081   0.535 -1.8502  0.5346 -0.4038
  933MPD2     H13703   2.081   1.387   0.699  1.0191  0.7577 -1.6702
  933MPD2    H113704   1.832   1.200   0.413  0.7709 -1.6902 -0.4615
  933MPD2    H213705   2.073   0.969   0.666 -0.0782  0.1250 -1.6907
  933MPD2    H313706   1.927   0.995   0.472 -0.5715 -0.6683  0.8523
  933MPD2     N13707   1.899   1.438   0.525  0.0442  0.2822 -0.0193
  933MPD2    H513708   1.945   1.517   0.569 -0.3276  0.8644 -0.6621
  933MPD2    N113709   2.203   1.172   0.785 -0.3225 -0.3495  0.0175
  933MPD2    H713710   2.251   1.083   0.795 -0.8046 -0.3937  1.7998
  934MPD2     C13711   4.123   3.616   1.204  0.6632 -0.0058 -0.0029
  934MPD2    C113712   4.161   3.479   1.200 -0.2821  0.5158 -0.2283
  934MPD2    C213713   4.060   3.385   1.182 -0.1796  0.0718  0.3342
  934MPD2    C313714   3.928   3.422   1.172  0.4112  0.1320  1.3577
  934MPD2    C413715   3.895   3.553   1.187  0.6598  0.5397 -0.5647
  934MPD2    C513716   3.993   3.647   1.199  0.8197 -0.0479  0.7358
  934MPD2     H13717   4.086   3.283   1.159 -0.8217  0.3726 -1.7707
  934MPD2    H113718   3.792   3.585   1.185  0.5869  0.2687 -0.9941
  934MPD2    H213719   4.190   3.698   1.227  1.5257 -0.9850  1.0043
  934MPD2    H313720   3.973   3.754   1.202 -1.0731 -0.4202  1.2477
  934MPD2     N13721   3.822   3.328   1.167 -0.1362  0.3067  0.1957
  934MPD2    H513722   3.734   3.362   1.205 -1.5229 -2.0136 -0.9337
  934MPD2    N113723   4.294   3.439   1.232 -0.3550 -0.5951  0.0376
  934MPD2    H713724   4.299   3.339   1.244 -2.2279 -1.0460 -2.8550
  935MPD2     C13725   3.928   2.324   1.290  0.5842 -0.2521  0.1006
  935MPD2    C113726   3.786   2.340   1.288  0.3496 -0.1585  0.7479
  935MPD2    C213727   3.725   2.466   1.264  0.8997 -0.5730  0.5632
  935MPD2    C313728   3.818   2.573   1.249 -0.6259 -0.4488 -0.1810
  935MPD2    C413729   3.955   2.557   1.238 -0.1443 -0.0728  0.4789
  935MPD2    C513730   4.008   2.437   1.272  0.4299 -0.2372  0.5425
  935MPD2     H13731   3.618   2.476   1.252  0.6109 -1.7655  2.0415
  935MPD2    H113732   4.023   2.640   1.224 -0.7165  0.5998  1.6216
  935MPD2    H213733   3.979   2.230   1.308  0.7292 -0.2800 -0.4307
  935MPD2    H313734   4.115   2.419   1.272  0.4663 -0.0113  0.5314
  935MPD2     N13735   3.770   2.706   1.222  0.2324 -0.6116  0.9901
  935MPD2    H513736   3.842   2.765   1.182 -1.0070 -0.9026 -1.6612
  935MPD2    N113737   3.701   2.229   1.279  0.5527 -0.5147 -0.3793
  935MPD2    H713738   3.607   2.251   1.248  0.2501 -1.9023 -0.4799
  936MPD2     C13739   1.968   4.105  12.348  0.6467  0.1373  0.1947
  936MPD2    C113740   2.066   4.138  12.435 -0.0303 -0.1187 -0.7709
  936MPD2    C213741   2.157   4.241  12.401 -0.3767  0.6267 -0.2201
  936MPD2    C313742   2.153   4.290  12.270  0.5741 -0.0741 -0.4522
  936MPD2    C413743   2.051   4.254  12.185  0.1610 -0.3856  0.2993
  936MPD2    C513744   1.967   4.160  12.226  0.0607  0.6542  0.4490
  936MPD2     H13745   2.231   4.268  12.475  1.6454 -1.4779 -1.4814
  936MPD2    H113746   2.044   4.295  12.085 -1.7854 -0.6323  0.3407
  936MPD2    H213747   1.899   4.022  12.359 -0.0950  0.6328 -0.6425
  936MPD2    H313748   1.883   4.136  12.162  2.5677 -1.3889 -2.0739
  936MPD2     N13749   2.245   4.380  12.216  0.0634 -0.2475  0.4605
  936MPD2    H513750   2.253   4.397  12.117 -1.9276  0.5633  0.4353
  936MPD2    N113751   2.080   4.077  12.559 -0.3049 -0.2938  0.0737
  936MPD2    H713752   2.154   4.099  12.625 -1.2198 -1.3448  1.4349
  937MPD2     C13753   0.735   1.087  11.407  0.3528 -0.0572  0.1081
  937MPD2    C113754   0.764   1.221  11.421 -0.0118 -0.5477 -0.1260
  937MPD2    C213755   0.875   1.256  11.347 -0.0063  0.2152 -0.2448
  937MPD2    C313756   0.968   1.170  11.293  0.1188 -0.9729 -0.2142
  937MPD2    C413757   0.937   1.030  11.292 -0.6994  0.0779  0.0324
  937MPD2    C513758   0.814   1.000  11.337  0.7531  0.2867  0.3029
  937MPD2     H13759   0.893   1.363  11.339 -2.0742  0.4025 -2.6260
  937MPD2    H113760   0.998   0.948  11.257 -1.4865 -0.7848  0.7124
  937MPD2    H213761   0.641   1.046  11.443 -0.6957  0.4898 -1.9728
  937MPD2    H313762   0.779   0.897  11.331  0.3614  0.2742  2.6691
  937MPD2     N13763   1.074   1.222  11.212  0.0584  0.0654 -0.0128
  937MPD2    H513764   1.079   1.324  11.210 -0.0068  0.0781  0.3609
  937MPD2    N113765   0.662   1.314  11.447  0.1635  0.0267  0.4852
  937MPD2    H713766   0.678   1.411  11.424  0.0980 -0.7629 -2.8615
  938MPD2     C13767   2.837   2.679   0.792  0.4156 -0.2717  0.1855
  938MPD2    C113768   2.806   2.736   0.922 -0.1287 -0.1426  0.0660
  938MPD2    C213769   2.788   2.654   1.025  0.4990 -0.6804 -0.2704
  938MPD2    C313770   2.788   2.512   1.008 -0.4906 -0.2492 -0.3956
  938MPD2    C413771   2.816   2.455   0.881  1.3914 -0.2878  0.6073
  938MPD2    C513772   2.844   2.542   0.776  0.1496  0.5693 -1.7213
  938MPD2     H13773   2.756   2.697   1.120  3.9525  1.1692  0.0746
  938MPD2    H113774   2.827   2.348   0.865 -1.0597 -0.1483 -1.9618
  938MPD2    H213775   2.844   2.730   0.697 -1.2857  0.7093  0.5839
  938MPD2    H313776   2.872   2.508   0.677  0.0113 -0.0543 -1.5463
  938MPD2     N13777   2.773   2.409   1.107  0.1778  0.0697 -0.6494
  938MPD2    H513778   2.768   2.315   1.069 -1.6342 -0.4315  0.8347
  938MPD2    N113779   2.798   2.880   0.943 -0.6536 -0.3077 -0.2485
  938MPD2    H713780   2.774   2.908   1.037 -1.0481  0.8881 -0.7083
  939MPD2     C13781   3.858   3.463   0.809  0.3522 -0.2092  0.0358
  939MPD2    C113782   3.777   3.422   0.707 -0.0153 -0.0034 -0.5086
  939MPD2    C213783   3.811   3.305   0.635  0.4816  0.3228  0.1895
  939MPD2    C313784   3.943   3.252   0.652 -0.0798  0.8193 -0.0908
  939MPD2    C413785   4.028   3.297   0.754  0.4333  1.0736 -0.3854
  939MPD2    C513786   3.982   3.408   0.823 -0.2825 -0.3751  0.2566
  939MPD2     H13787   3.748   3.265   0.557 -0.0867 -0.3445  0.9913
  939MPD2    H113788   4.130   3.269   0.775  0.0478 -0.7422 -0.8549
  939MPD2    H213789   3.824   3.548   0.866  0.6556 -0.5648  0.7481
  939MPD2    H313790   4.042   3.449   0.904 -1.7970  1.7868  0.2791
  939MPD2     N13791   3.985   3.163   0.553  0.5635 -0.2783 -0.2433
  939MPD2    H513792   3.917   3.145   0.480 -0.3032 -0.4869  0.6120
  939MPD2    N113793   3.655   3.486   0.693 -0.6454  0.2632 -0.3989
  939MPD2    H713794   3.652   3.574   0.743 -1.1164 -0.1221  0.2490
  940MPD2     C13795   3.021   4.123  13.456  0.5961  0.2063 -0.2552
  940MPD2    C113796   2.993   3.993  13.435  0.1561  0.2437  0.2014
  940MPD2    C213797   2.991   3.947  13.304  0.1652  0.0567 -0.9247
  940MPD2    C313798   3.030   4.024  13.197  0.3150 -0.0702 -0.1794
  940MPD2    C413799   3.050   4.159  13.220  0.1355 -0.4227 -0.5401
  940MPD2    C513800   3.041   4.204  13.348  0.3789 -0.6141 -0.4014
  940MPD2     H13801   2.954   3.846  13.298 -0.7945  0.3493 -0.0928
  940MPD2    H113802   3.077   4.221  13.135  1.0761 -1.2337 -0.8306
  940MPD2    H213803   3.018   4.162  13.557 -1.6757 -1.4167  0.3040
  940MPD2    H313804   3.067   4.307  13.372 -4.0661  0.3922 -0.0555
  940MPD2     N13805   3.035   3.969  13.064 -0.0657  0.1080  0.7276
  940MPD2    H513806   3.079   4.035  13.001  1.8312 -1.6858  0.1830
  940MPD2    N113807   2.946   3.904  13.534 -0.3472  0.1411 -0.0592
  940MPD2    H713808   2.886   3.829  13.501 -0.3339 -0.1971  0.6912
  941MPD2     C13809   2.215   0.022  10.365 -0.9982  0.2080  0.3124
  941MPD2    C113810   2.295   4.677  10.288  0.0074 -0.1984  0.6193
  941MPD2    C213811   2.239   4.551  10.249 -0.1835 -0.4678  0.1270
  941MPD2    C313812   2.112   4.513  10.290  0.1675 -0.2941 -0.4597
  941MPD2    C413813   2.040   4.598  10.366 -0.0141 -0.4689 -0.6794
  941MPD2    C513814   2.090   4.721  10.405  0.1395 -0.0157  0.0882
  941MPD2     H13815   2.294   4.497  10.173 -0.1392 -0.4318  0.1333
  941MPD2    H113816   1.941   4.569  10.401  0.4581 -0.9277  0.2756
  941MPD2    H213817   2.254   0.117  10.399  0.9980  0.0597 -1.5903
  941MPD2    H313818   2.032   0.050  10.469  1.0206  1.6014 -0.7657
  941MPD2     N13819   2.054   4.386  10.255 -0.2122 -0.2626  0.3730
  941MPD2    H513820   1.970   4.355  10.303 -0.5753 -1.9239 -1.3511
  941MPD2    N113821   2.429   4.710  10.257  0.2761  0.1190  0.4775
  941MPD2    H713822   2.473   4.657  10.182  0.5244 -1.6095  1.8436
  942MPD2     C13823   1.809   1.570   9.481  0.1812 -1.0595 -0.2199
  942MPD2    C113824   1.918   1.652   9.458  0.1208 -0.1744  0.0859
  942MPD2    C213825   2.016   1.609   9.369  0.1626 -0.3901  0.8060
  942MPD2    C313826   2.003   1.487   9.306  0.0084 -0.0873 -0.0241
  942MPD2    C413827   1.889   1.401   9.332 -0.1014 -0.0802  1.0182
  942MPD2    C513828   1.804   1.441   9.433  0.7641  0.4886  0.0286
  942MPD2     H13829   2.094   1.677   9.338 -0.2073 -0.8673 -1.1412
  942MPD2    H113830   1.883   1.304   9.284  0.8696  0.0482  0.6365
  942MPD2    H213831   1.729   1.598   9.549  2.1251 -0.9761  2.0309
  942MPD2    H313832   1.716   1.384   9.458  0.2717  0.7871 -1.0280
  942MPD2     N13833   2.094   1.439   9.219  0.4500 -0.3708 -0.5738
  942MPD2    H513834   2.071   1.354   9.168 -0.1738  0.2416 -1.3123
  942MPD2    N113835   1.933   1.775   9.533 -0.2879  0.8189  0.6182
  942MPD2    H713836   2.013   1.830   9.504 -0.2110 -0.0193 -0.7504
  943MPD2     C13837   1.262   3.787   9.700  0.0775  0.1125 -0.4718
  943MPD2    C113838   1.274   3.666   9.771 -0.6342  0.6795  0.1268
  943MPD2    C213839   1.322   3.669   9.898  0.0164  0.0200  0.1498
  943MPD2    C313840   1.371   3.787   9.957  0.0707 -0.0475  0.1383
  943MPD2    C413841   1.369   3.903   9.887 -0.2818  0.2394  0.3245
  943MPD2    C513842   1.320   3.902   9.760  0.6940 -0.6673  0.3618
  943MPD2     H13843   1.321   3.577   9.956 -1.3325 -1.2304 -1.9053
  943MPD2    H113844   1.420   3.992   9.921 -0.5929  0.0310  1.3266
  943MPD2    H213845   1.212   3.795   9.604 -0.1382  0.6190 -0.3141
  943MPD2    H313846   1.315   4.000   9.713  1.7581 -2.2267 -3.0518
  943MPD2     N13847   1.419   3.786  10.094 -0.4536 -0.9569 -0.7133
  943MPD2    H513848   1.462   3.870  10.132  0.0944 -1.8446  0.6249
  943MPD2    N113849   1.221   3.550   9.710  0.4791  0.4092  0.0473
  943MPD2    H713850   1.187   3.562   9.615 -0.8589  2.6016  0.8159
  944MPD2     C13851   1.012   2.829  11.399 -0.1840  0.1686 -0.2684
  944MPD2    C113852   0.898   2.760  11.390  0.0003 -0.3338  0.9469
  944MPD2    C213853   0.775   2.808  11.428 -0.2305 -0.5190  0.2960
  944MPD2    C313854   0.776   2.934  11.484 -1.1305 -0.6077 -0.2476
  944MPD2    C413855   0.892   3.011  11.496 -0.0516 -0.2282  0.0587
  944MPD2    C513856   1.003   2.960  11.441  0.2642 -0.0229 -0.0078
  944MPD2     H13857   0.683   2.750  11.423  1.2053 -2.9886  2.2818
  944MPD2    H113858   0.896   3.115  11.529  0.4161 -1.0302  2.4878
  944MPD2    H213859   1.110   2.794  11.370 -0.6060 -1.8310  0.7451
  944MPD2    H313860   1.093   3.019  11.453 -1.2378  2.0264  1.1726
  944MPD2     N13861   0.655   2.984  11.537 -0.3910 -0.3204  0.8906
  944MPD2    H513862   0.584   2.918  11.567 -0.7742  0.0026  0.6998
  944MPD2    N113863   0.914   2.640  11.318  0.2741 -0.3060  0.3383
  944MPD2    H713864   1.007   2.617  11.283  0.2726 -0.7575  0.6257
    1TMC1    C113865   3.927   2.752  14.645  0.3769  0.1927  0.4646
    1TMC1    C213866   3.956   2.659  14.743  0.1873 -0.1137 -0.6918
    1TMC1    C313867   3.888   2.536  14.735 -0.5824  0.0377 -0.0575
    1TMC1    C413868   3.842   2.719  14.543  0.0880  0.2774 -0.1467
    1TMC1    C513869   3.791   2.597  14.541  0.1332  0.0741  0.4747
    1TMC1    C613870   3.820   2.495  14.627 -0.2093  0.0773 -0.0384
    1TMC1     C13871   3.966   2.885  14.680  0.4537 -0.2553  0.4540
    1TMC1     O13872   4.023   2.906  14.787  0.3103 -0.0913  0.6027
    1TMC1     H13873   4.014   2.674  14.834  0.2764  2.2433 -1.1424
    1TMC1    H113874   3.824   2.788  14.462  0.7822 -1.0775 -1.4601
    1TMC1    H213875   3.774   2.398  14.621 -2.1444  1.0658 -1.1319
    1TMC1    C713876   3.738   2.561  14.407  0.3318 -0.1123 -0.1031
    1TMC1    C813877   3.927   2.439  14.831 -0.0118 -0.2370  0.6720
    1TMC1    O113878   3.699   2.646  14.326  0.9185  0.2017  0.7063
    1TMC1    O213879   3.920   2.454  14.952  0.1212 -0.0958 -0.1522
    1TMC1    O313880   3.766   2.429  14.376 -0.0620 -0.0939  0.5976
    1TMC1    H313881   3.821   2.386  14.445 -1.2240 -1.4104  0.7069
    1TMC1    O513882   4.026   2.378  14.768 -0.4277 -0.0270 -0.2378
    1TMC1    H513883   4.033   2.376  14.670  1.8075  1.4953 -0.1189
    2MPD2     C13884   3.943   3.395  14.617  0.0341 -0.6122 -0.1056
    2MPD2    C113885   3.886   3.331  14.505 -0.2777  0.4644  0.0282
    2MPD2    C213886   3.885   3.192  14.504 -0.1613  0.1642 -0.0960
    2MPD2    C313887   3.936   3.117  14.607 -0.5983 -0.1611  0.4757
    2MPD2    C413888   3.996   3.186  14.713 -0.0794 -0.0568 -0.1358
    2MPD2    C513889   3.994   3.321  14.720  0.6805  0.0596 -0.4534
    2MPD2     H13890   3.832   3.134  14.429  1.7849 -0.2669 -1.1419
    2MPD2    H113891   4.030   3.139  14.805 -1.9700 -1.4599 -0.1572
    2MPD2    H213892   3.953   3.503  14.615 -1.8142 -0.4598 -1.1481
    2MPD2    H313893   4.053   3.373  14.794  1.8256 -0.1050 -1.2375
    2MPD2     N13894   3.920   2.980  14.591  0.0662  0.3477  0.4456
    2MPD2    H513895   3.869   2.954  14.508 -1.1057  1.6908  0.7486
    2MPD2    N113896   3.842   3.412  14.403  0.0417  0.4407 -0.1173
    2MPD2    H713897   3.854   3.511  14.423  0.3006  0.5123 -0.6136
    3TMC2    C113898   3.728   3.474  14.203 -0.7266  0.5664  0.0820
    3TMC2    C213899   3.632   3.447  14.110  0.0020 -0.0012 -0.9958
    3TMC2    C313900   3.612   3.549  14.017  0.3718  0.1685 -0.3054
    3TMC2    C413901   3.788   3.597  14.208  0.0858  0.2636  0.1931
    3TMC2    C513902   3.753   3.699  14.126  0.4384 -0.1409 -0.4486
    3TMC2    C613903   3.655   3.680  14.027  1.0643  0.4457  0.3809
    3TMC2     C13904   3.785   3.369  14.286  0.4201 -0.0733  0.6670
    3TMC2     O13905   3.755   3.257  14.253  0.1478 -0.0174 -0.3524
    3TMC2     H13906   3.581   3.351  14.109  0.9000 -0.5173  1.4503
    3TMC2    H113907   3.870   3.617  14.276  0.5185 -1.5489  0.2234
    3TMC2    H213908   3.637   3.748  13.945  1.9074  0.3825  0.1394
    3TMC2    C713909   3.841   3.810  14.127 -0.6782 -0.0179  0.3266
    3TMC2    C813910   3.524   3.535  13.900  0.7268 -0.0339 -0.1540
    3TMC2    O113911   3.959   3.777  14.149 -0.2070  0.2344 -0.3198
    3TMC2    O213912   3.461   3.631  13.856 -0.4817  0.2126 -0.0974
    3TMC2    O513913   3.506   3.407  13.869 -0.0562  0.2047 -0.2617
    3TMC2    H513914   3.575   3.339  13.885 -2.0771 -1.7591  0.1344
    4TMC2    C113915   3.407   4.629  13.746 -0.1293 -0.4234 -1.0607
    4TMC2    C213916   3.462   4.661  13.624  0.0762 -0.4967  0.2324
    4TMC2    C313917   3.595   4.624  13.599  0.4635  0.7636  0.4842
    4TMC2    C413918   3.472   4.541  13.828  0.1627 -0.1169  0.4926
    4TMC2    C513919   3.598   4.504  13.801  0.3053  0.4215 -0.0352
    4TMC2    C613920   3.668   4.551  13.690  0.0392 -0.0546  0.2382
    4TMC2     C13921   3.267   4.659  13.769  0.3347  0.2494 -0.7922
    4TMC2     O13922   3.230   4.653  13.888 -1.0539 -0.0828 -0.4542
    4TMC2     H13923   3.412   4.718  13.547 -1.9499 -1.4741  0.8364
    4TMC2    H113924   3.415   4.488  13.904  0.0124 -1.4098 -0.5187
    4TMC2    H213925   3.759   4.501  13.657  0.6024  1.4088 -0.4636
    4TMC2    C713926   3.632   4.388  13.877  0.1473 -0.5166 -0.2863
    4TMC2    C813927   3.645   4.641  13.467  0.1607 -0.0600  0.3268
    4TMC2    O113928   3.554   4.301  13.892  0.1013  1.0874  0.7432
    4TMC2    O213929   3.576   4.669  13.370 -0.7238  0.0182  0.2158
    4TMC2    O513930   3.779   4.645  13.468  0.1119  0.6339 -0.4897
    4TMC2    H513931   3.811   4.624  13.558 -2.3889 -2.6289 -0.3884
    5MPD2     C13932   2.791   4.654  13.589  0.1644  1.0277 -0.8669
    5MPD2    C113933   2.873   4.606  13.491  0.3205 -0.2896 -0.1692
    5MPD2    C213934   3.006   4.596  13.522 -0.0868  0.4041  0.8933
    5MPD2    C313935   3.055   4.629  13.643  0.9031  0.6215  0.5618
    5MPD2    C413936   2.967   4.665  13.738 -0.3141 -0.1012  0.1326
    5MPD2    C513937   2.834   4.684  13.708 -0.1741  0.7187  0.3536
    5MPD2     H13938   3.072   4.558  13.446 -0.4558  2.0227 -0.2283
    5MPD2    H113939   3.005   4.684  13.838  1.1824  0.2519 -0.5175
    5MPD2    H213940   2.688   4.680  13.564 -0.0439 -0.5474 -1.6225
    5MPD2    H313941   2.768   4.723  13.784  1.3206  0.6794  1.6843
    5MPD2     N13942   3.195   4.633  13.658 -0.3895  0.2632  0.1430
    5MPD2    H513943   3.248   4.623  13.572 -0.5447 -0.7651  0.1567
    5MPD2    N113944   2.821   4.585  13.360 -0.1542  0.1573  0.2842
    5MPD2    H713945   2.721   4.600  13.349 -0.0222  1.7039  1.2070
    6MPD1     C13946   2.424   0.721  13.537 -0.3466 -0.1261  0.1586
    6MPD1    C113947   2.500   0.798  13.453  0.2740 -1.1486  0.5388
    6MPD1    C213948   2.509   0.763  13.322 -0.1628  0.3137 -0.3915
    6MPD1    C313949   2.444   0.657  13.270  0.6184  0.3657 -1.2508
    6MPD1    C413950   2.357   0.586  13.350  0.0826 -0.1820 -0.5690
    6MPD1    C513951   2.350   0.622  13.483 -0.3584  0.3702 -0.0929
    6MPD1     H13952   2.568   0.832  13.262  0.6176 -0.1752 -0.1758
    6MPD1    H113953   2.298   0.501  13.320 -0.6075  0.5443 -1.2660
    6MPD1    H213954   2.425   0.727  13.645  1.0540 -1.0784  0.1855
    6MPD1    H313955   2.294   0.554  13.547 -0.0221 -0.4935 -0.7125
    6MPD1     N13956   2.463   0.604  13.140  0.3998  0.2027  0.3546
    6MPD1    H513957   2.404   0.529  13.106  1.3789 -0.0267 -0.8240
    6MPD1    N113958   2.575   0.900  13.511  0.4225  0.2850  0.8781
    6MPD1    H613959   2.612   0.968  13.445 -0.2859 -0.4998 -0.3389
    6MPD1    H713960   2.507   0.947  13.571  1.1375  2.5909 -0.1285
    7MPD2     C13961   2.170   0.086  12.808  0.6946 -0.3073 -0.2605
    7MPD2    C113962   2.294   0.110  12.860 -0.1441  0.1059 -0.2511
    7MPD2    C213963   2.351   0.014  12.935  0.1906  0.2325 -0.3428
    7MPD2    C313964   2.298   4.620  12.951 -0.0927  0.1524 -0.8107
    7MPD2    C413965   2.177   4.596  12.890  0.5593  0.0780  0.4088
    7MPD2    C513966   2.112   4.695  12.823 -0.1426 -1.0246  0.2284
    7MPD2     H13967   2.455   0.021  12.967  0.4502  2.2716 -1.6310
    7MPD2    H113968   2.138   4.495  12.896  2.3956 -0.6227  0.5897
    7MPD2    H213969   2.116   0.164  12.756  3.6218  1.1559 -1.0948
    7MPD2    H313970   2.006   4.681  12.802 -0.6103  1.2411  1.0364
    7MPD2     N13971   2.367   4.518  13.013  0.3482  0.3507 -0.0307
    7MPD2    H513972   2.348   4.422  12.988 -0.2720  0.3547  0.4273
    7MPD2    N113973   2.370   0.232  12.844  0.2169 -0.0967  0.1050
    7MPD2    H713974   2.466   0.219  12.876  0.0372  1.9864  1.5161
    8TMC3    C113975   2.573   4.427  13.097 -0.4158 -0.4262  0.3650
    8TMC3    C213976   2.660   4.439  13.195 -0.7223  0.2746  0.1747
    8TMC3    C313977   2.789   4.462  13.165  0.6765 -0.2324 -0.1819
    8TMC3    C413978   2.612   4.408  12.967 -0.2129  0.2199  0.4661
    8TMC3    C513979   2.744   4.412  12.942  0.3441 -0.3096  0.6484
    8TMC3    C613980   2.841   4.431  13.037 -0.4469 -0.0357 -0.6651
    8TMC3     C13981   2.477   4.534  13.094 -0.7262 -0.3404 -0.4955
    8TMC3     O13982   2.490   4.631  13.167  0.5557 -0.2088  0.4717
    8TMC3     H13983   2.630   4.438  13.299  1.5993 -2.5402  0.7978
    8TMC3    H113984   2.538   4.391  12.889  0.3455 -1.4097  0.2867
    8TMC3    H213985   2.946   4.452  13.020  0.4618 -1.6518  3.0418
    8TMC3    C713986   2.775   4.490  12.816  0.1328  0.7997  0.5571
    8TMC3    C813987   2.884   4.521  13.261  0.7411 -0.0050  0.3355
    8TMC3    O113988   2.677   4.521  12.752  0.5445 -0.2124  0.2269
    8TMC3    O213989   3.003   4.510  13.245  0.5921 -0.0299 -0.4271
    9TMC3    C113990   2.550   0.590  12.918 -0.7876 -1.1186 -0.3516
    9TMC3    C213991   2.667   0.572  12.846  0.3060  0.0120  0.1849
    9TMC3    C313992   2.660   0.472  12.746  0.7840 -0.4945 -0.6766
    9TMC3    C413993   2.433   0.525  12.879  0.0865 -0.0948  0.3284
    9TMC3    C513994   2.435   0.442  12.779 -0.2973  0.4218 -0.0158
    9TMC3    C613995   2.545   0.407  12.715 -0.2046 -0.0245  0.3889
    9TMC3     C13996   2.560   0.648  13.053  0.1458 -0.0459  0.3288
    9TMC3     O13997   2.648   0.731  13.069  0.3832 -0.0118 -0.2669
    9TMC3     H13998   2.758   0.614  12.886  1.6882 -2.7181 -0.1272
    9TMC3    H113999   2.340   0.517  12.935 -0.7109  1.4216 -0.7722
    9TMC3    H214000   2.544   0.340  12.630 -0.3022 -0.7480  0.9705
    9TMC3    C714001   2.328   0.344  12.786 -0.5840 -0.3551  0.0029
    9TMC3    C814002   2.793   0.404  12.733  0.2574  0.0083  0.5829
    9TMC3    O114003   2.214   0.379  12.764 -0.1302 -0.1608  0.5890
    9TMC3    O214004   2.890   0.464  12.767  0.1991  0.5278 -0.4920
   10MPD2     C14005   3.064   4.709  12.754  0.0937 -0.3779  0.9685
   10MPD2    C114006   2.929   4.681  12.776  0.0666 -0.5502  0.2640
   10MPD2    C214007   2.828   0.040  12.760  0.0455 -0.8437 -0.1536
   10MPD2    C314008   2.863   0.167  12.725 -0.4271 -0.0547 -0.7960
   10MPD2    C414009   2.997   0.194  12.702 -0.7241 -0.4902 -0.2826
   10MPD2    C514010   3.095   0.101  12.722 -0.1355 -0.2965  0.5457
   10MPD2     H14011   2.726   0.013  12.787  0.2804 -1.5909 -0.0143
   10MPD2    H114012   3.034   0.284  12.655 -2.1782  0.0442 -0.4130
   10MPD2    H214013   3.139   4.633  12.737  2.2131  2.0057 -0.2825
   10MPD2    H314014   3.191   0.132  12.683 -0.5467 -0.0916 -0.2958
   10MPD2     N14015   2.768   0.268  12.726  0.5050 -1.2652  0.0543
   10MPD2    H514016   2.668   0.254  12.728 -0.3215  4.7140  0.1641
   10MPD2    N114017   2.901   4.552  12.825 -0.1713  0.4339 -0.6446
   10MPD2    H714018   2.976   4.493  12.859 -1.7712 -0.5501  1.2220
   11MPD2     C14019   3.962   4.082  14.125 -0.3513  0.0673  0.5642
   11MPD2    C114020   3.837   4.050  14.082  0.8865  0.1435  0.4651
   11MPD2    C214021   3.760   4.151  14.028  0.4169  0.2764  0.2731
   11MPD2    C314022   3.808   4.285  14.009 -0.4665  1.0642  1.1429
   11MPD2    C414023   3.929   4.313  14.069 -0.5796  0.2645  0.3612
   11MPD2    C514024   3.995   4.215  14.133 -0.4472 -0.6967  0.3898
   11MPD2     H14025   3.653   4.143  14.008  0.5843 -4.0043  1.0247
   11MPD2    H114026   3.971   4.412  14.076 -1.2170  0.4045  2.2130
   11MPD2    H214027   4.026   4.017  14.184  2.3252  2.1522 -0.0718
   11MPD2    H314028   4.079   4.241  14.196  1.2743 -2.0883 -1.2949
   11MPD2     N14029   3.752   4.392  13.933  0.4611 -0.2825  0.1846
   11MPD2    H514030   3.797   4.483  13.932 -0.1328 -0.0038 -0.6417
   11MPD2    N114031   3.778   3.926  14.091  0.3969 -0.3685  0.1690
   11MPD2    H714032   3.679   3.918  14.070  0.5119 -1.8597  0.2446
    1MPD1     C14033   1.265   1.525  16.566  0.0283 -0.1089 -0.7531
    1MPD1    C114034   1.342   1.613  16.642 -0.2039 -0.4162  0.1882
    1MPD1    C214035   1.464   1.659  16.599 -0.5407  0.4203  0.3233
    1MPD1    C314036   1.510   1.619  16.476  0.0331  0.8042  0.0649
    1MPD1    C414037   1.436   1.531  16.400 -0.4566  0.1904  0.6159
    1MPD1    C514038   1.309   1.487  16.446  0.5707  0.5658 -0.2080
    1MPD1     H14039   1.512   1.726  16.669  1.3488  0.2002 -0.7507
    1MPD1    H114040   1.472   1.499  16.304 -2.3687 -2.2918  0.7205
    1MPD1    H214041   1.172   1.481  16.598 -0.6011  1.6349 -0.1629
    1MPD1    H314042   1.244   1.420  16.391 -0.0766  0.4197  0.7502
    1MPD1     N14043   1.639   1.650  16.432 -0.5733  0.0454  0.7015
    1MPD1    H514044   1.680   1.605  16.352  0.7659  1.4378  0.5897
    1MPD1    N114045   1.302   1.623  16.780 -0.3710 -0.3027  0.0436
    1MPD1    H614046   1.335   1.710  16.822  0.1580 -0.6651  0.3725
    1MPD1    H714047   1.201   1.611  16.790 -0.6680  0.2890 -2.1731
    2MPD1     C14048   2.359   1.696  17.060 -0.1279 -0.2621  0.3240
    2MPD1    C114049   2.222   1.721  17.066 -0.5690 -0.1915 -0.3440
    2MPD1    C214050   2.157   1.711  16.941  0.1038  0.8926 -0.1470
    2MPD1    C314051   2.223   1.689  16.821  0.1438 -0.4827  0.0078
    2MPD1    C414052   2.358   1.672  16.822  0.1234 -0.3595 -0.6038
    2MPD1    C514053   2.420   1.661  16.945  0.0260 -0.2688 -0.0686
    2MPD1     H14054   2.050   1.720  16.926  0.1153  0.7037 -0.3503
    2MPD1    H114055   2.400   1.663  16.723  1.5572 -0.8630  0.0467
    2MPD1    H214056   2.410   1.704  17.155  1.1192 -2.1194 -0.2002
    2MPD1    H314057   2.528   1.646  16.940  0.1861  0.5786  0.7957
    2MPD1     N14058   2.143   1.689  16.701 -0.7695 -0.6448 -0.3148
    2MPD1    H514059   2.044   1.703  16.719 -0.5034  0.5224  0.2576
    2MPD1    N114060   2.161   1.777  17.180  0.6782  0.7738 -0.6031
    2MPD1    H614061   2.060   1.789  17.171  0.3868  0.0627  1.9507
    2MPD1    H714062   2.183   1.727  17.266 -0.9190 -0.2951 -0.8219
    3TMC3    C114063   2.083   1.705  16.476  0.3740 -0.0660 -0.2351
    3TMC3    C214064   2.105   1.676  16.346  0.0819  0.0474  0.1104
    3TMC3    C314065   2.000   1.676  16.259 -0.5018  0.7510  0.3013
    3TMC3    C414066   1.954   1.720  16.528  0.4248  0.2417 -0.1209
    3TMC3    C514067   1.857   1.728  16.434 -0.1832  0.1684  0.4932
    3TMC3    C614068   1.874   1.704  16.302 -0.4630 -0.1022  0.4928
    3TMC3     C14069   2.191   1.694  16.569 -0.5261  0.1682 -0.0082
    3TMC3     O14070   2.302   1.696  16.521  0.5429  0.5033 -0.3278
    3TMC3     H14071   2.204   1.641  16.319  0.1671 -0.6667  1.3222
    3TMC3    H114072   1.924   1.735  16.631 -0.4370 -1.5692 -0.1091
    3TMC3    H214073   1.787   1.711  16.238 -1.2803  0.0785  1.6171
    3TMC3    C714074   1.726   1.736  16.487  0.4325 -1.1799 -0.2314
    3TMC3    C814075   2.018   1.623  16.126 -0.1257 -0.1597  0.4065
    3TMC3    O114076   1.714   1.809  16.584 -0.0769  0.1369  0.2384
    3TMC3    O214077   1.920   1.599  16.064 -0.7665 -0.2280  0.3185
    4MPD1     C14078   2.256   1.391  15.738 -0.4272  0.0378 -0.2735
    4MPD1    C114079   2.347   1.465  15.803 -0.1000  0.1623  0.7280
    4MPD1    C214080   2.312   1.523  15.927  0.3777 -0.2084 -0.4953
    4MPD1    C314081   2.179   1.535  15.966 -0.1825 -0.4206  0.5539
    4MPD1    C414082   2.087   1.472  15.880  0.5072 -0.2822 -0.5730
    4MPD1    C514083   2.123   1.404  15.771  0.3007 -0.0388  0.8936
    4MPD1     H14084   2.388   1.580  15.980  1.1842 -1.1391 -0.6557
    4MPD1    H114085   1.984   1.473  15.914  0.7853 -1.1973  0.2998
    4MPD1    H214086   2.289   1.334  15.652 -0.3395 -0.8763  0.3686
    4MPD1    H314087   2.052   1.353  15.708  0.4809  0.2287  0.4768
    4MPD1     N14088   2.148   1.600  16.087 -0.3903 -0.2905 -0.7172
    4MPD1    H514089   2.222   1.659  16.125 -1.3558 -1.3703  2.8315
    4MPD1    N114090   2.476   1.455  15.756  0.4908  0.3867 -0.7205
    4MPD1    H614091   2.489   1.451  15.655  0.1876  1.2561 -0.7932
    4MPD1    H714092   2.535   1.526  15.798  2.2870 -1.8001  0.4935
    1TCq1    O114093   3.363   0.925  10.914 -0.4337 -0.5181  0.3800
    1TCq1    C114094   3.413   0.889  11.034  0.3433  0.0623 -0.0983
    1TCq1    O214095   3.528   0.880  11.072  0.0592  0.5040  0.5680
    1TCq1    C214096   3.297   0.858  11.118  0.3808  0.5991 -0.3403
    1TCq1    C314097   3.168   0.829  11.071  0.6887  0.7854  0.3339
    1TCq1    C414098   3.071   0.801  11.166  0.1545  0.1141 -0.5479
    1TCq1    C514099   3.098   0.789  11.299 -0.2435  0.5907  0.2332
    1TCq1    C614100   3.228   0.800  11.340  0.2736  0.6676 -0.3440
    1TCq1    C714101   3.329   0.836  11.251 -0.2947  1.6243  0.0847
    1TCq1    C814102   3.252   0.824  11.486 -0.4036 -0.6721  0.1473
    1TCq1    O414103   3.365   0.816  11.531  0.1222 -0.2845 -0.5411
    1TCq1    C914104   2.964   0.709  11.121  0.5461 -0.1225  0.3628
    1TCq1    O514105   2.959   0.682  10.995 -0.7567  0.2507 -0.0431
    1TCq1    O614106   2.903   0.640  11.204 -0.6628 -0.4258  0.0928
    1TCq1    H114107   3.265   0.927  10.913 -0.4454 -0.2497  1.5643
    1TCq1    H214108   3.151   0.808  10.966 -2.2954  0.2558  0.8942
    1TCq1    H314109   3.027   0.761  11.376 -0.8960 -0.4917 -0.7540
    1TCq1    H414110   3.426   0.863  11.291  0.4431 -1.6454  0.4635
    2MPD1     C14111   3.041   1.000  11.924  0.1971 -0.1582 -0.3539
    2MPD1    C114112   2.964   1.043  11.821 -0.0703 -0.1458 -0.2062
    2MPD1    C214113   2.996   1.000  11.692 -0.2815  1.0991  0.2377
    2MPD1    C314114   3.110   0.925  11.669  0.6685  0.0105  0.2614
    2MPD1    C414115   3.188   0.886  11.774 -0.0254 -0.1788  0.0092
    2MPD1    C514116   3.158   0.930  11.903  1.3415 -0.6755 -0.3415
    2MPD1     H14117   2.933   1.012  11.604  0.6705 -1.6723 -0.7990
    2MPD1    H114118   3.276   0.824  11.760  1.1516  1.4351  0.3107
    2MPD1    H214119   3.011   1.021  12.026  1.7357 -2.3449  0.5585
    2MPD1    H314120   3.228   0.918  11.985 -0.1529  0.6978  1.1363
    2MPD1     N14121   3.143   0.890  11.535  0.0969  0.3482 -0.2212
    2MPD1    H514122   3.082   0.930  11.465  0.9674 -0.1020 -1.2461
    2MPD1    N114123   2.846   1.111  11.848 -0.2618  0.1042  0.2305
    2MPD1    H614124   2.826   1.169  11.767  1.1492  0.0089 -0.1746
    2MPD1    H714125   2.845   1.163  11.936 -2.1925 -0.5019  0.5809
    1TMC1    C114126   0.313   2.204  16.890 -0.3256 -0.0963 -0.7213
    1TMC1    C214127   0.327   2.085  16.954  0.3742  0.8829  0.5096
    1TMC1    C314128   0.252   2.049  17.062 -0.7866 -0.1176  0.6701
    1TMC1    C414129   0.218   2.287  16.941 -0.4446  0.0531  0.5279
    1TMC1    C514130   0.150   2.254  17.059  0.1269  0.5682 -0.2356
    1TMC1    C614131   0.159   2.134  17.117 -0.1386 -0.5452 -0.2712
    1TMC1     C14132   0.418   2.245  16.803 -0.4134 -0.4499  0.8314
    1TMC1     O14133   0.483   2.158  16.744  0.5438  0.0821  0.3299
    1TMC1     H14134   0.401   2.023  16.905  1.0383  1.4862  0.7619
    1TMC1    H114135   0.206   2.386  16.900 -0.5014 -0.7396 -1.3489
    1TMC1    H214136   0.093   2.112  17.201 -0.0941 -2.3304 -0.6932
    1TMC1    C714137   0.041   2.349  17.096  0.3961  0.0074  0.2519
    1TMC1    C814138   0.308   1.961  17.162 -0.4687  0.1154 -0.1316
    1TMC1    O114139   0.053   2.473  17.079  0.2505  0.7962  0.5046
    1TMC1    O214140   0.299   1.999  17.277  0.7909  0.7108 -0.2741
    1TMC1    O314141   4.665   2.278  17.106  0.2203  0.1901 -0.0271
    1TMC1    H314142   4.682   2.182  17.097 -2.7800  0.0672 -4.2620
    1TMC1    O514143   0.393   1.868  17.104  0.1925 -0.3773 -0.3322
    1TMC1    H514144   0.358   1.845  17.015 -0.4804 -1.7545  0.2780
    2MPD1     C14145   0.770   2.560  16.627  0.6933  0.1504 -0.4217
    2MPD1    C114146   0.706   2.630  16.725 -0.1927  0.1945 -0.2925
    2MPD1    C214147   0.594   2.568  16.783  0.0201 -0.3334 -0.1593
    2MPD1    C314148   0.542   2.446  16.738  0.2585 -0.6466 -0.3611
    2MPD1    C414149   0.610   2.392  16.636  0.1158  0.0400 -0.1768
    2MPD1    C514150   0.728   2.439  16.587  0.2216 -0.5801  0.5488
    2MPD1     H14151   0.560   2.608  16.877 -1.4789 -0.8685 -0.4783
    2MPD1    H114152   0.586   2.305  16.576 -0.2270  0.9191 -1.3090
    2MPD1    H214153   0.858   2.595  16.574  0.7741 -0.2246 -0.5335
    2MPD1    H314154   0.774   2.393  16.500  0.1062 -0.5817  0.4887
    2MPD1     N14155   0.440   2.375  16.811  0.8082 -0.2963 -0.0452
    2MPD1    H514156   0.387   2.432  16.876 -0.6144 -0.0876 -1.3942
    2MPD1    N114157   0.770   2.737  16.793  0.9724  0.4403  0.2621
    2MPD1    H614158   0.722   2.801  16.855 -0.3980 -2.6481  2.3929
    2MPD1    H714159   0.840   2.787  16.738  0.9608 -0.0539 -0.2063
    1MPD1     C14160   4.173   1.652  10.630 -0.2840  0.0482  0.0182
    1MPD1    C114161   4.279   1.576  10.683 -0.5368  0.5023 -0.1391
    1MPD1    C214162   4.410   1.605  10.644  0.4144 -0.4256 -0.9427
    1MPD1    C314163   4.433   1.719  10.559  0.1067 -0.0250 -0.1398
    1MPD1    C414164   4.330   1.794  10.510  0.3181 -0.1842  0.2090
    1MPD1    C514165   4.204   1.757  10.547 -0.2094  0.5744  1.0860
    1MPD1     H14166   4.494   1.540  10.665 -0.3290 -1.0314  0.1693
    1MPD1    H114167   4.332   1.883  10.448  0.2994 -1.2843 -1.3912
    1MPD1    H214168   4.069   1.625  10.645  0.1154 -2.0642 -1.0226
    1MPD1    H314169   4.126   1.821  10.508 -0.8871 -0.3959  0.8445
    1MPD1     N14170   4.569   1.760  10.542  0.2943 -0.2303  0.4491
    1MPD1    H514171   4.640   1.693  10.568  0.5554 -0.6843 -1.4354
    1MPD1    N114172   4.243   1.460  10.751  0.1290  0.2810 -0.4918
    1MPD1    H614173   4.148   1.456  10.786  0.7242 -1.2905  0.9135
    1MPD1    H714174   4.301   1.432  10.829  1.8173  0.3023 -1.7359
    2MPD1     C14175   3.896   1.099  11.993 -0.3411 -0.8638  0.3070
    2MPD1    C114176   4.000   1.021  11.951  0.5116  0.1437  0.6304
    2MPD1    C214177   4.051   1.046  11.825  0.1801  0.7935  0.8121
    2MPD1    C314178   4.008   1.151  11.749 -0.0339 -0.9363  0.4595
    2MPD1    C414179   3.911   1.239  11.799 -0.1653 -0.1339  0.2450
    2MPD1    C514180   3.849   1.204  11.919 -0.1995 -0.7998  0.7574
    2MPD1     H14181   4.131   0.982  11.789 -0.6351  0.4179 -0.3046
    2MPD1    H114182   3.873   1.317  11.734 -0.9190 -1.1507 -0.5211
    2MPD1    H214183   3.850   1.066  12.086 -0.0490 -2.4058 -0.0968
    2MPD1    H314184   3.761   1.258  11.951 -0.3394 -1.0316  0.7582
    2MPD1     N14185   4.054   1.188  11.619 -0.4234 -0.9068  0.1810
    2MPD1    H514186   4.018   1.273  11.576 -1.2952 -0.1343  2.4200
    2MPD1    N114187   4.032   0.898  12.014  0.0221  0.5582  0.1303
    2MPD1    H614188   4.132   0.879  12.006 -0.2702 -1.0906  0.2695
    2MPD1    H714189   4.007   0.904  12.113  0.5316 -0.3669  0.3132
    3MPD1     C14190   4.204   1.972  11.059  0.1474  0.2074 -0.1527
    3MPD1    C114191   4.236   1.879  10.958  0.0665 -0.9137 -0.2867
    3MPD1    C214192   4.239   1.746  11.002  0.3060 -0.0239 -0.5010
    3MPD1    C314193   4.204   1.703  11.127 -0.9216 -0.4843 -0.1799
    3MPD1    C414194   4.168   1.800  11.220 -0.2183  0.1348  0.6655
    3MPD1    C514195   4.189   1.932  11.187 -0.8397  0.2349 -0.5722
    3MPD1     H14196   4.261   1.675  10.923  0.0822 -0.8555  0.1811
    3MPD1    H114197   4.131   1.768  11.317 -0.9150  2.5127  1.1785
    3MPD1    H214198   4.208   2.077  11.037  0.7938  0.0957 -0.5727
    3MPD1    H314199   4.156   2.006  11.258  2.6819 -0.7525  2.0903
    3MPD1     N14200   4.197   1.564  11.154  0.1507 -0.4387  0.1437
    3MPD1    H514201   4.217   1.497  11.081  1.4712  0.0303  0.0737
    3MPD1    N114202   4.283   1.914  10.827 -0.5769 -0.1477  0.1154
    3MPD1    H614203   4.257   2.008  10.799  0.0747 -1.0851 -3.5657
    3MPD1    H714204   4.270   1.840  10.758  0.0515 -0.3647  0.2287
    4MPD2     C14205   0.382   1.477  10.284 -0.0773  0.3417  0.7387
    4MPD2    C114206   0.404   1.548  10.399 -0.1576 -0.0928  1.0426
    4MPD2    C214207   0.456   1.480  10.502  0.1086 -0.7434 -0.3660
    4MPD2    C314208   0.485   1.347  10.503 -0.2785  0.4321 -0.5580
    4MPD2    C414209   0.478   1.284  10.383  0.3949 -0.0821 -0.5944
    4MPD2    C514210   0.418   1.347  10.275 -0.6597 -0.0149 -0.2346
    4MPD2     H14211   0.482   1.544  10.586 -1.4351  0.6489 -0.9562
    4MPD2    H114212   0.506   1.179  10.373  0.2300 -0.4463  2.7354
    4MPD2    H214213   0.327   1.509  10.196  0.5578 -1.0205 -0.1505
    4MPD2    H314214   0.403   1.292  10.183  1.2305 -1.4899  0.3354
    4MPD2     N14215   0.494   1.267  10.618 -0.3443  0.1319  0.3264
    4MPD2    H514216   0.494   1.166  10.606  1.5473 -0.1036  2.2803
    4MPD2    N114217   0.364   1.684  10.420  0.1804 -0.2909 -0.0673
    4MPD2    H714218   0.374   1.704  10.519 -0.6461 -3.3515  0.6526
    5TMC3    C114219   0.231   1.872  10.401 -0.5228 -0.1927  0.4406
    5TMC3    C214220   0.098   1.856  10.385  0.2653 -0.2242 -0.5415
    5TMC3    C314221   0.017   1.892  10.492  0.5331  0.4331 -0.0328
    5TMC3    C414222   0.278   1.885  10.528  0.0906 -1.2241  0.3391
    5TMC3    C514223   0.186   1.880  10.627  0.6059 -0.1563  0.6458
    5TMC3    C614224   0.057   1.887  10.624  0.2163 -0.7212 -0.3066
    5TMC3     C14225   0.294   1.761  10.329 -0.0360 -0.3641 -0.3887
    5TMC3     O14226   0.279   1.740  10.212  0.0080  0.3346 -0.0721
    5TMC3     H14227   0.045   1.874  10.293 -0.8301 -1.1883 -0.1006
    5TMC3    H114228   0.384   1.893  10.547 -0.0741  1.9480 -0.0713
    5TMC3    H214229   4.719   1.881  10.702  0.1514  0.4040 -0.2943
    5TMC3    C714230   0.248   1.801  10.736 -0.3307 -1.4541  0.1497
    5TMC3    C814231   4.613   1.865  10.468 -0.8375 -0.4768 -0.4671
    5TMC3    O114232   0.333   1.725  10.689 -0.6073 -0.0216 -0.6390
    5TMC3    O214233   4.554   1.941  10.388  0.2128  0.6300 -0.4228
    6TMC3    C114234   4.168   1.177  11.412 -0.4783 -0.0312 -0.4623
    6TMC3    C214235   4.126   1.303  11.394  0.5059  0.1112  0.0623
    6TMC3    C314236   4.181   1.361  11.282  1.0623 -0.1928  0.0418
    6TMC3    C414237   4.256   1.109  11.329 -0.3473  0.1528  0.0809
    6TMC3    C514238   4.306   1.177  11.217  0.0058  0.5495  0.1005
    6TMC3    C614239   4.267   1.302  11.198  0.4563 -0.0043  0.0982
    6TMC3     C14240   4.146   1.117  11.544  0.9398  0.2719 -0.1767
    6TMC3     O14241   4.186   1.006  11.560  0.6039  0.0433  0.3785
    6TMC3     H14242   4.050   1.351  11.455 -1.2378 -2.7748  0.1583
    6TMC3    H114243   4.294   1.014  11.364 -0.6849 -0.0904 -0.2054
    6TMC3    H214244   4.309   1.355  11.114  0.8872 -0.2260  0.1742
    6TMC3    C714245   4.434   1.144  11.162  0.0202  1.1131  0.5083
    6TMC3    C814246   4.160   1.508  11.277 -0.3947  0.0349 -0.9168
    6TMC3    O114247   4.501   1.229  11.107  0.1876  0.3525 -0.7976
    6TMC3    O214248   4.113   1.559  11.380  0.2424  0.0502  0.0374
    7MPD2     C14249   0.263   1.589  11.191  0.3168 -0.1731  0.4991
    7MPD2    C114250   0.346   1.567  11.081  0.7898 -0.7938 -0.1493
    7MPD2    C214251   0.323   1.649  10.973 -0.4384 -0.1785  0.1311
    7MPD2    C314252   0.240   1.760  10.971  0.2700 -0.1143  0.3382
    7MPD2    C414253   0.184   1.784  11.090  0.4951  0.0073 -0.4092
    7MPD2    C514254   0.185   1.700  11.195 -0.0757  0.7289  0.4666
    7MPD2     H14255   0.378   1.614  10.887  0.0918  1.4997 -0.2143
    7MPD2    H114256   0.107   1.860  11.092  1.2023  0.6678  1.0970
    7MPD2    H214257   0.270   1.529  11.281 -1.7641  0.3567  1.0133
    7MPD2    H314258   0.130   1.717  11.287  0.4654 -1.4164  1.1783
    7MPD2     N14259   0.204   1.835  10.858  0.3952 -0.0044  0.1192
    7MPD2    H514260   0.149   1.919  10.872  2.1061  0.9671  1.0525
    7MPD2    N114261   0.442   1.463  11.069 -0.2119  0.0050  0.4476
    7MPD2    H714262   0.488   1.468  10.979  1.1499  0.6734  1.1849
    8TMC3    C114263   0.529   1.246  11.086 -0.3949  0.0097  0.5314
    8TMC3    C214264   0.455   1.131  11.090 -0.2847  0.6181  0.2419
    8TMC3    C314265   0.377   1.109  10.978 -0.2756 -0.3390  0.1870
    8TMC3    C414266   0.571   1.288  10.968 -0.2000  0.0102  0.0199
    8TMC3    C514267   0.522   1.234  10.854  0.5506  0.1539 -0.4571
    8TMC3    C614268   0.411   1.156  10.857 -0.1286 -0.1234 -0.5618
    8TMC3     C14269   0.455   1.355  11.156 -0.2059 -0.5563 -0.5773
    8TMC3     O14270   0.410   1.325  11.266 -0.4244 -0.1633 -0.0969
    8TMC3     H14271   0.418   1.099  11.187  0.6864  2.1357  1.1206
    8TMC3    H114272   0.648   1.364  10.959  0.3230 -0.5966 -0.6916
    8TMC3    H214273   0.348   1.125  10.774  0.1120 -0.6678 -0.5445
    8TMC3    C714274   0.527   1.323  10.741 -0.7654 -0.2303  0.6500
    8TMC3    C814275   0.237   1.094  11.007  0.1036  0.1036  0.1017
    8TMC3    O114276   0.559   1.435  10.762  0.4397  0.1899 -0.2326
    8TMC3    O214277   0.153   1.147  10.932 -0.5571 -0.0176  0.2392
    9MPD2     C14278   0.097   0.836  11.230  0.1975 -0.0110 -0.1712
    9MPD2    C114279   0.096   0.957  11.154 -0.0921 -0.4003  0.3350
    9MPD2    C214280   4.720   1.030  11.142  0.7902 -0.2730 -0.4041
    9MPD2    C314281   4.600   0.967  11.196 -0.0607 -0.2652 -1.0828
    9MPD2    C414282   4.602   0.835  11.242  0.3452  0.5032  0.2193
    9MPD2    C514283   4.716   0.784  11.278  0.3562  0.3336 -0.0553
    9MPD2     H14284   4.717   1.128  11.095  0.5272 -0.0714  0.0373
    9MPD2    H114285   4.516   0.780  11.281  0.8058 -0.3054  0.0968
    9MPD2    H214286   0.192   0.787  11.250  0.9036  1.6308  0.5071
    9MPD2    H314287   4.718   0.685  11.322  0.1039  0.8677  1.1563
    9MPD2     N14288   4.472   1.023  11.198 -0.0851 -0.8328  0.0356
    9MPD2    H514289   4.400   0.959  11.230 -0.3502  0.2223  1.5593
    9MPD2    N114290   0.220   0.998  11.100 -0.3945  0.0066 -0.1538
    9MPD2    H714291   0.295   0.937  11.130 -0.5051  0.2176  0.5335
    1MPD1     C14292   3.875   0.779  16.335  0.6037  0.7769  0.4051
    1MPD1    C114293   3.789   0.812  16.438  0.1166  0.2977  0.1385
    1MPD1    C214294   3.798   0.742  16.555  0.4466 -0.2552  0.3270
    1MPD1    C314295   3.885   0.633  16.567 -0.3033  0.4872  0.3134
    1MPD1    C414296   3.964   0.602  16.458  0.1323  0.0439 -0.2300
    1MPD1    C514297   3.960   0.667  16.345  0.5515 -0.1685 -0.1458
    1MPD1     H14298   3.720   0.758  16.629 -1.4920 -1.4033 -1.4803
    1MPD1    H114299   4.028   0.515  16.454  2.0430  1.5934 -2.8842
    1MPD1    H214300   3.878   0.822  16.236  0.8509 -0.0590  0.0569
    1MPD1    H314301   4.020   0.642  16.259 -0.8006 -2.9347 -0.2809
    1MPD1     N14302   3.892   0.548  16.676 -0.5662  0.0240 -0.0040
    1MPD1    H514303   3.961   0.472  16.678  1.1928  1.6786  2.1043
    1MPD1    N114304   3.695   0.917  16.419  0.5366 -0.5714 -0.1452
    1MPD1    H614305   3.606   0.892  16.462  0.1628  0.2581 -0.4331
    1MPD1    H714306   3.673   0.939  16.322  1.4321 -0.9639 -0.4383
    2TMC2    C114307   3.783   0.304  17.050 -0.1219  0.3840  0.0591
    2TMC2    C214308   3.916   0.281  17.078  0.7438  0.1492 -0.9905
    2TMC2    C314309   4.004   0.351  17.005  0.0274  0.0212 -0.4947
    2TMC2    C414310   3.741   0.387  16.948 -0.0077 -0.0600  0.0745
    2TMC2    C514311   3.842   0.444  16.875  0.3516 -0.0527 -0.6826
    2TMC2    C614312   3.972   0.434  16.898  0.8274 -0.0416 -0.4187
    2TMC2     C14313   3.693   0.208  17.105 -0.7200  0.1982  0.5880
    2TMC2     O14314   3.745   0.113  17.165  0.5471  0.5958  0.3958
    2TMC2     H14315   3.944   0.219  17.162  1.1614 -2.8350 -3.3048
    2TMC2    H114316   3.639   0.396  16.914  0.0182 -0.8819 -0.2245
    2TMC2    H214317   4.049   0.493  16.852  0.7840 -0.4518 -1.0159
    2TMC2    C714318   3.806   0.543  16.777 -0.2015 -0.1540 -0.0258
    2TMC2    C814319   4.144   0.359  17.049 -0.0996  0.4458 -0.5227
    2TMC2    O114320   3.699   0.602  16.792 -0.4629 -0.0648  0.4095
    2TMC2    O214321   4.194   0.468  17.075  0.4382 -0.2207  0.3569
    2TMC2    O514322   4.203   0.250  17.004 -0.9522 -0.0062  0.1200
    2TMC2    H514323   4.141   0.183  16.966 -2.3204  1.1504  0.3329
    3MPD1     C14324   3.214   0.025  17.165 -0.0038  0.6371 -0.5842
    3MPD1    C114325   3.209   0.161  17.131  0.1712 -0.1142  0.2988
    3MPD1    C214326   3.322   0.232  17.115  0.4311 -0.3555  0.2955
    3MPD1    C314327   3.444   0.174  17.136 -0.2221  0.4502  0.2662
    3MPD1    C414328   3.455   0.045  17.182  0.1566  0.3899  0.3496
    3MPD1    C514329   3.340   4.709  17.187 -0.3801  0.1920  0.6731
    3MPD1     H14330   3.321   0.336  17.083  1.9591 -0.7219 -0.9768
    3MPD1    H114331   3.550   4.732  17.197  0.1444  0.2324 -0.0795
    3MPD1    H214332   3.125   4.703  17.182  0.7454 -0.5427 -0.7431
    3MPD1    H314333   3.346   4.610  17.231 -1.0208 -1.4627 -2.9106
    3MPD1     N14334   3.565   0.248  17.110 -0.5697 -0.2758  0.2822
    3MPD1    H514335   3.552   0.348  17.097  0.5018  0.0752  1.9520
    3MPD1    N114336   3.091   0.214  17.091 -0.1656  1.0646  0.2371
    3MPD1    H614337   3.019   0.177  17.154 -1.1562  0.8747 -1.0031
    3MPD1    H714338   3.095   0.313  17.111 -0.2634  1.0324  0.4155
    1TMC1    C114339   2.334   3.856  13.579  0.3939  1.0727  0.3090
    1TMC1    C214340   2.344   3.931  13.458  0.2277 -0.3659  0.0359
    1TMC1    C314341   2.309   4.062  13.464 -1.0817 -0.3734  0.7844
    1TMC1    C414342   2.288   3.912  13.694 -0.2528  0.1489  0.4726
    1TMC1    C514343   2.245   4.042  13.689  0.0312 -0.1685  0.7549
    1TMC1    C614344   2.253   4.121  13.574 -0.2816 -0.1959  0.0638
    1TMC1     C14345   2.365   3.717  13.556  0.3659  0.2282 -0.7536
    1TMC1     O14346   2.435   3.687  13.461  0.2268 -0.2811  0.0274
    1TMC1     H14347   2.396   3.887  13.373  0.9349 -0.6456  0.6140
    1TMC1    H114348   2.307   3.874  13.794  3.1297  0.7800  0.0860
    1TMC1    H214349   2.232   4.228  13.578  1.4542  0.0953  1.3020
    1TMC1    C714350   2.190   4.098  13.808  0.2770  0.0918  0.0874
    1TMC1    C814351   2.345   4.155  13.358 -0.0043  0.2516 -0.2043
    1TMC1    O114352   2.203   4.218  13.843 -0.2075  0.2319 -0.7694
    1TMC1    O214353   2.457   4.149  13.303  0.2868 -0.2143  0.4810
    1TMC1    O314354   2.118   4.010  13.882 -0.2125 -0.1754 -0.5286
    1TMC1    H314355   2.115   3.913  13.870  4.3762 -0.1224 -1.8655
    1TMC1    O514356   2.238   4.221  13.320 -0.1551  0.4318 -0.1965
    1TMC1    H514357   2.168   4.199  13.385  1.5193 -0.4593  1.2986
    2MPD2     C14358   2.352   3.412  13.554  0.6620  0.2790  0.1180
    2MPD2    C114359   2.279   3.499  13.639  0.5146 -0.4102  0.8141
    2MPD2    C214360   2.198   3.430  13.726 -0.0575 -0.8644 -0.2123
    2MPD2    C314361   2.176   3.298  13.713 -0.2571  0.3480 -0.0954
    2MPD2    C414362   2.226   3.228  13.610 -0.3130  0.4078  0.1127
    2MPD2    C514363   2.317   3.281  13.529  0.6660  0.4327 -0.0788
    2MPD2     H14364   2.146   3.479  13.807  1.1007 -1.4829  0.8932
    2MPD2    H114365   2.200   3.127  13.579  1.3194  0.5473 -1.7617
    2MPD2    H214366   2.419   3.454  13.480  1.5007 -0.7628  0.2839
    2MPD2    H314367   2.364   3.219  13.453  1.2601  2.2395 -1.1847
    2MPD2     N14368   2.084   3.242  13.804  0.1594  0.2250  0.2798
    2MPD2    H514369   2.050   3.302  13.878 -0.0123 -1.7221  1.7886
    2MPD2    N114370   2.300   3.636  13.650 -0.0202  0.4952  0.6458
    2MPD2    H714371   2.228   3.689  13.699 -0.4129 -0.1924  0.8055
    3TCq1    O114372   1.715   2.708  13.993  0.4133  0.1736 -0.0358
    3TCq1    C114373   1.685   2.821  13.920  0.7485  0.5874  0.7561
    3TCq1    O214374   1.635   2.815  13.809  0.5775  0.5328  0.1135
    3TCq1    C214375   1.772   2.922  13.964 -0.3321 -0.3327  0.8855
    3TCq1    C314376   1.794   2.949  14.097 -0.2503 -0.8986 -0.1566
    3TCq1    C414377   1.879   3.058  14.124 -0.3981 -0.2989 -0.3581
    3TCq1    C514378   1.955   3.121  14.031 -0.0684 -0.7292 -0.0714
    3TCq1    C614379   1.939   3.077  13.902 -0.1565  0.0276 -0.6522
    3TCq1    C714380   1.852   2.981  13.866  0.3226 -0.3942  0.3969
    3TCq1    C814381   2.042   3.107  13.809  0.2724 -0.2033 -0.6018
    3TCq1    O414382   2.051   3.022  13.722 -0.2318 -1.1797  0.2011
    3TCq1    C914383   1.899   3.092  14.264  0.5454  0.0464 -0.8772
    3TCq1    O514384   1.818   3.041  14.349 -0.2253  0.3468 -0.1243
    3TCq1    O614385   1.989   3.172  14.287 -0.6379 -0.3376 -0.1533
    3TCq1    H114386   1.773   2.728  14.070 -0.6902  2.7552  0.1319
    3TCq1    H214387   1.731   2.911  14.177 -0.3491  0.0693  0.2198
    3TCq1    H314388   2.024   3.200  14.061  0.5025 -0.9892 -0.6809
    3TCq1    H414389   1.837   2.956  13.762  2.8723  0.8351 -0.2474
    1MPD2     C14390   1.657   0.306  15.063 -0.0006  0.0757  0.2101
    1MPD2    C114391   1.586   0.207  15.001  0.4419 -0.8220  0.5661
    1MPD2    C214392   1.622   0.077  15.020  0.3187 -0.3057 -0.0821
    1MPD2    C314393   1.735   0.041  15.101  0.2948  0.1179 -0.0813
    1MPD2    C414394   1.804   0.148  15.164  0.3376 -0.4899 -0.0594
    1MPD2    C514395   1.765   0.276  15.140 -0.2546  0.7413  0.1942
    1MPD2     H14396   1.567   4.732  14.976  0.9895 -0.9673  0.2992
    1MPD2    H114397   1.884   0.133  15.236 -0.3427 -2.2720  0.3192
    1MPD2    H214398   1.621   0.409  15.061 -0.0952  0.0270 -0.7120
    1MPD2    H314399   1.803   0.362  15.193 -1.1624  0.7524  0.8163
    1MPD2     N14400   1.756   4.641  15.134 -0.3905  0.1638  1.0588
    1MPD2    H514401   1.838   4.627  15.193  0.8400  0.5824 -0.5265
    1MPD2    N114402   1.481   0.246  14.918 -0.0783  0.0392  0.0059
    1MPD2    H714403   1.454   0.343  14.931 -1.5487 -0.1251 -1.8179
    2TMC3    C114404   1.304   0.217  14.756 -0.5569  0.2358 -0.0678
    2TMC3    C214405   1.245   0.123  14.681  0.3710 -0.3557 -0.4317
    2TMC3    C314406   1.114   0.111  14.692 -0.0773  0.0379  0.6708
    2TMC3    C414407   1.226   0.310  14.824 -0.0781  0.0440  0.0302
    2TMC3    C514408   1.090   0.312  14.816 -0.1962  0.0302 -0.3106
    2TMC3    C614409   1.032   0.208  14.742 -0.5914  0.3413  0.0137
    2TMC3     C14410   1.427   0.166  14.820  0.0765 -0.6790  0.0958
    2TMC3     O14411   1.453   0.050  14.795  0.0928 -0.6096 -0.2088
    2TMC3     H14412   1.301   0.065  14.610  1.5837 -0.9384  1.0010
    2TMC3    H114413   1.274   0.382  14.890  0.3284  0.1758 -0.4092
    2TMC3    H214414   0.925   0.192  14.736 -0.8774  1.3328  2.6215
    2TMC3    C714415   1.009   0.368  14.927  0.0442  0.3434 -0.0323
    2TMC3    C814416   1.068   4.717  14.733  0.5305 -0.2128  0.2648
    2TMC3    O114417   0.893   0.330  14.946 -0.3771  0.8201 -0.0797
    2TMC3    O214418   0.950   4.692  14.736 -0.6255 -0.5044  0.1494
    3TCq1    O114419   1.426   1.141  15.818  0.7921  0.8744  0.3263
    3TCq1    C114420   1.339   1.187  15.729  0.0969 -0.1821 -0.3250
    3TCq1    O214421   1.244   1.257  15.761 -0.1627  0.3247  0.0657
    3TCq1    C214422   1.339   1.097  15.613 -0.2287  0.1601  0.7632
    3TCq1    C314423   1.464   1.050  15.562 -0.1349 -0.0756  0.5775
    3TCq1    C414424   1.457   0.932  15.494  1.0766 -0.2630 -0.3017
    3TCq1    C514425   1.342   0.866  15.467 -0.2221 -0.8252  0.2642
    3TCq1    C614426   1.224   0.915  15.511  0.1484  0.3375  0.2070
    3TCq1    C714427   1.224   1.032  15.586 -0.5765  0.1357  0.2138
    3TCq1    C814428   1.102   0.877  15.444 -0.3898 -0.1670 -0.2716
    3TCq1    O414429   1.001   0.924  15.494 -0.1515  0.3660 -0.1272
    3TCq1    C914430   1.574   0.898  15.420  0.5928  0.1603  0.1740
    3TCq1    O514431   1.575   0.784  15.365  0.5297  0.4127 -0.0525
    3TCq1    O614432   1.660   0.991  15.408  0.1577 -0.3870 -0.0890
    3TCq1    H114433   1.462   1.056  15.785 -1.0710 -0.0105  0.5798
    3TCq1    H214434   1.559   1.095  15.585 -0.0722 -0.3196  0.7941
    3TCq1    H314435   1.345   0.782  15.398 -0.1161  0.1893 -0.9668
    3TCq1    H414436   1.136   1.086  15.618 -0.4749  0.2754  0.2610
    4MPD2     C14437   0.905   0.706  15.313 -0.1706 -0.0354 -0.1925
    4MPD2    C114438   1.036   0.715  15.278 -0.1773  0.2015 -0.3819
    4MPD2    C214439   1.087   0.634  15.178  0.2204  0.0227 -0.6053
    4MPD2    C314440   1.008   0.539  15.113 -0.4260 -0.5892  0.2289
    4MPD2    C414441   0.878   0.529  15.150  0.4440  0.1495  0.0040
    4MPD2    C514442   0.828   0.611  15.252  0.4566  0.3065 -0.2452
    4MPD2     H14443   1.193   0.648  15.158  0.3381 -1.0865 -0.7377
    4MPD2    H114444   0.810   0.457  15.105 -1.3492  3.0312 -1.8530
    4MPD2    H214445   0.856   0.769  15.387 -2.4181 -0.5657 -1.2421
    4MPD2    H314446   0.726   0.597  15.283 -0.2329  2.2675 -1.6191
    4MPD2     N14447   1.068   0.465  15.005 -0.5031 -0.0042 -0.8341
    4MPD2    H514448   1.164   0.492  14.985  0.5808 -0.5144  3.7306
    4MPD2    N114449   1.126   0.788  15.348 -0.1433  0.2951 -0.2861
    4MPD2    H714450   1.221   0.781  15.313 -0.2260 -0.6437 -0.3245
    5TMC2    C114451   1.571   4.234  15.194 -0.0436 -0.4034 -0.1347
    5TMC2    C214452   1.562   4.252  15.330  0.3093 -0.1145  0.1351
    5TMC2    C314453   1.631   4.357  15.383  0.1813  0.9751 -0.6548
    5TMC2    C414454   1.652   4.302  15.118 -0.3412  0.9703 -0.3316
    5TMC2    C514455   1.726   4.408  15.172  0.3409  0.4191  0.1088
    5TMC2    C614456   1.709   4.437  15.308 -0.2886  0.3486  0.7585
    5TMC2     C14457   1.432   4.231  15.137 -0.3576  0.4158 -0.0915
    5TMC2     O14458   1.344   4.180  15.199 -0.0189 -0.4216 -0.1493
    5TMC2     H14459   1.482   4.215  15.393 -0.2933  0.0488 -0.5425
    5TMC2    H114460   1.666   4.287  15.011  0.8199 -0.7386  0.0730
    5TMC2    H214461   1.752   4.528  15.349  1.8684  0.5884 -2.0686
    5TMC2    C714462   1.707   4.525  15.081 -0.4813 -0.0305 -0.3613
    5TMC2    C814463   1.588   4.402  15.510  0.8834 -0.0749 -0.0988
    5TMC2    O114464   1.631   4.511  14.985 -0.0817  0.0052  0.2457
    5TMC2    O214465   1.579   4.313  15.592 -0.8437 -0.0347  0.2727
    5TMC2    O514466   1.526   4.519  15.505  0.4994  0.4571 -0.3831
    5TMC2    H514467   1.505   4.564  15.420 -1.3753  0.6981  0.2034
    6MPD2     C14468   1.060   4.453  14.873  0.1490 -0.1619 -0.2223
    6MPD2    C114469   1.168   4.522  14.857  0.5898 -0.0519  0.4311
    6MPD2    C214470   1.284   4.481  14.919 -0.1180  0.2229  1.1576
    6MPD2    C314471   1.287   4.370  14.998  0.4991 -0.1297 -0.6776
    6MPD2    C414472   1.170   4.310  15.028 -0.5370  0.6923  0.4741
    6MPD2    C514473   1.054   4.339  14.959 -0.2178  0.2948 -0.0713
    6MPD2     H14474   1.375   4.541  14.915  0.0088  0.1039  2.4373
    6MPD2    H114475   1.153   4.245  15.113 -0.4523 -1.0140 -0.8245
    6MPD2    H214476   0.971   4.483  14.820 -0.4361 -0.4216  0.5984
    6MPD2    H314477   0.967   4.276  14.974 -0.3193  0.3079 -0.5795
    6MPD2     N14478   1.416   4.326  15.042  0.0265  0.0812 -0.0704
    6MPD2    H514479   1.497   4.383  15.022  1.0489 -1.6614 -0.9405
    6MPD2    N114480   1.174   4.644  14.788 -0.1408 -0.4751 -0.0457
    6MPD2    H714481   1.258   4.699  14.788 -0.3949 -0.1018  2.0928
  945NH3     N114482   4.544   2.566   2.707 -0.4704  0.0105 -0.6020
  945NH3     H214483   4.503   2.593   2.796  0.3928 -0.2336 -0.1319
  945NH3     H314484   4.610   2.498   2.742 -1.0671  0.0152  0.5435
  945NH3     H414485   4.585   2.657   2.688  0.1327  0.1980  1.5594
  946SOD     NA14486   0.251   4.702  16.326 -0.4185  0.4795 -0.1584
  947SOD     NA14487   3.977   3.368  11.634 -0.0735  0.3786  0.0620
  948SOD     NA14488   3.380   4.709  16.398  0.3608 -0.0828  0.0368
  949SOD     NA14489   2.861   0.495  11.004 -0.0350 -0.1395 -0.5552
  950SOD     NA14490   3.772   2.817   2.734  0.2506 -0.3590 -0.4042
  951SOD     NA14491   4.706   2.972  13.279 -0.1731  0.3030 -0.5395
  952SOD     NA14492   1.128   1.335  14.918  0.1867  0.2748 -0.4481
  953SOD     NA14493   3.032   2.541  16.944 -0.1604 -0.1694 -0.1284
  954SOL     OW14494   4.380   2.234  16.549  0.6707  0.1500  0.3714
  954SOL    HW114495   4.298   2.199  16.514  2.0174 -1.7614 -0.8947
  954SOL    HW214496   4.390   2.319  16.507  0.2005  0.7664  1.5238
  955SOL     OW14497   0.862   0.207  10.140  0.0547 -0.6840 -0.5051
  955SOL    HW114498   0.873   0.125  10.189 -0.3578 -1.0673 -1.0535
  955SOL    HW214499   0.954   0.235  10.143 -0.7015  1.6935  0.7262
  956SOL     OW14500   4.618   0.361   4.264  0.6391  0.5209 -0.2735
  956SOL    HW114501   4.563   0.414   4.206 -2.6438 -0.6879  1.7099
  956SOL    HW214502   4.561   0.326   4.332  0.2268 -0.8333 -1.3112
  957SOL     OW14503   0.400   1.712   8.794 -0.0278 -0.1327 -0.1304
  957SOL    HW114504   0.405   1.689   8.701 -1.1989  0.9977 -0.4746
  957SOL    HW214505   0.435   1.630   8.829  0.6900  1.8797  3.8923
  958SOL     OW14506   2.712   3.326   3.880 -0.4244  0.8555 -0.3240
  958SOL    HW114507   2.677   3.266   3.946 -0.5704 -0.1552 -1.3036
  958SOL    HW214508   2.767   3.379   3.938 -1.2962  0.6244  0.7064
  959SOL     OW14509   0.640   2.371   8.752  0.1439  0.3110 -0.3526
  959SOL    HW114510   0.669   2.283   8.728 -3.7147 -1.1916  0.6022
  959SOL    HW214511   0.592   2.400   8.675  0.2297 -2.0927 -1.3132
  960SOL     OW14512   4.349   3.044   6.895  0.2027  0.3424  0.3278
  960SOL    HW114513   4.306   3.043   6.981 -0.9176 -0.8802 -0.2369
  960SOL    HW214514   4.342   2.952   6.871 -1.6129  0.4374  0.4594
  961SOL     OW14515   0.314   4.695   6.139 -0.8920  0.7521  0.0597
  961SOL    HW114516   0.280   0.007   6.064  1.2008  1.2345 -0.5580
  961SOL    HW214517   0.357   4.621   6.096 -1.7848  0.7799 -0.8926
  962SOL     OW14518   2.246   0.583  16.500 -0.3949 -0.1214 -0.2780
  962SOL    HW114519   2.182   0.653  16.486  0.5379  0.3646 -2.2006
  962SOL    HW214520   2.269   0.580  16.407 -0.0105  0.0314 -0.1900
  963SOL     OW14521   0.586   0.187  11.976 -0.2368 -0.1578 -0.2875
  963SOL    HW114522   0.498   0.216  11.954  0.5510  2.0306 -0.5064
  963SOL    HW214523   0.598   0.215  12.066 -1.5798 -1.9986  0.4515
  964SOL     OW14524   0.050   2.201   7.529 -0.4896 -0.1049  0.0664
  964SOL    HW114525   4.714   2.231   7.583 -1.2201 -2.5147  0.3902
  964SOL    HW214526   0.114   2.265   7.559 -0.4739  0.2217 -0.6624
  965SOL     OW14527   0.427   2.075  17.505  0.0156 -0.0100  0.3880
  965SOL    HW114528   0.395   2.065  17.415 -0.7467 -1.0945  0.7844
  965SOL    HW214529   0.348   2.046  17.550  0.8207  0.2959  1.9835
  966SOL     OW14530   4.425   4.232  11.617 -0.2516 -0.0624 -0.0543
  966SOL    HW114531   4.426   4.323  11.586 -0.5144  1.1545  3.5286
  966SOL    HW214532   4.502   4.193  11.573  0.4703  1.2665  0.0209
  967SOL     OW14533   1.850   4.497   6.850 -0.5328  0.5214 -0.3311
  967SOL    HW114534   1.805   4.553   6.913 -0.6334 -0.9126  0.8517
  967SOL    HW214535   1.778   4.472   6.793  0.8396 -0.6129 -1.5718
  968SOL     OW14536   4.027   4.433  11.966  0.1067  0.4749  0.4708
  968SOL    HW114537   4.088   4.419  11.894  0.4720  1.3938  0.6071
  968SOL    HW214538   4.084   4.479  12.028 -0.4551  1.5687  0.1706
  969SOL     OW14539   4.407   1.968   2.941 -0.6173  0.3249  0.0082
  969SOL    HW114540   4.456   1.923   3.010 -0.8068  0.0182 -0.0579
  969SOL    HW214541   4.481   1.991   2.885 -0.4485  1.4485  0.6891
  970SOL     OW14542   4.195   1.505   3.024 -0.0712 -0.4787 -0.0329
  970SOL    HW114543   4.169   1.435   2.965 -3.0215  0.4613  0.1411
  970SOL    HW214544   4.145   1.472   3.099 -0.3226 -0.5979 -0.2511
  971SOL     OW14545   4.545   3.390   1.721  0.1822  0.2404  0.3542
  971SOL    HW114546   4.547   3.380   1.816 -0.0058 -1.4831  0.1760
  971SOL    HW214547   4.460   3.350   1.702  0.0313 -0.1004  1.6979
  972SOL     OW14548   2.777   3.706   6.614  0.2723  0.1182  0.3899
  972SOL    HW114549   2.764   3.694   6.520  1.5664 -0.4856  0.2907
  972SOL    HW214550   2.686   3.702   6.643 -0.4518 -0.1688 -1.9285
  973SOL     OW14551   3.294   1.835   9.522 -0.9487 -0.9236 -0.4408
  973SOL    HW114552   3.355   1.846   9.595  0.0333 -0.0320 -1.4181
  973SOL    HW214553   3.320   1.751   9.485  0.7934 -0.9887  0.9404
  974SOL     OW14554   3.062   4.468  16.678 -0.1964  0.1039  0.5934
  974SOL    HW114555   2.991   4.530  16.692  0.4442  0.7007  1.2349
  974SOL    HW214556   3.070   4.430  16.765  1.0113 -0.2024  0.3469
  975SOL     OW14557   3.329   4.501   5.970 -0.1216  0.4356  0.4933
  975SOL    HW114558   3.344   4.441   6.044  0.5028  0.8608  0.7173
  975SOL    HW214559   3.280   4.571   6.013 -1.1263  1.2721 -2.0549
  976SOL     OW14560   0.615   4.431   4.557 -0.2361  0.1812 -0.1688
  976SOL    HW114561   0.553   4.359   4.548  1.4660 -0.9909 -2.6650
  976SOL    HW214562   0.589   4.484   4.482 -2.1329 -0.0371  0.3520
  977SOL     OW14563   4.204   2.251   5.959 -0.2133  0.2139  0.1758
  977SOL    HW114564   4.234   2.231   6.047 -2.2426 -1.8944  0.3850
  977SOL    HW214565   4.233   2.341   5.941 -0.3865  0.3519  0.6045
  978SOL     OW14566   3.187   1.520   7.776  0.4968 -0.4999 -0.3021
  978SOL    HW114567   3.120   1.520   7.845  0.5821 -2.5629 -0.2263
  978SOL    HW214568   3.193   1.424   7.773  0.2779 -0.4861 -1.1900
  979SOL     OW14569   0.680   2.750  17.172 -0.3098  0.1810  0.2065
  979SOL    HW114570   0.663   2.820  17.234  0.5883  1.7309 -1.2899
  979SOL    HW214571   0.589   2.725  17.158 -0.7177  1.1182  1.2465
  980SOL     OW14572   3.740   2.394   1.938 -0.6922  0.1849 -0.2184
  980SOL    HW114573   3.798   2.318   1.941 -0.5545  0.2624 -0.9986
  980SOL    HW214574   3.776   2.444   1.865 -0.9417  1.8942  0.8263
  981SOL     OW14575   0.898   0.684   9.204  0.2404  0.5826  0.5311
  981SOL    HW114576   0.889   0.644   9.291 -2.0183  0.5993  0.3002
  981SOL    HW214577   0.885   0.773   9.237 -1.2842  0.9483 -1.0550
  982SOL     OW14578   3.645   0.697   6.833 -0.1476 -0.4135 -0.2718
  982SOL    HW114579   3.706   0.671   6.902  0.3488  1.9695  0.2080
  982SOL    HW214580   3.571   0.678   6.892 -1.6339 -0.0389 -2.0118
  983SOL     OW14581   3.163   1.063   1.161 -0.0972 -0.9315  0.8593
  983SOL    HW114582   3.203   1.103   1.238  0.8425  1.7870 -1.0468
  983SOL    HW214583   3.071   1.065   1.188 -0.3210  1.1387 -0.1028
  984SOL     OW14584   4.077   0.283   1.849  0.7486  0.5332  0.0282
  984SOL    HW114585   4.169   0.298   1.871  1.4184 -3.1256 -0.1923
  984SOL    HW214586   4.077   0.230   1.769  0.9153  0.9900 -0.2710
  985SOL     OW14587   0.885   1.202   6.056  0.1094  0.5458  0.3835
  985SOL    HW114588   0.891   1.130   5.993 -1.4511  0.9580 -0.2103
  985SOL    HW214589   0.978   1.228   6.055  0.0736  0.6494  0.0061
  986SOL     OW14590   0.580   2.188   6.386  0.3238 -0.4149 -0.6962
  986SOL    HW114591   0.629   2.266   6.414  0.7626 -0.8642 -0.2288
  986SOL    HW214592   0.636   2.121   6.425 -0.1359  0.2922  1.1581
  987SOL     OW14593   1.078   3.687   8.352  0.3715  0.1476 -0.9136
  987SOL    HW114594   1.009   3.736   8.308 -0.2828 -0.5624 -0.6857
  987SOL    HW214595   1.161   3.728   8.327 -0.0621 -0.7726 -3.9026
  988SOL     OW14596   0.336   0.580   3.313 -0.0418  0.1985 -0.1727
  988SOL    HW114597   0.414   0.541   3.275  1.2022  0.7642  1.7786
  988SOL    HW214598   0.380   0.625   3.385  0.9001 -0.0749 -0.5834
  989SOL     OW14599   4.176   0.753   4.296  0.1067 -0.4718 -0.1201
  989SOL    HW114600   4.082   0.759   4.278  0.5091  0.4298 -1.8697
  989SOL    HW214601   4.212   0.768   4.209  1.1053 -0.0092  0.3684
  990SOL     OW14602   3.604   4.613   2.476  0.0702  0.0173  0.2199
  990SOL    HW114603   3.649   4.569   2.404  0.6501  0.7707  0.1101
  990SOL    HW214604   3.655   4.694   2.463 -0.0089 -0.3715 -2.4820
  991SOL     OW14605   2.481   2.694   4.885 -0.1085 -0.1722 -0.4331
  991SOL    HW114606   2.520   2.607   4.898  0.0346 -0.1619 -0.8012
  991SOL    HW214607   2.443   2.691   4.797 -0.6338  1.3461 -0.2573
  992SOL     OW14608   4.002   4.218   3.066  0.0274  0.5796  0.5595
  992SOL    HW114609   3.941   4.174   3.007  2.5712  0.4298 -1.9607
  992SOL    HW214610   4.075   4.233   3.005 -1.4475 -0.0619 -1.3477
  993SOL     OW14611   3.460   2.578   2.525 -0.3864  0.4711 -0.0077
  993SOL    HW114612   3.471   2.504   2.585 -1.2267  1.8130  1.7571
  993SOL    HW214613   3.417   2.519   2.463  1.4049 -1.6830  0.7680
  994SOL     OW14614   4.621   3.232   7.264 -0.2672  0.0258  0.4505
  994SOL    HW114615   4.628   3.315   7.309  0.4338 -0.2831  0.9041
  994SOL    HW214616   4.700   3.189   7.297  0.8349  1.1076 -0.7728
  995SOL     OW14617   0.051   0.493   2.740 -0.3889  0.1492  0.3233
  995SOL    HW114618   0.078   0.469   2.829 -1.1041  2.4819  1.1650
  995SOL    HW214619   4.693   0.491   2.753 -0.7112 -1.7368 -2.4459
  996SOL     OW14620   3.897   3.277   1.911  0.1599  0.5964 -0.2942
  996SOL    HW114621   3.900   3.188   1.876  0.5266  0.4714  0.0535
  996SOL    HW214622   3.958   3.268   1.985 -1.6388  0.0717  1.1385
  997SOL     OW14623   0.972   3.731   0.090  0.7482 -0.3061 -0.3989
  997SOL    HW114624   1.058   3.772   0.078  0.7145  0.3253  1.4900
  997SOL    HW214625   0.950   3.764   0.177 -0.9128 -0.7588 -0.6544
  998SOL     OW14626   4.304   3.826   5.947 -0.1326 -0.6783  0.8742
  998SOL    HW114627   4.369   3.761   5.976 -0.2286 -1.0814  0.1723
  998SOL    HW214628   4.346   3.881   5.881 -1.9177  0.3191  0.5648
  999SOL     OW14629   3.248   0.167   6.342 -0.0718 -0.2296 -0.2537
  999SOL    HW114630   3.203   0.098   6.392 -2.1824  1.1170 -0.3179
  999SOL    HW214631   3.240   0.243   6.400  0.1610 -0.0948 -0.3976
 1000SOL     OW14632   0.668   0.347   2.524  0.6217  0.0032 -0.0433
 1000SOL    HW114633   0.667   0.410   2.596 -0.8940  1.6733 -1.4963
 1000SOL    HW214634   0.584   0.309   2.549  0.7037 -1.5701 -2.1179
 1001SOL     OW14635   3.554   1.255   7.894 -0.4658 -0.5985  0.4346
 1001SOL    HW114636   3.522   1.165   7.899  0.8949 -1.2752 -2.7222
 1001SOL    HW214637   3.477   1.312   7.892 -0.8131 -1.0698  0.4434
 1002SOL     OW14638   3.408   4.289  12.114 -0.2131  0.2492 -0.1461
 1002SOL    HW114639   3.410   4.232  12.038 -2.1606  1.6079 -1.2144
 1002SOL    HW214640   3.392   4.373  12.072 -0.0823  0.2402 -0.2132
 1003SOL     OW14641   3.972   2.087   6.325 -0.5032  0.0332 -0.5939
 1003SOL    HW114642   4.045   2.061   6.382 -1.6630  0.0770  0.8997
 1003SOL    HW214643   4.017   2.095   6.241  1.3419 -1.5216  0.2390
 1004SOL     OW14644   0.060   3.120   3.871  0.3190  0.3343  0.4446
 1004SOL    HW114645   0.119   3.181   3.827  0.3261  0.6092  0.8369
 1004SOL    HW214646   0.115   3.043   3.885 -0.0344 -0.3687 -2.0087
 1005SOL     OW14647   1.910   0.167   6.482 -0.1031 -0.2244 -0.2228
 1005SOL    HW114648   1.888   0.216   6.402  0.2234  1.8183  0.9465
 1005SOL    HW214649   1.828   0.166   6.531  1.3001  0.2576  2.1372
 1006SOL     OW14650   1.047   0.245  10.800  0.7166 -0.6119  0.0590
 1006SOL    HW114651   1.061   0.276  10.890  0.5506  3.3722 -1.3049
 1006SOL    HW214652   1.001   0.163  10.820  1.2677 -0.8768  0.2727
 1007SOL     OW14653   3.719   3.030   5.829  0.6506  0.2424 -0.7060
 1007SOL    HW114654   3.701   3.010   5.737  0.0274 -0.5809 -0.4075
 1007SOL    HW214655   3.629   3.023   5.859  1.1033 -1.1563  0.3285
 1008SOL     OW14656   2.154   3.388   2.080 -0.4262  0.2313 -0.4664
 1008SOL    HW114657   2.136   3.462   2.138  2.3370 -0.1570  0.8382
 1008SOL    HW214658   2.146   3.318   2.144 -0.9304 -0.2541 -1.0599
 1009SOL     OW14659   4.728   2.266   1.251  0.1419 -0.1101 -0.2957
 1009SOL    HW114660   4.688   2.259   1.164  1.6115  3.2834 -1.2469
 1009SOL    HW214661   4.654   2.303   1.300 -0.0266 -0.3589 -0.3577
 1010SOL     OW14662   0.423   3.653  16.574 -0.4797 -0.3581 -0.0347
 1010SOL    HW114663   0.377   3.712  16.514 -0.2703  0.5206  0.6821
 1010SOL    HW214664   0.454   3.578  16.523  1.5325  1.1442 -0.9937
 1011SOL     OW14665   1.385   0.436   6.656 -0.5318 -0.3999  0.5314
 1011SOL    HW114666   1.342   0.364   6.610  2.3318 -1.9328  0.2422
 1011SOL    HW214667   1.453   0.472   6.599 -2.0615 -2.0213 -2.3064
 1012SOL     OW14668   3.328   0.930   6.133  0.1569 -0.2147 -0.6541
 1012SOL    HW114669   3.255   0.883   6.092 -0.7819  2.6443 -2.2236
 1012SOL    HW214670   3.401   0.870   6.117  0.0328 -0.2363 -1.1293
 1013SOL     OW14671   3.240   3.437   3.388  0.0978  0.5765  0.7046
 1013SOL    HW114672   3.205   3.390   3.463 -0.0447 -0.4217  0.0096
 1013SOL    HW214673   3.238   3.528   3.418  0.4916  1.0403 -0.6499
 1014SOL     OW14674   2.047   2.085   1.330  0.3727 -0.3586 -0.0654
 1014SOL    HW114675   2.001   2.125   1.256  1.1393  0.4376 -0.0968
 1014SOL    HW214676   2.061   1.996   1.297 -0.5406 -0.2355 -0.8175
 1015SOL     OW14677   2.431   0.834   9.988  0.2386 -0.1471  0.4014
 1015SOL    HW114678   2.459   0.818  10.078  0.2539 -1.1297  0.2229
 1015SOL    HW214679   2.510   0.809   9.939  0.3302 -0.6897  0.8242
 1016SOL     OW14680   0.908   4.632  11.094 -0.1480  0.0513 -0.2044
 1016SOL    HW114681   0.857   4.678  11.027  0.5562  1.6078  0.3147
 1016SOL    HW214682   0.965   4.579  11.039  1.0599 -0.0942  1.1859
 1017SOL     OW14683   1.100   1.765   2.325 -0.5952 -0.1952  0.0043
 1017SOL    HW114684   1.009   1.743   2.304 -0.9465  1.2805 -0.0193
 1017SOL    HW214685   1.148   1.754   2.242  0.5361 -1.9037  0.8812
 1018SOL     OW14686   2.627   3.498  11.125  0.2409 -0.0087 -0.0939
 1018SOL    HW114687   2.707   3.545  11.149  0.2597 -1.8073  3.2503
 1018SOL    HW214688   2.664   3.419  11.086  1.3901 -0.0461  1.0748
 1019SOL     OW14689   0.960   0.183  12.674 -0.4744 -0.2567  0.2989
 1019SOL    HW114690   1.015   0.231  12.612 -0.8836 -0.3749 -0.1508
 1019SOL    HW214691   0.959   0.095  12.636 -2.8832 -0.8341  1.7239
 1020SOL     OW14692   1.849   1.842   8.778 -0.1139 -0.1703 -0.2052
 1020SOL    HW114693   1.866   1.786   8.854 -0.0296 -0.2315 -0.2697
 1020SOL    HW214694   1.908   1.913   8.800 -3.4162  2.0192  1.6259
 1021SOL     OW14695   1.209   4.576  10.655 -0.2098  0.2449 -0.5203
 1021SOL    HW114696   1.169   4.512  10.595 -0.7517  1.1149 -1.0796
 1021SOL    HW214697   1.303   4.558  10.651 -0.3690 -0.8763  0.7569
 1022SOL     OW14698   0.242   2.557   5.425 -0.0345  0.2526 -0.5467
 1022SOL    HW114699   0.189   2.485   5.392  0.6934  0.7313 -2.7249
 1022SOL    HW214700   0.219   2.551   5.518  2.4288  0.0816  0.0459
 1023SOL     OW14701   4.093   1.712  17.465 -0.2216  0.0724  0.5154
 1023SOL    HW114702   4.072   1.619  17.461 -1.3868  0.2229  3.2611
 1023SOL    HW214703   4.081   1.720  17.559 -1.1567 -1.8241  0.5603
 1024SOL     OW14704   0.863   4.007   3.178  0.2068  0.3631 -0.3164
 1024SOL    HW114705   0.889   3.959   3.100  0.3714  0.3851 -0.2740
 1024SOL    HW214706   0.934   4.072   3.183  1.3412 -0.9740  0.9198
 1025SOL     OW14707   0.252   0.587   6.877  0.3433  0.6476  0.4419
 1025SOL    HW114708   0.189   0.637   6.825 -0.4008 -1.2085 -0.4416
 1025SOL    HW214709   0.317   0.550   6.816 -0.6447  0.7067 -0.6408
 1026SOL     OW14710   3.422   3.382   9.677 -0.3726  0.0963 -0.4797
 1026SOL    HW114711   3.391   3.292   9.663  2.0926 -1.0181  1.1286
 1026SOL    HW214712   3.445   3.373   9.769  1.2255  0.1984 -0.8622
 1027SOL     OW14713   0.579   2.096   7.440  0.1693 -0.1755 -0.0719
 1027SOL    HW114714   0.509   2.068   7.380  0.4300  0.6971 -0.7924
 1027SOL    HW214715   0.599   2.024   7.499  0.3595  0.4804  0.6667
 1028SOL     OW14716   0.259   3.817   2.699 -0.3360 -0.1661 -0.3116
 1028SOL    HW114717   0.274   3.725   2.677 -0.9560 -0.5202  0.7114
 1028SOL    HW214718   0.204   3.847   2.627  0.1823  0.3432 -0.4977
 1029SOL     OW14719   2.190   0.388   2.793 -0.1364  0.2234 -0.0679
 1029SOL    HW114720   2.248   0.426   2.859 -1.2235 -0.9512  1.5615
 1029SOL    HW214721   2.129   0.460   2.777 -1.4358 -0.5800  1.3190
 1030SOL     OW14722   3.888   4.290   6.026  0.1613  0.7601  0.0464
 1030SOL    HW114723   3.836   4.312   5.948  0.9907 -1.9038 -1.2636
 1030SOL    HW214724   3.938   4.231   5.969 -1.5349 -2.0637  1.4719
 1031SOL     OW14725   3.070   1.252   7.979 -0.0339 -0.3775  0.2427
 1031SOL    HW114726   3.148   1.218   7.934  0.3554  0.1165  0.5450
 1031SOL    HW214727   3.004   1.207   7.926 -1.7246  2.3118  0.0550
 1032SOL     OW14728   2.434   0.090   0.188 -0.5006  0.6665  0.3970
 1032SOL    HW114729   2.513   0.080   0.135 -0.3290 -1.2537  1.0080
 1032SOL    HW214730   2.373   0.033   0.142  0.6584 -1.6178  1.6784
 1033SOL     OW14731   0.182   0.375   1.348 -0.7211  0.1328 -0.0305
 1033SOL    HW114732   0.183   0.376   1.252 -1.8554 -1.1022 -0.0546
 1033SOL    HW214733   0.241   0.304   1.373 -0.6852  0.6931  1.4911
 1034SOL     OW14734   1.691   3.367   7.262 -0.1973 -0.0315  0.6770
 1034SOL    HW114735   1.617   3.311   7.284 -0.3637  0.6159  1.7485
 1034SOL    HW214736   1.640   3.433   7.214  0.8914  0.9795  0.9185
 1035SOL     OW14737   3.451   4.700   6.997 -0.4231  0.3130 -0.1028
 1035SOL    HW114738   3.453   4.604   7.002 -0.9150  0.4763  3.3527
 1035SOL    HW214739   3.494   4.723   6.915  2.4967 -0.2530  1.2655
 1036SOL     OW14740   1.985   1.762   5.113  0.3569  0.3035 -0.7005
 1036SOL    HW114741   1.916   1.829   5.116  0.8666  0.8540 -1.1062
 1036SOL    HW214742   1.975   1.724   5.026 -0.6463  0.1266 -0.5104
 1037SOL     OW14743   1.259   2.152   3.342 -0.1311 -0.2619  0.2427
 1037SOL    HW114744   1.167   2.159   3.317 -0.2957 -1.2756  0.5457
 1037SOL    HW214745   1.264   2.234   3.393  1.4716  0.9714 -1.8962
 1038SOL     OW14746   1.313   4.080  14.865 -0.0732 -0.1210  0.2394
 1038SOL    HW114747   1.327   4.154  14.924 -0.4171 -0.1673  0.3781
 1038SOL    HW214748   1.345   4.112  14.781  0.7211 -0.1048  0.5452
 1039SOL     OW14749   3.720   0.076   2.754 -0.0811  0.0459 -0.1246
 1039SOL    HW114750   3.650   0.126   2.712 -0.8756  0.1997  1.3823
 1039SOL    HW214751   3.758   0.022   2.685 -2.6895  0.3526 -1.8006
 1040SOL     OW14752   0.070   0.523   1.961 -0.1775 -0.0633 -0.6482
 1040SOL    HW114753   0.104   0.491   1.877 -1.5341  0.1656 -1.2744
 1040SOL    HW214754   0.145   0.570   1.996  0.1608 -0.9531 -0.1699
 1041SOL     OW14755   1.296   3.944   2.424  0.3016  0.0752  0.3812
 1041SOL    HW114756   1.225   4.002   2.453  2.2345  2.4583  0.4333
 1041SOL    HW214757   1.277   3.933   2.331  2.6651  0.8346 -0.2159
 1042SOL     OW14758   1.181   1.972   9.154  0.6323  0.3865  0.0397
 1042SOL    HW114759   1.169   1.877   9.156 -2.4446  0.7112 -2.3951
 1042SOL    HW214760   1.088   1.995   9.145  0.0594 -1.9447  0.0568
 1043SOL     OW14761   4.039   0.402  11.041  0.5981 -0.0877  0.0271
 1043SOL    HW114762   3.962   0.355  11.073  2.2502 -0.1404  3.9253
 1043SOL    HW214763   4.046   0.377  10.949  1.0060 -0.4160  0.1480
 1044SOL     OW14764   0.298   3.488   6.571 -0.2114  0.4933 -0.2905
 1044SOL    HW114765   0.323   3.484   6.663  0.0243  0.2702 -0.3660
 1044SOL    HW214766   0.246   3.408   6.571 -0.1028  0.4374  1.5682
 1045SOL     OW14767   2.856   3.919   9.886 -0.2005 -0.3400  0.0593
 1045SOL    HW114768   2.929   3.978   9.902  0.5272 -1.1796 -0.1608
 1045SOL    HW214769   2.881   3.890   9.798  2.6929 -0.0608  0.7837
 1046SOL     OW14770   3.408   4.244  12.374  0.4331 -0.2006 -0.0425
 1046SOL    HW114771   3.396   4.273  12.284 -1.8302  0.7246  0.5411
 1046SOL    HW214772   3.492   4.288  12.387 -0.2420  0.9135  0.5607
 1047SOL     OW14773   2.796   4.351   5.340 -0.1404  0.5522  0.0574
 1047SOL    HW114774   2.768   4.351   5.248  0.7078 -0.6531 -0.1910
 1047SOL    HW214775   2.731   4.410   5.379 -1.1980 -0.9302  0.5507
 1048SOL     OW14776   0.482   3.205   8.357 -0.3048 -0.0902 -0.4392
 1048SOL    HW114777   0.500   3.299   8.350  0.3760 -0.3113 -1.7277
 1048SOL    HW214778   0.389   3.206   8.378 -0.3568  1.1108 -0.7395
 1049SOL     OW14779   3.455   0.506   4.098  0.4353  0.2753 -0.2449
 1049SOL    HW114780   3.519   0.575   4.080 -0.2398  1.7087  2.9162
 1049SOL    HW214781   3.431   0.482   4.008 -0.4979  1.3529 -0.2859
 1050SOL     OW14782   3.752   3.872   1.602  0.6449  0.2275  0.1282
 1050SOL    HW114783   3.778   3.964   1.591  0.1135  0.4539  0.7371
 1050SOL    HW214784   3.684   3.890   1.667 -0.6845  0.1701 -1.2528
 1051SOL     OW14785   3.474   2.109   6.860  0.1051 -0.2061  0.1016
 1051SOL    HW114786   3.412   2.161   6.808 -0.3321 -0.3051  0.5187
 1051SOL    HW214787   3.496   2.044   6.795  0.8616  1.1361 -0.9731
 1052SOL     OW14788   3.789   1.490   4.511  0.1460  0.0930 -0.3197
 1052SOL    HW114789   3.835   1.460   4.589 -1.9928 -1.6944  0.2491
 1052SOL    HW214790   3.757   1.412   4.466 -0.0621 -0.6816  1.1948
 1053SOL     OW14791   0.205   1.324  16.424 -0.3062 -0.1574  0.2843
 1053SOL    HW114792   0.156   1.278  16.355  0.2280  0.3236 -0.4136
 1053SOL    HW214793   0.259   1.261  16.473 -0.7846 -2.5093 -2.2243
 1054SOL     OW14794   3.068   0.913   8.733  0.2730  0.0235 -0.4145
 1054SOL    HW114795   3.090   0.873   8.649  0.6675  0.7426 -0.6550
 1054SOL    HW214796   3.157   0.919   8.769  0.2736  1.0440 -0.5910
 1055SOL     OW14797   0.630   2.672  12.832  0.2404  0.0788  0.2239
 1055SOL    HW114798   0.665   2.680  12.920  0.7084  1.3065 -0.0730
 1055SOL    HW214799   0.697   2.621  12.788  0.6401  2.1545 -1.5706
 1056SOL     OW14800   1.542   1.498   0.117  0.1619  0.0265  0.6092
 1056SOL    HW114801   1.499   1.523   0.198 -1.7329  0.6506 -0.5862
 1056SOL    HW214802   1.583   1.579   0.088 -0.4964  0.5228  1.0723
 1057SOL     OW14803   3.650   2.060   5.456 -0.2732  0.1896  0.3098
 1057SOL    HW114804   3.716   2.017   5.402 -0.2891  1.0264 -0.3813
 1057SOL    HW214805   3.712   2.099   5.517 -0.5547  0.2263  0.5742
 1058SOL     OW14806   4.111   3.440   9.598  0.1039  0.3552  0.6496
 1058SOL    HW114807   4.097   3.455   9.691  1.6246  0.0246  0.9156
 1058SOL    HW214808   4.168   3.364   9.603 -0.4065 -0.0984 -0.2413
 1059SOL     OW14809   0.636   1.223   5.607 -0.5228 -0.2980  0.1317
 1059SOL    HW114810   0.728   1.220   5.633 -0.3044 -1.2571 -0.7390
 1059SOL    HW214811   0.624   1.165   5.531  1.0460  0.1274 -0.4349
 1060SOL     OW14812   2.090   2.931   7.318  0.2533 -0.5529  0.1922
 1060SOL    HW114813   2.028   2.895   7.381 -1.2418  1.6442 -0.0342
 1060SOL    HW214814   2.108   3.011   7.367 -0.7165  0.3508 -0.9209
 1061SOL     OW14815   4.666   3.369  13.330  0.0811  0.1474 -0.0367
 1061SOL    HW114816   4.670   3.425  13.408  0.4337 -0.7248  0.5796
 1061SOL    HW214817   4.573   3.358  13.310 -0.1555  1.4905  0.3591
 1062SOL     OW14818   4.684   3.385   3.946  0.5194  0.3229 -0.0206
 1062SOL    HW114819   4.649   3.367   4.033 -0.9863  2.1244 -0.2553
 1062SOL    HW214820   4.711   3.294   3.931  1.2879  0.3783  1.0651
 1063SOL     OW14821   2.890   4.068   9.521  0.3495  0.1712  0.0929
 1063SOL    HW114822   2.814   4.125   9.514  0.7578  0.5847 -1.0237
 1063SOL    HW214823   2.966   4.128   9.519 -0.4556  1.2106  1.1003
 1064SOL     OW14824   1.795   1.155   3.763  0.5236  0.0944  0.1579
 1064SOL    HW114825   1.842   1.092   3.708 -0.3851  1.1091 -1.7600
 1064SOL    HW214826   1.775   1.220   3.695 -0.4764 -1.3881 -0.9782
 1065SOL     OW14827   0.611   1.024   5.422 -0.1165  0.1494  0.2205
 1065SOL    HW114828   0.526   1.023   5.378  0.5134 -2.9020 -0.9292
 1065SOL    HW214829   0.633   0.933   5.444 -0.3245 -0.1547 -0.8085
 1066SOL     OW14830   0.841   2.801   8.049  0.6865 -0.0632 -0.5261
 1066SOL    HW114831   0.929   2.793   8.084  0.4573 -0.0335  0.0631
 1066SOL    HW214832   0.807   2.880   8.092  1.0284  0.3661 -1.0480
 1067SOL     OW14833   2.908   2.750   3.581  0.0688 -0.2247  0.1800
 1067SOL    HW114834   2.870   2.745   3.668 -1.3897  4.0582 -0.2597
 1067SOL    HW214835   2.998   2.719   3.595  1.1273  1.5914 -2.5038
 1068SOL     OW14836   4.482   0.128   8.570  0.7245  0.0437 -0.1398
 1068SOL    HW114837   4.562   0.180   8.574 -0.2475  1.4734  1.0217
 1068SOL    HW214838   4.438   0.160   8.492 -1.3199  1.5163  1.5916
 1069SOL     OW14839   4.685   1.447   6.646  0.0283 -0.0962 -0.1612
 1069SOL    HW114840   4.698   1.377   6.582  0.4600  0.6711 -0.9136
 1069SOL    HW214841   4.701   1.394   6.723 -2.8108  1.3509  1.4096
 1070SOL     OW14842   1.647   4.300   8.410 -0.5773 -0.0431 -0.2384
 1070SOL    HW114843   1.733   4.300   8.368 -0.2900  1.4988  0.3789
 1070SOL    HW214844   1.587   4.314   8.337  1.3246 -1.2506 -2.0528
 1071SOL     OW14845   1.236   3.149   5.305  0.1626  0.0156 -0.2381
 1071SOL    HW114846   1.175   3.088   5.347 -0.0556  0.0084 -0.5630
 1071SOL    HW214847   1.297   3.159   5.377  0.3389 -2.6422 -0.0309
 1072SOL     OW14848   2.296   0.993   3.752  0.7090 -0.8307 -0.1288
 1072SOL    HW114849   2.271   1.012   3.662  0.5712  0.1431  0.1153
 1072SOL    HW214850   2.389   0.976   3.737  1.4575  4.1751 -1.2654
 1073SOL     OW14851   1.511   4.115   7.846  0.1902  0.0430  0.0876
 1073SOL    HW114852   1.573   4.044   7.833 -1.7536 -1.4600 -0.8412
 1073SOL    HW214853   1.439   4.106   7.784  0.5916  0.8577 -0.5115
 1074SOL     OW14854   0.312   0.238  16.707 -0.4691  0.3560 -0.3956
 1074SOL    HW114855   0.313   0.142  16.706  3.7237  0.4029  1.1691
 1074SOL    HW214856   0.369   0.252  16.783 -0.3333  1.2903 -0.6622
 1075SOL     OW14857   3.729   4.355   5.371  0.1269 -0.2745  0.1838
 1075SOL    HW114858   3.797   4.366   5.305  0.3508  2.1953  0.8449
 1075SOL    HW214859   3.663   4.421   5.350  0.5694  0.1388  0.0931
 1076SOL     OW14860   0.481   2.633   3.493  0.5278  0.2623 -0.3031
 1076SOL    HW114861   0.414   2.626   3.561  0.4765 -1.2824 -0.5002
 1076SOL    HW214862   0.504   2.542   3.473 -0.7899 -0.3720  1.0565
 1077SOL     OW14863   2.069   2.211   9.088 -0.2573  0.2029 -0.7406
 1077SOL    HW114864   2.042   2.281   9.147  0.9465  0.2408 -0.2228
 1077SOL    HW214865   2.149   2.177   9.128 -0.4493  1.8904  1.1024
 1078SOL     OW14866   2.201   4.616   5.785  0.1461  0.2311 -0.2719
 1078SOL    HW114867   2.268   4.681   5.807 -0.6717  1.7202 -2.1893
 1078SOL    HW214868   2.160   4.594   5.868 -0.4728  2.2553 -0.0319
 1079SOL     OW14869   3.158   4.161  14.779 -0.1899 -0.0258 -0.2090
 1079SOL    HW114870   3.130   4.186  14.691 -1.0178 -0.9591 -0.2006
 1079SOL    HW214871   3.083   4.181  14.835 -2.2428 -2.5858 -2.0816
 1080SOL     OW14872   3.284   2.991   3.566 -0.3964 -0.4454  0.0824
 1080SOL    HW114873   3.349   2.979   3.497 -0.1038  2.1869 -0.1139
 1080SOL    HW214874   3.209   3.035   3.524  0.4680  0.9270 -0.0224
 1081SOL     OW14875   0.570   0.676   9.134  0.6898 -0.1720 -0.4570
 1081SOL    HW114876   0.613   0.597   9.168 -1.2027 -1.6071 -1.4032
 1081SOL    HW214877   0.589   0.736   9.207  1.6933 -2.1297  0.8931
 1082SOL     OW14878   2.865   1.149   9.796  0.5557  0.7529 -0.2760
 1082SOL    HW114879   2.887   1.136   9.888 -1.7283 -1.8032 -0.1212
 1082SOL    HW214880   2.881   1.063   9.758 -1.8334  0.4880 -0.6921
 1083SOL     OW14881   1.710   4.493  12.105  0.7004 -0.5661 -0.1308
 1083SOL    HW114882   1.616   4.505  12.093  0.3140 -2.4635  0.9471
 1083SOL    HW214883   1.712   4.509  12.199 -0.3116 -2.9513  0.3057
 1084SOL     OW14884   2.755   4.193   0.717 -0.2558  0.6496 -0.0025
 1084SOL    HW114885   2.775   4.099   0.712  1.1800  0.8597  1.7833
 1084SOL    HW214886   2.662   4.192   0.738 -0.2970  0.6841 -0.1817
 1085SOL     OW14887   2.892   2.846   1.560  0.2763 -0.4311 -0.4046
 1085SOL    HW114888   2.820   2.896   1.600 -1.3016 -1.2252 -2.2423
 1085SOL    HW214889   2.952   2.920   1.551  0.1833 -0.0623  1.7989
 1086SOL     OW14890   4.261   0.941   5.668  0.5476 -0.2518  0.2223
 1086SOL    HW114891   4.318   0.901   5.735 -0.8345 -0.8023  1.0637
 1086SOL    HW214892   4.264   0.871   5.603 -0.2540  0.9277 -1.0722
 1087SOL     OW14893   0.664   4.575   4.971 -0.3147 -0.7970  0.1523
 1087SOL    HW114894   0.642   4.607   4.883 -0.1808 -0.8563  0.0980
 1087SOL    HW214895   0.757   4.596   4.979 -0.4470 -0.1944  0.1254
 1088SOL     OW14896   1.264   1.131   2.027  0.0418  0.0945  0.1099
 1088SOL    HW114897   1.268   1.101   1.936 -0.5196  0.9473 -0.1932
 1088SOL    HW214898   1.235   1.047   2.064 -0.5840  1.5569  2.9190
 1089SOL     OW14899   1.065   0.236   7.155  0.1094 -0.1941  0.3896
 1089SOL    HW114900   1.101   0.319   7.123  0.2131 -1.7769 -3.6586
 1089SOL    HW214901   1.065   0.241   7.250  2.1990  1.5076  0.2849
 1090SOL     OW14902   1.070   0.781  16.551  0.7539 -0.6988 -0.0421
 1090SOL    HW114903   1.164   0.790  16.533  0.7782  1.0791  0.9998
 1090SOL    HW214904   1.046   0.706  16.496  3.6280 -1.0514 -0.8579
 1091SOL     OW14905   1.985   2.816  11.209 -0.2787 -0.1066  0.2913
 1091SOL    HW114906   1.913   2.879  11.201  0.5676  0.7176 -0.9051
 1091SOL    HW214907   2.058   2.878  11.212  1.4319 -1.9819 -2.1401
 1092SOL     OW14908   2.881   2.586  15.634  0.9014  0.2145  0.1778
 1092SOL    HW114909   2.874   2.658  15.571 -2.1804  0.3130  0.6744
 1092SOL    HW214910   2.819   2.520  15.602 -0.6635  0.0273  3.6293
 1093SOL     OW14911   3.540   0.493   4.765  0.0205 -1.2895  0.2315
 1093SOL    HW114912   3.607   0.451   4.711  1.8520  0.1822  1.3459
 1093SOL    HW214913   3.539   0.445   4.848  2.5048 -1.5672  0.1048
 1094SOL     OW14914   1.692   4.666   0.560 -0.0356  0.1322  0.3935
 1094SOL    HW114915   1.653   4.610   0.626  0.8517 -2.3811 -1.2226
 1094SOL    HW214916   1.616   4.720   0.540 -0.6296 -0.8735 -0.0497
 1095SOL     OW14917   0.457   2.652   5.245 -0.1096  0.1805 -0.4850
 1095SOL    HW114918   0.393   2.610   5.303 -1.3942 -0.7500 -2.6130
 1095SOL    HW214919   0.449   2.738   5.285 -1.1371  0.8153 -2.0835
 1096SOL     OW14920   1.389   2.591   4.668  0.1340  0.3770  0.4773
 1096SOL    HW114921   1.310   2.596   4.615  0.5208 -0.0429 -0.1359
 1096SOL    HW214922   1.356   2.519   4.722 -0.2087 -0.9621 -1.5136
 1097SOL     OW14923   0.763   4.081  14.703 -0.6434  0.4292 -0.3918
 1097SOL    HW114924   0.856   4.065  14.719 -0.3765  2.5881  0.2482
 1097SOL    HW214925   0.757   4.101  14.610 -0.6866 -0.1258 -0.5078
 1098SOL     OW14926   2.291   1.854   4.115  0.3014 -0.4510  0.5586
 1098SOL    HW114927   2.240   1.827   4.191  0.2030  1.4085  1.1519
 1098SOL    HW214928   2.231   1.912   4.068 -0.0004 -1.3057 -0.0995
 1099SOL     OW14929   2.381   3.899   5.180 -0.2412  0.1266 -0.3304
 1099SOL    HW114930   2.449   3.866   5.121 -1.1128 -1.9851 -0.1456
 1099SOL    HW214931   2.405   3.992   5.179  0.1312  0.0289  0.2013
 1100SOL     OW14932   2.411   2.838   6.229  1.0402 -0.3628  0.1652
 1100SOL    HW114933   2.357   2.874   6.159  1.0823 -1.1880 -0.2984
 1100SOL    HW214934   2.396   2.745   6.210 -0.4628  0.0683 -0.7388
 1101SOL     OW14935   4.710   2.156   8.384  0.2206  0.4277  0.6957
 1101SOL    HW114936   4.680   2.101   8.312  0.1744 -0.4800  1.4077
 1101SOL    HW214937   4.638   2.145   8.447  0.2207 -3.3705  0.0512
 1102SOL     OW14938   3.942   4.612   2.108 -0.1694 -0.0057  0.1710
 1102SOL    HW114939   3.867   4.603   2.167  0.9044  1.4668  1.7558
 1102SOL    HW214940   3.980   4.525   2.104  1.5105  0.7850 -0.9394
 1103SOL     OW14941   3.706   4.487   4.952 -0.3820 -0.0738 -0.7502
 1103SOL    HW114942   3.736   4.402   4.920 -1.8926 -0.6129 -0.7159
 1103SOL    HW214943   3.617   4.492   4.917 -0.8727  3.0811  0.9389
 1104SOL     OW14944   2.301   4.645   1.886  0.0190 -0.0514  0.1103
 1104SOL    HW114945   2.255   4.726   1.911  0.8382  0.5002 -0.1668
 1104SOL    HW214946   2.351   4.621   1.965  0.5876  1.7439  0.3061
 1105SOL     OW14947   2.527   0.040  17.368  0.2991  0.1798 -0.4631
 1105SOL    HW114948   2.502   4.722  17.442 -0.7691  0.9847 -0.2197
 1105SOL    HW214949   2.470   0.003  17.300 -0.6417  2.8074 -1.1082
 1106SOL     OW14950   2.074   3.167   0.165 -0.1441 -0.0223  0.0848
 1106SOL    HW114951   2.023   3.207   0.094 -2.0009 -0.5735  1.1172
 1106SOL    HW214952   2.156   3.143   0.122 -0.3599 -0.9039  0.1798
 1107SOL     OW14953   3.060   3.923  10.252 -0.0804  0.2054  0.1316
 1107SOL    HW114954   3.085   3.844  10.204  2.3220  0.7587  0.4728
 1107SOL    HW214955   3.004   3.881  10.317  0.0863  0.7412  0.6238
 1108SOL     OW14956   3.019   0.818   5.430 -0.0635  0.5677 -0.0072
 1108SOL    HW114957   3.085   0.827   5.499  0.6765  2.3067 -0.9619
 1108SOL    HW214958   3.029   0.725   5.408 -0.3684  0.1053  1.8259
 1109SOL     OW14959   1.424   2.427   1.797  0.2784  0.0534  0.2801
 1109SOL    HW114960   1.477   2.488   1.745 -0.4539  1.3435  1.0416
 1109SOL    HW214961   1.353   2.489   1.817  0.2635  0.3963 -0.8335
 1110SOL     OW14962   0.076   1.141   2.868 -0.4025 -0.6368 -0.1484
 1110SOL    HW114963   0.145   1.085   2.831 -0.6074 -0.6635 -0.4918
 1110SOL    HW214964   0.001   1.090   2.835 -1.3880  0.6487  0.1127
 1111SOL     OW14965   4.524   2.111  11.003  0.2892 -0.1055  0.1025
 1111SOL    HW114966   4.460   2.169  11.044 -0.7489 -0.7149 -0.6503
 1111SOL    HW214967   4.602   2.108  11.058 -0.4988  0.9798  1.2802
 1112SOL     OW14968   2.582   2.355   5.761  0.5371  0.2756  0.0228
 1112SOL    HW114969   2.586   2.259   5.768 -0.5017  0.2694  0.5427
 1112SOL    HW214970   2.671   2.376   5.786  1.1073  1.6259 -3.1689
 1113SOL     OW14971   2.133   0.377   7.075  0.6017 -0.4872  0.5431
 1113SOL    HW114972   2.155   0.289   7.045 -2.6821 -0.7445 -1.1264
 1113SOL    HW214973   2.041   0.356   7.096  0.8102  0.1404  2.1131
 1114SOL     OW14974   3.813   4.139   3.624  0.2665  0.0572 -0.1266
 1114SOL    HW114975   3.904   4.136   3.595 -0.0904 -0.7956 -1.1692
 1114SOL    HW214976   3.816   4.095   3.709  1.4284  0.3177 -0.0327
 1115SOL     OW14977   0.829   0.537  11.263 -0.0632  0.8668  0.0533
 1115SOL    HW114978   0.873   0.570  11.342 -0.9950  1.5847  0.2677
 1115SOL    HW214979   0.832   0.441  11.261  0.9139  0.9127 -0.9432
 1116SOL     OW14980   0.841   2.804   6.650 -0.5534  0.2512 -0.1262
 1116SOL    HW114981   0.818   2.829   6.560 -1.4119  0.2500  0.0920
 1116SOL    HW214982   0.760   2.827   6.695 -0.8478  0.7267 -0.9045
 1117SOL     OW14983   2.798   3.803   6.051  0.3095  0.1013 -0.5752
 1117SOL    HW114984   2.804   3.733   6.116 -1.9832 -0.4452 -0.9389
 1117SOL    HW214985   2.879   3.854   6.055 -0.1475  0.7346  1.0421
 1118SOL     OW14986   2.686   2.666   8.057  0.2797  0.3420  0.3491
 1118SOL    HW114987   2.733   2.646   8.138 -1.2535 -0.0465  1.1357
 1118SOL    HW214988   2.710   2.756   8.034  2.8933 -0.9187 -1.9158
 1119SOL     OW14989   2.889   0.227   8.725 -0.4644  0.0427  1.0006
 1119SOL    HW114990   2.862   0.138   8.703 -0.2576  0.1561  0.2779
 1119SOL    HW214991   2.827   0.290   8.689  0.1557  0.4367  0.6119
 1120SOL     OW14992   3.007   3.856   4.103 -0.7994  0.7141  0.4828
 1120SOL    HW114993   3.094   3.822   4.087  0.1856  3.5154 -0.1315
 1120SOL    HW214994   2.991   3.828   4.193  3.6852  0.6132  1.2028
 1121SOL     OW14995   2.546   1.968   2.541 -0.0970 -0.4144 -0.2751
 1121SOL    HW114996   2.561   2.059   2.515  0.3362 -0.8723 -1.6355
 1121SOL    HW214997   2.451   1.960   2.554 -0.1251 -0.0857 -0.2900
 1122SOL     OW14998   0.957   4.147   8.031 -0.2503 -0.2754  0.3950
 1122SOL    HW114999   0.979   4.077   7.969  0.7554 -0.7297  1.2515
 1122SOL    HW215000   0.921   4.216   7.977  0.0992  0.8342  1.5934
 1123SOL     OW15001   1.469   4.064  15.733  0.1340  0.2527 -0.2344
 1123SOL    HW115002   1.388   4.047  15.684 -0.3616 -1.4536  1.1756
 1123SOL    HW215003   1.505   4.140  15.687 -1.1735  0.2754 -1.2335
 1124SOL     OW15004   3.369   2.918   2.338  0.1459 -0.3252  0.3956
 1124SOL    HW115005   3.405   2.830   2.327  0.5706  0.0251 -0.9327
 1124SOL    HW215006   3.303   2.926   2.269 -1.5449 -3.6440  1.5980
 1125SOL     OW15007   0.691   1.407   2.059  0.2836 -1.2020 -0.0576
 1125SOL    HW115008   0.598   1.412   2.080  0.5932  0.1161  1.0135
 1125SOL    HW215009   0.722   1.467   2.126 -0.0016  2.1068 -2.9119
 1126SOL     OW15010   0.980   3.574   6.030 -0.0042 -0.0275  0.7555
 1126SOL    HW115011   0.885   3.571   6.024  0.1003  0.2827 -0.9218
 1126SOL    HW215012   1.005   3.487   5.998  0.6701  1.3413 -2.3551
 1127SOL     OW15013   4.590   1.362   9.959  0.6793 -0.3011  0.1202
 1127SOL    HW115014   4.665   1.412   9.990  0.9286 -1.2172  0.9892
 1127SOL    HW215015   4.640   1.305   9.901 -1.0635 -2.4532  0.7049
 1128SOL     OW15016   2.091   0.791  13.250 -0.9196  0.2201  0.0161
 1128SOL    HW115017   2.098   0.824  13.161 -1.6601  0.1252 -0.0737
 1128SOL    HW215018   2.089   0.696  13.237  1.6652  0.1110  0.2712
 1129SOL     OW15019   1.645   4.694  11.318  0.1490 -0.1057  0.0387
 1129SOL    HW115020   1.605   4.611  11.343  3.1716 -1.5505  0.1891
 1129SOL    HW215021   1.733   4.657  11.307 -0.3369 -0.8933 -1.1831
 1130SOL     OW15022   0.096   0.972   6.010 -0.4955  0.0192 -0.2447
 1130SOL    HW115023   0.111   0.913   6.084 -1.7497 -1.0909 -0.8788
 1130SOL    HW215024   0.010   0.956   5.971  0.5369  1.0249 -2.9348
 1131SOL     OW15025   2.944   1.559   4.512 -0.0410  0.2108 -0.3385
 1131SOL    HW115026   2.998   1.631   4.543 -0.0793  0.6223 -1.2295
 1131SOL    HW215027   2.910   1.534   4.598  0.0153  1.7114  0.1105
 1132SOL     OW15028   1.497   4.649  16.837  0.2251  0.0126 -0.0450
 1132SOL    HW115029   1.463   4.730  16.874 -0.3514  0.3139 -1.2325
 1132SOL    HW215030   1.404   4.629  16.827  0.2738 -0.3090  0.1340
 1133SOL     OW15031   1.043   1.430   0.944 -0.1285  0.2437 -0.1969
 1133SOL    HW115032   1.116   1.376   0.912 -0.9907 -1.0255 -0.0088
 1133SOL    HW215033   1.017   1.472   0.862  1.0432  0.9910 -0.1909
 1134SOL     OW15034   0.373   3.481   6.300 -0.3632  0.4148 -0.1065
 1134SOL    HW115035   0.284   3.507   6.276 -1.5018 -1.6566  1.8559
 1134SOL    HW215036   0.369   3.490   6.395  1.2663  1.6839 -0.1567
 1135SOL     OW15037   3.405   4.009   9.203  0.1320 -0.3063  0.3461
 1135SOL    HW115038   3.326   3.956   9.216 -0.5697  0.6804  0.1461
 1135SOL    HW215039   3.432   3.975   9.118  1.7072 -0.5159  0.9416
 1136SOL     OW15040   1.611   2.819   2.810 -0.8503  0.2007  0.1055
 1136SOL    HW115041   1.659   2.879   2.752 -0.0074 -1.7846 -1.2287
 1136SOL    HW215042   1.553   2.784   2.744 -0.8554 -1.0200  0.7589
 1137SOL     OW15043   1.374   2.416  17.105 -0.3265  0.5092  0.3881
 1137SOL    HW115044   1.419   2.427  17.022  0.1926 -2.2540  0.3002
 1137SOL    HW215045   1.311   2.489  17.106 -1.3460 -0.3505 -1.1417
 1138SOL     OW15046   0.197   3.239   6.582  0.5750  0.7589 -0.0784
 1138SOL    HW115047   0.116   3.226   6.631  2.3510  1.7501  3.1131
 1138SOL    HW215048   0.189   3.170   6.516 -2.7582  1.5454 -0.4709
 1139SOL     OW15049   2.152   2.244   4.930 -0.1525  0.6335 -0.2337
 1139SOL    HW115050   2.205   2.203   4.862 -0.3464  1.0798 -0.6542
 1139SOL    HW215051   2.213   2.310   4.962  0.4177  0.2058 -0.4501
 1140SOL     OW15052   1.600   2.154   6.977  0.3042 -0.7202  0.2453
 1140SOL    HW115053   1.560   2.128   7.060 -0.9287 -0.5432 -0.3055
 1140SOL    HW215054   1.690   2.124   6.990 -0.0306 -1.3851  1.0264
 1141SOL     OW15055   0.785   1.404   3.541  0.0115  0.3612  0.1673
 1141SOL    HW115056   0.741   1.319   3.541  0.8191 -0.0575 -0.4195
 1141SOL    HW215057   0.876   1.386   3.517  1.0200 -0.0107  4.2804
 1142SOL     OW15058   0.090   0.071  16.872 -0.0230 -0.1285  0.2732
 1142SOL    HW115059   0.011   0.020  16.891 -0.1022  0.0753  0.4890
 1142SOL    HW215060   0.111   0.114  16.955  4.0756 -1.5623 -0.0270
 1143SOL     OW15061   2.955   0.771  12.736 -0.3105 -0.9832 -0.5109
 1143SOL    HW115062   2.997   0.696  12.695  0.7818 -0.0228 -1.1547
 1143SOL    HW215063   2.891   0.783  12.666 -0.0832 -0.7142 -0.6739
 1144SOL     OW15064   2.057   0.927  10.644 -0.3935 -0.2763  0.0251
 1144SOL    HW115065   2.017   1.001  10.598  0.2367 -0.0248 -0.1099
 1144SOL    HW215066   1.973   0.882  10.656  0.4820 -1.2555  2.3731
 1145SOL     OW15067   3.390   0.040   2.204 -0.1738 -0.8788 -0.2873
 1145SOL    HW115068   3.363   0.110   2.144 -0.0821 -1.0732 -0.5549
 1145SOL    HW215069   3.421   4.715   2.139 -0.1043 -0.4597 -0.6587
 1146SOL     OW15070   0.507   1.768   8.135 -0.1203 -0.4361  0.1238
 1146SOL    HW115071   0.426   1.718   8.129  0.3627 -0.9984 -1.7456
 1146SOL    HW215072   0.574   1.700   8.122 -0.2679 -0.4208 -0.7108
 1147SOL     OW15073   3.838   2.042   4.284  0.3847 -0.6259  0.2116
 1147SOL    HW115074   3.852   2.018   4.376  3.0291 -0.3091 -0.1199
 1147SOL    HW215075   3.801   1.959   4.253 -0.1933  0.2505 -1.4620
 1148SOL     OW15076   0.110   3.858   3.593 -0.0560  0.4382  0.2302
 1148SOL    HW115077   0.061   3.784   3.560  1.5108 -0.3616 -0.2986
 1148SOL    HW215078   0.055   3.930   3.562  1.9960  2.0002  0.1788
 1149SOL     OW15079   0.855   0.360  13.710  0.6936  0.9384 -0.0719
 1149SOL    HW115080   0.899   0.283  13.745  0.3173  0.1449 -1.3767
 1149SOL    HW215081   0.880   0.424  13.777  0.8579  0.7343  0.0598
 1150SOL     OW15082   1.507   0.718   1.253 -0.3570  0.0515 -0.1111
 1150SOL    HW115083   1.545   0.776   1.186  1.6377  1.4670  2.2392
 1150SOL    HW215084   1.432   0.768   1.284 -2.1565 -2.2507 -0.7716
 1151SOL     OW15085   2.604   3.677   8.154 -0.6467  0.3755  0.5113
 1151SOL    HW115086   2.658   3.755   8.140 -0.7709  0.5544  1.0169
 1151SOL    HW215087   2.633   3.616   8.087 -2.7646  1.2174 -1.1924
 1152SOL     OW15088   4.243   3.660   2.655  0.3011  0.0591  0.2913
 1152SOL    HW115089   4.290   3.630   2.577  1.9625  0.4812  1.1106
 1152SOL    HW215090   4.309   3.709   2.705 -2.6920  2.7743  1.5323
 1153SOL     OW15091   2.249   0.226   1.456 -0.0991 -0.2004  0.9373
 1153SOL    HW115092   2.288   0.246   1.541  0.9852 -0.4365  0.4861
 1153SOL    HW215093   2.239   0.316   1.426 -2.4398 -1.4174 -1.9919
 1154SOL     OW15094   0.091   0.229  10.310  0.1277 -0.5067 -0.8861
 1154SOL    HW115095   0.109   0.150  10.361  4.1341 -0.2485 -1.8791
 1154SOL    HW215096   4.733   0.233  10.296  0.0018  0.0720  0.1535
 1155SOL     OW15097   3.407   4.241   3.648 -0.1196 -0.2623  0.1843
 1155SOL    HW115098   3.395   4.189   3.727  1.0879 -0.0356  0.5099
 1155SOL    HW215099   3.388   4.326   3.686 -0.8905  1.1230 -3.2712
 1156SOL     OW15100   3.319   2.320  13.837 -0.0239  0.5119  0.6735
 1156SOL    HW115101   3.282   2.408  13.843  0.7600  0.8545  0.3702
 1156SOL    HW215102   3.407   2.334  13.870  0.3964 -0.0882 -0.1960
 1157SOL     OW15103   1.510   2.810   8.513  0.1161  0.3623 -0.2021
 1157SOL    HW115104   1.445   2.852   8.456 -1.4063  0.1751  1.3666
 1157SOL    HW215105   1.572   2.776   8.449 -1.0237  1.0635 -1.6634
 1158SOL     OW15106   3.200   2.900   8.021  0.3848  0.1404  0.3475
 1158SOL    HW115107   3.214   2.994   8.010 -1.9661  0.4800  0.0631
 1158SOL    HW215108   3.223   2.858   7.938 -2.4458  1.6690 -1.2257
 1159SOL     OW15109   3.685   4.349   7.411 -0.0107 -0.4205 -0.6177
 1159SOL    HW115110   3.625   4.312   7.346 -0.2419 -0.4988 -0.3603
 1159SOL    HW215111   3.698   4.436   7.374 -0.3529  0.0488  0.3695
 1160SOL     OW15112   4.586   1.695   2.709 -0.3189  0.0358 -0.0394
 1160SOL    HW115113   4.589   1.600   2.722  0.5712 -0.2541 -2.4989
 1160SOL    HW215114   4.627   1.725   2.791 -1.2282 -2.9162  1.5222
 1161SOL     OW15115   0.606   3.576   3.293  0.4543 -0.5655  0.6312
 1161SOL    HW115116   0.574   3.624   3.217  2.1833 -0.6194 -0.1329
 1161SOL    HW215117   0.670   3.519   3.251  0.5894 -0.7244  1.0503
 1162SOL     OW15118   4.156   3.182   5.081 -0.1254 -0.2359  0.0932
 1162SOL    HW115119   4.222   3.144   5.024 -0.6615 -2.4176  0.9188
 1162SOL    HW215120   4.172   3.124   5.156  1.7590  1.0447  0.6712
 1163SOL     OW15121   0.754   1.442   7.079 -0.1820 -0.2633  0.0116
 1163SOL    HW115122   0.749   1.353   7.044 -0.2827 -0.2053 -0.1261
 1163SOL    HW215123   0.691   1.488   7.023  1.3392  0.1804 -1.3235
 1164SOL     OW15124   4.085   3.127  11.685 -1.0319  0.5363 -0.4449
 1164SOL    HW115125   4.135   3.120  11.766 -0.1184  0.2751 -1.0396
 1164SOL    HW215126   4.019   3.059  11.700  0.7775 -1.1406 -0.1138
 1165SOL     OW15127   2.142   3.770   7.401 -0.4997  0.0078 -0.1607
 1165SOL    HW115128   2.179   3.788   7.315 -1.1563 -2.8424 -1.0531
 1165SOL    HW215129   2.218   3.728   7.441  0.5766  1.9567 -0.1649
 1166SOL     OW15130   1.700   2.040   5.766  0.6037 -0.1144 -0.0527
 1166SOL    HW115131   1.724   2.132   5.758 -0.1229  0.0052 -0.7670
 1166SOL    HW215132   1.655   2.039   5.851 -0.2085 -2.2487 -0.5154
 1167SOL     OW15133   1.673   4.196   2.117  0.2999  0.3644  0.4925
 1167SOL    HW115134   1.589   4.221   2.080 -0.4188  0.3471  2.1258
 1167SOL    HW215135   1.646   4.178   2.207 -1.3030 -0.6371 -0.2051
 1168SOL     OW15136   2.316   2.465  14.227  0.0148  0.1427 -0.7489
 1168SOL    HW115137   2.319   2.476  14.132 -0.2158  0.5702 -0.7059
 1168SOL    HW215138   2.294   2.555  14.252 -0.7367  0.3006 -2.0138
 1169SOL     OW15139   1.179   2.152   7.665 -0.2635 -0.0712 -0.3450
 1169SOL    HW115140   1.123   2.111   7.599 -1.0260 -1.6780  1.2890
 1169SOL    HW215141   1.154   2.108   7.747 -1.0681 -0.0326 -0.5714
 1170SOL     OW15142   4.346   0.229   5.723 -0.0682 -0.4042  0.5658
 1170SOL    HW115143   4.269   0.227   5.780 -1.3030  0.5848 -1.0995
 1170SOL    HW215144   4.407   0.171   5.771  0.5160 -1.6559 -1.6861
 1171SOL     OW15145   2.415   4.451  12.681  0.0876 -0.3765 -0.1959
 1171SOL    HW115146   2.506   4.478  12.690  0.0245 -0.3788  0.5006
 1171SOL    HW215147   2.405   4.435  12.587 -1.2338  3.1382 -0.6376
 1172SOL     OW15148   3.904   2.973   7.617 -0.2007 -0.0846 -0.2842
 1172SOL    HW115149   3.885   2.901   7.557 -1.9025 -0.0744  0.2388
 1172SOL    HW215150   3.864   2.941   7.698 -2.2704 -0.3056 -1.4003
 1173SOL     OW15151   0.321   0.392  12.320 -0.0535  0.3837 -0.1476
 1173SOL    HW115152   0.347   0.415  12.410  0.3772  1.0105 -0.4307
 1173SOL    HW215153   0.271   0.469  12.294  0.3027  0.3503 -0.9219
 1174SOL     OW15154   0.633   2.172  12.127  0.6416  0.3181  0.4476
 1174SOL    HW115155   0.674   2.258  12.116  1.2816 -0.1852 -1.2194
 1174SOL    HW215156   0.615   2.169  12.221 -0.0619 -2.0498  0.2584
 1175SOL     OW15157   0.634   3.577   4.774 -0.4473 -0.0267 -0.0221
 1175SOL    HW115158   0.723   3.583   4.739 -0.3408 -2.6626 -0.1938
 1175SOL    HW215159   0.631   3.487   4.804 -2.9742  0.7699  2.0928
 1176SOL     OW15160   1.273   3.883   8.893  0.2188  0.3544 -0.5285
 1176SOL    HW115161   1.328   3.953   8.859  1.6246  0.8087  2.6446
 1176SOL    HW215162   1.253   3.843   8.808 -0.8120 -0.4205  0.0746
 1177SOL     OW15163   0.056   1.266  16.783 -0.0483 -0.3364  0.5260
 1177SOL    HW115164   0.012   1.195  16.737  1.0599 -1.7553  1.6656
 1177SOL    HW215165   0.149   1.242  16.786  0.1758  0.3924 -0.4538
 1178SOL     OW15166   0.493   2.585   7.137 -0.1262 -0.6144 -0.1694
 1178SOL    HW115167   0.486   2.591   7.232 -0.7890  0.8806 -0.3028
 1178SOL    HW215168   0.437   2.656   7.105 -0.8599 -0.1670  2.1240
 1179SOL     OW15169   2.918   4.220   1.751  0.0086  0.0970 -0.5549
 1179SOL    HW115170   2.885   4.165   1.822  1.4462  0.4334  0.3753
 1179SOL    HW215171   3.008   4.187   1.742 -0.4635 -1.5268  0.6115
 1180SOL     OW15172   1.951   1.425   3.596  0.2875  0.4955 -0.8512
 1180SOL    HW115173   1.894   1.476   3.654  0.3048 -1.0858  0.5756
 1180SOL    HW215174   2.038   1.460   3.612 -0.0876  1.0390  0.0285
 1181SOL     OW15175   3.599   4.245   3.476  0.1081 -0.4176  0.1192
 1181SOL    HW115176   3.523   4.252   3.534  0.6423 -2.3984  1.0381
 1181SOL    HW215177   3.668   4.212   3.534 -0.2194  0.0896  0.8002
 1182SOL     OW15178   0.372   2.361   3.555 -0.3303 -0.2640 -1.2378
 1182SOL    HW115179   0.296   2.402   3.597  0.1269 -1.7040  0.9767
 1182SOL    HW215180   0.340   2.273   3.536 -1.7964  0.2906 -1.3254
 1183SOL     OW15181   3.376   2.173   7.838 -0.0400  0.5189  0.2818
 1183SOL    HW115182   3.298   2.228   7.839 -0.2816  0.1742  0.0518
 1183SOL    HW215183   3.339   2.085   7.838  1.0911  0.0429  1.9349
 1184SOL     OW15184   0.884   3.609  12.734  0.7716  0.0395  0.1497
 1184SOL    HW115185   0.887   3.514  12.726  2.1496  0.2496 -1.8908
 1184SOL    HW215186   0.909   3.607  12.826 -2.5204 -2.1766  1.0030
 1185SOL     OW15187   3.590   1.950   3.207 -0.0394  0.0087 -0.2225
 1185SOL    HW115188   3.522   1.885   3.222 -0.5412  0.2941 -1.2383
 1185SOL    HW215189   3.636   1.907   3.135  0.8281  0.4439  0.0727
 1186SOL     OW15190   2.258   0.325   3.590  0.4078 -0.1732  0.1039
 1186SOL    HW115191   2.245   0.419   3.593  0.1382 -0.1177 -2.9777
 1186SOL    HW215192   2.319   0.322   3.516  0.0533  1.5340 -0.2594
 1187SOL     OW15193   2.022   3.757   3.660 -0.0209 -0.5392  0.0516
 1187SOL    HW115194   2.001   3.850   3.665 -2.7608 -1.0521 -2.1418
 1187SOL    HW215195   2.023   3.739   3.754  0.4988 -1.0916 -0.0606
 1188SOL     OW15196   3.979   4.587  13.646 -0.5001 -0.3883 -0.5408
 1188SOL    HW115197   4.050   4.547  13.596  0.3333  0.3384  0.0449
 1188SOL    HW215198   4.022   4.614  13.727  0.4291  0.3754 -1.2817
 1189SOL     OW15199   1.111   3.829   6.976  0.3027  0.0355 -0.3530
 1189SOL    HW115200   1.087   3.843   7.067  1.0611  0.4554 -0.2240
 1189SOL    HW215201   1.032   3.853   6.926  2.0486  0.8111 -2.7460
 1190SOL     OW15202   0.552   0.761  12.094  0.1726 -0.2825 -0.1022
 1190SOL    HW115203   0.523   0.771  12.185  0.0446 -1.2519 -0.0356
 1190SOL    HW215204   0.511   0.842  12.061  0.3560 -0.3724 -0.5441
 1191SOL     OW15205   1.548   1.461   6.787 -0.4640 -0.6385  0.0243
 1191SOL    HW115206   1.518   1.450   6.878 -0.4816  0.9563  0.2040
 1191SOL    HW215207   1.550   1.557   6.792 -0.8933 -0.4812 -3.3510
 1192SOL     OW15208   0.647   4.659   4.711 -0.0844  0.3040 -0.4171
 1192SOL    HW115209   0.624   4.579   4.664  0.7299  1.3585 -2.6087
 1192SOL    HW215210   0.611   4.729   4.657 -0.1966  0.4302 -0.1816
 1193SOL     OW15211   0.439   1.466   2.074 -0.1806  0.0009  0.3232
 1193SOL    HW115212   0.475   1.552   2.094 -1.9285  0.9820 -0.7824
 1193SOL    HW215213   0.344   1.477   2.085  0.0468  0.7317  1.5506
 1194SOL     OW15214   3.682   2.425   7.286  0.1644 -0.2312 -0.8662
 1194SOL    HW115215   3.619   2.484   7.245 -0.6770  0.2898  1.1693
 1194SOL    HW215216   3.653   2.413   7.377  1.1739  1.9876 -0.2342
 1195SOL     OW15217   2.139   0.673  10.908 -0.4414 -0.1085 -0.6761
 1195SOL    HW115218   2.109   0.582  10.905 -2.0703  0.3968  0.0155
 1195SOL    HW215219   2.213   0.681  10.848  0.7842  0.3674  0.8981
 1196SOL     OW15220   4.077   3.198   6.878 -0.0919 -0.1507  0.0348
 1196SOL    HW115221   4.151   3.155   6.836 -2.0770 -3.1978 -0.3099
 1196SOL    HW215222   4.121   3.281   6.897  1.4820 -0.4245 -2.5045
 1197SOL     OW15223   3.486   0.892   3.315  0.4233  0.0762  0.5781
 1197SOL    HW115224   3.404   0.870   3.271 -0.4144  1.1268  1.6089
 1197SOL    HW215225   3.453   0.931   3.396  0.1995 -0.7520  0.8827
 1198SOL     OW15226   2.293   0.581   2.458  0.0126  0.5432 -0.8698
 1198SOL    HW115227   2.223   0.532   2.501  1.6092  0.3445  1.5459
 1198SOL    HW215228   2.252   0.588   2.372 -1.0430  1.8247 -0.2612
 1199SOL     OW15229   3.019   1.955   4.178 -0.2615 -0.5958 -0.0522
 1199SOL    HW115230   2.929   1.986   4.188 -0.3702 -0.6919 -0.7184
 1199SOL    HW215231   3.012   1.889   4.108  0.2318  0.0002 -0.6640
 1200SOL     OW15232   0.401   0.051  16.181 -0.0927  0.5229  0.2723
 1200SOL    HW115233   0.470   0.017  16.125 -0.2797 -1.1711  1.0919
 1200SOL    HW215234   0.439   0.138  16.189 -0.4134  0.6024  0.9156
 1201SOL     OW15235   1.179   0.892  11.750 -0.4090 -0.6559  0.3490
 1201SOL    HW115236   1.156   0.892  11.657 -0.7876 -1.1231  0.4413
 1201SOL    HW215237   1.090   0.903  11.782 -0.4583 -1.2968  0.4338
 1202SOL     OW15238   1.801   2.345   2.471 -0.2014  0.5369 -0.2718
 1202SOL    HW115239   1.745   2.269   2.457 -1.2726  1.0528  1.2397
 1202SOL    HW215240   1.877   2.323   2.417 -1.0058  2.1296 -2.0570
 1203SOL     OW15241   1.167   2.466  12.601 -1.3802 -0.0827 -0.1643
 1203SOL    HW115242   1.158   2.561  12.594  0.1405 -0.1012 -2.5169
 1203SOL    HW215243   1.125   2.428  12.524  0.6439 -0.5927 -1.0211
 1204SOL     OW15244   0.145   1.532  16.255 -0.1125  0.1793 -0.2515
 1204SOL    HW115245   0.191   1.495  16.330 -1.2376 -1.3207 -0.3062
 1204SOL    HW215246   0.183   1.619  16.244  0.0923 -0.0318 -1.2522
 1205SOL     OW15247   2.054   1.163  17.009  0.1101  0.3832  0.4448
 1205SOL    HW115248   1.991   1.208  16.953  0.1468 -0.5759 -0.3638
 1205SOL    HW215249   2.132   1.219  17.002 -0.0250  0.8117  2.4669
 1206SOL     OW15250   1.141   1.399   1.212 -0.4689 -0.4275  0.2047
 1206SOL    HW115251   1.127   1.417   1.118 -1.9868 -1.6162  0.1981
 1206SOL    HW215252   1.094   1.316   1.220  0.5155 -0.9192  0.8734
 1207SOL     OW15253   1.498   2.887   4.047  0.0142 -0.5622  0.2697
 1207SOL    HW115254   1.564   2.861   4.111 -1.0367 -1.1348  1.1323
 1207SOL    HW215255   1.561   2.906   3.978 -1.2013 -0.5397 -0.8378
 1208SOL     OW15256   1.493   1.458  17.147  0.2388 -0.1017 -0.3358
 1208SOL    HW115257   1.564   1.518  17.170  1.2725 -1.2410 -0.5388
 1208SOL    HW215258   1.507   1.403  17.224 -1.5183 -0.4877 -0.2962
 1209SOL     OW15259   1.510   4.556   3.964  0.0161 -0.4779  0.3368
 1209SOL    HW115260   1.570   4.585   3.895 -0.8292 -0.2257 -0.3060
 1209SOL    HW215261   1.561   4.540   4.043  1.9845  0.5674 -0.7225
 1210SOL     OW15262   3.749   3.014   6.600 -0.1826 -0.1756  0.1718
 1210SOL    HW115263   3.704   3.005   6.684 -0.1710 -0.2958  0.1661
 1210SOL    HW215264   3.811   3.084   6.619 -0.7381  0.9084 -2.0583
 1211SOL     OW15265   0.114   1.391   8.085  0.3739  0.2333 -0.1362
 1211SOL    HW115266   0.061   1.383   8.164  0.7950 -1.1471  0.0033
 1211SOL    HW215267   0.174   1.317   8.093  0.1140 -0.3919 -3.7025
 1212SOL     OW15268   0.928   1.675   1.913  0.5078  0.5151 -0.4549
 1212SOL    HW115269   0.978   1.595   1.923  1.3009  0.9511 -0.9335
 1212SOL    HW215270   0.998   1.741   1.914  0.6126  0.3053  3.4582
 1213SOL     OW15271   2.243   2.680   7.567  0.0125 -0.1767  0.2583
 1213SOL    HW115272   2.251   2.774   7.587  0.2232  0.1676 -1.4383
 1213SOL    HW215273   2.224   2.643   7.654 -2.5737  1.3975  0.3629
 1214SOL     OW15274   4.074   1.345  10.982  0.1674  0.0820  0.1418
 1214SOL    HW115275   3.983   1.330  11.006  0.2272  1.8976  1.5504
 1214SOL    HW215276   4.096   1.262  10.940 -0.8342 -0.2141  0.2148
 1215SOL     OW15277   0.132   0.095   9.116  0.7416 -0.0760  0.0527
 1215SOL    HW115278   0.077   0.045   9.056 -1.1077  1.4809  0.4224
 1215SOL    HW215279   0.114   0.037   9.190 -1.1933 -0.3024 -0.6067
 1216SOL     OW15280   1.118   0.159   5.366  0.5859  0.0661  0.0672
 1216SOL    HW115281   1.031   0.198   5.370 -0.0527 -1.4401  1.0562
 1216SOL    HW215282   1.105   0.075   5.323 -0.5014 -0.4383  1.3691
 1217SOL     OW15283   3.451   3.600   3.841 -0.1148  0.1913 -0.3993
 1217SOL    HW115284   3.475   3.648   3.920 -0.5624  1.1572 -0.8403
 1217SOL    HW215285   3.411   3.522   3.877 -1.2680  0.6713 -0.6379
 1218SOL     OW15286   3.151   2.816   3.967 -0.1119  0.4522 -0.3555
 1218SOL    HW115287   3.123   2.907   3.959 -0.9912  0.3504  1.4350
 1218SOL    HW215288   3.226   2.820   3.908  1.5316  1.2274  1.7860
 1219SOL     OW15289   1.869   0.587   7.259  0.0499  0.5756  0.3147
 1219SOL    HW115290   1.797   0.566   7.199  1.5078 -0.3203 -1.1071
 1219SOL    HW215291   1.829   0.571   7.344 -0.0240 -2.4213 -0.2874
 1220SOL     OW15292   0.222   1.758  17.394  0.3202 -0.2675  0.1295
 1220SOL    HW115293   0.223   1.725  17.484  1.1768  1.0047  0.5931
 1220SOL    HW215294   0.226   1.854  17.402  1.6837 -0.4295  1.5102
 1221SOL     OW15295   4.374   0.857   3.190  0.4876  0.7579 -0.3802
 1221SOL    HW115296   4.323   0.843   3.110 -0.6906 -1.5273  0.7619
 1221SOL    HW215297   4.459   0.823   3.159  0.6040  0.4556  0.2618
 1222SOL     OW15298   3.421   4.024  12.880 -0.3226  0.5151  0.0328
 1222SOL    HW115299   3.338   4.071  12.889 -0.4711  0.5042 -1.1846
 1222SOL    HW215300   3.425   3.966  12.956 -1.3507 -1.1659 -1.2057
 1223SOL     OW15301   2.107   2.567   8.306  0.3314 -0.2017  0.3025
 1223SOL    HW115302   2.161   2.639   8.273  0.0372  0.0355  0.3445
 1223SOL    HW215303   2.031   2.572   8.249 -0.7508  2.5539  1.9954
 1224SOL     OW15304   2.634   2.770   6.937  0.5399  0.7443  0.0239
 1224SOL    HW115305   2.606   2.784   6.846  0.4948 -0.8421 -0.2135
 1224SOL    HW215306   2.557   2.720   6.966  0.3235  0.2594 -1.3839
 1225SOL     OW15307   1.636   3.263   2.658  0.0140  0.0490  0.3117
 1225SOL    HW115308   1.606   3.191   2.601  0.6084 -0.6381  0.8659
 1225SOL    HW215309   1.560   3.268   2.716  0.8856  1.7233  1.2997
 1226SOL     OW15310   3.952   2.074   1.609 -0.6481  0.0147  0.0056
 1226SOL    HW115311   3.886   2.069   1.540 -2.1026  0.2882  1.3851
 1226SOL    HW215312   4.031   2.034   1.572  2.0144  2.4073  2.9660
 1227SOL     OW15313   0.677   1.400   8.315  0.4754  0.3387 -0.2468
 1227SOL    HW115314   0.749   1.355   8.360 -0.0755 -1.0613 -0.7952
 1227SOL    HW215315   0.615   1.333   8.288  1.3882 -0.7625  0.4082
 1228SOL     OW15316   3.258   2.466   6.135  0.4268  0.7147 -0.2627
 1228SOL    HW115317   3.321   2.454   6.064 -2.4092  0.5823 -2.7562
 1228SOL    HW215318   3.262   2.377   6.170  2.2995  0.7307 -0.4417
 1229SOL     OW15319   1.272   3.130  12.903  0.2762  0.6667  0.2538
 1229SOL    HW115320   1.272   3.225  12.896  1.0310  0.7290  1.0606
 1229SOL    HW215321   1.364   3.115  12.926  0.2855  1.2771  0.6118
 1230SOL     OW15322   3.113   2.049  10.426 -0.2489 -0.0404  0.1782
 1230SOL    HW115323   3.041   2.053  10.489  1.2758  0.5948  1.8638
 1230SOL    HW215324   3.120   1.954  10.420 -1.0853 -0.2291  2.0459
 1231SOL     OW15325   1.808   3.623   8.878 -0.0057 -0.1307 -0.2794
 1231SOL    HW115326   1.798   3.700   8.821  0.1828  0.1979  0.1284
 1231SOL    HW215327   1.866   3.571   8.822 -1.7785 -0.6329 -1.6329
 1232SOL     OW15328   1.394   4.533   2.636 -0.5113 -0.4649 -0.1613
 1232SOL    HW115329   1.302   4.508   2.633 -0.4634 -0.9718  2.4413
 1232SOL    HW215330   1.385   4.628   2.639 -0.3582 -0.4575  0.1407
 1233SOL     OW15331   4.113   2.191   8.025 -0.4726 -0.4146 -0.5214
 1233SOL    HW115332   4.078   2.280   8.017  0.7319  0.1414  0.5073
 1233SOL    HW215333   4.184   2.196   8.089  0.8607 -2.1482 -1.8963
 1234SOL     OW15334   3.952   1.707   9.512  0.4534  0.2131 -0.1358
 1234SOL    HW115335   3.966   1.801   9.522  2.5058  0.0638 -1.4446
 1234SOL    HW215336   4.038   1.681   9.545  0.6469  1.3152  0.2402
 1235SOL     OW15337   3.503   3.546  11.869 -0.7381  0.4162 -0.0969
 1235SOL    HW115338   3.467   3.459  11.849  1.3745 -0.1984 -1.2107
 1235SOL    HW215339   3.456   3.567  11.950  1.4774  3.5823  0.3604
 1236SOL     OW15340   2.036   3.941   4.101  0.2884  0.1622  0.0549
 1236SOL    HW115341   2.112   3.983   4.060 -0.5568  1.9785  0.3386
 1236SOL    HW215342   2.064   3.966   4.190 -0.5464  1.9700 -0.1847
 1237SOL     OW15343   0.553   0.636   5.160  0.3533  0.7218  0.0867
 1237SOL    HW115344   0.586   0.723   5.138  3.2042  0.4338  3.2071
 1237SOL    HW215345   0.462   0.656   5.181  0.3147  0.8498 -0.2085
 1238SOL     OW15346   1.876   0.756   1.643 -0.0310 -0.7368 -0.2551
 1238SOL    HW115347   1.795   0.705   1.635 -0.3769 -0.4421  1.2819
 1238SOL    HW215348   1.849   0.846   1.625  1.8846 -0.2939 -0.8836
 1239SOL     OW15349   0.059   1.413  15.542 -0.3720 -0.2301  0.0770
 1239SOL    HW115350   0.096   1.498  15.516 -0.1693  0.4521  2.6157
 1239SOL    HW215351   0.040   1.414  15.636 -1.4861  1.8477 -0.1646
 1240SOL     OW15352   3.792   3.144   4.997 -0.0845  0.4629  0.2174
 1240SOL    HW115353   3.790   3.199   4.919  1.8138  1.1845  0.6709
 1240SOL    HW215354   3.850   3.076   4.962 -1.7287 -0.2073 -1.1571
 1241SOL     OW15355   3.963   3.805   3.013 -0.1737 -0.6919 -0.2574
 1241SOL    HW115356   3.889   3.855   3.047  0.0895  0.3498 -1.2423
 1241SOL    HW215357   3.927   3.759   2.938  0.1643 -1.8622  0.2906
 1242SOL     OW15358   1.873   3.914  17.373 -0.0955  0.1422  0.1530
 1242SOL    HW115359   1.857   3.985  17.312  2.5173 -0.8823 -1.7190
 1242SOL    HW215360   1.783   3.885  17.391  0.2168 -0.8166  0.1625
 1243SOL     OW15361   1.047   1.157  16.435  0.0120 -0.0265 -0.1779
 1243SOL    HW115362   1.072   1.205  16.356  0.0262 -3.4057 -2.1958
 1243SOL    HW215363   1.132   1.150  16.478  0.5615  0.1502 -1.2298
 1244SOL     OW15364   4.402   1.552   7.350  0.6216  0.4736  0.3775
 1244SOL    HW115365   4.357   1.472   7.322  0.1645  0.6085  0.7429
 1244SOL    HW215366   4.493   1.521   7.345  0.3611  0.3832 -3.9127
 1245SOL     OW15367   0.355   3.488   3.254 -0.2277  0.3131  0.2492
 1245SOL    HW115368   0.311   3.573   3.247  2.0514  1.4741 -0.1843
 1245SOL    HW215369   0.448   3.512   3.266 -0.5663  1.4464  0.6694
 1246SOL     OW15370   4.338   0.690   7.481 -0.4345 -0.4403  0.1399
 1246SOL    HW115371   4.392   0.683   7.560 -0.1341  0.1161 -0.0172
 1246SOL    HW215372   4.281   0.615   7.499 -1.2052  0.2962  0.8094
 1247SOL     OW15373   2.297   0.384   9.403 -0.3521 -0.5723 -0.6627
 1247SOL    HW115374   2.276   0.352   9.315 -1.0659  1.3218 -1.1727
 1247SOL    HW215375   2.304   0.305   9.456 -2.1834  0.3491  0.9488
 1248SOL     OW15376   2.480   0.032   7.271  0.4967  0.1125 -0.1406
 1248SOL    HW115377   2.425   0.061   7.198 -0.4695  0.4168  0.7067
 1248SOL    HW215378   2.496   4.676   7.254  0.9012  0.0030  0.8855
 1249SOL     OW15379   2.907   0.834   7.674  0.2888  0.2049  0.5337
 1249SOL    HW115380   2.901   0.739   7.664 -1.0837  0.2764  0.7009
 1249SOL    HW215381   2.820   0.859   7.704 -1.0130 -1.9600 -1.4064
 1250SOL     OW15382   2.720   4.603  16.930 -0.1834 -0.1117 -0.0005
 1250SOL    HW115383   2.762   4.517  16.926 -2.3036 -1.0886 -1.2005
 1250SOL    HW215384   2.629   4.583  16.952 -0.7398  1.6300 -0.7501
 1251SOL     OW15385   2.591   2.973   8.566 -0.1760  0.5537 -0.2178
 1251SOL    HW115386   2.508   2.996   8.524  0.2205  1.8865 -0.2771
 1251SOL    HW215387   2.640   2.950   8.487 -2.5640 -0.3523 -1.4596
 1252SOL     OW15388   0.050   4.609   7.789 -0.0302  0.2411  0.4497
 1252SOL    HW115389   0.120   4.621   7.854 -0.6595 -0.5720  1.2673
 1252SOL    HW215390   0.065   4.514   7.789 -0.8758  0.1171  2.5698
 1253SOL     OW15391   0.718   0.966   8.013 -0.3176  0.1598  0.0997
 1253SOL    HW115392   0.658   0.964   7.937 -0.9538 -0.2508  0.6129
 1253SOL    HW215393   0.730   1.061   8.015  2.0869 -0.1305 -0.9307
 1254SOL     OW15394   2.909   1.126  15.918 -0.0252  0.1882 -0.1029
 1254SOL    HW115395   2.889   1.034  15.905  0.3956  0.1718 -0.6500
 1254SOL    HW215396   2.930   1.140  15.825 -1.3773  1.3069 -0.2571
 1255SOL     OW15397   0.834   3.863   3.825  0.0900  0.4816  0.0100
 1255SOL    HW115398   0.809   3.890   3.914 -0.9408 -0.1129 -0.0966
 1255SOL    HW215399   0.783   3.922   3.770 -0.3105 -0.0301 -0.1662
 1256SOL     OW15400   4.325   3.198  11.364  0.3591 -0.4821 -0.0789
 1256SOL    HW115401   4.360   3.230  11.280 -1.3465  0.8971 -0.2594
 1256SOL    HW215402   4.404   3.166  11.407 -0.4660 -1.4366  0.6991
 1257SOL     OW15403   1.857   0.720   9.233 -0.0897 -0.2272 -0.1320
 1257SOL    HW115404   1.897   0.703   9.147 -1.4218 -0.1444 -0.7779
 1257SOL    HW215405   1.902   0.655   9.287 -1.1823 -0.5062  0.4516
 1258SOL     OW15406   4.069   2.322   6.766  0.6997  0.1103  0.2237
 1258SOL    HW115407   3.988   2.293   6.724  0.1878  0.5797  0.8928
 1258SOL    HW215408   4.136   2.278   6.714  0.1697 -0.6882  0.2137
 1259SOL     OW15409   0.182   2.648  14.308  0.0176  0.4268  0.5767
 1259SOL    HW115410   0.255   2.647  14.247 -1.1107 -2.1116 -0.7690
 1259SOL    HW215411   0.216   2.592  14.378  3.0068  0.8920 -0.5072
 1260SOL     OW15412   2.122   0.550   3.008  0.6220  0.1070 -0.7117
 1260SOL    HW115413   2.135   0.518   3.098  0.4063  2.1285  0.0466
 1260SOL    HW215414   2.041   0.505   2.984  0.4650  0.6427 -1.1598
 1261SOL     OW15415   4.470   1.111   2.590 -0.2391  0.6361  0.3474
 1261SOL    HW115416   4.378   1.098   2.613  0.3031  0.4007  2.3013
 1261SOL    HW215417   4.459   1.082   2.499 -0.2403 -0.0547  0.5632
 1262SOL     OW15418   2.311   2.254   2.139 -0.1918 -0.2286 -0.1029
 1262SOL    HW115419   2.263   2.322   2.092  0.4817  0.9562  0.9404
 1262SOL    HW215420   2.394   2.301   2.147 -0.9604  1.3968 -1.6204
 1263SOL     OW15421   2.498   1.222   3.227  0.1631  0.3661  0.6967
 1263SOL    HW115422   2.573   1.281   3.226  0.4690 -0.0292 -0.6214
 1263SOL    HW215423   2.427   1.272   3.185  0.7059 -0.5656 -1.3549
 1264SOL     OW15424   3.795   2.773  11.588  0.2090  0.2007 -0.3736
 1264SOL    HW115425   3.849   2.801  11.514  0.0985  1.2064 -0.0786
 1264SOL    HW215426   3.817   2.681  11.599  0.2086  0.2034 -0.3493
 1265SOL     OW15427   3.577   2.416  13.652 -0.3548  0.0880 -0.6370
 1265SOL    HW115428   3.565   2.476  13.726 -0.5482 -1.3412  0.5018
 1265SOL    HW215429   3.510   2.348  13.652  1.4289 -1.6791 -2.8724
 1266SOL     OW15430   3.951   3.690  17.436  0.0004 -0.1448 -0.0082
 1266SOL    HW115431   3.864   3.721  17.410  0.8637  0.8900 -1.6021
 1266SOL    HW215432   3.952   3.596  17.417  2.1624 -0.0155 -0.4731
 1267SOL     OW15433   3.715   3.411   3.869  0.2842 -0.3970  0.5509
 1267SOL    HW115434   3.643   3.356   3.838  0.8865 -1.0507  0.3176
 1267SOL    HW215435   3.778   3.339   3.862  0.0129 -0.6033  0.2254
 1268SOL     OW15436   2.115   3.732  13.870 -0.5588 -0.3127 -0.1068
 1268SOL    HW115437   2.062   3.657  13.897  1.4560 -1.9396 -0.6834
 1268SOL    HW215438   2.186   3.721  13.933  0.6522  0.8875 -1.2676
 1269SOL     OW15439   3.821   1.968   0.994  0.8035 -0.5982 -0.6990
 1269SOL    HW115440   3.767   2.040   0.964  0.4592  0.0549  1.4440
 1269SOL    HW215441   3.813   1.907   0.921 -1.2859  2.0355 -2.6375
 1270SOL     OW15442   4.388   4.696   6.551  0.3707 -0.3090  0.3001
 1270SOL    HW115443   4.314   4.689   6.490  1.2966 -1.2879 -0.7162
 1270SOL    HW215444   4.343   4.657   6.626  0.5350 -1.5679 -0.2501
 1271SOL     OW15445   0.251   3.669  12.418  0.2978 -0.6217  0.5203
 1271SOL    HW115446   0.257   3.757  12.380 -3.2683 -1.4119 -1.8693
 1271SOL    HW215447   0.164   3.674  12.460  0.8609 -1.3839  1.7896
 1272SOL     OW15448   3.018   2.588   5.456  0.3935  0.5006 -0.1279
 1272SOL    HW115449   3.023   2.528   5.531 -0.6877  0.2615 -0.2481
 1272SOL    HW215450   2.994   2.527   5.386  2.5393 -0.1526 -0.3026
 1273SOL     OW15451   3.875   3.609   2.790  0.7413 -0.4153  0.4883
 1273SOL    HW115452   3.957   3.584   2.832  1.1473 -1.8289 -1.1707
 1273SOL    HW215453   3.820   3.533   2.808 -0.9640  0.8700  0.6246
 1274SOL     OW15454   4.100   3.117  15.408  0.0785 -0.4602 -0.3522
 1274SOL    HW115455   4.020   3.132  15.358  0.5822 -0.5731 -1.1983
 1274SOL    HW215456   4.168   3.154  15.352 -0.2394  1.3310  0.4516
 1275SOL     OW15457   3.929   4.398   5.576 -0.3064 -1.2790 -0.0654
 1275SOL    HW115458   3.859   4.376   5.514 -2.7277 -0.2122  2.2594
 1275SOL    HW215459   3.880   4.382   5.657  0.9732  0.3256  1.0363
 1276SOL     OW15460   1.685   4.692  14.344 -0.4466  0.0893 -0.1122
 1276SOL    HW115461   1.648   4.604  14.337  0.4168 -0.1968 -1.0755
 1276SOL    HW215462   1.638   4.724  14.421 -0.3016  1.0641 -0.4357
 1277SOL     OW15463   0.675   4.545   1.115 -0.4696  0.0481  0.1469
 1277SOL    HW115464   0.698   4.629   1.156  0.2194 -0.0684 -0.0081
 1277SOL    HW215465   0.582   4.538   1.137 -0.7435 -1.3783 -1.4510
 1278SOL     OW15466   2.938   3.520   8.887 -0.1146 -0.4867  0.0041
 1278SOL    HW115467   2.897   3.434   8.899 -0.7339 -0.1114  0.5739
 1278SOL    HW215468   2.968   3.508   8.797  1.7521  0.2444  0.5151
 1279SOL     OW15469   3.501   0.467  13.969 -0.1823 -0.8967 -0.2069
 1279SOL    HW115470   3.484   0.380  13.931 -2.1576  0.3367 -2.1334
 1279SOL    HW215471   3.495   0.526  13.894 -3.6262 -0.2456  0.5942
 1280SOL     OW15472   0.442   3.895   9.187  0.0423  0.1436 -0.5227
 1280SOL    HW115473   0.381   3.822   9.176  2.3610 -2.1354  1.4419
 1280SOL    HW215474   0.500   3.865   9.258  1.1257  2.7278 -0.3271
 1281SOL     OW15475   4.510   0.411  12.389 -0.3815  0.0443  0.0003
 1281SOL    HW115476   4.602   0.406  12.361  0.2784  1.4796  1.9256
 1281SOL    HW215477   4.479   0.322  12.405  1.0610 -0.4759 -0.0335
 1282SOL     OW15478   3.994   4.028   7.677 -0.0886  0.5620  0.5390
 1282SOL    HW115479   4.002   3.942   7.636 -2.4176  0.3539  0.5479
 1282SOL    HW215480   4.006   3.990   7.764  1.7538  0.7855  0.3776
 1283SOL     OW15481   1.007   2.654   9.152  0.8682  0.1036 -0.2995
 1283SOL    HW115482   1.002   2.750   9.150  2.1225  0.1576 -1.2629
 1283SOL    HW215483   0.926   2.630   9.107 -1.4755  1.0700  3.4694
 1284SOL     OW15484   3.757   1.625   2.575  0.1415  0.1872 -0.8002
 1284SOL    HW115485   3.684   1.671   2.617  1.2166 -0.6998  2.0492
 1284SOL    HW215486   3.830   1.649   2.633 -1.1118  1.3247  0.3071
 1285SOL     OW15487   1.952   1.667   7.779  0.1108  0.8028 -0.4681
 1285SOL    HW115488   1.920   1.666   7.689 -0.9478  1.0237 -0.0932
 1285SOL    HW215489   2.023   1.603   7.786  1.2051  1.7972 -2.2612
 1286SOL     OW15490   3.501   1.886  12.615  0.2865 -0.6997 -0.5704
 1286SOL    HW115491   3.559   1.880  12.540  0.7463 -0.3833 -0.2377
 1286SOL    HW215492   3.513   1.797  12.646  1.2360 -1.1720 -2.3290
 1287SOL     OW15493   2.146   4.073   2.181  0.1111 -0.4651  0.3144
 1287SOL    HW115494   2.167   4.122   2.101 -0.5363  0.4400  0.6999
 1287SOL    HW215495   2.148   3.979   2.162 -2.2606 -0.5892  0.7709
 1288SOL     OW15496   0.081   2.488   9.773  0.1294  0.1125  0.3709
 1288SOL    HW115497   4.735   2.496   9.820  0.6674  0.4534  1.2724
 1288SOL    HW215498   0.118   2.414   9.822 -1.1656  0.3387  1.7266
 1289SOL     OW15499   3.835   0.613   4.601 -0.3078 -0.1169 -0.1562
 1289SOL    HW115500   3.919   0.571   4.580  1.3794  1.2805  3.6092
 1289SOL    HW215501   3.786   0.531   4.606 -0.6294  0.0040 -1.4627
 1290SOL     OW15502   4.319   3.962   9.534  0.4755 -0.2714  0.4446
 1290SOL    HW115503   4.288   3.872   9.536 -0.5439  0.0608 -0.4668
 1290SOL    HW215504   4.317   3.988   9.626 -1.8445  1.4060 -0.0763
 1291SOL     OW15505   2.532   2.047   5.807 -0.4649  0.4453  0.2746
 1291SOL    HW115506   2.463   2.011   5.751 -0.4886  2.9051 -1.2743
 1291SOL    HW215507   2.607   1.994   5.783 -1.7129 -0.4592 -1.6165
 1292SOL     OW15508   2.214   2.036   4.376  0.5757 -0.4302 -0.1556
 1292SOL    HW115509   2.166   1.955   4.360  0.6178 -0.3328 -0.7749
 1292SOL    HW215510   2.284   1.988   4.421  0.6718  0.4980  0.6882
 1293SOL     OW15511   0.432   0.590  10.436 -0.6873  0.3002  0.2184
 1293SOL    HW115512   0.382   0.510  10.424  1.4463 -1.0772  0.5837
 1293SOL    HW215513   0.523   0.561  10.434 -0.0038  2.3577  1.0161
 1294SOL     OW15514   2.220   0.151   6.965  0.4734 -0.0048 -0.1054
 1294SOL    HW115515   2.285   0.086   6.938 -1.1747  0.0043 -4.2086
 1294SOL    HW215516   2.137   0.104   6.964 -0.1544  1.0486  4.3115
 1295SOL     OW15517   1.217   1.857   8.550 -0.2384 -0.3225  1.2746
 1295SOL    HW115518   1.213   1.927   8.615 -2.1063  0.9738 -0.2718
 1295SOL    HW215519   1.308   1.829   8.565  0.3807  0.3672 -1.1642
 1296SOL     OW15520   3.378   2.888  12.630  0.0356 -0.6325  0.2687
 1296SOL    HW115521   3.453   2.830  12.642  1.8184  1.4064 -0.9198
 1296SOL    HW215522   3.409   2.960  12.686 -1.7018  1.4277 -1.4402
 1297SOL     OW15523   3.171   2.591   1.823 -0.3171  0.1717  0.7921
 1297SOL    HW115524   3.160   2.496   1.823  1.9807 -0.0895  0.9882
 1297SOL    HW215525   3.092   2.614   1.873 -0.6861  0.5082  0.0458
 1298SOL     OW15526   2.786   0.886   8.442  0.7603  0.2077 -0.1601
 1298SOL    HW115527   2.767   0.886   8.536  1.3114  1.2594 -0.0447
 1298SOL    HW215528   2.779   0.792   8.430 -2.4588  0.4459 -0.2379
 1299SOL     OW15529   1.263   1.579   7.316  0.2420  0.1085 -0.0103
 1299SOL    HW115530   1.218   1.496   7.331 -3.0629  2.0568  1.0051
 1299SOL    HW215531   1.247   1.624   7.400 -0.3171 -0.4135  0.1620
 1300SOL     OW15532   0.057   4.146  12.500  0.0378 -0.1761  0.4068
 1300SOL    HW115533   4.705   4.118  12.521 -0.8219  2.2649  0.0499
 1300SOL    HW215534   0.109   4.079  12.545 -1.0445 -1.6091 -0.5067
 1301SOL     OW15535   0.675   1.215   4.538  0.5930  0.1960  0.6158
 1301SOL    HW115536   0.597   1.162   4.521 -0.2493  1.1594  1.5196
 1301SOL    HW215537   0.644   1.305   4.529  0.0774  0.0985  1.3915
 1302SOL     OW15538   2.885   2.329   8.410  0.9026  0.0020 -0.2295
 1302SOL    HW115539   2.913   2.338   8.502 -0.5618  1.9906  0.0198
 1302SOL    HW215540   2.952   2.264   8.388  1.9244  0.8350  0.3480
 1303SOL     OW15541   0.049   4.120   4.697 -0.1371 -0.6504  0.6305
 1303SOL    HW115542   0.096   4.042   4.668 -0.7483 -0.4395 -0.9424
 1303SOL    HW215543   0.055   4.176   4.619  1.4984 -2.6046 -0.6650
 1304SOL     OW15544   0.902   0.762   7.938 -0.1488  0.0118  0.2889
 1304SOL    HW115545   0.848   0.687   7.963 -0.5703 -0.5239 -2.2861
 1304SOL    HW215546   0.871   0.820   8.007 -0.8651  0.3673 -0.3395
 1305SOL     OW15547   3.803   1.667   3.981  0.4524 -0.6485 -0.1900
 1305SOL    HW115548   3.732   1.676   3.917 -0.5072  1.8499  1.2475
 1305SOL    HW215549   3.872   1.697   3.921 -0.1732 -0.8579 -1.0186
 1306SOL     OW15550   2.350   2.775   5.735  0.3021  0.2884  0.5519
 1306SOL    HW115551   2.412   2.705   5.721  1.0736  1.2045 -0.6363
 1306SOL    HW215552   2.377   2.831   5.661  0.3376 -1.1204 -0.4968
 1307SOL     OW15553   3.419   2.866   6.864  0.2624  0.0689  0.3562
 1307SOL    HW115554   3.503   2.909   6.878 -0.0348  1.0147 -0.7518
 1307SOL    HW215555   3.450   2.777   6.845  0.5536  0.3457 -0.4879
 1308SOL     OW15556   0.252   1.573  12.624 -0.2504 -0.2158  0.8279
 1308SOL    HW115557   0.193   1.637  12.584 -0.4941 -1.0925 -0.2174
 1308SOL    HW215558   0.227   1.595  12.713 -0.0798  0.2889  0.7492
 1309SOL     OW15559   1.490   4.709   5.078  0.1138  0.5436  0.3102
 1309SOL    HW115560   1.585   4.698   5.086  0.2843  0.6397 -1.5239
 1309SOL    HW215561   1.468   4.685   5.168 -1.6302 -0.1482 -0.3079
 1310SOL     OW15562   4.445   4.557   4.600  0.3679 -0.1171 -0.0279
 1310SOL    HW115563   4.520   4.551   4.659  0.3813 -1.0825 -0.1323
 1310SOL    HW215564   4.490   4.589   4.522  1.6754  0.7382  1.0881
 1311SOL     OW15565   3.690   3.029   2.724  1.0096  0.5386  0.4008
 1311SOL    HW115566   3.684   3.124   2.736 -0.7175  0.2249  2.1015
 1311SOL    HW215567   3.637   3.019   2.645  1.5163 -0.2303  0.1640
 1312SOL     OW15568   1.968   2.860   6.741 -0.9459 -0.0870  0.3363
 1312SOL    HW115569   2.034   2.895   6.800 -1.8882 -1.0648  1.9719
 1312SOL    HW215570   1.926   2.938   6.705 -1.8016  0.3220  2.2266
 1313SOL     OW15571   1.758   4.015   9.165 -0.6269 -0.1247 -0.2903
 1313SOL    HW115572   1.748   3.921   9.150 -1.7031  0.0732 -0.7983
 1313SOL    HW215573   1.757   4.053   9.078 -0.7250 -3.0933 -1.5853
 1314SOL     OW15574   3.100   3.335   2.932 -0.2878 -0.2626 -0.3360
 1314SOL    HW115575   3.195   3.323   2.931 -0.4181 -1.4992  2.1968
 1314SOL    HW215576   3.077   3.248   2.963  1.4458 -0.4750  0.3450
 1315SOL     OW15577   1.567   1.393   1.658 -0.8078 -0.8849  0.1264
 1315SOL    HW115578   1.609   1.358   1.736 -0.8466 -3.3249 -0.9482
 1315SOL    HW215579   1.476   1.383   1.686 -0.3922 -1.1052  1.3863
 1316SOL     OW15580   2.024   2.806   4.809  0.0790 -0.3359  0.5217
 1316SOL    HW115581   2.075   2.767   4.880  1.8334  1.6884  0.3871
 1316SOL    HW215582   2.083   2.870   4.769  2.4564 -1.6765  1.8152
 1317SOL     OW15583   2.871   2.378   5.701  0.1981 -0.4336  0.0879
 1317SOL    HW115584   2.935   2.313   5.673 -0.4834 -0.5265 -1.2547
 1317SOL    HW215585   2.916   2.434   5.765  0.0197  1.1511 -1.1758
 1318SOL     OW15586   2.026   3.687   9.028  0.1237 -0.0669 -0.0284
 1318SOL    HW115587   2.047   3.771   8.988 -0.8363 -0.2764 -0.9886
 1318SOL    HW215588   1.945   3.663   8.982  0.6883 -1.1388 -0.4856
 1319SOL     OW15589   2.051   0.801   0.394 -0.3984 -0.1880  0.4902
 1319SOL    HW115590   2.120   0.868   0.404 -1.4478  0.8017  1.0334
 1319SOL    HW215591   2.028   0.823   0.304 -0.2483 -2.0056 -0.0009
 1320SOL     OW15592   2.112   2.582   9.805  0.0295  0.6198  0.5787
 1320SOL    HW115593   2.026   2.616   9.781 -0.9399 -1.9354  0.4212
 1320SOL    HW215594   2.105   2.491   9.774  0.6477  0.9549 -0.5747
 1321SOL     OW15595   3.372   0.119   2.452 -0.1823 -0.1337 -0.2017
 1321SOL    HW115596   3.395   0.066   2.375 -0.6516  0.5368 -0.8038
 1321SOL    HW215597   3.386   0.206   2.413 -4.0169 -0.2191 -1.7035
 1322SOL     OW15598   2.464   1.157   7.345 -0.5324  0.6158  0.0501
 1322SOL    HW115599   2.515   1.238   7.354  1.6676 -0.7990  0.3532
 1322SOL    HW215600   2.532   1.094   7.370 -1.5627 -1.0391 -1.3576
 1323SOL     OW15601   4.685   3.722   4.186 -0.3182 -0.1196  0.5302
 1323SOL    HW115602   4.654   3.812   4.198 -1.2233 -0.2386 -0.9698
 1323SOL    HW215603   4.707   3.721   4.093  0.8273  0.8091  0.7951
 1324SOL     OW15604   2.027   1.702  10.465  0.6043  0.2758 -0.2722
 1324SOL    HW115605   1.986   1.636  10.409  2.1391  0.2809 -1.3932
 1324SOL    HW215606   1.945   1.741  10.495  0.7533  1.3197 -1.2133
 1325SOL     OW15607   3.633   1.396   5.354 -0.4884  0.4597 -0.0627
 1325SOL    HW115608   3.646   1.327   5.419  1.6435 -0.4284 -1.4138
 1325SOL    HW215609   3.686   1.469   5.383  0.3616 -0.4568  0.6684
 1326SOL     OW15610   4.317   4.116  14.990  0.9338 -0.2805  0.1125
 1326SOL    HW115611   4.391   4.155  15.036  2.6661  0.2373 -3.0723
 1326SOL    HW215612   4.250   4.148  15.050 -0.3591  0.9203 -1.9723
 1327SOL     OW15613   3.652   2.736   2.286  0.4166 -0.4273 -0.0441
 1327SOL    HW115614   3.741   2.721   2.253  0.6698 -0.0840  0.4820
 1327SOL    HW215615   3.599   2.690   2.221 -1.2170 -0.6659  1.4567
 1328SOL     OW15616   2.817   1.257   7.618 -0.0117 -0.1443 -0.8682
 1328SOL    HW115617   2.895   1.250   7.563  0.3997  1.0490 -0.4401
 1328SOL    HW215618   2.747   1.264   7.554  0.6218  2.1313 -1.2926
 1329SOL     OW15619   2.159   2.730   2.988  0.0422  0.5327 -0.4798
 1329SOL    HW115620   2.168   2.668   2.916 -0.0502  0.9416 -0.8433
 1329SOL    HW215621   2.211   2.693   3.060  0.2821 -1.5388 -1.7182
 1330SOL     OW15622   4.446   4.606   0.464 -0.4254 -0.3476 -0.0686
 1330SOL    HW115623   4.468   4.694   0.497 -1.1614  0.5906 -2.0749
 1330SOL    HW215624   4.501   4.586   0.389 -1.7161  1.9767 -1.6359
 1331SOL     OW15625   0.406   0.384  13.163  0.3929 -0.3860 -0.0120
 1331SOL    HW115626   0.349   0.418  13.094  0.6355  2.7682  1.3070
 1331SOL    HW215627   0.488   0.425  13.136 -0.4063  0.4755 -1.1592
 1332SOL     OW15628   4.048   2.616   6.419  0.5328  0.4167 -0.6505
 1332SOL    HW115629   4.002   2.532   6.415  0.7863  0.2339  0.1615
 1332SOL    HW215630   4.114   2.595   6.486 -0.0207 -5.2098 -1.8172
 1333SOL     OW15631   3.681   0.449  11.768 -0.1324  0.1395  0.2780
 1333SOL    HW115632   3.594   0.426  11.800  0.2507 -1.4946  0.1475
 1333SOL    HW215633   3.657   0.520  11.708  1.5524  2.6147  2.5313
 1334SOL     OW15634   3.252   3.483  11.683  0.0868 -0.2477 -0.0571
 1334SOL    HW115635   3.289   3.554  11.632  0.5081  0.2932  1.0019
 1334SOL    HW215636   3.249   3.516  11.773  0.0855 -0.5489  0.0544
 1335SOL     OW15637   2.102   4.554   3.994  0.5070 -0.7678  0.4061
 1335SOL    HW115638   2.132   4.521   3.910  0.7166 -0.3329  0.3069
 1335SOL    HW215639   2.171   4.616   4.019  1.9106 -2.3465  0.4439
 1336SOL     OW15640   2.908   0.166   4.656  0.3522  0.1652  0.2833
 1336SOL    HW115641   2.990   0.119   4.672 -0.2551 -1.4085 -1.2185
 1336SOL    HW215642   2.919   0.248   4.704  0.2777  0.4635 -0.2031
 1337SOL     OW15643   4.603   0.750   8.249 -0.6168 -0.5555 -0.1204
 1337SOL    HW115644   4.693   0.783   8.240 -1.0843  0.1791 -1.9509
 1337SOL    HW215645   4.574   0.745   8.340 -0.3757  2.7367  0.1381
 1338SOL     OW15646   2.972   3.167   1.691 -0.6739  0.1298 -0.8510
 1338SOL    HW115647   3.030   3.128   1.626  0.4210 -0.4495  0.4818
 1338SOL    HW215648   2.964   3.097   1.756  2.2004  0.6916  0.0978
 1339SOL     OW15649   1.385   2.641  11.235 -0.2817 -0.2601  0.5348
 1339SOL    HW115650   1.455   2.652  11.171 -0.3247  1.8648  0.8486
 1339SOL    HW215651   1.430   2.678  11.311 -0.8959  0.7821  0.3920
 1340SOL     OW15652   3.336   2.101  15.721 -0.1447  0.1346 -0.3107
 1340SOL    HW115653   3.273   2.111  15.793  0.9352  0.5732  0.5642
 1340SOL    HW215654   3.299   2.165  15.660 -0.1950 -0.2437 -0.6790
 1341SOL     OW15655   0.555   4.658   2.899 -0.6834 -0.1565 -0.4865
 1341SOL    HW115656   0.573   4.580   2.951 -3.0310 -1.2318 -1.3199
 1341SOL    HW215657   0.517   4.627   2.817 -0.6587  0.7068 -0.8249
 1342SOL     OW15658   2.926   4.329  17.420  0.5340  0.0178  0.7736
 1342SOL    HW115659   2.834   4.324  17.396  0.6966  1.1101 -0.0392
 1342SOL    HW215660   2.921   4.365  17.509  0.1722 -0.6231  1.0130
 1343SOL     OW15661   3.720   0.224   3.935  0.2110  0.4699  0.5416
 1343SOL    HW115662   3.728   0.195   4.025 -1.4873  0.7127  0.7848
 1343SOL    HW215663   3.812   0.231   3.909  0.3453 -1.9933  0.4057
 1344SOL     OW15664   3.267   0.741   3.523 -0.0929  0.2338 -0.0962
 1344SOL    HW115665   3.340   0.731   3.583  0.6994  0.2875 -1.0515
 1344SOL    HW215666   3.254   0.653   3.489  1.3303 -0.1217  0.2980
 1345SOL     OW15667   4.386   4.248   8.692  0.0243  0.6526  0.0993
 1345SOL    HW115668   4.298   4.246   8.655 -0.1057 -2.7309  0.5823
 1345SOL    HW215669   4.443   4.219   8.621  0.5979  0.6427  0.5670
 1346SOL     OW15670   2.282   2.043  15.105  0.2684  0.4551  0.1557
 1346SOL    HW115671   2.298   2.124  15.057 -2.1701  1.9963  1.9692
 1346SOL    HW215672   2.189   2.020  15.101  0.0131  1.7125 -1.0517
 1347SOL     OW15673   1.694   2.446   5.975  0.8604 -0.0139 -0.6962
 1347SOL    HW115674   1.741   2.526   5.950 -0.8419  0.6686 -1.7730
 1347SOL    HW215675   1.604   2.478   5.989  0.8105  0.1718 -1.4721
 1348SOL     OW15676   0.220   1.994   7.790  0.0642  0.4739 -0.1435
 1348SOL    HW115677   0.202   1.903   7.812 -1.4423  1.2766  1.9372
 1348SOL    HW215678   0.135   2.038   7.795 -0.0359  0.0595  1.6243
 1349SOL     OW15679   4.091   4.092   5.579 -0.0057  0.1054 -0.2267
 1349SOL    HW115680   4.071   4.166   5.521  1.3960  1.7009  1.3395
 1349SOL    HW215681   4.005   4.051   5.590  0.6295 -0.8210  1.2875
 1350SOL     OW15682   2.959   0.510   7.869  0.0144 -0.2419  0.3881
 1350SOL    HW115683   3.044   0.514   7.825  0.2580  2.2265  1.0855
 1350SOL    HW215684   2.959   0.440   7.935  1.4867  0.1612  0.8305
 1351SOL     OW15685   1.393   3.481   6.716 -0.3368  0.4337 -0.5688
 1351SOL    HW115686   1.299   3.486   6.695 -0.8213 -2.0156  1.0103
 1351SOL    HW215687   1.427   3.451   6.632 -0.5902 -0.0587 -0.5013
 1352SOL     OW15688   0.417   3.206   3.281 -0.1954 -0.5989 -0.2198
 1352SOL    HW115689   0.403   3.298   3.262 -0.9500 -0.4147  1.2245
 1352SOL    HW215690   0.332   3.178   3.314  1.5664 -1.7304  3.3754
 1353SOL     OW15691   1.062   1.607   7.992 -0.3081 -0.1441  0.2914
 1353SOL    HW115692   0.996   1.586   8.058 -1.1003  1.0342 -0.1334
 1353SOL    HW215693   1.136   1.619   8.052  1.6841 -3.1910 -1.5904
 1354SOL     OW15694   0.806   2.342  11.989  0.4519 -0.7611  0.1810
 1354SOL    HW115695   0.806   2.285  11.912 -0.3614  0.6770 -0.8734
 1354SOL    HW215696   0.771   2.420  11.948  1.6396  0.8262  2.1729
 1355SOL     OW15697   0.118   1.487   6.288  0.0961 -0.2674 -0.0232
 1355SOL    HW115698   0.066   1.566   6.272 -0.2870 -0.5284 -0.0588
 1355SOL    HW215699   0.066   1.423   6.239  1.6484 -0.5984 -1.2225
 1356SOL     OW15700   2.549   0.801   7.717 -0.3814  0.2873 -0.1467
 1356SOL    HW115701   2.600   0.749   7.779 -1.6615 -0.2340  0.4572
 1356SOL    HW215702   2.553   0.761   7.630  1.8694  0.5329 -0.1669
 1357SOL     OW15703   3.149   2.702   8.448  0.4317  0.0952  0.1687
 1357SOL    HW115704   3.207   2.747   8.387 -0.3679  1.5437  0.4983
 1357SOL    HW215705   3.066   2.748   8.458  0.2321 -0.3257  0.4557
 1358SOL     OW15706   2.210   1.939   5.160  0.2296  0.0166 -0.3611
 1358SOL    HW115707   2.143   1.871   5.158  0.5720 -0.2297 -3.0319
 1358SOL    HW215708   2.159   2.020   5.154 -0.8773 -0.6295  0.3154
 1359SOL     OW15709   0.726   4.399   1.382  0.2420  0.9156 -0.1905
 1359SOL    HW115710   0.699   4.445   1.302  0.2512  0.1527 -0.6319
 1359SOL    HW215711   0.815   4.377   1.358 -0.9662 -2.3611 -1.6544
 1360SOL     OW15712   2.544   2.810   3.305 -0.1931  0.4378 -0.2342
 1360SOL    HW115713   2.499   2.891   3.280 -0.5398 -0.1552 -1.4962
 1360SOL    HW215714   2.544   2.819   3.400 -3.0207 -2.9325  0.0582
 1361SOL     OW15715   2.338   1.265   1.642  0.2392 -0.5465 -0.1100
 1361SOL    HW115716   2.371   1.346   1.682  0.5146 -0.4616 -0.5095
 1361SOL    HW215717   2.334   1.210   1.720  3.0856 -2.0210 -0.9981
 1362SOL     OW15718   0.009   0.357  16.784  0.5061  0.7528 -0.3232
 1362SOL    HW115719   4.725   0.311  16.703  1.6465  0.3242 -0.3711
 1362SOL    HW215720   0.050   0.292  16.840 -0.4796  1.0397  0.7444
 1363SOL     OW15721   1.983   0.556   9.429  0.0295 -0.0278  0.1080
 1363SOL    HW115722   2.074   0.528   9.423  0.8418  2.9969 -1.7927
 1363SOL    HW215723   1.953   0.503   9.503 -0.5308 -0.0098 -0.0973
 1364SOL     OW15724   2.975   2.916  15.113 -0.2510  0.4965 -0.1392
 1364SOL    HW115725   2.971   2.821  15.109 -1.8309  0.5884 -0.7626
 1364SOL    HW215726   2.894   2.936  15.066  1.1748  1.2734 -2.2488
 1365SOL     OW15727   4.362   3.954   2.013  0.5701  0.4341  0.4192
 1365SOL    HW115728   4.314   3.872   2.024  0.5607  0.4239  0.3006
 1365SOL    HW215729   4.452   3.920   2.020  0.1339 -0.4175  1.9184
 1366SOL     OW15730   0.110   1.718   8.783 -0.0790  0.3523 -0.0929
 1366SOL    HW115731   0.182   1.723   8.720  1.1885  1.6255  1.4844
 1366SOL    HW215732   0.077   1.808   8.776 -0.1706  0.2159 -1.5547
 1367SOL     OW15733   0.162   0.753  15.226  0.1327 -0.0103 -0.1590
 1367SOL    HW115734   0.221   0.763  15.152  2.0278 -0.5695  1.2688
 1367SOL    HW215735   0.167   0.834  15.277 -3.4658 -0.2575  0.5891
 1368SOL     OW15736   2.018   1.320   8.479 -0.0705  0.4315 -0.7417
 1368SOL    HW115737   2.109   1.289   8.482  0.4397  1.8480 -1.2041
 1368SOL    HW215738   2.000   1.287   8.391  2.8495 -0.5672 -0.9678
 1369SOL     OW15739   2.167   1.418  17.129  0.2358 -1.0102  0.3354
 1369SOL    HW115740   2.189   1.419  17.036  1.1072 -0.6586  0.5447
 1369SOL    HW215741   2.237   1.473  17.164 -1.8195  0.6217  1.8335
 1370SOL     OW15742   3.335   4.611   0.550 -0.4988  0.1392  0.1149
 1370SOL    HW115743   3.256   4.666   0.543 -1.1674 -0.6964  1.1069
 1370SOL    HW215744   3.335   4.551   0.475  2.1227  2.7157 -1.9349
 1371SOL     OW15745   4.531   2.098  10.737  0.4781  0.1800 -0.7925
 1371SOL    HW115746   4.473   2.026  10.762 -1.5248  1.9879 -0.2764
 1371SOL    HW215747   4.563   2.127  10.822 -1.5213 -0.9968  0.3670
 1372SOL     OW15748   2.565   4.319   8.619  0.3544  0.3185 -0.6513
 1372SOL    HW115749   2.620   4.259   8.670 -0.5712  0.6576  0.7606
 1372SOL    HW215750   2.564   4.273   8.536 -0.0830 -2.2370  0.7863
 1373SOL     OW15751   1.151   0.842  12.554 -0.0439 -0.1337 -0.5762
 1373SOL    HW115752   1.084   0.863  12.619  1.6002  2.8061  0.1451
 1373SOL    HW215753   1.104   0.770  12.510  1.2361 -0.7893 -0.8635
 1374SOL     OW15754   1.976   0.408  14.040 -0.7635 -0.4474  0.5581
 1374SOL    HW115755   2.066   0.439  14.026 -1.3254  1.0945  0.3852
 1374SOL    HW215756   1.951   0.382  13.951  0.0634 -1.9253  0.7664
 1375SOL     OW15757   1.047   3.314   8.980 -0.2780  0.1916 -0.5733
 1375SOL    HW115758   0.998   3.232   8.970  1.7596 -1.1019  0.2267
 1375SOL    HW215759   1.121   3.300   9.039 -0.5455 -0.4434 -0.3925
 1376SOL     OW15760   1.158   1.647   0.791  0.3405  0.5443  0.1945
 1376SOL    HW115761   1.160   1.724   0.735  1.1824  2.7163  3.2334
 1376SOL    HW215762   1.128   1.581   0.728 -0.1748  1.9133 -1.0051
 1377SOL     OW15763   4.170   3.716   4.581 -0.1361 -0.1963 -0.9119
 1377SOL    HW115764   4.220   3.638   4.604  2.4104  1.2381 -1.7127
 1377SOL    HW215765   4.084   3.687   4.614  0.3142 -0.4396  0.0433
 1378SOL     OW15766   4.193   4.348   8.255  0.3048  0.1267  0.0309
 1378SOL    HW115767   4.159   4.262   8.278 -0.8751  0.7013  0.4124
 1378SOL    HW215768   4.285   4.337   8.279  0.4845  1.1222 -0.1924
 1379SOL     OW15769   3.349   3.245   2.980 -0.1501  0.6308  0.2750
 1379SOL    HW115770   3.362   3.153   2.959 -0.2738  0.3365  1.4542
 1379SOL    HW215771   3.370   3.245   3.074  0.2137 -2.4143  0.1872
 1380SOL     OW15772   3.870   3.720   9.325 -0.1555  0.3965 -0.1749
 1380SOL    HW115773   3.774   3.713   9.325  0.0967 -3.0249  2.8636
 1380SOL    HW215774   3.889   3.646   9.383  3.3218  1.1350 -0.3898
 1381SOL     OW15775   2.076   2.391   4.068 -0.3129  0.0457 -0.1899
 1381SOL    HW115776   2.151   2.430   4.024 -0.2561  1.3815  1.1143
 1381SOL    HW215777   2.013   2.387   3.995 -2.8471 -0.2209  2.0071
 1382SOL     OW15778   2.975   1.378   5.853 -0.5611 -0.1156  0.2836
 1382SOL    HW115779   2.885   1.412   5.857 -1.1620 -1.6511 -0.0265
 1382SOL    HW215780   3.006   1.414   5.936  0.4531 -1.3181  0.4092
 1383SOL     OW15781   2.915   2.103  12.238  0.9345  0.4601  0.0346
 1383SOL    HW115782   2.948   2.133  12.323 -0.7394  0.9827  0.4935
 1383SOL    HW215783   2.905   2.190  12.198 -2.8448  0.3551  0.7417
 1384SOL     OW15784   3.709   3.451  14.844  0.1423  0.2089 -0.0054
 1384SOL    HW115785   3.702   3.360  14.872  1.1726 -0.0126 -0.4730
 1384SOL    HW215786   3.656   3.489  14.914 -0.0589  0.4894 -0.3056
 1385SOL     OW15787   0.602   1.077   2.233 -0.4554 -0.6533  0.0861
 1385SOL    HW115788   0.549   1.021   2.290 -1.2177  0.6427  0.6403
 1385SOL    HW215789   0.532   1.077   2.168  0.1541 -0.5638 -0.5674
 1386SOL     OW15790   3.167   1.387  15.493 -0.1039  0.2691  0.0496
 1386SOL    HW115791   3.254   1.408  15.459 -0.5301 -1.2452 -1.9689
 1386SOL    HW215792   3.109   1.444  15.443  0.7600  1.8953  0.9035
 1387SOL     OW15793   0.264   2.615   3.663  0.4495  0.5449  0.4465
 1387SOL    HW115794   0.249   2.547   3.728  2.3180  0.2821  0.5880
 1387SOL    HW215795   0.199   2.586   3.598  0.5873  1.6965 -0.2081
 1388SOL     OW15796   4.310   2.218   1.398  0.0518 -0.5681  0.3890
 1388SOL    HW115797   4.217   2.194   1.400 -0.0197 -0.2437  0.8930
 1388SOL    HW215798   4.348   2.130   1.389  1.1534 -0.0834  0.3519
 1389SOL     OW15799   0.172   0.720  10.407  0.3540 -0.6134  0.0036
 1389SOL    HW115800   0.200   0.801  10.364 -1.7761 -0.7596 -1.6127
 1389SOL    HW215801   0.260   0.695  10.437  0.8191  1.3444  0.2727
 1390SOL     OW15802   0.963   4.093  14.376  0.8708 -0.2289 -0.1834
 1390SOL    HW115803   0.981   4.085  14.283 -0.4300 -2.7875 -0.2181
 1390SOL    HW215804   0.893   4.158  14.381 -0.8395 -2.0493 -0.3368
 1391SOL     OW15805   3.535   0.624  11.591  0.2187  0.2717 -0.6717
 1391SOL    HW115806   3.481   0.702  11.586  0.0285  0.2798  1.6452
 1391SOL    HW215807   3.465   0.563  11.566  0.6939 -0.8616  0.7767
 1392SOL     OW15808   3.075   0.219   8.933 -0.0046 -0.1294 -0.3425
 1392SOL    HW115809   2.998   0.219   8.876  0.7917 -2.5865 -1.4127
 1392SOL    HW215810   3.054   0.143   8.987 -0.6290 -0.7399 -1.4390
 1393SOL     OW15811   2.260   1.413   6.071 -0.3073 -0.4431  0.5645
 1393SOL    HW115812   2.321   1.445   6.003  0.2565 -2.7348  0.0093
 1393SOL    HW215813   2.312   1.450   6.142 -0.4401 -0.5150  0.6980
 1394SOL     OW15814   3.142   0.698   6.040  0.1280 -0.1442 -0.8634
 1394SOL    HW115815   3.196   0.688   6.119  0.4990  1.0396 -0.9770
 1394SOL    HW215816   3.055   0.667   6.066  1.0464 -2.7291 -0.7868
 1395SOL     OW15817   0.811   1.953  13.759  0.3225 -0.1256  0.6626
 1395SOL    HW115818   0.751   1.902  13.813  0.6745 -0.4623  0.7323
 1395SOL    HW215819   0.790   1.923  13.671 -0.2912  2.3855 -0.0597
 1396SOL     OW15820   3.076   0.012   0.592 -0.4843 -0.0065  0.2453
 1396SOL    HW115821   3.034   4.686   0.533  0.9170 -0.8501  0.1276
 1396SOL    HW215822   3.007   0.023   0.657  0.3152 -1.3178  1.3272
 1397SOL     OW15823   4.137   3.735   8.667  0.6087 -0.1743 -0.3435
 1397SOL    HW115824   4.145   3.807   8.730 -2.0979  0.2590 -0.4803
 1397SOL    HW215825   4.174   3.666   8.723  1.1246  2.4140  2.5140
 1398SOL     OW15826   1.757   1.028   4.669 -0.2291  0.0812  0.4817
 1398SOL    HW115827   1.735   1.073   4.587  1.7823 -0.0898 -0.1514
 1398SOL    HW215828   1.830   1.084   4.695 -0.8184  1.3608 -0.6346
 1399SOL     OW15829   3.693   3.316   2.142  0.0911 -0.2183 -0.1711
 1399SOL    HW115830   3.762   3.325   2.076  1.1617 -0.0635  0.9543
 1399SOL    HW215831   3.680   3.222   2.152  2.6395 -0.3613  1.9929
 1400SOL     OW15832   4.453   0.304   8.345  0.0838  0.0117 -0.0503
 1400SOL    HW115833   4.539   0.317   8.306 -0.2999 -0.0893 -0.9214
 1400SOL    HW215834   4.398   0.329   8.270  1.1877  2.6694  0.0127
 1401SOL     OW15835   2.021   3.367  12.031 -0.1135  0.4111  0.0564
 1401SOL    HW115836   1.939   3.320  12.042 -0.1114  0.4822  0.3883
 1401SOL    HW215837   2.069   3.290  11.999  1.7773  1.2079  0.9533
 1402SOL     OW15838   4.309   2.371   1.657  0.0993  0.0870  0.4049
 1402SOL    HW115839   4.339   2.338   1.572  1.6868  0.7214  0.7183
 1402SOL    HW215840   4.215   2.353   1.654  0.5400 -2.1260 -0.7199
 1403SOL     OW15841   3.881   4.071  15.484  0.3125 -0.7423  0.0004
 1403SOL    HW115842   3.921   4.048  15.568  2.4306  2.0220 -0.2552
 1403SOL    HW215843   3.870   4.165  15.499  4.0338 -0.4453  0.6717
 1404SOL     OW15844   3.511   0.797   2.664  0.2565  0.3434  0.4720
 1404SOL    HW115845   3.478   0.739   2.734 -0.0374 -1.1991 -0.9454
 1404SOL    HW215846   3.436   0.855   2.654 -0.5642 -0.8509 -0.2224
 1405SOL     OW15847   3.356   1.237   6.133  0.3583  0.7968  0.0148
 1405SOL    HW115848   3.442   1.215   6.170 -1.5679 -0.4185  3.7770
 1405SOL    HW215849   3.348   1.322   6.176  1.1016  1.3584 -0.9522
 1406SOL     OW15850   1.408   3.895   1.834 -0.1507 -0.1590 -0.0174
 1406SOL    HW115851   1.432   3.899   1.741 -1.5916  0.9538 -0.3540
 1406SOL    HW215852   1.313   3.883   1.835  0.2169 -3.0929 -1.6046
 1407SOL     OW15853   0.624   2.446  11.762 -0.2124  0.3301  0.4372
 1407SOL    HW115854   0.626   2.387  11.687 -2.6672 -0.9915  1.4297
 1407SOL    HW215855   0.530   2.456  11.780 -0.5879 -0.6393 -0.9642
 1408SOL     OW15856   3.912   3.849   4.863 -0.3225  0.1083 -0.0254
 1408SOL    HW115857   3.818   3.864   4.868 -0.3891 -0.0411 -0.8748
 1408SOL    HW215858   3.951   3.935   4.852  2.5407 -1.4832 -2.4031
 1409SOL     OW15859   1.954   3.886   0.855 -0.4624 -0.2344  0.1437
 1409SOL    HW115860   1.904   3.955   0.813  0.2136 -0.4826 -1.0851
 1409SOL    HW215861   1.918   3.894   0.944 -1.4079  1.1457 -0.3668
 1410SOL     OW15862   3.420   2.165   9.620 -0.0153 -0.0201  0.4519
 1410SOL    HW115863   3.433   2.184   9.527 -1.6623  1.4864  0.5442
 1410SOL    HW215864   3.468   2.229   9.672  0.3050 -1.8178  2.3370
 1411SOL     OW15865   3.962   4.172   9.720  0.3606 -0.4903  0.4790
 1411SOL    HW115866   3.970   4.186   9.626 -0.6931 -0.0216  0.4630
 1411SOL    HW215867   3.886   4.227   9.737 -0.1291 -0.5207 -1.6387
 1412SOL     OW15868   1.988   0.470  10.374 -0.0203  0.5888  0.1943
 1412SOL    HW115869   2.014   0.511  10.457  0.1895 -0.3200  0.5910
 1412SOL    HW215870   2.049   0.509  10.312  1.2625 -1.7503 -0.0142
 1413SOL     OW15871   1.975   4.161   6.227 -0.5264  0.4903  0.0588
 1413SOL    HW115872   1.962   4.208   6.310 -1.7275 -1.1547  0.8059
 1413SOL    HW215873   1.930   4.078   6.245  0.3941  0.4152  1.9524
 1414SOL     OW15874   4.064   0.366   4.821 -0.3804  0.3096 -0.0123
 1414SOL    HW115875   4.045   0.436   4.884 -1.3459 -2.2528  2.5832
 1414SOL    HW215876   4.036   0.294   4.877  0.5707 -0.9298 -1.1518
 1415SOL     OW15877   4.430   1.640   9.236 -0.2580 -0.2651  0.1860
 1415SOL    HW115878   4.480   1.703   9.288  0.1212  0.2451 -0.7956
 1415SOL    HW215879   4.349   1.688   9.217 -1.5594 -2.1591  1.0047
 1416SOL     OW15880   3.641   3.257   1.555  0.0903  0.4236 -0.1153
 1416SOL    HW115881   3.597   3.175   1.575  0.2916  0.0121 -1.3325
 1416SOL    HW215882   3.624   3.303   1.637 -1.9110 -0.3476 -0.1128
 1417SOL     OW15883   4.381   0.757   5.966 -0.1958 -0.1975 -0.3031
 1417SOL    HW115884   4.327   0.758   6.046 -1.2867  1.5866 -1.0545
 1417SOL    HW215885   4.393   0.663   5.957  0.5571 -0.1091 -0.2614
 1418SOL     OW15886   0.497   0.806  15.575 -0.0759 -0.1013 -0.5488
 1418SOL    HW115887   0.493   0.883  15.632 -0.5228 -1.4922  1.3084
 1418SOL    HW215888   0.591   0.787  15.568 -0.4459 -1.7488 -1.1397
 1419SOL     OW15889   2.451   3.358   9.974 -0.2058  0.2924  0.4442
 1419SOL    HW115890   2.399   3.308  10.036 -0.9680  0.2185 -0.2463
 1419SOL    HW215891   2.420   3.445  10.000 -1.0015  0.0400  0.3314
 1420SOL     OW15892   0.162   2.826   2.806 -0.4088 -0.4316  0.0605
 1420SOL    HW115893   0.075   2.813   2.844  0.1751  2.9366  2.4872
 1420SOL    HW215894   0.195   2.737   2.790 -0.0265 -0.2629 -0.1042
 1421SOL     OW15895   1.688   4.064  11.173  0.1213  0.1232  0.0007
 1421SOL    HW115896   1.684   4.056  11.077 -0.1782  0.3867 -0.0114
 1421SOL    HW215897   1.721   4.153  11.188  1.6845 -0.6364  0.9586
 1422SOL     OW15898   1.107   3.543   4.993 -0.2057  0.4624 -0.0857
 1422SOL    HW115899   1.180   3.596   5.025 -2.1531  3.2981 -0.4042
 1422SOL    HW215900   1.141   3.461   5.030 -0.6151  0.0154 -0.6859
 1423SOL     OW15901   1.029   0.957  12.145 -0.6650  0.1251 -0.0884
 1423SOL    HW115902   0.947   0.972  12.193 -1.2305 -2.5940 -0.1768
 1423SOL    HW215903   1.006   0.876  12.098 -2.4266  1.0644 -0.8612
 1424SOL     OW15904   0.720   4.531   7.176  0.2738 -0.3884 -0.6457
 1424SOL    HW115905   0.700   4.510   7.267 -0.6024 -0.6251 -0.8979
 1424SOL    HW215906   0.782   4.602   7.194 -2.1173  1.6453 -0.4697
 1425SOL     OW15907   0.588   4.600   7.443  0.1524  0.5886  0.2527
 1425SOL    HW115908   0.683   4.600   7.457 -0.1351 -0.5354  2.3551
 1425SOL    HW215909   0.560   4.690   7.460  2.2008  1.3018 -0.1278
 1426SOL     OW15910   0.953   1.907   9.793 -0.2395 -0.2900  0.4386
 1426SOL    HW115911   0.909   1.965   9.731 -1.1265 -2.0129 -0.5428
 1426SOL    HW215912   1.036   1.895   9.748  0.4015  0.3494  1.4428
 1427SOL     OW15913   2.566   1.092   7.726 -0.3010  0.2656 -0.9449
 1427SOL    HW115914   2.622   1.113   7.651 -0.6069 -2.4961 -1.9590
 1427SOL    HW215915   2.577   0.998   7.739  0.0209  0.5879  1.0756
 1428SOL     OW15916   0.408   2.761   1.418 -0.6119  0.1523 -0.4525
 1428SOL    HW115917   0.477   2.717   1.468 -2.0203  0.3705  1.6846
 1428SOL    HW215918   0.394   2.829   1.484 -2.0270  0.1217 -0.7238
 1429SOL     OW15919   3.733   3.824   6.491  0.0596  0.1103  0.1429
 1429SOL    HW115920   3.681   3.759   6.537 -2.3546  1.9530  0.0352
 1429SOL    HW215921   3.798   3.761   6.460 -0.0202  1.1899 -2.2480
 1430SOL     OW15922   1.623   0.437   6.100 -0.1549  0.0850 -0.5861
 1430SOL    HW115923   1.537   0.479   6.095  0.3651  1.0236 -1.6319
 1430SOL    HW215924   1.679   0.493   6.048 -0.7223  0.6451 -0.5970
 1431SOL     OW15925   4.217   1.409   6.469 -0.3690  0.2274  0.1617
 1431SOL    HW115926   4.275   1.336   6.448  0.7080  1.8334 -2.4495
 1431SOL    HW215927   4.245   1.434   6.557 -0.2679  1.4772 -0.2206
 1432SOL     OW15928   0.727   2.530  17.378  0.7475  0.6179 -0.0899
 1432SOL    HW115929   0.775   2.476  17.316  0.0434  1.8815 -1.7459
 1432SOL    HW215930   0.699   2.604  17.324 -1.5563  0.4853  0.9076
 1433SOL     OW15931   0.206   4.084  16.129 -0.4481  0.4987 -0.6211
 1433SOL    HW115932   0.294   4.091  16.164 -0.8003 -3.4877  0.9939
 1433SOL    HW215933   0.161   4.150  16.182 -1.7449 -0.1325 -0.9283
 1434SOL     OW15934   4.731   1.543   3.520 -0.1587  0.6084 -0.2393
 1434SOL    HW115935   0.035   1.464   3.484 -2.2713 -1.1846  1.2823
 1434SOL    HW215936   4.666   1.558   3.452 -0.6577 -1.1975 -0.1739
 1435SOL     OW15937   0.101   2.117   6.197  0.0852  0.2151  0.4344
 1435SOL    HW115938   0.169   2.183   6.185 -1.8573  2.1753  0.3353
 1435SOL    HW215939   0.022   2.169   6.214 -1.3629 -2.4481  1.8421
 1436SOL     OW15940   3.662   2.229   5.914  0.3705  0.2117  0.5464
 1436SOL    HW115941   3.752   2.240   5.944  0.5077  0.2303  0.1248
 1436SOL    HW215942   3.643   2.312   5.871  2.3116  0.2042 -0.3066
 1437SOL     OW15943   2.899   2.942   9.947 -0.9713  0.8349 -0.2452
 1437SOL    HW115944   2.947   2.917  10.027 -2.5351 -1.3847  0.0179
 1437SOL    HW215945   2.830   2.875   9.950  0.7084 -0.8552  1.2816
 1438SOL     OW15946   2.854   1.537  17.351 -0.4167  0.1298  0.0011
 1438SOL    HW115947   2.767   1.557  17.316 -1.2639 -1.6485  1.0573
 1438SOL    HW215948   2.882   1.624  17.378  0.7861 -0.8267  1.8475
 1439SOL     OW15949   3.302   1.193   4.312  0.2117  0.3391 -0.3004
 1439SOL    HW115950   3.385   1.235   4.291  0.3471  0.0494 -0.3380
 1439SOL    HW215951   3.327   1.102   4.328 -1.4201  0.1512  1.1565
 1440SOL     OW15952   0.784   2.448  10.314 -0.1099 -0.1476 -0.0726
 1440SOL    HW115953   0.721   2.500  10.363  0.0433 -1.0721  1.1008
 1440SOL    HW215954   0.779   2.368  10.367 -2.8316 -1.5273 -2.3899
 1441SOL     OW15955   2.098   4.048   4.791  0.1200  0.5764  0.3269
 1441SOL    HW115956   2.084   4.093   4.708  1.4901  0.3040 -0.0375
 1441SOL    HW215957   2.030   4.087   4.846 -2.1504 -3.1297  0.1525
 1442SOL     OW15958   0.675   1.743   1.918  0.3951 -0.0824 -0.0849
 1442SOL    HW115959   0.769   1.732   1.908  0.6556  0.9853  1.2050
 1442SOL    HW215960   0.652   1.677   1.852 -0.2943  0.5689 -0.4936
 1443SOL     OW15961   3.989   1.216   8.602  0.4731  0.3137  0.0992
 1443SOL    HW115962   4.040   1.292   8.574  1.6602 -0.5404 -0.0310
 1443SOL    HW215963   4.038   1.201   8.683  1.0298  1.0370 -0.1079
 1444SOL     OW15964   3.547   0.594   2.483 -0.2191 -0.6169  0.5460
 1444SOL    HW115965   3.515   0.650   2.554  2.7598  0.0348  1.3868
 1444SOL    HW215966   3.547   0.663   2.417  1.6666 -2.0162 -0.9092
 1445SOL     OW15967   3.867   2.896  16.115 -0.1079 -0.3187 -0.3462
 1445SOL    HW115968   3.783   2.936  16.135 -0.4719 -2.0461  1.5033
 1445SOL    HW215969   3.857   2.817  16.167  1.2817 -0.5510 -0.4218
 1446SOL     OW15970   0.864   1.863   9.403  0.4032 -0.2204 -0.3434
 1446SOL    HW115971   0.802   1.807   9.357  1.0350 -1.0784 -0.1421
 1446SOL    HW215972   0.909   1.907   9.331 -2.4438  1.0271 -1.3309
 1447SOL     OW15973   1.231   1.800  14.719 -0.0483 -0.1561 -0.0150
 1447SOL    HW115974   1.186   1.852  14.652 -0.4298  1.4366  1.4857
 1447SOL    HW215975   1.320   1.835  14.712  0.3391 -1.0427  0.5839
 1448SOL     OW15976   3.330   3.337   6.068  0.1550 -0.3731  0.6339
 1448SOL    HW115977   3.267   3.274   6.032 -1.2949  1.5340 -0.1713
 1448SOL    HW215978   3.401   3.288   6.025 -1.0385 -0.6424 -1.0247
 1449SOL     OW15979   4.010   0.174   2.436  0.0429 -0.4736  0.0771
 1449SOL    HW115980   4.089   0.227   2.442 -0.0097 -0.2684 -0.9654
 1449SOL    HW215981   4.004   0.143   2.346 -2.2794  1.8106 -0.5750
 1450SOL     OW15982   1.675   2.944   8.981 -0.5626  0.1571  0.2387
 1450SOL    HW115983   1.618   2.905   8.915  0.0033 -2.0386  1.0522
 1450SOL    HW215984   1.762   2.938   8.941  0.1312 -1.9486  2.0780
 1451SOL     OW15985   2.421   2.984   7.122 -0.3232  0.0602 -0.4207
 1451SOL    HW115986   2.381   3.053   7.069  2.0332  0.7139 -1.3321
 1451SOL    HW215987   2.453   2.927   7.053  0.4214  0.8935 -0.7603
 1452SOL     OW15988   2.349   1.362   2.780 -0.0254  0.1610  0.3408
 1452SOL    HW115989   2.283   1.356   2.710  0.0258 -1.1626  0.4041
 1452SOL    HW215990   2.392   1.277   2.771 -0.6543 -0.1595  0.3217
 1453SOL     OW15991   1.345   3.712  13.846 -0.2253  0.1186 -0.0738
 1453SOL    HW115992   1.376   3.680  13.931 -0.8175  0.6032  0.3283
 1453SOL    HW215993   1.373   3.804  13.843  1.3706 -0.4044 -1.2050
 1454SOL     OW15994   2.893   3.402   6.363  0.1809 -0.1344  0.5419
 1454SOL    HW115995   2.837   3.456   6.419 -0.1208  0.4221 -0.2931
 1454SOL    HW215996   2.849   3.319   6.382 -1.1303  0.0958 -1.5212
 1455SOL     OW15997   1.262   2.326   6.629 -0.5612 -0.4972 -0.2634
 1455SOL    HW115998   1.334   2.274   6.663  0.5830 -0.9055 -3.3147
 1455SOL    HW215999   1.291   2.414   6.654  0.4954 -0.7865 -0.4928
 1456SOL     OW16000   2.454   2.086   8.454 -0.3671 -0.3034 -0.5814
 1456SOL    HW116001   2.421   2.028   8.523  2.1006  0.3821  1.2039
 1456SOL    HW216002   2.405   2.164   8.477 -1.1092 -1.3657  1.4849
 1457SOL     OW16003   3.566   2.661   4.585  0.1801  0.0492 -0.0237
 1457SOL    HW116004   3.550   2.695   4.498 -1.5260  0.3911  0.4321
 1457SOL    HW216005   3.483   2.618   4.603  0.2362 -0.3504 -0.7363
 1458SOL     OW16006   1.118   2.547   6.172 -0.2599 -0.3920 -0.1887
 1458SOL    HW116007   1.183   2.515   6.234  1.8753  1.5398 -1.3773
 1458SOL    HW216008   1.046   2.576   6.227 -1.5832  0.7442 -2.4905
 1459SOL     OW16009   0.764   4.364   0.396 -0.4563  0.3256 -0.0586
 1459SOL    HW116010   0.715   4.331   0.472 -2.4739 -3.5444 -3.0169
 1459SOL    HW216011   0.844   4.369   0.448 -0.6728 -0.3925  0.3475
 1460SOL     OW16012   0.378   4.646   7.949 -0.0490 -0.4108 -0.9893
 1460SOL    HW116013   0.472   4.652   7.933 -0.0429 -1.9265 -1.5834
 1460SOL    HW216014   0.366   4.556   7.919 -1.0182  0.1068 -2.1663
 1461SOL     OW16015   0.458   0.747   7.642 -0.6969 -0.1747 -0.0365
 1461SOL    HW116016   0.490   0.704   7.563 -0.4931  1.3682 -0.8029
 1461SOL    HW216017   0.387   0.803   7.610  0.3628  0.9601 -0.3790
 1462SOL     OW16018   4.492   3.868   7.058  0.2555 -0.7037  0.0421
 1462SOL    HW116019   4.515   3.903   6.972  0.7197 -0.2313  0.3564
 1462SOL    HW216020   4.561   3.908   7.112 -0.1698  0.8380 -0.5524
 1463SOL     OW16021   2.183   0.965   6.794  0.2765 -0.3560 -0.2224
 1463SOL    HW116022   2.089   0.973   6.777  0.6317 -0.8481 -2.3061
 1463SOL    HW216023   2.183   0.895   6.859 -0.3195  0.9059  1.1477
 1464SOL     OW16024   3.706   0.901  12.726 -0.1397 -0.1723 -0.1617
 1464SOL    HW116025   3.750   0.817  12.735 -1.0374 -0.5296  0.9313
 1464SOL    HW216026   3.775   0.965  12.709 -1.0854  0.1980 -2.5415
 1465SOL     OW16027   3.115   2.890   0.444 -0.4005 -0.3280  0.3059
 1465SOL    HW116028   3.141   2.910   0.354  0.8641  1.8590  1.1664
 1465SOL    HW216029   3.067   2.966   0.476  0.6796 -0.9453  3.3225
 1466SOL     OW16030   4.494   3.487   9.102  0.1194 -0.2095 -0.6912
 1466SOL    HW116031   4.479   3.393   9.100  0.6940 -0.3200  0.0816
 1466SOL    HW216032   4.583   3.481   9.067  0.9281  0.3905  1.2868
 1467SOL     OW16033   3.478   0.284   5.947  0.4330  0.0589  0.0774
 1467SOL    HW116034   3.477   0.258   6.039  2.0700  0.5057  0.2130
 1467SOL    HW216035   3.482   0.380   5.945  0.5870  0.0239 -1.4441
 1468SOL     OW16036   3.121   4.211   9.156 -0.3217  0.0121  0.2786
 1468SOL    HW116037   3.171   4.130   9.150  2.4113  1.6307  1.4924
 1468SOL    HW216038   3.129   4.220   9.251  0.3804 -1.1374  0.3267
 1469SOL     OW16039   1.372   3.510  10.922  0.7293 -0.1356 -0.4137
 1469SOL    HW116040   1.401   3.578  10.983  0.2342  1.0046 -1.4388
 1469SOL    HW216041   1.333   3.569  10.857  0.2974 -0.9555 -0.8958
 1470SOL     OW16042   0.106   2.785  11.182  0.5380  0.5363  0.1491
 1470SOL    HW116043   0.190   2.739  11.173  1.6044  2.0435  2.2628
 1470SOL    HW216044   0.060   2.780  11.099 -0.3284  0.3387  0.6407
 1471SOL     OW16045   0.307   1.484   5.163  0.0819  0.3007  0.1367
 1471SOL    HW116046   0.260   1.562   5.134  1.2745  0.8677 -0.2711
 1471SOL    HW216047   0.391   1.529   5.170  0.7827 -1.2572  1.7346
 1472SOL     OW16048   3.843   4.520   7.248  0.2651  0.2831 -0.4061
 1472SOL    HW116049   3.835   4.553   7.159 -0.6740 -1.4788 -0.9815
 1472SOL    HW216050   3.888   4.439   7.223  2.7323  2.1219 -1.8557
 1473SOL     OW16051   3.503   3.401  10.487 -0.1317  0.0289 -0.0882
 1473SOL    HW116052   3.568   3.330  10.490  0.1106  0.3087  1.1372
 1473SOL    HW216053   3.537   3.446  10.564 -2.7912  2.2228 -0.1880
 1474SOL     OW16054   4.575   0.355   6.532 -0.5319 -0.0522  0.0338
 1474SOL    HW116055   4.514   0.315   6.594 -1.3347  0.9226 -0.1236
 1474SOL    HW216056   4.629   0.411   6.588  0.5042 -1.1949  0.1795
 1475SOL     OW16057   1.334   2.054   0.858  0.1716 -0.1409  0.2688
 1475SOL    HW116058   1.394   2.033   0.929 -0.4809  1.2239  1.2507
 1475SOL    HW216059   1.370   2.139   0.833  0.1190 -0.0761  0.4129
 1476SOL     OW16060   3.837   2.995   1.832 -0.2776  0.2850  0.7297
 1476SOL    HW116061   3.882   2.935   1.891 -0.4240 -1.0086 -0.4659
 1476SOL    HW216062   3.748   2.984   1.864  0.3788 -0.8355  2.1459
 1477SOL     OW16063   2.416   0.680   6.012  0.7242  0.6664 -0.1745
 1477SOL    HW116064   2.356   0.616   6.052  0.5762  1.9508  1.6592
 1477SOL    HW216065   2.363   0.740   5.960 -1.2881  0.2316  1.3201
 1478SOL     OW16066   0.162   0.202  17.102 -0.3694  0.0941 -0.2939
 1478SOL    HW116067   0.156   0.291  17.069 -0.9098  0.6522  1.3261
 1478SOL    HW216068   0.178   0.222  17.194  0.2135 -3.3352  0.3418
 1479SOL     OW16069   0.428   3.997   4.139 -0.0166  0.5683 -0.3662
 1479SOL    HW116070   0.408   3.981   4.047  0.0657 -0.3500 -0.2322
 1479SOL    HW216071   0.523   3.996   4.130  0.0084 -1.1022  0.0708
 1480SOL     OW16072   2.997   0.054   9.123  0.5959 -0.2312  0.2365
 1480SOL    HW116073   2.909   0.032   9.153  0.7159 -0.9390  0.0684
 1480SOL    HW216074   3.049   0.017   9.194  1.1141 -0.0518 -0.0513
 1481SOL     OW16075   2.819   0.446  17.104 -0.0021 -0.1952 -0.2794
 1481SOL    HW116076   2.915   0.447  17.105 -0.0188  2.0893 -1.6713
 1481SOL    HW216077   2.801   0.527  17.151  3.0342 -0.0394  0.6432
 1482SOL     OW16078   4.580   4.167  11.028 -0.5576  0.1672  0.2860
 1482SOL    HW116079   4.592   4.256  10.997  1.2596  0.6556  2.3486
 1482SOL    HW216080   4.536   4.185  11.111  0.1631 -0.3078  0.7785
 1483SOL     OW16081   4.577   2.634  11.895  0.1678  0.3353 -0.2113
 1483SOL    HW116082   4.646   2.695  11.869 -1.7075  2.1210 -1.0228
 1483SOL    HW216083   4.519   2.636  11.819 -1.8509 -0.4166  1.3046
 1484SOL     OW16084   0.592   3.922   3.529  0.5168  0.0364 -0.1187
 1484SOL    HW116085   0.632   3.835   3.528 -0.3586 -0.3807  0.2671
 1484SOL    HW216086   0.502   3.890   3.538  1.2746 -1.8882  0.7154
 1485SOL     OW16087   2.961   0.415   1.858  0.0998  0.3766 -0.1190
 1485SOL    HW116088   3.006   0.478   1.914  0.3462  1.5397 -1.6136
 1485SOL    HW216089   2.878   0.435   1.900 -0.7164 -0.4430 -1.3364
 1486SOL     OW16090   3.668   3.873   8.156 -0.2542 -0.6825 -0.0061
 1486SOL    HW116091   3.668   3.969   8.150  0.1181 -0.7922 -1.5273
 1486SOL    HW216092   3.653   3.861   8.250  0.3598 -0.5650  0.1031
 1487SOL     OW16093   0.683   1.927   0.590  0.1398  0.2226  0.3881
 1487SOL    HW116094   0.654   1.993   0.527 -0.1387 -0.0137  0.2699
 1487SOL    HW216095   0.777   1.931   0.574  0.0580  0.3629 -0.0772
 1488SOL     OW16096   3.153   3.513   6.930 -0.1410 -0.7922 -0.3452
 1488SOL    HW116097   3.070   3.502   6.883  0.3263  0.2390 -1.4117
 1488SOL    HW216098   3.144   3.607   6.944  2.1019 -0.7805  1.0225
 1489SOL     OW16099   2.193   3.506   6.688  0.6341 -0.2427  0.1502
 1489SOL    HW116100   2.176   3.598   6.708  1.2998  0.5425 -2.8313
 1489SOL    HW216101   2.188   3.510   6.592  0.4067 -1.0405  0.1270
 1490SOL     OW16102   1.692   1.605  17.195  0.7914 -0.6669  0.3496
 1490SOL    HW116103   1.731   1.660  17.262 -3.2199 -0.4037  2.4523
 1490SOL    HW216104   1.771   1.568  17.157 -0.2265 -3.8064  1.2689
 1491SOL     OW16105   3.222   3.637  10.552 -0.5200 -0.1194 -0.5679
 1491SOL    HW116106   3.270   3.616  10.471  2.1917 -0.1118  1.0130
 1491SOL    HW216107   3.165   3.710  10.527 -0.5627  0.6495  1.8068
 1492SOL     OW16108   0.740   1.501  12.509 -0.9333  0.1562 -0.3820
 1492SOL    HW116109   0.661   1.491  12.563 -0.4786  1.1398  0.4697
 1492SOL    HW216110   0.721   1.588  12.473 -0.3445  0.7336  0.7094
 1493SOL     OW16111   3.188   1.018   3.435 -0.6927  0.1115  0.6264
 1493SOL    HW116112   3.106   1.059   3.464 -0.9558  1.0201 -1.4361
 1493SOL    HW216113   3.183   0.932   3.477 -0.2661 -1.3354 -2.3049
 1494SOL     OW16114   3.820   2.580   3.770 -0.2422  0.3997 -0.2869
 1494SOL    HW116115   3.813   2.655   3.829  2.6780 -2.4056  3.7022
 1494SOL    HW216116   3.860   2.512   3.826  0.1761  1.7141  1.0082
 1495SOL     OW16117   3.935   3.798   7.184  0.0401 -0.2449  0.4950
 1495SOL    HW116118   4.030   3.801   7.190  0.0944  0.1291 -0.5112
 1495SOL    HW216119   3.918   3.716   7.229  0.2090 -0.6768 -0.2384
 1496SOL     OW16120   1.332   4.714   4.122  0.2575  0.4338  0.1789
 1496SOL    HW116121   1.380   0.059   4.111 -0.2088  0.5147 -1.2229
 1496SOL    HW216122   1.390   4.658   4.070  0.5943  0.7003  0.2721
 1497SOL     OW16123   4.010   0.470   6.392 -0.0098  0.4795 -0.2027
 1497SOL    HW116124   3.956   0.507   6.461 -0.4495  1.2241 -0.9490
 1497SOL    HW216125   3.950   0.483   6.319  0.4237  0.6413 -0.5331
 1498SOL     OW16126   0.968   3.740  16.869  0.0588 -0.0647  0.0413
 1498SOL    HW116127   0.962   3.704  16.781  0.5334 -0.3654  0.1305
 1498SOL    HW216128   1.059   3.710  16.879  0.9241  2.5206 -0.0102
 1499SOL     OW16129   1.265   1.273   5.779 -0.0321 -0.4995  0.1630
 1499SOL    HW116130   1.260   1.359   5.738 -0.3064 -0.3714  0.4702
 1499SOL    HW216131   1.280   1.229   5.695 -0.9137 -0.4640 -0.0086
 1500SOL     OW16132   1.132   3.446   1.246 -0.0302 -0.1322  0.0988
 1500SOL    HW116133   1.144   3.469   1.338 -1.8070 -0.7161  0.4671
 1500SOL    HW216134   1.113   3.531   1.206 -0.0028 -0.7769 -1.2697
 1501SOL     OW16135   2.828   1.230  10.473 -0.0495 -0.4065 -0.1974
 1501SOL    HW116136   2.785   1.314  10.487 -0.1041 -0.1164 -2.0536
 1501SOL    HW216137   2.755   1.182  10.434 -1.0861  1.1702 -0.1696
 1502SOL     OW16138   3.863   4.684   8.103 -0.5176  1.0291 -0.1729
 1502SOL    HW116139   3.910   0.026   8.132 -1.8644  1.0144  2.0114
 1502SOL    HW216140   3.903   4.621   8.162 -2.1834  1.4494  1.3873
 1503SOL     OW16141   2.375   1.929   7.051 -0.0153  0.1084 -0.4137
 1503SOL    HW116142   2.414   1.872   7.116  2.3927  0.8892 -1.1834
 1503SOL    HW216143   2.282   1.904   7.052 -0.0769  0.3479 -0.2514
 1504SOL     OW16144   0.861   3.104   7.643 -0.4149 -0.8042 -0.0825
 1504SOL    HW116145   0.803   3.035   7.609 -1.7336  0.7908 -1.0579
 1504SOL    HW216146   0.927   3.111   7.574 -0.3687  0.6108  0.1124
 1505SOL     OW16147   2.195   0.554   3.699 -0.0589 -0.0587 -0.2897
 1505SOL    HW116148   2.132   0.505   3.753  0.2212 -0.0876  0.0095
 1505SOL    HW216149   2.256   0.573   3.771 -0.3703  0.7842 -0.2460
 1506SOL     OW16150   2.299   0.620   3.919  0.3691  0.1487 -0.4771
 1506SOL    HW116151   2.380   0.668   3.931 -0.2674  1.1361 -0.1621
 1506SOL    HW216152   2.277   0.600   4.010  3.0822  1.1744  0.3982
 1507SOL     OW16153   0.449   1.555   3.086 -0.0817  0.0395  0.1936
 1507SOL    HW116154   0.398   1.571   3.006  0.4308  0.1906 -0.1015
 1507SOL    HW216155   0.533   1.600   3.074 -0.7493  1.3694  0.4402
 1508SOL     OW16156   3.772   1.242   0.559  0.3194  0.2611 -0.2447
 1508SOL    HW116157   3.769   1.159   0.607 -2.0259 -0.4563 -1.6394
 1508SOL    HW216158   3.864   1.236   0.534 -0.0397 -3.3876 -0.7425
 1509SOL     OW16159   2.613   3.057  13.398 -0.2024 -0.1802 -0.6533
 1509SOL    HW116160   2.593   3.083  13.308  1.9710 -0.4325 -1.2276
 1509SOL    HW216161   2.709   3.066  13.400 -0.3998  2.0242 -1.3282
 1510SOL     OW16162   1.795   3.482   1.765  0.0132 -0.0923 -0.4966
 1510SOL    HW116163   1.849   3.550   1.806 -0.8747  0.3392 -0.0518
 1510SOL    HW216164   1.863   3.445   1.708 -0.3753 -2.7620  0.7671
 1511SOL     OW16165   1.631   3.514   3.285  0.1075 -0.4652 -0.9749
 1511SOL    HW116166   1.713   3.521   3.335 -1.4162 -1.2754  1.6367
 1511SOL    HW216167   1.665   3.486   3.200 -3.2763  0.0462 -2.4893
 1512SOL     OW16168   1.858   1.748   6.880  0.0862  0.1097  0.2567
 1512SOL    HW116169   1.827   1.808   6.812  0.2407  0.3921  0.4364
 1512SOL    HW216170   1.801   1.773   6.952  0.4299  1.9186 -0.1049
 1513SOL     OW16171   4.491   0.226  11.587  0.2338 -0.4401  0.1223
 1513SOL    HW116172   4.432   0.289  11.630 -0.6533  0.0364 -1.7719
 1513SOL    HW216173   4.530   0.275  11.514  0.5736  1.3975  1.5414
 1514SOL     OW16174   1.315   2.757   6.718  0.5042 -0.3964 -0.0691
 1514SOL    HW116175   1.357   2.803   6.790  0.4986 -0.8337  0.2141
 1514SOL    HW216176   1.223   2.747   6.743 -0.0861  0.9826 -1.7146
 1515SOL     OW16177   2.751   2.375  15.492  0.7960  0.1887 -0.1968
 1515SOL    HW116178   2.694   2.299  15.504  0.9899 -0.0171 -0.5839
 1515SOL    HW216179   2.741   2.398  15.400 -0.6049 -0.0239 -0.0937
 1516SOL     OW16180   1.458   4.303  10.443 -0.2281  0.1932 -0.3828
 1516SOL    HW116181   1.473   4.218  10.401 -1.0838  0.1987 -0.7143
 1516SOL    HW216182   1.549   4.318  10.468 -0.3012  0.0160 -0.0153
 1517SOL     OW16183   2.288   0.031   4.304 -0.6909  0.2966 -0.2673
 1517SOL    HW116184   2.367   0.017   4.356 -1.0169 -0.6122 -0.0167
 1517SOL    HW216185   2.298   4.717   4.224  1.4778 -1.9164  1.4141
 1518SOL     OW16186   3.707   0.659   7.591 -0.3245 -0.1414 -0.7010
 1518SOL    HW116187   3.691   0.587   7.652  1.3136  1.6107  1.7620
 1518SOL    HW216188   3.621   0.656   7.548  0.6504  1.8123 -2.7798
 1519SOL     OW16189   3.199   3.040   0.981 -0.1507  0.5963  0.5414
 1519SOL    HW116190   3.285   3.040   1.021 -1.5286  1.5281  3.5330
 1519SOL    HW216191   3.144   2.989   1.040  1.2069  0.3008  1.5454
 1520SOL     OW16192   3.252   4.104   9.644 -0.4660 -0.1449 -0.4317
 1520SOL    HW116193   3.254   4.167   9.716  1.8668 -1.6677  0.8039
 1520SOL    HW216194   3.302   4.036   9.689  0.1546  1.4258  1.2453
 1521SOL     OW16195   3.939   0.558   5.619  0.3560  0.1228  0.1352
 1521SOL    HW116196   3.914   0.650   5.622 -0.9800 -0.2124 -0.8174
 1521SOL    HW216197   3.981   0.552   5.533 -0.9545 -0.1748 -0.4736
 1522SOL     OW16198   3.696   0.030   0.841 -0.0875 -0.1396  0.2682
 1522SOL    HW116199   3.654   4.699   0.787 -2.9447  2.1596 -0.4042
 1522SOL    HW216200   3.678   0.105   0.784  0.2755  0.6432  1.1992
 1523SOL     OW16201   1.559   1.912   2.856 -0.6654 -0.3039  0.3301
 1523SOL    HW116202   1.543   1.958   2.774  1.8402 -0.5024 -0.2623
 1523SOL    HW216203   1.470   1.919   2.891  0.0140  1.1510  1.7356
 1524SOL     OW16204   3.692   3.691   6.887  0.7267 -0.9030  0.4512
 1524SOL    HW116205   3.610   3.643   6.888 -0.5116  1.1921 -0.5546
 1524SOL    HW216206   3.731   3.627   6.827  0.1083 -0.7356 -0.1383
 1525SOL     OW16207   2.840   0.485   5.758 -0.0171 -0.2458 -0.2778
 1525SOL    HW116208   2.778   0.525   5.697 -1.9695 -2.9688 -0.0714
 1525SOL    HW216209   2.780   0.442   5.818  1.3117 -1.2254  0.3546
 1526SOL     OW16210   1.264   0.903   8.980  0.1463 -0.1041  0.0430
 1526SOL    HW116211   1.305   0.843   8.917 -1.2245 -2.2305  1.2204
 1526SOL    HW216212   1.304   0.982   8.943  1.8745 -1.1095 -0.2345
 1527SOL     OW16213   0.876   3.042   8.584  0.3812  0.0770 -0.4360
 1527SOL    HW116214   0.842   3.129   8.608  1.0592  0.3562 -0.4881
 1527SOL    HW216215   0.801   3.009   8.536 -1.4562  0.1335  2.3738
 1528SOL     OW16216   3.717   3.759   0.797 -0.0415  0.3705  0.6917
 1528SOL    HW116217   3.812   3.766   0.787 -0.3185  1.5323 -1.2042
 1528SOL    HW216218   3.703   3.775   0.890  1.5300 -1.8732  1.3259
 1529SOL     OW16219   4.586   0.088   7.427 -0.1736 -0.3515  0.1782
 1529SOL    HW116220   4.492   0.105   7.417 -0.1361 -0.1607  0.1426
 1529SOL    HW216221   4.574   0.045   7.511  1.7345 -1.4606 -0.1252
 1530SOL     OW16222   2.376   3.253  15.073 -0.1158 -0.2039  0.0278
 1530SOL    HW116223   2.339   3.323  15.019  0.5083 -0.0993 -0.2591
 1530SOL    HW216224   2.471   3.264  15.070 -0.3019  1.0453 -1.1504
 1531SOL     OW16225   2.716   3.205  13.642  0.2905 -0.3246  0.2596
 1531SOL    HW116226   2.635   3.171  13.603  1.7142 -1.6127 -1.6092
 1531SOL    HW216227   2.694   3.298  13.653  1.4522  0.4183 -3.7840
 1532SOL     OW16228   4.488   1.399   9.364 -0.3595  0.5045  0.4143
 1532SOL    HW116229   4.394   1.382   9.361 -0.2391  0.0945 -1.0379
 1532SOL    HW216230   4.490   1.495   9.363  0.8373  0.4855  0.9393
 1533SOL     OW16231   4.379   3.713  17.193 -0.5942 -0.3098  0.4012
 1533SOL    HW116232   4.389   3.807  17.181  0.8335 -0.2250  2.3084
 1533SOL    HW216233   4.284   3.708  17.185 -0.5479 -3.1119  1.9337
 1534SOL     OW16234   4.381   4.324  16.933 -0.1890 -0.1382  0.1701
 1534SOL    HW116235   4.473   4.350  16.928 -0.2627 -0.4788 -2.8270
 1534SOL    HW216236   4.380   4.275  17.015  0.3456  1.1784  0.9466
 1535SOL     OW16237   4.533   2.688   9.263  0.4164 -0.3210 -0.0862
 1535SOL    HW116238   4.542   2.675   9.357 -1.0413  0.3833  0.1587
 1535SOL    HW216239   4.544   2.783   9.266  0.0516 -0.2915  0.2842
 1536SOL     OW16240   4.713   1.199   6.506  0.1145 -0.7387  0.0923
 1536SOL    HW116241   0.070   1.188   6.511  0.6333  2.8158 -1.6020
 1536SOL    HW216242   4.703   1.106   6.488  0.6180 -1.3101  2.7940
 1537SOL     OW16243   3.803   2.987  14.194  0.6988  0.2568 -0.2673
 1537SOL    HW116244   3.782   3.071  14.235 -1.5981 -0.5364  0.2034
 1537SOL    HW216245   3.881   3.025  14.152  1.5689 -0.4879  0.6850
 1538SOL     OW16246   2.451   2.189   1.564  0.1895 -0.4632 -0.5591
 1538SOL    HW116247   2.357   2.193   1.579  0.2266 -3.1184  0.3846
 1538SOL    HW216248   2.480   2.181   1.655 -0.4000 -1.8761 -0.5019
 1539SOL     OW16249   0.494   2.154  12.369 -0.4127 -0.2409 -0.2610
 1539SOL    HW116250   0.411   2.108  12.355 -0.5269  0.5399 -2.2182
 1539SOL    HW216251   0.502   2.172  12.462 -1.2676 -3.3619  0.4332
 1540SOL     OW16252   0.632   1.468   2.847  1.2247 -0.2790 -0.2584
 1540SOL    HW116253   0.575   1.392   2.838  1.5548 -0.8054  1.9895
 1540SOL    HW216254   0.612   1.544   2.792  1.2475  0.4787  0.7798
 1541SOL     OW16255   0.541   4.292  15.703  0.5528 -0.3652  0.4468
 1541SOL    HW116256   0.514   4.243  15.625 -1.0889  1.9437 -0.4477
 1541SOL    HW216257   0.528   4.384  15.681 -4.2918 -1.0577  0.2025
 1542SOL     OW16258   2.909   1.727   6.514  0.0092  0.1452  0.2737
 1542SOL    HW116259   2.894   1.809   6.560 -0.2829 -0.4688  1.2792
 1542SOL    HW216260   2.984   1.742   6.457 -2.5262 -0.0922 -3.1559
 1543SOL     OW16261   0.670   3.659   1.809  0.8908 -0.2814  0.0638
 1543SOL    HW116262   0.597   3.708   1.847  0.0589 -3.3184  2.4495
 1543SOL    HW216263   0.620   3.588   1.767  2.5864 -0.8633 -0.9683
 1544SOL     OW16264   3.182   2.443   9.347  0.4419  0.2054 -0.1118
 1544SOL    HW116265   3.104   2.398   9.379  1.8613 -2.0783  0.1760
 1544SOL    HW216266   3.211   2.495   9.422  1.1620 -0.9784  0.4311
 1545SOL     OW16267   0.962   0.032   8.805 -0.0705  0.3117  0.4468
 1545SOL    HW116268   1.012   0.107   8.836  1.7367 -1.8867  2.8213
 1545SOL    HW216269   0.987   0.033   8.713 -0.0828  0.7733  0.4510
 1546SOL     OW16270   3.798   4.482   4.159 -0.1471  0.5416  0.1175
 1546SOL    HW116271   3.846   4.528   4.228  0.0477 -1.3276  1.2139
 1546SOL    HW216272   3.832   4.394   4.171 -0.2792  0.5615  0.6497
 1547SOL     OW16273   0.863   4.143   6.751 -0.1057  0.3080  0.1174
 1547SOL    HW116274   0.939   4.110   6.703 -0.6754 -0.6947 -0.0899
 1547SOL    HW216275   0.890   4.232   6.774  0.6829  0.4028 -1.1337
 1548SOL     OW16276   2.170   3.033   8.668 -0.1508 -0.2845 -0.1841
 1548SOL    HW116277   2.169   2.949   8.623  0.1118  0.2825 -1.2416
 1548SOL    HW216278   2.208   3.011   8.754 -1.1676 -2.3380 -0.2778
 1549SOL     OW16279   3.790   2.555   4.231 -0.0076  0.1036 -0.0486
 1549SOL    HW116280   3.855   2.617   4.265  0.9505  0.2244 -2.1352
 1549SOL    HW216281   3.815   2.484   4.290 -1.8273  1.9464  2.9411
 1550SOL     OW16282   3.932   2.403   8.060 -0.3465 -0.2098  0.2132
 1550SOL    HW116283   3.883   2.467   8.008  2.8441 -0.1494 -2.7520
 1550SOL    HW216284   3.869   2.332   8.074  0.3466 -0.8093  0.2653
 1551SOL     OW16285   2.286   3.048   6.868  0.0322  0.8939 -0.1177
 1551SOL    HW116286   2.265   2.955   6.876  2.0250  0.5130  0.6215
 1551SOL    HW216287   2.323   3.057   6.780  1.6546 -1.1552  0.3455
 1552SOL     OW16288   3.873   4.453   9.087 -0.4754  0.5195 -0.1232
 1552SOL    HW116289   3.854   4.475   8.996 -0.9533 -1.5036 -0.5106
 1552SOL    HW216290   3.926   4.374   9.074 -0.3913  0.6692 -0.7090
 1553SOL     OW16291   3.274   4.253  14.376  0.0539  0.2443  0.4041
 1553SOL    HW116292   3.337   4.305  14.427  2.3425 -0.0277 -2.1431
 1553SOL    HW216293   3.328   4.209  14.310  1.3381  2.3439  0.0538
 1554SOL     OW16294   3.492   4.720   4.066  0.1595  0.7634 -0.3359
 1554SOL    HW116295   3.556   0.026   4.009 -0.5320  2.5959  0.2611
 1554SOL    HW216296   3.419   4.720   4.004 -0.5063  2.8127  0.4340
 1555SOL     OW16297   0.388   2.501   6.667 -0.8037 -0.2641 -0.1336
 1555SOL    HW116298   0.340   2.470   6.744 -0.4150 -1.1443 -0.2452
 1555SOL    HW216299   0.354   2.440   6.601 -0.6041  0.2220 -0.6775
 1556SOL     OW16300   4.536   3.545   7.999  0.2942 -0.3753  0.4746
 1556SOL    HW116301   4.602   3.589   8.052  0.8590 -0.4045 -0.2097
 1556SOL    HW216302   4.549   3.607   7.928  1.7820  0.5328  1.5466
 1557SOL     OW16303   1.690   4.587   9.291  0.2267 -0.1234  0.2562
 1557SOL    HW116304   1.617   4.580   9.351  0.5714 -1.7142  0.4907
 1557SOL    HW216305   1.716   4.679   9.297  1.4859 -0.5498  1.4705
 1558SOL     OW16306   0.184   1.460   8.905  0.3604 -0.3830  0.2245
 1558SOL    HW116307   0.164   1.536   8.850  0.8048 -1.1434 -0.9840
 1558SOL    HW216308   0.133   1.492   8.980  0.0092 -2.0766  0.7098
 1559SOL     OW16309   3.581   3.496  12.984 -0.0117 -0.1052  0.2648
 1559SOL    HW116310   3.532   3.536  12.912 -1.7428  1.6928  2.4722
 1559SOL    HW216311   3.652   3.454  12.936 -1.1044  0.0497 -1.5016
 1560SOL     OW16312   3.487   2.644   9.345 -0.0189 -0.0785 -0.1457
 1560SOL    HW116313   3.420   2.638   9.413 -0.7510  1.1495 -0.7711
 1560SOL    HW216314   3.551   2.578   9.372  0.0556  0.1971  0.3507
 1561SOL     OW16315   2.436   1.620  13.978  0.2731  0.5924 -0.6219
 1561SOL    HW116316   2.473   1.708  13.990  1.6335 -0.2467  1.3256
 1561SOL    HW216317   2.348   1.655  13.992 -0.3612 -0.6516 -1.6291
 1562SOL     OW16318   2.521   1.020   4.338  0.4494  0.0541  0.3324
 1562SOL    HW116319   2.477   1.074   4.404 -2.4403 -1.6027 -0.2621
 1562SOL    HW216320   2.450   0.996   4.279  0.5733  1.4671 -0.3975
 1563SOL     OW16321   1.587   1.750   9.053 -0.1668 -0.4432  0.0752
 1563SOL    HW116322   1.532   1.825   9.030  1.3701  1.2359  1.8223
 1563SOL    HW216323   1.558   1.683   8.991  0.9290  0.1536 -1.0862
 1564SOL     OW16324   3.252   4.729   5.115 -0.5566  0.3732  0.2256
 1564SOL    HW116325   3.278   4.637   5.126  0.3919  0.7599  1.1490
 1564SOL    HW216326   3.222   0.004   5.205  1.2654 -0.6670  0.9862
 1565SOL     OW16327   3.051   3.094   5.212  0.2218 -0.2184 -0.4767
 1565SOL    HW116328   3.063   3.189   5.213 -1.9320  0.0231  0.5724
 1565SOL    HW216329   3.089   3.079   5.125  2.1243  1.4313  0.0836
 1566SOL     OW16330   3.352   0.167   8.248  0.4325 -0.2192  0.5387
 1566SOL    HW116331   3.358   0.177   8.343 -0.8557  0.8468  0.5078
 1566SOL    HW216332   3.432   0.118   8.231 -0.6065 -1.4385 -0.7303
 1567SOL     OW16333   2.719   2.712   8.605 -0.1233  0.3480 -0.0279
 1567SOL    HW116334   2.788   2.728   8.541  0.1245 -0.0760  0.1341
 1567SOL    HW216335   2.772   2.695   8.683 -1.0357 -3.4557 -0.2525
 1568SOL     OW16336   1.727   0.384   9.748  0.1799 -0.0719  0.3229
 1568SOL    HW116337   1.706   0.322   9.818 -1.1100  0.8525  0.7384
 1568SOL    HW216338   1.711   0.473   9.778  2.8775 -0.4894  3.0342
 1569SOL     OW16339   2.999   1.425  10.772  0.3957  0.3357  0.0624
 1569SOL    HW116340   3.062   1.453  10.705 -0.0567 -0.0825 -0.5419
 1569SOL    HW216341   3.008   1.330  10.758  0.5116  0.0743  1.8732
 1570SOL     OW16342   0.144   4.645   2.012  0.0593 -0.2046  0.4416
 1570SOL    HW116343   0.082   4.574   2.024 -1.7331  1.1612 -0.8663
 1570SOL    HW216344   0.225   4.600   2.037 -0.7597 -1.0565  1.5404
 1571SOL     OW16345   4.225   2.450   5.175 -0.3356  0.2959  0.7604
 1571SOL    HW116346   4.179   2.422   5.096  0.7136 -3.7601  1.5971
 1571SOL    HW216347   4.246   2.538   5.143  0.4497  0.6648  2.2777
 1572SOL     OW16348   2.633   1.390   2.022  0.3295  0.2842  0.5954
 1572SOL    HW116349   2.713   1.381   2.074 -0.8101  2.6904  2.7404
 1572SOL    HW216350   2.571   1.350   2.083 -1.2969 -0.5154 -1.6120
 1573SOL     OW16351   2.504   0.606   5.225 -0.4000  0.5656 -0.0984
 1573SOL    HW116352   2.502   0.563   5.139  2.5207  0.0246  0.1230
 1573SOL    HW216353   2.464   0.692   5.211 -0.2966  0.7041  0.4523
 1574SOL     OW16354   0.859   1.948   2.151 -0.1111 -0.1363 -0.1257
 1574SOL    HW116355   0.829   1.861   2.177 -0.4845  0.0361  0.0296
 1574SOL    HW216356   0.800   1.961   2.077  1.5085  0.3377 -1.3295
 1575SOL     OW16357   1.902   0.464   3.671 -0.1626 -0.2703  0.3465
 1575SOL    HW116358   1.873   0.385   3.716 -2.2699 -0.4526 -1.3454
 1575SOL    HW216359   1.944   0.423   3.595 -1.5307  0.6978 -0.9286
 1576SOL     OW16360   3.931   0.577   6.722  0.2212  0.3394 -0.1814
 1576SOL    HW116361   3.848   0.535   6.700  1.7586 -2.0454 -1.5209
 1576SOL    HW216362   3.928   0.554   6.814  0.4773  1.1502  0.0269
 1577SOL     OW16363   0.645   2.430  13.053  0.4730 -0.0059 -0.5860
 1577SOL    HW116364   0.656   2.525  13.060  0.0689 -0.0149  0.1418
 1577SOL    HW216365   0.736   2.401  13.042  0.9370  0.4994  1.8547
 1578SOL     OW16366   1.568   0.902   5.087  0.3248 -0.1222  0.1572
 1578SOL    HW116367   1.649   0.947   5.112 -0.8762  1.8335  0.5267
 1578SOL    HW216368   1.582   0.818   5.131  1.0494  0.5191  1.1699
 1579SOL     OW16369   2.246   1.445  13.255  0.1668  0.0224 -0.2236
 1579SOL    HW116370   2.209   1.361  13.282 -0.4451  0.1284 -0.7282
 1579SOL    HW216371   2.167   1.493  13.230 -1.1964 -1.9764  0.1934
 1580SOL     OW16372   3.593   3.901   4.916  0.0681 -0.1042  0.0976
 1580SOL    HW116373   3.503   3.907   4.884 -1.0560  1.6049  3.5625
 1580SOL    HW216374   3.581   3.939   5.003  0.6583 -0.9147  0.5229
 1581SOL     OW16375   4.276   0.300   6.538  0.0369 -0.3985 -0.2183
 1581SOL    HW116376   4.279   0.251   6.456  0.2769 -1.1047  0.2139
 1581SOL    HW216377   4.276   0.387   6.497 -0.8680 -1.1764 -1.8849
 1582SOL     OW16378   0.635   2.901   8.890  0.3964 -0.0811  0.4244
 1582SOL    HW116379   0.577   2.971   8.862  1.4943  1.1659  1.2809
 1582SOL    HW216380   0.702   2.956   8.930 -1.2847 -0.8747  4.2881
 1583SOL     OW16381   0.812   0.426   0.367 -0.0350  0.2477 -0.3480
 1583SOL    HW116382   0.790   0.511   0.328  0.6784  0.0288 -1.2369
 1583SOL    HW216383   0.758   0.423   0.445  0.6006  2.3174  0.1719
 1584SOL     OW16384   4.603   3.550   2.229  0.2386 -0.6430 -0.1273
 1584SOL    HW116385   4.609   3.640   2.260 -1.1733  0.0841 -1.9755
 1584SOL    HW216386   4.609   3.511   2.317 -3.6526 -0.0005  0.3947
 1585SOL     OW16387   2.251   1.157   8.168 -0.4658  0.4096 -0.2146
 1585SOL    HW116388   2.282   1.156   8.078 -0.7127  2.3856 -0.3263
 1585SOL    HW216389   2.262   1.069   8.205 -0.1666 -0.8103 -3.2134
 1586SOL     OW16390   2.308   3.424   3.625 -0.4477 -0.2737 -0.1078
 1586SOL    HW116391   2.312   3.475   3.544 -1.1555 -1.9223 -1.1825
 1586SOL    HW216392   2.374   3.468   3.679 -0.8944  1.1446 -0.7470
 1587SOL     OW16393   1.091   2.170   0.923 -0.2441 -0.7568  0.1706
 1587SOL    HW116394   1.175   2.127   0.907  0.6483  0.9495  0.2208
 1587SOL    HW216395   1.046   2.175   0.839  0.3557  1.1353 -0.0384
 1588SOL     OW16396   0.950   0.825   9.605 -0.3702  0.5862  0.1360
 1588SOL    HW116397   1.015   0.847   9.672 -0.0553  1.3965 -0.4452
 1588SOL    HW216398   0.870   0.817   9.658  0.4158 -0.2932  1.1942
 1589SOL     OW16399   1.366   0.521   4.517  0.4799  0.3437 -0.5078
 1589SOL    HW116400   1.328   0.455   4.575 -1.5220  1.2312 -0.7957
 1589SOL    HW216401   1.406   0.476   4.443  0.7815 -0.0534 -0.0983
 1590SOL     OW16402   3.813   0.872   9.617  0.2237  0.3859 -0.0777
 1590SOL    HW116403   3.785   0.963   9.624  1.2930  0.7467 -0.6420
 1590SOL    HW216404   3.861   0.855   9.698  0.1440  1.1880  0.1373
 1591SOL     OW16405   4.065   0.876   7.335  0.2270  0.0695 -0.4001
 1591SOL    HW116406   4.043   0.878   7.242 -0.3886 -1.3793 -0.2964
 1591SOL    HW216407   4.101   0.787   7.332 -1.3046 -0.5757  0.2772
 1592SOL     OW16408   2.654   3.863  10.194  0.2541  0.3194  0.2849
 1592SOL    HW116409   2.665   3.956  10.212  1.1455  0.7479 -2.4824
 1592SOL    HW216410   2.710   3.816  10.256  1.7353  1.2368 -0.3302
 1593SOL     OW16411   1.913   1.168   5.820 -0.0404 -0.1076  0.1636
 1593SOL    HW116412   1.870   1.189   5.903  2.3119  1.2969  0.9913
 1593SOL    HW216413   1.991   1.131   5.860 -0.8936 -2.4942 -0.3812
 1594SOL     OW16414   3.721   0.286  10.160  0.0438 -0.4962 -0.2555
 1594SOL    HW116415   3.751   0.365  10.114  0.4973 -1.5596 -1.7682
 1594SOL    HW216416   3.807   0.262  10.195 -0.5812 -0.5547  1.2677
 1595SOL     OW16417   2.750   0.804   2.917  0.3027 -0.3460 -0.3436
 1595SOL    HW116418   2.840   0.788   2.945  0.4282  2.7437  1.0802
 1595SOL    HW216419   2.752   0.791   2.822  3.1753 -1.3573 -0.1229
 1596SOL     OW16420   3.771   3.256   0.308 -0.0352  0.3220 -0.5869
 1596SOL    HW116421   3.781   3.200   0.231  1.5866  1.3136 -1.0757
 1596SOL    HW216422   3.686   3.231   0.346 -0.2888 -1.3962 -2.2371
 1597SOL     OW16423   0.854   4.488  13.654  0.4199 -0.0979  0.0710
 1597SOL    HW116424   0.873   4.529  13.569 -1.2773  1.4791  0.4717
 1597SOL    HW216425   0.761   4.484  13.633  0.1921 -0.2077  1.1305
 1598SOL     OW16426   1.458   3.720   8.389  0.0994  0.1843  0.0038
 1598SOL    HW116427   1.504   3.718   8.472  1.1777 -2.8770 -0.6616
 1598SOL    HW216428   1.521   3.677   8.331 -0.1403  0.2134 -0.2808
 1599SOL     OW16429   2.160   2.192   1.559  0.3980  0.2961  0.2535
 1599SOL    HW116430   2.098   2.160   1.494  0.2631  0.7070  0.1813
 1599SOL    HW216431   2.113   2.249   1.620  1.4037  0.5547  0.8026
 1600SOL     OW16432   2.200   3.454   7.668  0.9129  0.2009  0.4259
 1600SOL    HW116433   2.222   3.364   7.647  1.2579  0.1190  1.1397
 1600SOL    HW216434   2.104   3.453   7.668  0.9100 -0.1123 -1.1348
 1601SOL     OW16435   4.649   3.778   7.927  0.1822 -0.1622  0.2662
 1601SOL    HW116436   4.599   3.851   7.891  0.4455 -0.8051 -1.4070
 1601SOL    HW216437   0.002   3.806   7.908 -0.3504  0.0661 -1.9268
 1602SOL     OW16438   0.551   1.000   7.800  0.3154  0.1139  0.4595
 1602SOL    HW116439   0.582   1.053   7.727  0.9550 -0.6771  0.1729
 1602SOL    HW216440   0.475   0.958   7.760 -0.0324  1.2929 -0.1207
 1603SOL     OW16441   1.948   4.453   4.615  1.0007 -0.2029 -0.4757
 1603SOL    HW116442   1.994   4.536   4.606 -0.1237  0.5093  0.3208
 1603SOL    HW216443   1.893   4.488   4.686  0.7592  0.2792 -0.8978
 1604SOL     OW16444   2.795   2.266   2.279 -0.5343  0.6217 -0.1201
 1604SOL    HW116445   2.867   2.328   2.296 -0.7182  1.6049 -2.8342
 1604SOL    HW216446   2.734   2.328   2.240  0.4013  0.2125 -2.2715
 1605SOL     OW16447   0.258   2.430   7.526 -0.1118  0.1355  0.2812
 1605SOL    HW116448   0.217   2.457   7.608 -4.2516 -1.9688 -1.1043
 1605SOL    HW216449   0.345   2.440   7.563  0.1773 -1.3253 -0.0135
 1606SOL     OW16450   0.717   0.005   2.468  0.3424  0.5913 -0.1601
 1606SOL    HW116451   0.773   4.676   2.427  1.8317  0.7492  1.6638
 1606SOL    HW216452   0.744   4.729   2.558  1.5087  0.2838 -0.5537
 1607SOL     OW16453   0.003   1.808   4.471  0.0569 -0.0212  0.1627
 1607SOL    HW116454   4.729   1.863   4.548  3.5192  0.1762  0.4783
 1607SOL    HW216455   4.654   1.766   4.458 -1.2324  2.9481 -0.9566
 1608SOL     OW16456   1.088   2.417  15.057 -0.1795 -0.2617 -0.1670
 1608SOL    HW116457   1.011   2.467  15.084 -0.4929 -0.3269 -0.9476
 1608SOL    HW216458   1.078   2.343  15.117  2.2540  0.6802  1.4034
 1609SOL     OW16459   3.214   1.817   9.249 -0.2773  0.3752  0.1430
 1609SOL    HW116460   3.169   1.749   9.299  0.6362  1.2123  2.0904
 1609SOL    HW216461   3.185   1.894   9.298 -1.3286  0.5369 -0.7336
 1610SOL     OW16462   4.149   4.235   3.321 -0.0274 -0.4535  0.0237
 1610SOL    HW116463   4.095   4.193   3.253 -1.2992  0.5134  0.4284
 1610SOL    HW216464   4.182   4.159   3.369  0.5522 -1.6626 -2.2987
 1611SOL     OW16465   3.973   3.949  15.069  0.2255 -0.2853  0.0433
 1611SOL    HW116466   4.001   3.927  15.157 -2.3439  0.2107  1.0042
 1611SOL    HW216467   3.898   4.006  15.085  0.5349  0.5817 -1.5986
 1612SOL     OW16468   1.161   2.199   9.507  0.1048 -0.1356 -0.0473
 1612SOL    HW116469   1.116   2.277   9.475  0.0375  0.0929  0.5986
 1612SOL    HW216470   1.091   2.134   9.519  0.8912 -0.7328  1.2496
 1613SOL     OW16471   2.068   1.647   7.292  0.1152  0.1407 -0.4036
 1613SOL    HW116472   2.147   1.606   7.328 -0.8130 -0.9482  0.3637
 1613SOL    HW216473   2.007   1.580   7.263  0.0382  0.9189 -2.0568
 1614SOL     OW16474   3.907   3.226   7.093  0.1160 -0.4547 -0.0977
 1614SOL    HW116475   3.982   3.189   7.139  1.5440  0.7738 -1.4238
 1614SOL    HW216476   3.932   3.188   7.009  1.6120 -1.1256  0.6472
 1615SOL     OW16477   1.386   2.881   2.965  0.3777 -0.4290  0.2634
 1615SOL    HW116478   1.350   2.933   2.893  0.1423 -0.1065  0.6170
 1615SOL    HW216479   1.465   2.851   2.920  1.3155 -1.2643  2.5215
 1616SOL     OW16480   3.544   3.223   8.751  0.1052 -0.6228 -0.0861
 1616SOL    HW116481   3.484   3.166   8.800 -1.5699 -0.1212 -1.5549
 1616SOL    HW216482   3.607   3.238   8.822  2.5767  0.1004 -2.4074
 1617SOL     OW16483   0.776   2.991   5.880 -0.0802  0.1142 -0.1584
 1617SOL    HW116484   0.782   2.903   5.843  0.1617 -0.7241  1.8896
 1617SOL    HW216485   0.758   3.043   5.802 -0.6534  1.5810  0.9578
 1618SOL     OW16486   0.213   0.874   6.280 -0.0178  0.6348  0.2991
 1618SOL    HW116487   0.298   0.882   6.238 -0.2272 -0.7392 -0.3808
 1618SOL    HW216488   0.241   0.817   6.352  1.4105  1.5723  0.4857
 1619SOL     OW16489   1.918   0.102   3.752 -0.0949  0.0849 -0.4301
 1619SOL    HW116490   1.882   0.045   3.684  1.0407 -1.5559  0.3452
 1619SOL    HW216491   1.970   0.161   3.697  0.2268 -1.5342 -1.8409
 1620SOL     OW16492   2.612   4.005  12.043 -0.0847  0.1074  0.3457
 1620SOL    HW116493   2.620   4.039  12.132  1.7194 -2.5131  1.1585
 1620SOL    HW216494   2.696   3.962  12.035  1.1303  1.9894  2.8431
 1621SOL     OW16495   1.174   1.754   6.809  0.0698 -0.2578  0.0844
 1621SOL    HW116496   1.126   1.766   6.727 -0.9498 -0.2033  0.6911
 1621SOL    HW216497   1.264   1.729   6.786 -0.6943 -1.5650 -1.4934
 1622SOL     OW16498   3.231   3.741   5.158  0.0745 -0.3699  0.2963
 1622SOL    HW116499   3.297   3.784   5.213 -1.3327  0.7630  1.0647
 1622SOL    HW216500   3.246   3.650   5.183 -1.9748 -1.0574 -0.9542
 1623SOL     OW16501   3.885   0.263   1.463  0.5899  0.4087  0.0163
 1623SOL    HW116502   3.822   0.272   1.392 -1.4128  1.0457  1.8852
 1623SOL    HW216503   3.963   0.281   1.410  0.3914  0.8092 -0.1437
 1624SOL     OW16504   3.218   4.295   4.490 -0.3346  0.2702 -0.1437
 1624SOL    HW116505   3.174   4.338   4.417  1.2020  0.8080 -0.7502
 1624SOL    HW216506   3.298   4.271   4.444 -0.3457 -0.6551  0.3018
 1625SOL     OW16507   3.570   2.783  17.197 -0.1528  0.3470 -0.7232
 1625SOL    HW116508   3.612   2.828  17.270 -1.0140  0.5742 -0.3759
 1625SOL    HW216509   3.542   2.699  17.231 -0.1880  0.5032 -0.3704
 1626SOL     OW16510   0.468   3.944   2.024 -0.1291  0.1796 -0.7194
 1626SOL    HW116511   0.537   3.980   2.080 -2.8004  2.4339  1.1543
 1626SOL    HW216512   0.397   4.003   2.049  1.0210  0.5123  1.7778
 1627SOL     OW16513   0.241   0.275   3.163  0.1054 -0.0685  0.1592
 1627SOL    HW116514   0.280   0.228   3.089  1.8327 -0.0719  1.0773
 1627SOL    HW216515   0.307   0.339   3.191  1.3261 -0.7525 -1.1510
 1628SOL     OW16516   3.893   4.617  14.882  0.5153  0.0507  0.1801
 1628SOL    HW116517   3.986   4.595  14.882  0.6361  0.6044 -1.1198
 1628SOL    HW216518   3.872   4.605  14.975 -0.1278 -1.1595 -0.1196
 1629SOL     OW16519   1.876   2.638  17.326  0.4566 -0.1928  0.1554
 1629SOL    HW116520   1.901   2.627  17.418  2.5335  4.8236  0.2204
 1629SOL    HW216521   1.913   2.726  17.317  1.4943 -0.6137  0.3241
 1630SOL     OW16522   1.131   0.386   5.211 -0.1748  0.6697  0.3646
 1630SOL    HW116523   1.130   0.296   5.244  0.2048  0.8466  0.8690
 1630SOL    HW216524   1.043   0.418   5.228 -0.1425  0.2834  1.2871
 1631SOL     OW16525   1.003   3.869   4.654  0.0619 -0.4700 -0.5476
 1631SOL    HW116526   1.076   3.816   4.686 -0.8279 -1.4038 -0.0504
 1631SOL    HW216527   1.015   3.887   4.561  1.6102 -0.7412 -0.3881
 1632SOL     OW16528   2.442   1.150  12.320  0.3970 -0.2092 -0.0347
 1632SOL    HW116529   2.380   1.222  12.322  0.1560 -0.3884 -0.8567
 1632SOL    HW216530   2.449   1.124  12.228  1.0040 -2.5754  0.6742
 1633SOL     OW16531   2.848   4.130   8.175 -0.1509  0.3038  0.0821
 1633SOL    HW116532   2.867   4.213   8.218 -1.9193  1.1402 -0.7242
 1633SOL    HW216533   2.790   4.158   8.104  0.5249  0.6380 -0.3372
 1634SOL     OW16534   1.324   1.922   2.991  0.1083  0.2969  0.4642
 1634SOL    HW116535   1.235   1.949   3.013  0.1647  1.8568 -1.2568
 1634SOL    HW216536   1.311   1.828   3.008  2.7642 -0.2296 -0.3999
 1635SOL     OW16537   1.163   1.366   8.304 -0.3679 -0.4653 -0.1841
 1635SOL    HW116538   1.205   1.297   8.253  0.4618  1.7059 -2.4837
 1635SOL    HW216539   1.203   1.441   8.260 -0.9903  1.4535  2.5331
 1636SOL     OW16540   3.497   3.570   8.362 -0.0447 -0.0489  0.0696
 1636SOL    HW116541   3.517   3.637   8.426 -1.6003 -0.6261  1.1553
 1636SOL    HW216542   3.553   3.497   8.390  1.4241 -0.2092 -3.1791
 1637SOL     OW16543   1.023   1.772   3.595 -0.2359  0.1645  0.0626
 1637SOL    HW116544   1.074   1.827   3.655 -0.7866  2.0361 -1.1983
 1637SOL    HW216545   0.987   1.840   3.538  0.2741 -0.4275 -0.9639
 1638SOL     OW16546   3.557   4.103   6.073 -0.3114 -0.5881  0.2412
 1638SOL    HW116547   3.565   4.039   6.144 -0.6939  0.3362  1.1270
 1638SOL    HW216548   3.616   4.172   6.106  1.2279 -1.7908  0.0173
 1639SOL     OW16549   2.010   0.628   8.225 -0.2609 -0.1983  0.3472
 1639SOL    HW116550   1.974   0.595   8.307 -1.1321  1.8282  0.7915
 1639SOL    HW216551   2.043   0.545   8.192  1.5624  0.8273 -0.3924
 1640SOL     OW16552   0.162   3.908  12.716  0.1420  0.8110 -0.0804
 1640SOL    HW116553   0.095   3.863  12.663  0.3348  1.0263 -0.5087
 1640SOL    HW216554   0.154   3.863  12.800 -0.8437 -0.6141 -0.9300
 1641SOL     OW16555   3.264   1.082  10.447 -0.5748 -0.2372  0.2565
 1641SOL    HW116556   3.327   1.067  10.518 -0.3552  1.1444  0.3426
 1641SOL    HW216557   3.325   1.100  10.375  0.3306 -1.4108  0.7351
 1642SOL     OW16558   3.037   1.859   9.504 -0.1310  0.2617  0.9293
 1642SOL    HW116559   3.132   1.847   9.508 -0.7354 -4.4981  0.9349
 1642SOL    HW216560   3.032   1.951   9.529 -0.2017  0.2549  0.9406
 1643SOL     OW16561   0.575   3.065   6.072 -0.3546  0.0884 -0.0822
 1643SOL    HW116562   0.631   3.070   5.994  0.8388 -1.0717  0.7033
 1643SOL    HW216563   0.602   3.133   6.132  0.6656  0.5349 -1.0392
 1644SOL     OW16564   0.419   2.199   8.704  0.0385  0.0656  0.0005
 1644SOL    HW116565   0.431   2.153   8.787 -0.3987 -1.2638 -0.6750
 1644SOL    HW216566   0.460   2.138   8.643  3.0640  1.7618  0.3536
 1645SOL     OW16567   0.913   4.590   7.637 -0.2218  0.2550  0.2886
 1645SOL    HW116568   0.897   4.532   7.562 -1.4618  0.2865  0.5224
 1645SOL    HW216569   0.892   4.674   7.595 -0.3015 -0.2630 -0.7053
 1646SOL     OW16570   4.201   2.601   3.894 -0.9813  0.0562 -0.3029
 1646SOL    HW116571   4.184   2.526   3.952  0.1356 -1.2534 -1.6413
 1646SOL    HW216572   4.227   2.549   3.818 -1.2111 -1.3452  0.5633
 1647SOL     OW16573   2.130   1.465   8.780  0.0322  0.3210 -0.0413
 1647SOL    HW116574   2.220   1.497   8.789  0.6874 -0.9113 -2.2288
 1647SOL    HW216575   2.098   1.513   8.704 -1.1555 -1.6831 -0.8114
 1648SOL     OW16576   2.857   1.392   8.758  1.0920 -0.1877 -0.1029
 1648SOL    HW116577   2.912   1.358   8.687  0.4895 -1.9082  0.2539
 1648SOL    HW216578   2.848   1.327   8.828  0.4584  1.1814  1.0850
 1649SOL     OW16579   2.065   0.393   6.786  0.1891 -0.0323  0.3923
 1649SOL    HW116580   2.090   0.477   6.748 -0.5145 -0.6354 -1.4029
 1649SOL    HW216581   2.101   0.411   6.873  2.8796 -3.6723  0.0531
 1650SOL     OW16582   2.225   4.194   5.879  0.2660 -0.2123  0.6158
 1650SOL    HW116583   2.130   4.203   5.891  0.2156  1.3683 -0.9832
 1650SOL    HW216584   2.235   4.107   5.840 -1.9393 -0.5003  0.6632
 1651SOL     OW16585   0.346   0.232   3.674 -0.0494  0.2839  0.4336
 1651SOL    HW116586   0.361   0.256   3.765  2.1673  0.4529  0.0205
 1651SOL    HW216587   0.268   0.286   3.665  0.4672  0.8807 -0.4406
 1652SOL     OW16588   1.508   2.423   4.876 -0.1513  0.0655  0.0203
 1652SOL    HW116589   1.535   2.474   4.952 -0.3172 -1.6945  1.2732
 1652SOL    HW216590   1.416   2.395   4.882 -0.5031  0.8008 -1.9930
 1653SOL     OW16591   3.202   4.010   2.056  0.5742 -0.2643 -0.3646
 1653SOL    HW116592   3.269   4.077   2.066  0.4292 -0.4962  2.2447
 1653SOL    HW216593   3.191   3.986   2.148 -0.4805 -2.9294 -1.1881
 1654SOL     OW16594   3.363   3.516   7.457  0.5898 -0.0171 -0.1065
 1654SOL    HW116595   3.290   3.567   7.421  0.9446  0.2279 -0.4770
 1654SOL    HW216596   3.435   3.570   7.426 -1.0471  1.5774 -1.1330
 1655SOL     OW16597   0.077   4.311  16.240  0.0221 -0.0112  0.1235
 1655SOL    HW116598   0.029   4.275  16.166  1.1892 -0.3711 -0.4597
 1655SOL    HW216599   0.009   4.305  16.308  0.3917 -2.1385  0.3008
 1656SOL     OW16600   1.516   4.472   0.711  0.2797 -0.3514 -0.3031
 1656SOL    HW116601   1.440   4.513   0.752  0.7516 -1.5897  1.8192
 1656SOL    HW216602   1.474   4.408   0.653  0.3296 -0.0111 -0.7172
 1657SOL     OW16603   0.935   4.666  13.387 -0.2932  0.5627  0.1926
 1657SOL    HW116604   0.946   4.679  13.293  0.1596  1.7662  0.4094
 1657SOL    HW216605   1.027   4.657  13.413 -0.3030  0.6598  0.2656
 1658SOL     OW16606   1.338   0.766  16.519 -0.2453 -0.3124 -0.1003
 1658SOL    HW116607   1.385   0.797  16.596  1.8702 -1.8251 -0.7607
 1658SOL    HW216608   1.376   0.806  16.440  0.3986  0.8572  0.8171
 1659SOL     OW16609   2.593   1.483   3.543  0.4229  0.0996  0.1539
 1659SOL    HW116610   2.549   1.551   3.492 -0.9958 -1.2132 -0.3711
 1659SOL    HW216611   2.525   1.439   3.594  1.0272 -1.5436 -0.4564
 1660SOL     OW16612   3.238   1.693   8.203 -0.0613  0.0032  0.5416
 1660SOL    HW116613   3.200   1.614   8.241  1.9538 -0.5165  1.4828
 1660SOL    HW216614   3.287   1.742   8.269 -0.2818 -0.6069  1.1542
 1661SOL     OW16615   2.593   0.523   3.889  0.6167 -0.1185 -0.2180
 1661SOL    HW116616   2.513   0.478   3.861  1.1855 -0.7964 -0.7238
 1661SOL    HW216617   2.638   0.469   3.953 -0.9369  2.4191  3.0444
 1662SOL     OW16618   2.024   2.948  16.430  0.0262  0.0332 -0.2777
 1662SOL    HW116619   2.028   2.999  16.348 -1.5796  0.4634 -0.1003
 1662SOL    HW216620   1.978   3.014  16.482  1.9566  1.0668  0.1191
 1663SOL     OW16621   3.349   0.060   2.740  0.5108 -0.1286  0.9685
 1663SOL    HW116622   3.363   0.133   2.679  1.3507  0.1058  1.4480
 1663SOL    HW216623   3.325   4.723   2.685 -0.0618 -0.9687  2.3649
 1664SOL     OW16624   2.664   4.441   7.302  0.5773 -0.6458  0.0257
 1664SOL    HW116625   2.686   4.348   7.293  2.3722 -0.3729  1.7346
 1664SOL    HW216626   2.754   4.472   7.302 -0.3970  2.1798 -0.0995
 1665SOL     OW16627   2.871   0.918   6.676  0.3453  0.0443  0.6647
 1665SOL    HW116628   2.865   0.874   6.761 -0.8166  0.4133  0.7847
 1665SOL    HW216629   2.793   0.972   6.689  0.1271  0.5079 -2.6469
 1666SOL     OW16630   0.620   3.037   6.819 -0.0264 -0.3792  0.1005
 1666SOL    HW116631   0.569   3.060   6.742 -0.3752 -1.0647  0.1240
 1666SOL    HW216632   0.689   3.103   6.805  0.3717 -1.1029 -1.3746
 1667SOL     OW16633   0.368   3.752   7.496 -0.0971  0.3634  0.3929
 1667SOL    HW116634   0.449   3.777   7.451 -0.2614  1.2943  0.6151
 1667SOL    HW216635   0.301   3.782   7.435 -1.3014 -1.3259  0.8874
 1668SOL     OW16636   4.416   2.869   8.564 -0.1685  0.5156 -0.5377
 1668SOL    HW116637   4.366   2.805   8.514  2.0876 -1.1841 -0.6495
 1668SOL    HW216638   4.416   2.941   8.501  1.0730  0.8501 -0.1729
 1669SOL     OW16639   0.459   0.026   2.285  0.1923 -0.0155 -0.1487
 1669SOL    HW116640   0.514   0.048   2.360 -1.0274  0.6215  0.5598
 1669SOL    HW216641   0.392   4.715   2.334  1.3838 -0.2331  1.2555
 1670SOL     OW16642   1.534   3.061   8.665  0.0532  0.0228 -0.3489
 1670SOL    HW116643   1.565   2.983   8.619  0.4649  0.6026 -1.0774
 1670SOL    HW216644   1.596   3.072   8.737 -0.4048  2.6196 -0.3387
 1671SOL     OW16645   1.931   0.506   5.751 -0.3552  0.6170 -0.1387
 1671SOL    HW116646   1.995   0.434   5.757 -0.8832 -0.0549 -2.5547
 1671SOL    HW216647   1.906   0.502   5.659 -1.3390 -0.4868  0.1757
 1672SOL     OW16648   4.517   0.756   6.878  0.7767  0.0964 -0.0397
 1672SOL    HW116649   4.528   0.783   6.787  1.6257 -0.0693  0.0154
 1672SOL    HW216650   4.566   0.674   6.877 -0.3014 -0.5457 -0.5382
 1673SOL     OW16651   3.574   1.343   2.887 -0.0617 -0.2714  0.4543
 1673SOL    HW116652   3.649   1.330   2.944  2.2630  0.0978 -2.5509
 1673SOL    HW216653   3.561   1.257   2.847  0.8282  0.8514 -2.2665
 1674SOL     OW16654   4.328   3.609   1.723 -0.3582  0.3940  0.8189
 1674SOL    HW116655   4.326   3.516   1.701 -0.2303  0.6586 -0.2993
 1674SOL    HW216656   4.411   3.630   1.765  1.4875 -2.2927 -1.5567
 1675SOL     OW16657   2.621   1.596   3.084  0.1173 -0.1489 -0.0854
 1675SOL    HW116658   2.604   1.527   3.020  0.3007  0.1017 -0.4139
 1675SOL    HW216659   2.647   1.662   3.018  1.4242 -0.4528  0.1161
 1676SOL     OW16660   2.092   3.880  14.818  0.3664 -0.0880  0.6811
 1676SOL    HW116661   2.079   3.822  14.743 -1.1857 -1.1951  1.8195
 1676SOL    HW216662   2.130   3.948  14.762  1.7917 -1.4035  0.0352
 1677SOL     OW16663   3.323   4.592  14.914  0.3624  0.0210  0.4020
 1677SOL    HW116664   3.270   4.659  14.870  1.7090  1.2029  0.5997
 1677SOL    HW216665   3.378   4.560  14.842  1.1348  1.2754  0.4426
 1678SOL     OW16666   3.844   4.732   1.603 -0.6288 -0.2595 -0.1692
 1678SOL    HW116667   3.753   0.006   1.577 -1.2556 -1.0512  1.7012
 1678SOL    HW216668   3.877   0.084   1.588  1.2688 -0.9297 -0.0407
 1679SOL     OW16669   1.188   4.501   6.151  0.2800 -0.2676 -0.0141
 1679SOL    HW116670   1.276   4.466   6.169  1.0884  1.8294  0.0449
 1679SOL    HW216671   1.140   4.464   6.225 -1.5430 -0.2851 -1.2315
 1680SOL     OW16672   4.118   0.968   7.596  0.0922 -0.7542  0.4923
 1680SOL    HW116673   4.032   0.963   7.637  0.3067 -0.2639  1.0128
 1680SOL    HW216674   4.106   0.945   7.504  1.0445  0.8892 -0.0457
 1681SOL     OW16675   2.138   0.400   8.139  0.4666 -0.0526 -0.2506
 1681SOL    HW116676   2.092   0.341   8.079  0.9357 -1.3246  0.6337
 1681SOL    HW216677   2.169   0.339   8.206  0.0779 -1.9250 -1.7808
 1682SOL     OW16678   1.410   3.300   8.558  0.4115  0.1330  0.1906
 1682SOL    HW116679   1.440   3.362   8.624 -1.7430  1.3008  0.0628
 1682SOL    HW216680   1.436   3.212   8.584  1.7285  0.0701 -1.2831
 1683SOL     OW16681   2.649   4.027  13.463  0.1490 -0.4536  0.5788
 1683SOL    HW116682   2.704   3.970  13.410 -0.7609 -1.5390  0.8114
 1683SOL    HW216683   2.599   4.075  13.397 -2.8119 -0.8246  2.5445
 1684SOL     OW16684   3.220   2.296  12.720  0.0320 -0.0617 -0.3456
 1684SOL    HW116685   3.177   2.236  12.660 -1.0681  0.4968 -0.1102
 1684SOL    HW216686   3.309   2.263  12.711 -1.1890 -2.9854 -1.4920
 1685SOL     OW16687   4.553   0.343   9.394  0.3194 -0.0532  0.0011
 1685SOL    HW116688   4.628   0.310   9.443  0.7396  1.3360  0.2901
 1685SOL    HW216689   4.574   0.313   9.305 -1.0065 -0.6165 -0.1172
 1686SOL     OW16690   1.349   1.526   5.994 -0.1174 -0.0082  0.7295
 1686SOL    HW116691   1.257   1.506   5.978  0.4965 -1.1598 -1.4336
 1686SOL    HW216692   1.347   1.549   6.087  1.5937 -1.0247  1.0249
 1687SOL     OW16693   1.164   0.810  11.488  0.3406 -0.1005  0.2271
 1687SOL    HW116694   1.252   0.833  11.460 -0.1636  1.3513 -0.1546
 1687SOL    HW216695   1.106   0.821  11.413  2.1637  1.6292 -0.9048
 1688SOL     OW16696   0.319   1.372   9.359  0.6550  0.0284  0.1095
 1688SOL    HW116697   0.226   1.396   9.362  0.1837 -1.7091 -0.3226
 1688SOL    HW216698   0.326   1.322   9.278  3.4078 -0.4548  0.6461
 1689SOL     OW16699   3.197   2.123   8.477 -0.6931 -0.4299 -0.0774
 1689SOL    HW116700   3.122   2.079   8.517 -1.0757 -1.0334 -1.4547
 1689SOL    HW216701   3.157   2.163   8.399 -0.3100  1.4934  0.7330
 1690SOL     OW16702   4.436   1.538   6.950  0.0947  0.0452 -0.5286
 1690SOL    HW116703   4.397   1.615   6.908 -1.0169  1.0774  2.3735
 1690SOL    HW216704   4.528   1.564   6.945  0.0390  0.1842 -0.8170
 1691SOL     OW16705   3.848   1.853  13.092 -0.1595  0.2373  0.2281
 1691SOL    HW116706   3.826   1.944  13.112 -2.1780 -0.3043  0.5087
 1691SOL    HW216707   3.788   1.849  13.017  1.9962 -0.0838 -1.4688
 1692SOL     OW16708   2.533   1.867   2.258  0.4870  0.3312 -0.3544
 1692SOL    HW116709   2.614   1.880   2.208 -0.3325  0.7154 -1.5736
 1692SOL    HW216710   2.549   1.916   2.338  1.0864  1.3609 -1.1088
 1693SOL     OW16711   4.721   3.186   3.450  0.8916 -0.4382 -0.1670
 1693SOL    HW116712   4.629   3.170   3.473  0.8187  1.4595  0.9033
 1693SOL    HW216713   0.001   3.263   3.505  0.0982 -1.0846  0.9892
 1694SOL     OW16714   3.593   0.221   5.329  0.2703 -0.1849 -0.1599
 1694SOL    HW116715   3.497   0.217   5.321  0.2218 -0.0359  0.3064
 1694SOL    HW216716   3.607   0.315   5.320 -0.5181 -0.3311 -2.9859
 1695SOL     OW16717   3.751   2.748  14.086 -0.1641  0.0428  0.2522
 1695SOL    HW116718   3.753   2.840  14.113  0.6868  0.0031  0.3263
 1695SOL    HW216719   3.724   2.706  14.168 -1.6612  0.7956  0.1504
 1696SOL     OW16720   1.216   0.434  13.875  0.5186 -0.2677  0.4102
 1696SOL    HW116721   1.242   0.468  13.790  2.4114  0.1535  1.1554
 1696SOL    HW216722   1.121   0.449  13.875  0.1944 -2.3194 -0.7117
 1697SOL     OW16723   0.157   1.892   3.213 -0.1589 -0.5378 -0.0772
 1697SOL    HW116724   0.079   1.909   3.266  0.1233  3.4492 -0.9570
 1697SOL    HW216725   0.187   1.810   3.252  1.9974  0.7369  0.9318
 1698SOL     OW16726   3.557   2.945   4.769 -0.2122  0.6695 -0.1556
 1698SOL    HW116727   3.530   2.877   4.830  1.4491 -2.3665 -2.8087
 1698SOL    HW216728   3.573   2.893   4.690  0.0099 -0.4152  0.6020
 1699SOL     OW16729   3.476   2.460  14.272 -0.2004 -0.0012 -0.3086
 1699SOL    HW116730   3.533   2.534  14.250  0.6907 -0.1956  1.3622
 1699SOL    HW216731   3.466   2.463  14.367  0.2615 -1.3832 -0.2247
 1700SOL     OW16732   2.406   2.620   7.006 -0.2866  0.2604 -0.5551
 1700SOL    HW116733   2.350   2.618   7.083  1.9501 -2.6919  0.9860
 1700SOL    HW216734   2.379   2.544   6.954  0.8035  0.2655 -1.1232
 1701SOL     OW16735   1.797   2.579   7.588  0.1770 -0.0964  0.0639
 1701SOL    HW116736   1.769   2.562   7.678 -1.3376  0.1693 -0.3460
 1701SOL    HW216737   1.841   2.495   7.582  0.2738 -0.1311  1.2945
 1702SOL     OW16738   4.369   0.749   9.979  0.2164  0.9288 -0.7836
 1702SOL    HW116739   4.325   0.779  10.058 -0.0041 -0.6666 -0.2963
 1702SOL    HW216740   4.364   0.654   9.982 -0.6871  0.9538 -1.7114
 1703SOL     OW16741   4.238   2.043   6.150 -0.0923 -0.3683  0.2480
 1703SOL    HW116742   4.224   2.027   6.243 -0.2746  3.9986  0.9586
 1703SOL    HW216743   4.328   2.010   6.145 -0.0363 -0.5578  2.5065
 1704SOL     OW16744   1.668   2.944  14.528  0.0165 -0.1440 -0.1939
 1704SOL    HW116745   1.723   2.988  14.464 -0.2927  0.0498 -0.3272
 1704SOL    HW216746   1.635   2.882  14.463 -1.0737 -1.1560  1.3203
 1705SOL     OW16747   2.782   3.805   1.979  0.2937 -0.5336  0.3210
 1705SOL    HW116748   2.733   3.722   1.975  0.0517 -0.4737  2.2599
 1705SOL    HW216749   2.783   3.834   2.070 -2.5684  1.3982 -0.2504
 1706SOL     OW16750   3.182   3.122   5.974  0.3705  0.5979  0.6781
 1706SOL    HW116751   3.174   3.028   5.960 -0.1933  0.6136  0.8679
 1706SOL    HW216752   3.124   3.154   5.905  1.4496 -0.9034 -0.9268
 1707SOL     OW16753   3.677   1.498   8.868 -0.0168 -1.1125  0.1369
 1707SOL    HW116754   3.657   1.414   8.827 -2.2405  0.4155 -1.8456
 1707SOL    HW216755   3.599   1.549   8.851  2.1228  1.4823 -1.8427
 1708SOL     OW16756   0.361   3.082  17.495 -0.3428 -0.1625  0.4144
 1708SOL    HW116757   0.330   3.173  17.493 -3.3539 -1.2233 -0.6682
 1708SOL    HW216758   0.413   3.077  17.575  0.3705  0.6682  0.0115
 1709SOL     OW16759   0.658   3.873  10.895 -0.3195 -0.8566  0.3200
 1709SOL    HW116760   0.572   3.848  10.861 -0.0886 -0.9257 -0.2241
 1709SOL    HW216761   0.638   3.864  10.988 -2.4435  0.1041 -0.0428
 1710SOL     OW16762   3.912   0.544   3.588 -0.5601 -0.1096  0.5208
 1710SOL    HW116763   3.868   0.597   3.654  0.8181  2.3941 -0.5823
 1710SOL    HW216764   3.960   0.486   3.647 -0.3940  0.3758  0.8616
 1711SOL     OW16765   4.484   4.284   6.735  0.9639 -0.0821  0.3326
 1711SOL    HW116766   4.412   4.291   6.797  1.2711 -1.0028  0.7871
 1711SOL    HW216767   4.453   4.322   6.652  1.0521 -1.0173 -0.1269
 1712SOL     OW16768   2.746   4.690   2.771  0.0490  0.0166  0.2776
 1712SOL    HW116769   2.772   4.695   2.863 -0.0741 -0.3948  0.3374
 1712SOL    HW216770   2.761   0.041   2.738  0.9499 -0.0123  0.6103
 1713SOL     OW16771   4.300   1.696   3.809  0.1817 -0.2771  0.3199
 1713SOL    HW116772   4.328   1.787   3.815  0.1809 -0.3299  1.1319
 1713SOL    HW216773   4.306   1.676   3.902 -0.5133  0.7130  0.5806
 1714SOL     OW16774   0.199   2.988   6.479  0.3415 -0.1989 -0.1400
 1714SOL    HW116775   0.246   2.944   6.409  0.2646  0.6872 -0.7512
 1714SOL    HW216776   0.110   2.959   6.456  1.1735 -1.2404 -2.0456
 1715SOL     OW16777   1.169   0.157   4.841 -0.5233 -0.0325  0.1969
 1715SOL    HW116778   1.112   0.231   4.820 -0.5654 -0.1274 -0.0166
 1715SOL    HW216779   1.100   0.104   4.879 -2.8330  3.5595  1.0706
 1716SOL     OW16780   1.560   2.413  13.615  0.1860  0.7155 -0.0261
 1716SOL    HW116781   1.644   2.445  13.650 -1.0392  1.0050  2.6994
 1716SOL    HW216782   1.566   2.319  13.626  0.2208  0.7282  0.0669
 1717SOL     OW16783   4.265   0.768   2.954  0.0733  0.2589  0.4901
 1717SOL    HW116784   4.203   0.720   2.899  0.3938  0.6689 -0.2273
 1717SOL    HW216785   4.348   0.724   2.935 -0.5766 -0.7626  0.0498
 1718SOL     OW16786   0.375   3.594  11.679 -0.0710 -0.4388  1.1291
 1718SOL    HW116787   0.290   3.637  11.679  1.4990  2.6397  1.5058
 1718SOL    HW216788   0.423   3.676  11.685  0.7090 -0.4806 -4.3460
 1719SOL     OW16789   0.846   3.608  16.080  0.3601 -0.7011  0.1905
 1719SOL    HW116790   0.819   3.517  16.091 -0.9483 -0.5824 -1.9615
 1719SOL    HW216791   0.926   3.602  16.028 -0.8915 -1.5468 -1.6782
 1720SOL     OW16792   3.430   1.723  16.905  0.2970  0.1994  0.1674
 1720SOL    HW116793   3.420   1.675  16.988 -0.0992  0.8976  0.5220
 1720SOL    HW216794   3.436   1.814  16.933  0.9305 -0.3782  1.8917
 1721SOL     OW16795   1.971   0.081  11.453 -0.3066  0.0004 -0.0671
 1721SOL    HW116796   1.932   0.078  11.541 -2.7498  1.4730 -1.1176
 1721SOL    HW216797   1.955   4.728  11.425 -3.1529 -0.2627  2.3901
 1722SOL     OW16798   1.987   1.054   9.838 -0.4262 -0.0343  0.7756
 1722SOL    HW116799   2.019   0.971   9.874 -0.3043 -0.5933 -0.6231
 1722SOL    HW216800   1.972   1.025   9.748 -2.1408 -0.0487  1.0792
 1723SOL     OW16801   4.055   1.821   7.791 -0.9371  0.4586 -0.1465
 1723SOL    HW116802   4.035   1.750   7.730  2.0633  0.6187 -1.2923
 1723SOL    HW216803   3.991   1.807   7.860 -1.8252 -1.6075 -1.4053
 1724SOL     OW16804   4.046   2.559   7.142  0.7739 -0.1951 -0.1415
 1724SOL    HW116805   3.974   2.501   7.119  3.1103 -2.9511 -0.4592
 1724SOL    HW216806   4.089   2.566   7.057  1.0974 -1.3163 -0.0675
 1725SOL     OW16807   2.863   0.447   1.297  0.2741  0.2518  0.1217
 1725SOL    HW116808   2.850   0.513   1.365  1.3450  1.2046 -0.5881
 1725SOL    HW216809   2.787   0.460   1.241  1.5070 -0.8422 -1.8261
 1726SOL     OW16810   1.074   1.646   7.733 -0.5511 -0.2667 -0.4147
 1726SOL    HW116811   1.014   1.715   7.707 -0.5526  0.2463  0.9371
 1726SOL    HW216812   1.074   1.652   7.829 -1.8154 -1.5095 -0.3368
 1727SOL     OW16813   4.037   0.117  13.143  0.0337 -0.4971 -0.6604
 1727SOL    HW116814   3.952   0.075  13.154  0.6942 -1.0881  2.1756
 1727SOL    HW216815   4.081   0.045  13.097  0.1277  0.2156 -1.6833
 1728SOL     OW16816   0.985   3.006   6.089 -0.1901 -0.2469 -0.4132
 1728SOL    HW116817   0.908   3.002   6.032  1.5023 -1.6811 -2.6374
 1728SOL    HW216818   1.024   2.927   6.051  0.4424  0.4167 -1.1435
 1729SOL     OW16819   4.147   2.118  12.826  0.1235  0.5612  0.3003
 1729SOL    HW116820   4.113   2.101  12.913 -0.6787  2.1430  0.3016
 1729SOL    HW216821   4.216   2.183  12.839  1.8023 -0.6103 -2.7171
 1730SOL     OW16822   0.108   3.945   5.099  0.2198  0.3578  0.1424
 1730SOL    HW116823   0.184   3.963   5.154 -0.5121  1.1177  0.9072
 1730SOL    HW216824   0.112   3.850   5.085 -0.6365  0.4255 -0.5614
 1731SOL     OW16825   1.820   3.420  15.218 -0.2075 -0.1703 -0.2474
 1731SOL    HW116826   1.778   3.334  15.226 -1.8676  0.4584 -2.1058
 1731SOL    HW216827   1.750   3.470  15.260 -0.8020  0.1487 -1.6208
 1732SOL     OW16828   3.145   2.448   5.824  0.0857 -0.0131 -0.4106
 1732SOL    HW116829   3.198   2.387   5.772 -2.1182 -0.7719 -1.7501
 1732SOL    HW216830   3.217   2.498   5.863 -0.9407 -0.5693  2.1926
 1733SOL     OW16831   1.260   0.691   9.160  0.0572 -0.1560 -0.1690
 1733SOL    HW116832   1.245   0.714   9.252 -0.9635  1.5550 -0.7513
 1733SOL    HW216833   1.289   0.769   9.113  1.3749 -1.0789 -0.8767
 1734SOL     OW16834   2.657   0.354   7.568 -0.5537 -0.6672  0.4148
 1734SOL    HW116835   2.606   0.420   7.615  2.3611  0.9160  1.4145
 1734SOL    HW216836   2.594   0.312   7.511 -0.2061 -2.9621  1.7348
 1735SOL     OW16837   2.883   4.378  16.902  0.3703  0.2385  0.5050
 1735SOL    HW116838   2.955   4.338  16.951 -0.2005 -1.0158  0.3301
 1735SOL    HW216839   2.845   4.299  16.863 -0.7397  1.5634 -1.0872
 1736SOL     OW16840   4.328   0.972   6.468  0.3921 -0.4137  0.3235
 1736SOL    HW116841   4.378   0.967   6.386 -1.1308  0.2456 -0.6535
 1736SOL    HW216842   4.247   0.924   6.453  0.3413 -0.2330  0.0183
 1737SOL     OW16843   3.551   2.755   7.531  0.8599 -0.3244  0.1689
 1737SOL    HW116844   3.565   2.849   7.520 -0.4538 -0.1778 -0.2331
 1737SOL    HW216845   3.573   2.721   7.445 -0.2592  0.3501 -0.3829
 1738SOL     OW16846   3.498   0.882  15.643 -0.0434 -0.1465  0.1445
 1738SOL    HW116847   3.464   0.905  15.556  0.8949 -5.6269 -1.6610
 1738SOL    HW216848   3.472   0.962  15.689 -1.4542 -0.9525  0.7503
 1739SOL     OW16849   2.506   3.587   3.226  0.1822 -0.5327 -0.2407
 1739SOL    HW116850   2.475   3.530   3.155  1.1706 -0.2546 -0.8919
 1739SOL    HW216851   2.536   3.662   3.175 -1.5649 -0.4660 -1.1950
 1740SOL     OW16852   1.214   4.488   0.754  0.3234  0.4258  0.0803
 1740SOL    HW116853   1.251   4.542   0.824  1.9018  0.0745 -0.4871
 1740SOL    HW216854   1.200   4.552   0.683 -2.5515  0.1536  0.3760
 1741SOL     OW16855   1.766   0.779   4.388  0.5744 -0.7146 -0.1130
 1741SOL    HW116856   1.766   0.875   4.384 -1.4511 -0.6620  1.1023
 1741SOL    HW216857   1.783   0.751   4.298  0.8496 -1.4547  0.1719
 1742SOL     OW16858   0.213   2.016  14.469 -0.3846  0.0180  0.2482
 1742SOL    HW116859   0.133   2.005  14.521 -0.2937  1.1093  0.6204
 1742SOL    HW216860   0.233   2.104  14.499  1.7934  0.2757 -2.0185
 1743SOL     OW16861   0.329   3.361   8.900  0.1156 -0.2973  0.4114
 1743SOL    HW116862   0.395   3.419   8.938  0.0466 -0.5558  0.9259
 1743SOL    HW216863   0.285   3.409   8.829 -0.6266 -0.9091  0.4502
 1744SOL     OW16864   3.602   0.518   7.278 -0.0206  0.2415 -0.7015
 1744SOL    HW116865   3.566   0.440   7.237  2.4974 -1.0261 -0.4783
 1744SOL    HW216866   3.697   0.509   7.273 -0.1617 -1.3252 -0.5636
 1745SOL     OW16867   3.098   1.036   7.767 -0.1212 -0.1820  0.1703
 1745SOL    HW116868   3.008   1.007   7.755 -0.9300  2.4854 -0.2147
 1745SOL    HW216869   3.156   0.963   7.745  0.1718  0.5619 -1.5325
 1746SOL     OW16870   3.072   2.147   4.867  0.0949  0.2484 -0.3411
 1746SOL    HW116871   3.031   2.105   4.943  1.5627 -1.4605 -0.4827
 1746SOL    HW216872   2.995   2.197   4.841 -0.4036 -0.8448 -1.0082
 1747SOL     OW16873   4.601   2.691  16.036  0.2517 -0.2887 -0.5995
 1747SOL    HW116874   4.554   2.762  16.079  0.4719 -0.8459  0.5759
 1747SOL    HW216875   4.680   2.682  16.089  0.7887  0.0330 -1.3480
 1748SOL     OW16876   4.037   3.329   9.222  0.2076  0.4387 -0.3603
 1748SOL    HW116877   4.061   3.373   9.140  0.1060  2.1028  0.5040
 1748SOL    HW216878   4.105   3.261   9.216  0.3522  0.5854 -0.3714
 1749SOL     OW16879   2.204   0.726   2.818  0.1811  0.9690  0.5030
 1749SOL    HW116880   2.285   0.686   2.786  0.2482  0.4103  1.3725
 1749SOL    HW216881   2.171   0.665   2.884  1.4338 -0.4239 -0.1342
 1750SOL     OW16882   0.708   3.147   2.395  0.0318  0.3880 -0.4603
 1750SOL    HW116883   0.624   3.139   2.439  1.5710 -0.7698  2.2480
 1750SOL    HW216884   0.766   3.155   2.471  0.0711 -0.4404 -0.4048
 1751SOL     OW16885   4.435   1.966   7.742  0.3746  0.3994 -0.0397
 1751SOL    HW116886   4.441   1.871   7.742 -0.1932  0.3539  1.4053
 1751SOL    HW216887   4.369   1.968   7.812  0.1054 -0.8368 -0.2608
 1752SOL     OW16888   1.942   4.098  11.356  0.1778 -0.0610 -0.1989
 1752SOL    HW116889   1.902   4.162  11.415 -1.0141 -0.8272 -0.1713
 1752SOL    HW216890   1.870   4.059  11.306 -0.7503 -0.9962  1.8792
 1753SOL     OW16891   4.125   1.053   2.536 -0.1324 -0.0961  0.1934
 1753SOL    HW116892   4.063   1.014   2.474 -0.6437  0.9241  0.0620
 1753SOL    HW216893   4.090   1.142   2.542  0.4512  0.0446  1.4897
 1754SOL     OW16894   1.015   2.630   3.948  0.4039 -0.6392  0.3172
 1754SOL    HW116895   1.007   2.586   3.863  0.8718 -0.5690  0.2359
 1754SOL    HW216896   1.064   2.707   3.919  0.6491 -1.0855 -0.4600
 1755SOL     OW16897   3.005   0.738  17.569 -0.5552  0.0605  0.2918
 1755SOL    HW116898   3.041   0.792  17.498 -0.2381  0.8018  1.0085
 1755SOL    HW216899   2.915   0.769  17.582 -0.6745  0.2380 -0.9837
 1756SOL     OW16900   0.616   3.568  14.187  0.2723  0.0030 -0.1060
 1756SOL    HW116901   0.569   3.582  14.268 -0.2894  0.4421 -0.5116
 1756SOL    HW216902   0.570   3.614  14.117  0.2576  1.6935  1.0264
 1757SOL     OW16903   1.435   0.877  16.769 -0.3208  0.4071  0.0493
 1757SOL    HW116904   1.434   0.854  16.862 -2.8829 -3.9046 -1.0040
 1757SOL    HW216905   1.344   0.901  16.757  0.1026  0.8522 -2.2224
 1758SOL     OW16906   2.968   2.777   7.696 -0.1530 -0.2333 -0.0585
 1758SOL    HW116907   3.015   2.840   7.642  0.6384  0.8669  1.8860
 1758SOL    HW216908   2.879   2.811   7.710 -0.5522 -1.1190 -0.5130
 1759SOL     OW16909   3.117   0.997   2.743  0.2924  0.4817  0.1224
 1759SOL    HW116910   3.089   0.938   2.812  1.2933  0.4466  0.4995
 1759SOL    HW216911   3.160   1.068   2.792 -0.6375  1.7530 -0.9135
 1760SOL     OW16912   2.500   2.399   7.802  0.1204 -0.0901 -0.3170
 1760SOL    HW116913   2.483   2.310   7.833 -2.8949  0.7054  0.3391
 1760SOL    HW216914   2.446   2.407   7.723 -0.1817  0.3269 -0.0637
 1761SOL     OW16915   1.447   1.340   1.099 -0.3314  0.1876  0.0347
 1761SOL    HW116916   1.499   1.272   1.056  0.3922 -0.3076  1.7063
 1761SOL    HW216917   1.367   1.342   1.047  1.0865 -1.0161 -2.2113
 1762SOL     OW16918   1.054   0.494   9.526  0.1288  0.2599  0.1474
 1762SOL    HW116919   1.003   0.479   9.606 -0.0589 -0.2340 -0.0614
 1762SOL    HW216920   0.983   0.504   9.463  0.1842  0.9104  0.1908
 1763SOL     OW16921   3.519   2.112   7.370  0.8283 -0.4420  0.4923
 1763SOL    HW116922   3.529   2.055   7.294 -1.4685  2.0951 -1.7350
 1763SOL    HW216923   3.450   2.060   7.411  3.0629 -2.4570  1.6134
 1764SOL     OW16924   0.875   4.457   3.647 -0.1794  0.5226 -0.2845
 1764SOL    HW116925   0.837   4.410   3.573  1.6941  1.2433 -1.7191
 1764SOL    HW216926   0.931   4.524   3.608  0.5651 -0.3380 -0.7065
 1765SOL     OW16927   0.132   2.864  17.415  0.2329 -0.4273 -0.1204
 1765SOL    HW116928   0.174   2.942  17.452  1.4300 -0.7181 -0.8689
 1765SOL    HW216929   0.114   2.895  17.326 -1.0096  1.5088  0.8274
 1766SOL     OW16930   2.722   1.822  11.848 -0.1188 -0.3924  0.2608
 1766SOL    HW116931   2.650   1.801  11.788 -1.6876 -0.2599  2.1044
 1766SOL    HW216932   2.702   1.775  11.929 -1.1687  0.3008  0.4038
 1767SOL     OW16933   3.911   3.917   5.175  0.1609  0.3216  0.0365
 1767SOL    HW116934   3.882   3.930   5.085 -0.9708  0.2191  0.3848
 1767SOL    HW216935   3.982   3.853   5.161 -0.2419 -0.0488 -0.3055
 1768SOL     OW16936   3.608   0.610   8.750 -0.3778 -0.0460 -0.3126
 1768SOL    HW116937   3.657   0.562   8.817 -1.5852 -0.0514  0.5814
 1768SOL    HW216938   3.669   0.677   8.720  0.1070 -0.0642  0.6563
 1769SOL     OW16939   3.473   3.704   2.646  0.2702 -0.1718 -0.1781
 1769SOL    HW116940   3.520   3.638   2.697  1.0665  0.0907 -0.5789
 1769SOL    HW216941   3.499   3.674   2.560  0.6225  1.5194 -0.6687
 1770SOL     OW16942   0.634   0.340   5.679 -0.4604 -0.1286  0.0906
 1770SOL    HW116943   0.604   0.281   5.748  0.6151 -0.6605  0.1053
 1770SOL    HW216944   0.717   0.360   5.723 -0.6739 -0.8941  0.8382
 1771SOL     OW16945   3.491   2.060   0.112  0.2924 -0.2058 -0.0546
 1771SOL    HW116946   3.470   2.085   0.022  0.7678  0.6594  0.0722
 1771SOL    HW216947   3.404   2.046   0.149  1.1112  0.2415  2.0466
 1772SOL     OW16948   0.246   0.572  11.820  0.0224 -0.3110 -0.2747
 1772SOL    HW116949   0.277   0.559  11.730 -0.7651 -1.4451 -0.3794
 1772SOL    HW216950   0.164   0.614  11.793 -1.6056 -2.8877  0.6488
 1773SOL     OW16951   3.557   4.272   6.416  0.2157  0.2008  0.4734
 1773SOL    HW116952   3.633   4.222   6.448  0.6986  0.7513  0.1960
 1773SOL    HW216953   3.592   4.313   6.337  0.6125 -0.7807  0.1349
 1774SOL     OW16954   0.879   3.735   5.012  0.0926  0.5412  0.1613
 1774SOL    HW116955   0.970   3.705   5.007 -0.6117 -2.0120  2.8041
 1774SOL    HW216956   0.839   3.690   4.938  0.1931  0.9593 -0.1447
 1775SOL     OW16957   4.363   3.557  11.534 -0.0260  0.2779 -0.5888
 1775SOL    HW116958   4.377   3.574  11.441  3.0654 -1.2910 -0.4281
 1775SOL    HW216959   4.430   3.617  11.567 -1.8795  2.6045 -1.1299
 1776SOL     OW16960   3.700   0.635  12.349 -0.4224  0.3128 -0.4122
 1776SOL    HW116961   3.694   0.717  12.300  0.1182  1.2936  1.1478
 1776SOL    HW216962   3.780   0.596  12.315  0.0597  1.1197 -0.1943
 1777SOL     OW16963   4.546   4.496  16.733 -0.0044  0.4892  0.0069
 1777SOL    HW116964   4.539   4.572  16.791  2.5085  0.1871  0.7060
 1777SOL    HW216965   4.478   4.518  16.669 -2.7916 -0.7530  2.5033
 1778SOL     OW16966   0.486   0.041   5.735  0.2512 -0.6108  0.0737
 1778SOL    HW116967   0.471   0.049   5.641 -1.2668  0.9455  0.4546
 1778SOL    HW216968   0.399   0.013   5.761  1.0646  0.0641  3.4740
 1779SOL     OW16969   3.088   0.675   5.732 -0.1756  0.0756 -0.7554
 1779SOL    HW116970   3.102   0.704   5.822 -0.8425  1.7032 -1.1750
 1779SOL    HW216971   3.000   0.638   5.736  0.2053 -0.8761 -1.3518
 1780SOL     OW16972   2.835   4.531  17.279 -0.0855  0.3055  0.6016
 1780SOL    HW116973   2.881   4.476  17.342  0.8866  1.8537  1.2436
 1780SOL    HW216974   2.751   4.485  17.281  0.4632 -0.6757  1.3168
 1781SOL     OW16975   0.027   3.918   1.559 -0.5997 -0.3636 -0.7259
 1781SOL    HW116976   0.067   3.831   1.553  0.6547  0.3071 -1.9313
 1781SOL    HW216977   0.048   3.939   1.650 -1.3187 -0.7710 -0.4698
 1782SOL     OW16978   3.102   3.118   7.074  0.2016 -0.5022 -0.1113
 1782SOL    HW116979   3.168   3.159   7.017 -1.3917  0.0541 -1.5502
 1782SOL    HW216980   3.052   3.064   7.013 -1.7547  3.0854 -1.7041
 1783SOL     OW16981   0.830   4.233   2.904 -0.2216 -0.6344 -0.7170
 1783SOL    HW116982   0.819   4.164   2.970  0.2070 -1.9700 -2.0280
 1783SOL    HW216983   0.925   4.239   2.899 -0.0861 -0.4264  1.8459
 1784SOL     OW16984   2.957   4.141   8.929  0.2209 -0.9964 -0.3828
 1784SOL    HW116985   3.033   4.086   8.910  1.1319  0.6186 -1.3344
 1784SOL    HW216986   2.980   4.171   9.017  0.6311 -2.5124  0.0272
 1785SOL     OW16987   4.394   0.068   3.279  0.0771 -0.0997  0.1179
 1785SOL    HW116988   4.335   0.024   3.340 -1.3835  1.1354 -0.3855
 1785SOL    HW216989   4.468   0.067   3.338  0.8672 -0.6999 -0.8861
 1786SOL     OW16990   3.660   3.549   9.574 -0.4332  0.3020  0.2355
 1786SOL    HW116991   3.734   3.528   9.516  0.7279  3.3962  0.5946
 1786SOL    HW216992   3.590   3.511   9.520  0.4956 -1.5799  0.3473
 1787SOL     OW16993   4.489   2.514  11.037 -0.2641 -0.5282  0.4071
 1787SOL    HW116994   4.414   2.572  11.048  0.7053  0.6450  0.8094
 1787SOL    HW216995   4.565   2.570  11.052 -1.4510  1.0589  0.4520
 1788SOL     OW16996   2.107   2.479  16.507  0.2490 -0.7724  0.4277
 1788SOL    HW116997   2.163   2.452  16.434 -1.3773 -2.1877 -0.2702
 1788SOL    HW216998   2.057   2.549  16.465  1.5875 -1.3125 -2.0621
 1789SOL     OW16999   3.537   1.205   9.215 -0.6803  0.0144 -0.3777
 1789SOL    HW117000   3.620   1.206   9.166  0.0798 -0.3189  0.8993
 1789SOL    HW217001   3.548   1.118   9.254 -1.1247  0.3491  0.4866
 1790SOL     OW17002   3.154   2.599   6.465 -0.3133 -0.3873 -0.2164
 1790SOL    HW117003   3.068   2.640   6.464  1.1275  2.7028  1.4467
 1790SOL    HW217004   3.197   2.657   6.529 -3.5925  0.7530  0.9739
 1791SOL     OW17005   4.091   0.826   4.031  0.5996  0.4089  0.4107
 1791SOL    HW117006   4.099   0.806   3.938 -0.4844  1.1061  0.1659
 1791SOL    HW217007   4.101   0.921   4.034  2.3363  0.2108  0.9573
 1792SOL     OW17008   0.339   1.171   9.611  0.5928  0.1185 -0.4038
 1792SOL    HW117009   0.365   1.137   9.697 -2.1869 -1.8306 -0.3238
 1792SOL    HW217010   0.379   1.258   9.619 -0.1796  0.4156  0.1723
 1793SOL     OW17011   4.221   1.906   0.361  0.5178 -0.3610  0.6398
 1793SOL    HW117012   4.146   1.848   0.351 -0.0439  0.2997  0.9655
 1793SOL    HW217013   4.182   1.988   0.329  1.1213 -0.0899  0.5988
 1794SOL     OW17014   2.756   0.905   4.975  0.7566  0.1409  0.0020
 1794SOL    HW117015   2.692   0.923   4.907  0.9335  3.0989  0.6319
 1794SOL    HW217016   2.798   0.823   4.949  1.4212  0.5345 -0.1600
 1795SOL     OW17017   1.648   4.056   9.694  0.1708  0.0717 -0.1037
 1795SOL    HW117018   1.609   3.971   9.674  1.1522 -0.5839  0.7099
 1795SOL    HW217019   1.725   4.060   9.638  0.1701 -1.1721 -0.1886
 1796SOL     OW17020   0.952   3.774   6.625  0.2409 -0.4426 -0.2745
 1796SOL    HW117021   0.975   3.866   6.613 -0.1247 -0.3194 -0.0547
 1796SOL    HW217022   0.943   3.743   6.535 -0.9900 -1.1353  0.0824
 1797SOL     OW17023   4.331   1.996  10.225  0.2990 -0.0678  0.1942
 1797SOL    HW117024   4.408   1.957  10.267 -1.0277 -2.7685  0.1429
 1797SOL    HW217025   4.279   1.916  10.218  0.9706 -0.5740  0.9243
 1798SOL     OW17026   2.646   2.688   6.175  0.0533 -0.3309  0.2169
 1798SOL    HW117027   2.641   2.781   6.151 -1.9389  0.0621  2.1123
 1798SOL    HW217028   2.735   2.676   6.142 -0.4299 -1.1400 -0.7645
 1799SOL     OW17029   4.396   4.633  12.341 -0.0669  0.2061 -0.1415
 1799SOL    HW117030   4.464   4.581  12.384  0.0971  0.6476  0.1358
 1799SOL    HW217031   4.332   4.606  12.406  0.0737  2.3274  0.9007
 1800SOL     OW17032   3.468   2.262   5.474  0.0897 -0.4861  0.1423
 1800SOL    HW117033   3.537   2.200   5.451 -0.4592 -0.5711 -1.2422
 1800SOL    HW217034   3.506   2.347   5.455  0.8296 -1.1471 -1.2932
 1801SOL     OW17035   3.351   1.578   2.520  0.1676 -0.2201 -0.1003
 1801SOL    HW117036   3.384   1.550   2.606  1.9071  0.1536 -0.6453
 1801SOL    HW217037   3.282   1.515   2.498  0.5904  0.5490 -3.6233
 1802SOL     OW17038   0.425   0.404   4.217 -0.4748 -0.4680 -0.6378
 1802SOL    HW117039   0.412   0.465   4.290  0.5545 -0.5108 -0.4215
 1802SOL    HW217040   0.345   0.350   4.215  0.3745 -1.8285  3.0909
 1803SOL     OW17041   3.302   2.689   2.181 -0.1977  0.1041 -0.2481
 1803SOL    HW117042   3.219   2.734   2.165 -0.5885  0.0334  1.5806
 1803SOL    HW217043   3.357   2.725   2.111 -0.2192  1.8189  0.6254
 1804SOL     OW17044   4.725   3.246  13.603 -0.6761 -0.1477  0.1785
 1804SOL    HW117045   4.642   3.227  13.647 -0.5559  0.0217  0.4800
 1804SOL    HW217046   4.710   3.230  13.510 -0.8592 -1.7600  0.4871
 1805SOL     OW17047   0.200   0.180   6.235  0.4993 -0.1416 -0.3199
 1805SOL    HW117048   0.112   0.206   6.262  1.0023  0.8142  0.3877
 1805SOL    HW217049   0.200   0.084   6.233  1.7994 -0.1362 -0.2393
 1806SOL     OW17050   3.747   2.995  13.736  0.5367  0.3031  0.3735
 1806SOL    HW117051   3.834   2.967  13.764  0.5923 -0.1727 -0.2801
 1806SOL    HW217052   3.760   2.989  13.641 -0.9452 -1.7958  0.3099
 1807SOL     OW17053   0.923   1.518   5.349 -0.5320 -0.0787 -0.0575
 1807SOL    HW117054   0.889   1.501   5.261 -0.3350  1.0032 -0.3448
 1807SOL    HW217055   0.910   1.610   5.374 -2.2672 -0.2141 -0.5087
 1808SOL     OW17056   0.298   4.364   2.508 -0.0304  0.6735 -1.1258
 1808SOL    HW117057   0.208   4.338   2.526  0.9096 -1.2070  0.8488
 1808SOL    HW217058   0.305   4.336   2.417  0.4277 -1.3474 -0.4716
 1809SOL     OW17059   0.725   1.453   7.356  0.3501  0.5555  0.0985
 1809SOL    HW117060   0.787   1.389   7.390  0.1653  0.2123 -0.2086
 1809SOL    HW217061   0.744   1.442   7.263  0.3234 -0.1743  0.1768
 1810SOL     OW17062   0.264   0.386   4.452 -0.3908 -0.1709 -0.4280
 1810SOL    HW117063   0.329   0.381   4.521  0.2918  0.1265 -1.0522
 1810SOL    HW217064   0.217   0.303   4.465 -1.5364  0.2939 -1.5513
 1811SOL     OW17065   1.278   0.172   0.734  0.2386  0.2507  0.1918
 1811SOL    HW117066   1.234   0.087   0.729 -0.6889  0.7538  0.0364
 1811SOL    HW217067   1.313   0.173   0.824  0.6221 -0.6384  0.0620
 1812SOL     OW17068   2.861   2.734   8.850  0.3440 -1.0214  0.7062
 1812SOL    HW117069   2.790   2.744   8.914 -1.0778 -0.4366 -0.9467
 1812SOL    HW217070   2.921   2.803   8.875 -1.4540 -0.4144  3.3300
 1813SOL     OW17071   3.223   0.826   7.951  0.5458 -0.0697  0.5860
 1813SOL    HW117072   3.190   0.736   7.942 -2.8665  1.5242 -2.8691
 1813SOL    HW217073   3.152   0.861   8.004 -1.6514  1.1322 -3.1352
 1814SOL     OW17074   4.225   1.063   8.055  0.2974  0.3828  0.0891
 1814SOL    HW117075   4.240   1.107   8.138  1.7469 -1.6180  0.9039
 1814SOL    HW217076   4.301   1.005   8.067 -0.3792 -0.8874 -1.8487
 1815SOL     OW17077   3.876   0.745  15.988 -0.1905 -0.0515 -0.0741
 1815SOL    HW117078   3.835   0.751  15.901 -0.4639  0.7771  0.1098
 1815SOL    HW217079   3.944   0.812  15.984 -0.4268  0.0608 -2.7144
 1816SOL     OW17080   3.239   1.770   6.464 -0.2709  0.5970 -0.2971
 1816SOL    HW117081   3.304   1.700   6.469 -2.0317 -0.7479  3.8741
 1816SOL    HW217082   3.283   1.829   6.403  2.2496 -0.8475  0.1654
 1817SOL     OW17083   2.857   2.917  17.097 -0.6796 -0.0787 -0.4360
 1817SOL    HW117084   2.854   2.967  17.015 -0.7506 -0.3964 -0.6263
 1817SOL    HW217085   2.826   2.832  17.065  1.5651 -0.4310 -1.6486
 1818SOL     OW17086   1.354   4.233  10.786  0.1777 -0.2182 -0.0940
 1818SOL    HW117087   1.263   4.240  10.756  0.1481 -2.2743 -0.4762
 1818SOL    HW217088   1.382   4.319  10.754  0.6744 -0.8999 -1.4564
 1819SOL     OW17089   3.581   0.795   5.791  0.2311  0.4363  0.3086
 1819SOL    HW117090   3.588   0.704   5.765  0.9217  0.7740 -0.6803
 1819SOL    HW217091   3.544   0.785   5.879  0.8580 -1.7747  0.3089
 1820SOL     OW17092   0.090   3.332  15.824  0.1313 -0.2984 -0.1823
 1820SOL    HW117093   0.077   3.238  15.833 -1.5147  0.2345  3.2169
 1820SOL    HW217094   0.014   3.364  15.776  2.6562  0.5523 -3.6441
 1821SOL     OW17095   3.756   2.860   0.846 -0.3753  0.2382 -0.4341
 1821SOL    HW117096   3.848   2.866   0.873 -0.3572 -0.4493 -0.3420
 1821SOL    HW217097   3.748   2.918   0.770  0.6663  1.5918  0.5094
 1822SOL     OW17098   2.246   4.721   8.418 -0.4681  0.1411  0.1275
 1822SOL    HW117099   2.286   4.636   8.435 -2.4009 -1.0815 -1.5250
 1822SOL    HW217100   2.192   0.001   8.495  1.7282 -0.2105  1.7516
 1823SOL     OW17101   3.437   4.532   2.103 -0.0198  0.2261 -0.3883
 1823SOL    HW117102   3.352   4.548   2.144  0.9798 -0.0810  1.7780
 1823SOL    HW217103   3.445   4.437   2.096  1.1001  0.0746  3.1533
 1824SOL     OW17104   3.484   2.016   4.496  0.0838 -0.3472 -1.0054
 1824SOL    HW117105   3.543   1.941   4.499  3.4894  2.4162  1.0753
 1824SOL    HW217106   3.404   1.982   4.457  0.0831 -1.0835 -0.3525
 1825SOL     OW17107   4.589   4.725   6.868  0.3889  0.2995  0.1421
 1825SOL    HW117108   4.628   0.046   6.933 -0.7570  0.7340  0.4365
 1825SOL    HW217109   4.665   4.695   6.818  0.6383  2.3058 -0.7046
 1826SOL     OW17110   1.785   3.469   6.864  0.0903 -0.2344 -0.4205
 1826SOL    HW117111   1.775   3.376   6.887 -0.2782 -0.1966 -0.4314
 1826SOL    HW217112   1.878   3.485   6.881 -0.0313 -0.3209  0.3497
 1827SOL     OW17113   3.179   2.064  15.394 -0.5583  0.2428 -0.5779
 1827SOL    HW117114   3.174   1.989  15.453 -3.6658 -0.6361 -1.9125
 1827SOL    HW217115   3.271   2.083  15.412 -0.8932  0.9938  0.3717
 1828SOL     OW17116   4.625   4.692   6.400 -0.5203  0.2917  0.0504
 1828SOL    HW117117   4.684   4.618   6.418  1.1013  1.8918  1.2226
 1828SOL    HW217118   4.553   4.681   6.463  0.6489  0.9133  1.4782
 1829SOL     OW17119   0.636   0.116  11.384  0.2957 -0.2621 -0.0547
 1829SOL    HW117120   0.647   0.081  11.473  0.8245 -1.5460 -0.6236
 1829SOL    HW217121   0.644   0.035  11.334 -0.1697 -0.2914 -0.0876
 1830SOL     OW17122   1.254   2.610   7.991 -0.4705 -0.1951  0.1236
 1830SOL    HW117123   1.231   2.542   7.928 -3.1636  0.1535  0.7576
 1830SOL    HW217124   1.236   2.560   8.071  1.7715 -2.9493 -1.1097
 1831SOL     OW17125   4.222   4.051   6.150 -0.2224 -0.1076 -0.2376
 1831SOL    HW117126   4.181   4.001   6.080 -0.8579  0.6392 -0.3984
 1831SOL    HW217127   4.296   3.993   6.166 -1.0792 -0.9053  0.7950
 1832SOL     OW17128   3.902   2.477   2.497 -0.4699 -0.1110 -0.0744
 1832SOL    HW117129   3.916   2.406   2.435 -2.8916  0.5139 -1.3138
 1832SOL    HW217130   3.827   2.443   2.545 -1.1474  0.9719 -0.3560
 1833SOL     OW17131   0.863   0.892   3.424  0.3862 -0.6782 -0.0355
 1833SOL    HW117132   0.819   0.965   3.468  1.2807 -0.3277  0.2659
 1833SOL    HW217133   0.824   0.894   3.337  2.8010  0.2522 -1.0900
 1834SOL     OW17134   1.438   1.354   8.676  0.3372  0.0726 -0.1661
 1834SOL    HW117135   1.462   1.393   8.761  1.7864  1.2240 -1.1006
 1834SOL    HW217136   1.487   1.272   8.681 -0.0980 -0.1182  1.0283
 1835SOL     OW17137   1.211   1.932   9.682 -0.2784  0.1159 -0.6580
 1835SOL    HW117138   1.275   1.918   9.752 -0.7215  0.7789 -0.1246
 1835SOL    HW217139   1.252   2.000   9.627 -1.1004  0.1045 -1.2807
 1836SOL     OW17140   3.310   3.199   6.886  0.6217 -0.2074  0.4595
 1836SOL    HW117141   3.403   3.211   6.904  1.0135  0.5480 -2.1369
 1836SOL    HW217142   3.311   3.214   6.792  0.1943 -0.2253  0.4506
 1837SOL     OW17143   1.069   0.303  11.537  0.0172 -0.5250 -0.8083
 1837SOL    HW117144   1.101   0.328  11.450 -2.5532 -1.3767 -1.9901
 1837SOL    HW217145   0.984   0.267  11.513  0.1975 -0.8617 -0.9559
 1838SOL     OW17146   1.346   2.037   6.830  0.0322 -0.3878  0.0019
 1838SOL    HW117147   1.273   2.071   6.881  1.2963 -0.1214  1.6452
 1838SOL    HW217148   1.419   2.092   6.858 -0.0897 -0.3028  0.1458
 1839SOL     OW17149   1.496   0.523   8.193 -0.1906 -0.1885 -0.0195
 1839SOL    HW117150   1.480   0.485   8.279 -1.6949  0.2399 -0.1221
 1839SOL    HW217151   1.566   0.585   8.213  0.3408  0.4289 -3.6948
 1840SOL     OW17152   2.644   4.727   1.665  0.1837  0.3235  0.2473
 1840SOL    HW117153   2.591   4.647   1.659  1.1396 -0.0841 -2.6132
 1840SOL    HW217154   2.714   4.707   1.603  0.2268  1.2536  0.0066
 1841SOL     OW17155   3.766   2.087  17.304  0.3489  0.3544  0.0873
 1841SOL    HW117156   3.779   2.181  17.309 -3.0320  0.8566 -0.7379
 1841SOL    HW217157   3.746   2.080  17.210 -0.1070 -0.5990  0.2555
 1842SOL     OW17158   2.481   4.510   7.133 -0.1495 -0.7732  0.4657
 1842SOL    HW117159   2.558   4.497   7.188 -1.0034  1.9881  2.3050
 1842SOL    HW217160   2.524   4.514   7.047 -0.9725  0.1647  0.0894
 1843SOL     OW17161   3.184   4.349   3.500  0.4583  0.9195  0.5090
 1843SOL    HW117162   3.268   4.304   3.513  0.1624  1.0307  2.7259
 1843SOL    HW217163   3.139   4.308   3.574 -4.0230  1.4652 -1.9499
 1844SOL     OW17164   2.731   0.166   3.927  0.4157 -0.1859 -0.6966
 1844SOL    HW117165   2.736   0.252   3.970  0.7801 -0.7724  0.4206
 1844SOL    HW217166   2.722   0.185   3.833  0.0818  0.1086 -0.6058
 1845SOL     OW17167   4.155   1.259   7.365  0.2805 -0.2252 -0.4657
 1845SOL    HW117168   4.233   1.216   7.399 -0.3097  0.4316  1.7281
 1845SOL    HW217169   4.201   1.309   7.297 -1.1408 -2.7312 -3.2738
 1846SOL     OW17170   0.919   0.718   0.579 -0.5331  0.4175  0.6407
 1846SOL    HW117171   0.962   0.669   0.509  1.6434  2.3459  0.6430
 1846SOL    HW217172   0.882   0.650   0.636 -2.6034  0.3204 -0.8336
 1847SOL     OW17173   2.164   3.962   8.680  0.2327  0.0532 -0.1557
 1847SOL    HW117174   2.205   3.985   8.597  0.2395 -0.0566 -0.1824
 1847SOL    HW217175   2.231   3.896   8.699 -2.1856 -2.5139 -0.7539
 1848SOL     OW17176   4.705   2.673  10.079 -0.0469  0.1186 -0.0152
 1848SOL    HW117177   0.015   2.726  10.014 -1.1705  0.8783 -0.1985
 1848SOL    HW217178   4.692   2.732  10.153 -3.0389 -1.7519  0.9534
 1849SOL     OW17179   2.254   1.198   2.127 -0.2922 -0.1646  0.0496
 1849SOL    HW117180   2.241   1.143   2.205  0.0278  0.8836  0.8423
 1849SOL    HW217181   2.266   1.283   2.170 -0.2797  0.2589 -0.8061
 1850SOL     OW17182   2.098   3.781   6.788  0.8864 -0.5476  0.1584
 1850SOL    HW117183   2.132   3.845   6.850  0.6710 -0.6690  0.4008
 1850SOL    HW217184   2.064   3.715   6.849  2.6065 -1.8642 -0.2919
 1851SOL     OW17185   1.386   1.149   7.865 -0.3636  0.3404 -0.1948
 1851SOL    HW117186   1.408   1.229   7.913  1.1125  0.9041 -1.8063
 1851SOL    HW217187   1.309   1.190   7.825 -0.3462  1.1667  0.6216
 1852SOL     OW17188   0.138   4.272   5.716 -0.6284 -0.1980  0.0518
 1852SOL    HW117189   0.199   4.340   5.688 -1.0705 -0.9690 -2.7534
 1852SOL    HW217190   0.164   4.196   5.664  0.4697 -0.4972  1.0324
 1853SOL     OW17191   0.635   4.655   6.662 -0.1681 -0.1426  0.0872
 1853SOL    HW117192   0.668   4.634   6.750 -2.2330 -0.9437  0.6716
 1853SOL    HW217193   0.684   4.731   6.632 -1.5665  0.6725 -0.1129
 1854SOL     OW17194   3.501   3.857   8.991 -0.5037 -0.0199  0.5028
 1854SOL    HW117195   3.421   3.825   8.948 -0.2219  0.9730 -0.7710
 1854SOL    HW217196   3.539   3.770   9.005 -0.9219 -0.6350 -2.0779
 1855SOL     OW17197   1.741   4.601  10.663  0.2454  0.4139 -0.1209
 1855SOL    HW117198   1.724   4.514  10.627  2.1133  0.4507 -1.0758
 1855SOL    HW217199   1.685   4.660  10.612 -0.0032  1.0555  0.8996
 1856SOL     OW17200   3.497   4.348   5.809  0.2775  0.2637  0.0052
 1856SOL    HW117201   3.436   4.402   5.858  0.3039  0.2180  0.0875
 1856SOL    HW217202   3.442   4.305   5.743 -0.7580  1.5987  0.0064
 1857SOL     OW17203   3.217   2.128   6.269  0.2201  0.2244  0.2434
 1857SOL    HW117204   3.282   2.184   6.312  0.7222 -0.9967  1.1098
 1857SOL    HW217205   3.264   2.045   6.264  0.5518  0.3213  1.7393
 1858SOL     OW17206   1.858   0.293  10.749  0.4197 -0.6621  0.0612
 1858SOL    HW117207   1.812   0.218  10.711  1.4076 -1.1739 -0.1027
 1858SOL    HW217208   1.797   0.364  10.727  1.5386  0.5646  0.9679
 1859SOL     OW17209   3.640   2.239  11.769 -0.4950 -0.2367  0.8485
 1859SOL    HW117210   3.732   2.213  11.784 -0.4730 -0.6117  0.0524
 1859SOL    HW217211   3.598   2.161  11.806 -0.4729 -1.3044 -1.4031
 1860SOL     OW17212   3.187   0.462   4.909  0.2120  0.2287 -0.3651
 1860SOL    HW117213   3.237   0.383   4.888  2.1919  0.9648  1.5487
 1860SOL    HW217214   3.156   0.437   4.996 -1.5713  0.3977 -0.9609
 1861SOL     OW17215   2.372   3.943   0.202  0.8881  0.5653 -0.2334
 1861SOL    HW117216   2.406   3.983   0.282 -0.8423 -1.2634  1.4398
 1861SOL    HW217217   2.331   4.021   0.164  2.7153  1.0274 -1.2413
 1862SOL     OW17218   0.728   3.471   8.497  0.6149 -0.1435 -0.0557
 1862SOL    HW117219   0.696   3.560   8.516  1.0185 -0.2536  1.1041
 1862SOL    HW217220   0.805   3.460   8.551  1.9097  0.4117 -1.7894
 1863SOL     OW17221   1.936   0.132   7.814  0.2482  0.3142 -0.0523
 1863SOL    HW117222   2.000   0.073   7.774  0.8937 -0.1769  1.6772
 1863SOL    HW217223   1.858   0.093   7.776  1.2948 -0.2715 -1.5826
 1864SOL     OW17224   1.375   4.424   5.004 -0.2766  0.4225  0.0599
 1864SOL    HW117225   1.441   4.493   5.008 -1.5402  1.7015 -0.9638
 1864SOL    HW217226   1.340   4.409   5.091  1.4493 -0.3302  0.6169
 1865SOL     OW17227   1.612   1.531  14.862 -0.0072 -0.4022  0.0167
 1865SOL    HW117228   1.531   1.555  14.908  0.9310  0.3520  1.2721
 1865SOL    HW217229   1.605   1.436  14.862 -3.0099 -0.1870 -1.6059
 1866SOL     OW17230   0.930   2.927   9.102 -0.9010 -0.4229 -0.0840
 1866SOL    HW117231   0.850   2.979   9.094 -1.6134 -1.3140  1.2228
 1866SOL    HW217232   0.982   2.956   9.027  1.1638 -2.0679  0.7200
 1867SOL     OW17233   1.270   0.677   8.225  0.0468  0.3185 -0.0406
 1867SOL    HW117234   1.293   0.735   8.153 -0.4767  0.0838 -0.3912
 1867SOL    HW217235   1.320   0.596   8.212 -1.1897 -0.6465  1.1866
 1868SOL     OW17236   2.754   1.726  12.430  0.0789 -0.0946 -0.2334
 1868SOL    HW117237   2.762   1.634  12.404  1.4468 -0.4013  1.2408
 1868SOL    HW217238   2.669   1.722  12.473 -0.0178  1.3491 -0.2876
 1869SOL     OW17239   1.791   2.375   3.279  0.4750  0.1897  0.3590
 1869SOL    HW117240   1.766   2.285   3.296 -1.5685  0.8147  0.7529
 1869SOL    HW217241   1.706   2.414   3.301 -0.2122 -0.7749 -0.6108
 1870SOL     OW17242   4.125   1.928   4.132  0.2129  0.3208  0.6075
 1870SOL    HW117243   4.144   1.976   4.212  0.8539  0.1460  0.5597
 1870SOL    HW217244   4.030   1.916   4.127  0.2411  1.0322 -1.6088
 1871SOL     OW17245   1.787   2.397  17.277 -0.3746 -0.2176  0.3122
 1871SOL    HW117246   1.813   2.486  17.301  1.5973 -0.9118  0.7680
 1871SOL    HW217247   1.875   2.359  17.278 -0.6054 -0.7835 -0.8635
 1872SOL     OW17248   3.983   1.210   6.240 -0.2332  0.1424 -0.0441
 1872SOL    HW117249   4.007   1.187   6.330 -1.5366 -0.9926 -0.0011
 1872SOL    HW217250   4.056   1.166   6.196 -0.0947  0.4514 -0.1210
 1873SOL     OW17251   3.956   2.066  13.497  0.4030 -0.4547 -0.3377
 1873SOL    HW117252   3.886   2.112  13.544 -0.4742 -1.5304 -0.6041
 1873SOL    HW217253   3.928   1.975  13.485 -1.7455  0.1509  0.0924
 1874SOL     OW17254   3.062   0.260  16.287 -0.3287  0.3198  0.0770
 1874SOL    HW117255   3.095   0.299  16.206 -1.3179 -0.6669 -0.7939
 1874SOL    HW217256   3.017   0.329  16.336 -0.1066  1.5795 -1.4707
 1875SOL     OW17257   0.317   1.603   6.149  0.1053  0.3189  0.1425
 1875SOL    HW117258   0.360   1.682   6.184  2.6080 -1.2015  0.5271
 1875SOL    HW217259   0.253   1.572   6.212 -0.1437 -0.6669 -0.5928
 1876SOL     OW17260   4.619   1.150   8.229  0.1686 -0.2350 -0.3777
 1876SOL    HW117261   4.634   1.146   8.324  2.4113  1.0275 -0.6812
 1876SOL    HW217262   4.531   1.184   8.216  0.9486  0.6907 -3.1565
 1877SOL     OW17263   2.963   0.913   8.030  0.4488 -0.0490  0.4442
 1877SOL    HW117264   2.921   0.994   8.002 -0.8358  0.0935  2.7681
 1877SOL    HW217265   2.902   0.866   8.088  1.7611  0.4700  2.2670
 1878SOL     OW17266   3.565   2.571   2.080 -0.6152  0.2266  0.1409
 1878SOL    HW117267   3.620   2.518   2.023 -0.1807 -1.2772  1.9763
 1878SOL    HW217268   3.495   2.506   2.073  1.0518 -1.3401 -2.0317
 1879SOL     OW17269   2.085   1.011   0.998 -0.2379 -0.1256  0.1906
 1879SOL    HW117270   2.106   1.093   0.952 -0.0761 -0.5439 -0.4905
 1879SOL    HW217271   2.161   0.998   1.054 -1.2822 -1.2385  1.3510
 1880SOL     OW17272   2.817   0.026  15.042 -0.1326  0.3604  0.2945
 1880SOL    HW117273   2.727   0.031  15.011 -0.0023 -0.2729 -0.1679
 1880SOL    HW217274   2.855   0.100  14.993 -2.4045 -0.1129 -2.1850
 1881SOL     OW17275   1.629   2.869  11.378  0.2130  0.6156  0.1151
 1881SOL    HW117276   1.653   2.862  11.286 -0.4526  0.3667 -0.0383
 1881SOL    HW217277   1.539   2.898  11.369  0.3084  0.4187 -1.4594
 1882SOL     OW17278   1.957   2.560  17.576 -0.1032 -0.6119  0.6679
 1882SOL    HW117279   1.957   2.628  17.644  1.7791  2.5479 -2.5252
 1882SOL    HW217280   2.004   2.486  17.614  1.3084  0.4608  0.9974
 1883SOL     OW17281   0.454   1.410  17.598 -0.2387  0.1626 -0.0613
 1883SOL    HW117282   0.482   1.386  17.686  1.0719  1.9736  0.0170
 1883SOL    HW217283   0.501   1.342  17.550  1.1945 -1.6982  4.0053
 1884SOL     OW17284   3.228   0.343   0.784 -0.4749  0.2435  0.0399
 1884SOL    HW117285   3.297   0.280   0.808 -1.4127  0.5070  3.3936
 1884SOL    HW217286   3.208   0.292   0.705  0.6244  0.2946 -0.2745
 1885SOL     OW17287   4.494   4.242  15.136 -0.5045  0.2150  0.2121
 1885SOL    HW117288   4.455   4.218  15.220  1.4615 -1.5618  0.6062
 1885SOL    HW217289   4.496   4.337  15.152  1.2924  0.3872 -1.0938
 1886SOL     OW17290   1.245   2.776  10.951  0.0560  0.4923 -0.7999
 1886SOL    HW117291   1.226   2.802  11.041 -0.1442 -0.5763 -0.5301
 1886SOL    HW217292   1.203   2.690  10.946 -1.3409  1.0257  1.5071
 1887SOL     OW17293   1.038   1.488   6.955 -0.6013  0.2888 -0.3955
 1887SOL    HW117294   0.960   1.458   6.910 -0.8129 -0.7685  0.6829
 1887SOL    HW217295   1.007   1.577   6.969  0.6615  0.6434  0.1541
 1888SOL     OW17296   0.758   3.164   4.056 -0.3251  0.2135 -0.0557
 1888SOL    HW117297   0.723   3.184   3.969 -1.5169  0.2812  0.4427
 1888SOL    HW217298   0.824   3.234   4.053 -0.7748  0.5559 -1.8833
 1889SOL     OW17299   1.361   2.663   3.212  0.1919  0.3296 -0.7309
 1889SOL    HW117300   1.379   2.691   3.122 -1.0782  1.3187 -0.6750
 1889SOL    HW217301   1.269   2.639   3.209  0.6775 -1.9751  2.1232
 1890SOL     OW17302   0.045   4.336   2.404 -0.1165  0.0129  0.4038
 1890SOL    HW117303   4.723   4.411   2.398  0.1577  0.0362 -2.2463
 1890SOL    HW217304   0.023   4.282   2.328  0.1882 -2.3125  1.9552
 1891SOL     OW17305   2.411   3.266   7.321  0.1146 -0.1498  0.9007
 1891SOL    HW117306   2.405   3.348   7.370 -2.0607  0.5225 -0.4998
 1891SOL    HW217307   2.432   3.293   7.231 -2.4922  3.3714  1.3324
 1892SOL     OW17308   0.064   2.351  13.463  0.2458  0.1501 -0.1095
 1892SOL    HW117309   0.057   2.322  13.372 -1.1541 -0.4404  0.1904
 1892SOL    HW217310   0.135   2.293  13.490 -0.2403 -0.5734 -0.3897
 1893SOL     OW17311   3.395   2.539   5.877 -0.0513 -0.3011 -0.5952
 1893SOL    HW117312   3.451   2.467   5.848  0.5896  0.6212 -1.6455
 1893SOL    HW217313   3.453   2.614   5.883 -0.3502 -0.3306  2.4808
 1894SOL     OW17314   2.790   1.820   2.837  0.0686  0.3076 -0.2552
 1894SOL    HW117315   2.698   1.830   2.863 -0.3615 -1.6728 -0.9828
 1894SOL    HW217316   2.786   1.836   2.742  0.4068  1.2109 -0.1167
 1895SOL     OW17317   0.330   0.701   9.359 -0.1649  0.0730 -0.0642
 1895SOL    HW117318   0.399   0.765   9.341 -0.2702 -0.2129 -1.5054
 1895SOL    HW217319   0.255   0.760   9.367 -1.0654 -1.1532  0.6636
 1896SOL     OW17320   3.534   0.278   7.192 -0.3813  0.2455 -0.0965
 1896SOL    HW117321   3.480   0.204   7.164 -1.5337  0.5355  1.3638
 1896SOL    HW217322   3.621   0.261   7.154  0.1550  2.4365  0.1286
 1897SOL     OW17323   1.591   0.586   0.877 -0.1690 -0.4391 -0.0740
 1897SOL    HW117324   1.680   0.609   0.854  0.4515 -2.0125  0.7338
 1897SOL    HW217325   1.549   0.594   0.791 -3.1239 -2.6104  1.1251
 1898SOL     OW17326   1.327   0.083  15.169 -0.0012  0.0498 -0.1776
 1898SOL    HW117327   1.287   0.150  15.225 -0.3216  0.9495 -1.4933
 1898SOL    HW217328   1.338   0.122  15.083 -1.5509 -1.2606 -0.9765
 1899SOL     OW17329   4.620   3.479   7.401 -0.2150 -0.1218 -0.1082
 1899SOL    HW117330   4.606   3.555   7.345  3.4749  1.2901  0.9124
 1899SOL    HW217331   4.677   3.522   7.465  1.0543 -1.0874 -0.5848
 1900SOL     OW17332   3.680   0.492  10.834  0.4968  0.2564 -0.1246
 1900SOL    HW117333   3.696   0.438  10.757 -0.2277 -2.4502  1.6219
 1900SOL    HW217334   3.765   0.535  10.849 -0.9018  4.7278 -4.8996
 1901SOL     OW17335   0.242   2.117   4.896 -0.5784 -0.5461  0.0483
 1901SOL    HW117336   0.260   2.163   4.814  0.5093 -1.1310 -0.0410
 1901SOL    HW217337   0.231   2.182   4.965 -0.0280  0.2435 -0.6057
 1902SOL     OW17338   0.439   0.147  13.292  0.1339  0.3014  0.2397
 1902SOL    HW117339   0.402   0.073  13.243 -1.8749 -0.2260  2.5368
 1902SOL    HW217340   0.429   0.217  13.228 -0.9471 -1.6240 -1.7035
 1903SOL     OW17341   0.111   0.044   7.397 -0.5983  0.1666 -0.1238
 1903SOL    HW117342   0.110   0.017   7.305 -1.8818 -2.1590  0.5929
 1903SOL    HW217343   0.017   0.063   7.401 -0.2859  1.3255  1.7685
 1904SOL     OW17344   2.080   0.520  17.465 -0.2917  0.1993 -0.5548
 1904SOL    HW117345   2.065   0.604  17.421  1.3885 -0.9471 -3.3635
 1904SOL    HW217346   1.990   0.492  17.482  0.8878 -3.7482 -0.8784
 1905SOL     OW17347   0.071   1.570  16.895  0.1367 -0.3368  0.3902
 1905SOL    HW117348   0.018   1.492  16.881 -2.0332  1.3782 -1.0440
 1905SOL    HW217349   0.157   1.527  16.897  0.0519 -0.6178 -1.6671
 1906SOL     OW17350   1.735   3.544  13.261 -0.1674  0.0015  0.1695
 1906SOL    HW117351   1.730   3.577  13.171 -0.4170 -2.1146 -0.5777
 1906SOL    HW217352   1.746   3.625  13.311  1.0548  1.4678 -2.4424
 1907SOL     OW17353   4.245   1.126   6.684 -0.1679 -0.5098  0.0207
 1907SOL    HW117354   4.276   1.067   6.615  2.0587  2.3110 -1.3586
 1907SOL    HW217355   4.315   1.190   6.692  2.0220 -2.8122 -0.5685
 1908SOL     OW17356   0.831   0.753  13.291  0.2798 -0.7702 -0.1827
 1908SOL    HW117357   0.805   0.730  13.201 -0.9012 -2.7887  0.6826
 1908SOL    HW217358   0.819   0.668  13.333 -0.3998 -0.7112 -0.2573
 1909SOL     OW17359   2.774   3.110   9.292  0.3256  0.0616  0.2749
 1909SOL    HW117360   2.703   3.115   9.355  0.6086  0.3620  0.5702
 1909SOL    HW217361   2.749   3.178   9.228 -0.9626  1.2048  1.9934
 1910SOL     OW17362   2.744   0.961   4.105 -0.1002  0.1174  0.0688
 1910SOL    HW117363   2.689   0.994   4.034  1.4673  1.1873 -0.6542
 1910SOL    HW217364   2.680   0.975   4.175 -0.2139  0.4012 -0.0933
 1911SOL     OW17365   1.777   2.523  11.711 -0.2056 -0.7923  0.8478
 1911SOL    HW117366   1.784   2.584  11.637 -0.7301 -0.7544  0.8236
 1911SOL    HW217367   1.800   2.439  11.672  0.4944  0.2820 -1.0561
 1912SOL     OW17368   4.332   1.384   7.862  0.1594 -0.3788 -0.2769
 1912SOL    HW117369   4.275   1.425   7.927  1.3706  1.4064 -0.3221
 1912SOL    HW217370   4.269   1.325   7.821 -0.1173 -0.6206  0.4896
 1913SOL     OW17371   3.615   2.689   5.227  0.3741 -0.3829  0.1595
 1913SOL    HW117372   3.709   2.708   5.230  0.6155 -1.4594 -0.6737
 1913SOL    HW217373   3.590   2.763   5.172  3.5914  1.6063  1.3490
 1914SOL     OW17374   3.001   0.065  16.863  0.0552 -0.3700 -0.0647
 1914SOL    HW117375   2.918   0.018  16.866 -0.4263  0.5061  0.2142
 1914SOL    HW217376   3.023   0.101  16.949 -1.7897  1.4439 -0.3629
 1915SOL     OW17377   1.070   1.318   1.813  0.0247  0.4456 -0.0429
 1915SOL    HW117378   1.090   1.230   1.844  2.1390  0.4705 -1.3528
 1915SOL    HW217379   1.085   1.374   1.889  2.7399  1.5447 -1.4050
 1916SOL     OW17380   1.455   3.242   7.319 -0.5801 -0.4282 -0.1127
 1916SOL    HW117381   1.396   3.300   7.271 -2.0406 -3.1711 -1.6354
 1916SOL    HW217382   1.418   3.248   7.407 -2.0157  0.8548 -0.8026
 1917SOL     OW17383   4.450   2.219   6.418  0.3432  0.3572  0.2887
 1917SOL    HW117384   4.465   2.259   6.503 -0.2422  1.3779 -0.0785
 1917SOL    HW217385   4.356   2.232   6.407 -0.1451 -1.6142  2.1333
 1918SOL     OW17386   4.681   3.057   9.505  0.2622  0.0678  0.0241
 1918SOL    HW117387   4.722   3.082   9.422 -0.9178  0.0054 -0.5850
 1918SOL    HW217388   0.001   3.101   9.568  1.0598  1.2970 -1.5513
 1919SOL     OW17389   3.784   4.567  17.147 -0.0793 -0.2369  0.4838
 1919SOL    HW117390   3.773   4.662  17.139  1.9728  0.1015  1.8809
 1919SOL    HW217391   3.762   4.544  17.237  0.1550 -0.3153  0.5204
 1920SOL     OW17392   2.011   4.274  13.019 -0.3403  0.5294 -0.4552
 1920SOL    HW117393   1.937   4.322  12.982  1.1689  1.4582 -2.3104
 1920SOL    HW217394   1.964   4.208  13.070  0.0760  0.1882 -0.5175
 1921SOL     OW17395   2.614   1.444  10.446 -0.0673  0.5338 -0.6155
 1921SOL    HW117396   2.542   1.436  10.384  0.6421  0.5275 -1.4277
 1921SOL    HW217397   2.633   1.537  10.459 -0.2114  0.4277  0.4177
 1922SOL     OW17398   3.459   1.424   8.523  0.5431 -0.1833  0.8774
 1922SOL    HW117399   3.384   1.478   8.549  1.1123  0.2496  1.6275
 1922SOL    HW217400   3.480   1.452   8.434  1.3639  1.9366  1.7298
 1923SOL     OW17401   1.056   4.641   3.615  0.1054 -0.5399 -0.6588
 1923SOL    HW117402   1.066   4.729   3.650  1.0978 -0.4524 -1.1845
 1923SOL    HW217403   1.134   4.594   3.644  1.9170  1.7585 -1.7638
 1924SOL     OW17404   4.411   1.946  15.066  0.5683  0.0456 -0.1715
 1924SOL    HW117405   4.439   1.907  15.149  2.0667  2.0882  0.2945
 1924SOL    HW217406   4.453   2.032  15.072  1.1201 -0.1216 -1.5732
 1925SOL     OW17407   2.315   4.116   6.674 -0.7122  0.1770 -0.0802
 1925SOL    HW117408   2.331   4.090   6.765  0.8620  1.6782  0.0783
 1925SOL    HW217409   2.369   4.195   6.667  0.1545 -0.1749  2.4340
 1926SOL     OW17410   2.118   0.633   2.181 -0.1004  0.2504 -0.6023
 1926SOL    HW117411   2.190   0.673   2.132 -0.6762 -1.0063 -2.5087
 1926SOL    HW217412   2.090   0.558   2.128 -0.4819 -0.1906  0.2250
 1927SOL     OW17413   4.595   2.777   3.524  0.1242 -0.3668  0.3899
 1927SOL    HW117414   4.550   2.789   3.608 -1.2179 -0.9685 -0.2411
 1927SOL    HW217415   4.517   2.772   3.469 -0.8873  1.5409  1.6435
 1928SOL     OW17416   0.790   3.790   2.003  0.6635  0.3570  0.4629
 1928SOL    HW117417   0.748   3.719   1.955  2.2929  0.6663 -1.4048
 1928SOL    HW217418   0.769   3.768   2.094  3.3812  1.0273  1.2545
 1929SOL     OW17419   0.440   0.328  15.648  0.6607  0.2088  0.4539
 1929SOL    HW117420   0.528   0.295  15.668  0.0204 -1.8145 -0.0376
 1929SOL    HW217421   0.402   0.249  15.610  1.0296 -0.2804  1.0974
 1930SOL     OW17422   0.076   1.209   5.675  0.1739 -0.0554 -0.0156
 1930SOL    HW117423   0.161   1.189   5.635 -0.5516 -2.7016 -0.1983
 1930SOL    HW217424   0.040   1.121   5.686 -1.0621  0.6293  1.4047
 1931SOL     OW17425   4.600   2.493   4.379  0.1097 -0.3512  0.5174
 1931SOL    HW117426   4.676   2.548   4.392 -1.5364  1.6922  1.3681
 1931SOL    HW217427   4.606   2.425   4.446  2.4699 -1.8071 -1.1787
 1932SOL     OW17428   1.862   1.245   7.310  0.5894 -0.2394  0.2926
 1932SOL    HW117429   1.938   1.209   7.265  0.9293 -0.5428  1.1200
 1932SOL    HW217430   1.790   1.186   7.284 -0.8643  1.9499 -0.7279
 1933SOL     OW17431   2.936   0.177   5.569 -0.1421  0.6479  0.4329
 1933SOL    HW117432   2.944   0.092   5.612  1.7900  1.0546  0.8987
 1933SOL    HW217433   2.984   0.153   5.490  1.3501  0.0505  1.5186
 1934SOL     OW17434   1.966   4.041  14.552  0.2633 -0.3472 -0.0760
 1934SOL    HW117435   1.899   4.089  14.505  0.3376  1.5385  1.7320
 1934SOL    HW217436   1.944   3.950  14.533  0.6641  0.1019 -2.7007
 1935SOL     OW17437   4.034   1.283   2.671  0.2894  0.3220  0.7616
 1935SOL    HW117438   4.084   1.274   2.752  0.2376  2.6789  1.0439
 1935SOL    HW217439   4.091   1.327   2.608 -0.9733  1.4927  0.4452
 1936SOL     OW17440   2.049   1.919   4.662 -0.4471 -0.1417 -0.0248
 1936SOL    HW117441   1.989   1.937   4.734 -0.0383 -0.7704  0.4625
 1936SOL    HW217442   2.059   1.825   4.670  1.3234  0.0593  0.2246
 1937SOL     OW17443   2.027   1.985   5.879 -0.2185 -0.1137 -0.2164
 1937SOL    HW117444   1.932   1.991   5.864 -0.2345  0.4283  0.1208
 1937SOL    HW217445   2.065   1.989   5.792 -0.6832 -0.6610 -0.4531
 1938SOL     OW17446   3.113   4.352   5.859  0.2736 -0.5004  0.0774
 1938SOL    HW117447   3.187   4.406   5.888  0.3748 -0.3585 -0.4345
 1938SOL    HW217448   3.107   4.378   5.767 -1.1363 -1.8304 -0.1957
 1939SOL     OW17449   2.589   0.599   5.620 -0.6313 -0.4447  1.0160
 1939SOL    HW117450   2.535   0.646   5.557 -0.6196 -0.1601  1.2181
 1939SOL    HW217451   2.630   0.673   5.664  0.0861 -0.2564  0.0233
 1940SOL     OW17452   0.336   2.684  16.589  0.2033 -0.0182  0.1694
 1940SOL    HW117453   0.320   2.681  16.683  0.4314  3.0471  0.3337
 1940SOL    HW217454   0.259   2.738  16.569 -0.0647 -0.5053 -0.1012
 1941SOL     OW17455   0.786   3.979   4.726  0.0239  0.3442  0.3653
 1941SOL    HW117456   0.780   4.042   4.654 -2.7808  0.1363  0.4090
 1941SOL    HW217457   0.860   3.923   4.703  1.2305  2.0917 -0.0244
 1942SOL     OW17458   4.080   1.813  14.782  0.0997 -0.6397  0.0374
 1942SOL    HW117459   4.036   1.730  14.760  0.3137 -0.4855 -0.9893
 1942SOL    HW217460   4.165   1.783  14.813  1.2606  2.2088 -0.3899
 1943SOL     OW17461   3.730   0.700   4.856  0.6167  0.1922 -0.0578
 1943SOL    HW117462   3.708   0.775   4.802 -0.8859  2.2654  3.4398
 1943SOL    HW217463   3.767   0.642   4.789  1.9842 -0.0440  0.8979
 1944SOL     OW17464   2.748   4.081  10.349  0.1257 -0.0543 -0.5905
 1944SOL    HW117465   2.666   4.076  10.397  1.0280 -2.0301  0.7536
 1944SOL    HW217466   2.812   4.125  10.406 -0.4262 -0.2644  0.1944
 1945SOL     OW17467   1.512   4.180   5.936 -0.6264 -0.0802  0.1214
 1945SOL    HW117468   1.540   4.254   5.882  0.4323 -0.2739  0.4129
 1945SOL    HW217469   1.586   4.120   5.925 -0.1604 -0.1553  3.7416
 1946SOL     OW17470   2.058   0.107  10.718 -0.1265 -0.7195  0.0420
 1946SOL    HW117471   2.147   0.130  10.746 -1.6573  3.1198  1.8234
 1946SOL    HW217472   2.022   0.196  10.724  1.4400 -0.0490 -0.4974
 1947SOL     OW17473   0.112   4.352  16.861 -0.1364 -0.3701  0.1502
 1947SOL    HW117474   0.195   4.350  16.908  1.1004 -0.1924 -2.0272
 1947SOL    HW217475   0.046   4.358  16.930  0.7573  0.9452  0.8842
 1948SOL     OW17476   0.160   0.923  15.433 -0.0550  0.5438 -0.0038
 1948SOL    HW117477   0.225   0.925  15.503 -0.9137  0.5440  0.7958
 1948SOL    HW217478   0.107   0.998  15.461 -1.0028 -0.7070  1.5959
 1949SOL     OW17479   0.404   4.115  17.137 -0.7219  0.2605 -0.3756
 1949SOL    HW117480   0.371   4.202  17.114  1.8966  1.7250  1.4898
 1949SOL    HW217481   0.417   4.082  17.048 -1.6831 -0.7385 -0.1401
 1950SOL     OW17482   0.391   2.037   6.253  0.6866  0.3186  0.2434
 1950SOL    HW117483   0.364   2.084   6.174 -0.6560 -1.2321 -0.2320
 1950SOL    HW217484   0.473   2.082   6.273  1.2568 -1.7166  2.4747
 1951SOL     OW17485   2.906   1.210   1.282  0.0678 -0.1356  0.4999
 1951SOL    HW117486   2.830   1.268   1.274 -0.9284 -1.6513 -1.1070
 1951SOL    HW217487   2.960   1.265   1.339  1.8939  0.7656 -2.1160
 1952SOL     OW17488   3.962   1.343   4.683 -0.3429  0.1139 -0.0073
 1952SOL    HW117489   3.982   1.376   4.771  0.7664  1.8647 -0.8983
 1952SOL    HW217490   4.046   1.307   4.656 -1.1196 -1.4500 -0.3286
 1953SOL     OW17491   3.732   2.599  13.506  0.6335 -0.0703  0.7335
 1953SOL    HW117492   3.772   2.647  13.579  1.0370 -2.3520  2.0180
 1953SOL    HW217493   3.683   2.529  13.549  0.4978  0.1466  0.9291
 1954SOL     OW17494   3.124   1.791   7.721 -0.5272  0.5481 -0.3144
 1954SOL    HW117495   3.174   1.821   7.797  0.5632 -2.2239  0.0777
 1954SOL    HW217496   3.139   1.697   7.736 -0.0754  0.6716 -0.0136
 1955SOL     OW17497   3.336   2.799   2.715 -0.0690  0.5512 -0.1342
 1955SOL    HW117498   3.391   2.822   2.641  1.0837  0.7468  0.7818
 1955SOL    HW217499   3.261   2.756   2.674  0.7862 -0.9459 -0.1062
 1956SOL     OW17500   3.769   1.477   5.817 -0.2671 -0.4167 -0.0549
 1956SOL    HW117501   3.820   1.403   5.785 -0.2528 -0.0730 -0.8122
 1956SOL    HW217502   3.802   1.467   5.906  0.0143  0.8665 -0.0118
 1957SOL     OW17503   2.370   1.743  15.571 -0.5841 -0.0375  0.0439
 1957SOL    HW117504   2.417   1.748  15.488 -0.1385  0.6023  0.3434
 1957SOL    HW217505   2.366   1.648  15.584 -2.7198  0.3734  2.3691
 1958SOL     OW17506   0.409   2.452   9.800 -0.0877  0.7302 -0.1474
 1958SOL    HW117507   0.421   2.511   9.875 -0.4129 -0.7512  1.0660
 1958SOL    HW217508   0.335   2.397   9.825  0.6131 -0.7809 -1.3846
 1959SOL     OW17509   0.945   0.039   8.349 -0.0477 -0.2673 -0.6944
 1959SOL    HW117510   0.910   4.703   8.298 -2.0661  1.7906 -2.2708
 1959SOL    HW217511   0.866   0.082   8.381 -0.8473  0.0199 -3.0552
 1960SOL     OW17512   4.395   3.081   7.802  0.1397 -0.5730  0.7536
 1960SOL    HW117513   4.483   3.105   7.773  0.3349 -0.7021  1.2365
 1960SOL    HW217514   4.367   3.036   7.722 -1.5548  0.8374  0.5510
 1961SOL     OW17515   2.629   4.019  13.766  0.1041  0.1014  0.2909
 1961SOL    HW117516   2.638   3.979  13.680  0.9396 -0.6492  0.7250
 1961SOL    HW217517   2.677   4.101  13.753 -0.5715  0.8654  2.5439
 1962SOL     OW17518   2.319   0.249  15.758  0.3746  0.0080 -0.4403
 1962SOL    HW117519   2.409   0.283  15.757 -0.2047  1.5527 -0.9031
 1962SOL    HW217520   2.279   0.309  15.695  0.3559  0.7843  0.3153
 1963SOL     OW17521   3.025   3.080   9.530 -0.1876  0.2104  0.8537
 1963SOL    HW117522   2.938   3.101   9.497  0.2446  0.6683  0.0217
 1963SOL    HW217523   3.045   3.000   9.482 -0.7294  0.7230 -0.2181
 1964SOL     OW17524   2.275   1.897  11.544 -0.1942  0.0030 -0.4294
 1964SOL    HW117525   2.272   1.984  11.585  2.4158  0.4823 -1.1906
 1964SOL    HW217526   2.194   1.886  11.495 -2.2748  2.3366  2.4663
 1965SOL     OW17527   3.668   0.697   4.090  0.0308  0.3772  0.2623
 1965SOL    HW117528   3.624   0.778   4.064  0.9144  0.8922  0.3821
 1965SOL    HW217529   3.721   0.732   4.161  0.2656  0.2999  0.1257
 1966SOL     OW17530   2.515   4.687   3.648 -0.2481  0.3081 -0.2727
 1966SOL    HW117531   2.595   4.646   3.615 -0.1048  0.9498 -0.7270
 1966SOL    HW217532   2.510   0.022   3.585  1.0326 -1.0500 -1.9281
 1967SOL     OW17533   2.567   1.326   2.335  0.5323  0.7888  0.2103
 1967SOL    HW117534   2.546   1.250   2.389  1.3858  0.9850  0.8087
 1967SOL    HW217535   2.482   1.335   2.291 -0.8524 -0.2752  2.6479
 1968SOL     OW17536   1.414   1.170   6.525  0.1271  0.3641 -0.1366
 1968SOL    HW117537   1.359   1.203   6.596  0.7652  0.6058  0.2397
 1968SOL    HW217538   1.474   1.244   6.525  0.9436 -0.3014  0.0332
 1969SOL     OW17539   4.105   4.183   5.864  0.1917  0.0711 -0.2627
 1969SOL    HW117540   4.113   4.173   5.769 -1.0282 -0.4612 -0.3181
 1969SOL    HW217541   4.078   4.099   5.902 -0.3975  1.4315  2.3355
 1970SOL     OW17542   2.736   2.761   1.983  0.2520  0.1043 -0.1091
 1970SOL    HW117543   2.666   2.813   2.023 -0.1941 -0.0840 -0.6407
 1970SOL    HW217544   2.684   2.711   1.920  2.4514 -0.5298 -1.4317
 1971SOL     OW17545   0.071   3.611   4.411  0.5775 -0.3509  0.4169
 1971SOL    HW117546   0.057   3.676   4.480  0.6068  0.4518 -0.3367
 1971SOL    HW217547   0.011   3.633   4.339 -0.6804 -0.3353  1.4714
 1972SOL     OW17548   4.700   3.076  11.882  0.2359 -0.2861  0.3524
 1972SOL    HW117549   4.621   3.097  11.832  1.3117  1.4667 -0.6344
 1972SOL    HW217550   4.688   3.116  11.968 -0.4797 -0.2407  0.2328
 1973SOL     OW17551   4.482   4.551   8.774 -0.0105 -0.0085 -0.3805
 1973SOL    HW117552   4.406   4.608   8.761 -0.2451  0.2120  1.9580
 1973SOL    HW217553   4.461   4.480   8.713  0.5308 -0.2412 -0.2881
 1974SOL     OW17554   1.402   3.842   7.987 -0.1758  0.2701 -0.3007
 1974SOL    HW117555   1.490   3.844   7.951 -0.4959 -0.6225 -1.1380
 1974SOL    HW217556   1.392   3.937   7.990 -1.6008  0.1087  0.2112
 1975SOL     OW17557   0.192   3.487   7.824 -0.2254 -0.4022 -0.6827
 1975SOL    HW117558   0.262   3.457   7.881  0.2522  0.1718 -0.9630
 1975SOL    HW217559   0.159   3.565   7.869 -0.5461 -1.1527  0.3836
 1976SOL     OW17560   0.838   2.435   8.169  0.5153 -0.5566 -0.6247
 1976SOL    HW117561   0.774   2.367   8.147  0.7873 -0.3746 -1.9946
 1976SOL    HW217562   0.772   2.496   8.201  2.0180  0.8372 -0.1762
 1977SOL     OW17563   1.417   3.272   2.817  0.1122  0.1158  0.1686
 1977SOL    HW117564   1.438   3.300   2.906  0.5580  0.7317 -0.1340
 1977SOL    HW217565   1.377   3.185   2.827  0.9428 -0.5754 -2.4975
 1978SOL     OW17566   0.951   3.722   8.878 -0.0394  0.7055 -0.0593
 1978SOL    HW117567   0.964   3.756   8.790 -0.2591 -0.3452 -0.4954
 1978SOL    HW217568   0.925   3.801   8.926 -0.8493  0.5951 -0.3178
 1979SOL     OW17569   4.124   3.582   2.867 -0.1249  0.0453  0.1284
 1979SOL    HW117570   4.158   3.587   2.778 -1.6779  0.1937 -0.4505
 1979SOL    HW217571   4.192   3.629   2.915  1.9564 -2.1787 -0.6545
 1980SOL     OW17572   1.272   3.629   2.366 -0.1520 -0.5515  0.4116
 1980SOL    HW117573   1.194   3.684   2.358  1.4580  1.6107 -0.4198
 1980SOL    HW217574   1.317   3.649   2.285 -0.2963 -1.1361  0.1895
 1981SOL     OW17575   1.891   3.605  13.002 -0.2927  0.5640  0.3700
 1981SOL    HW117576   1.887   3.510  13.003 -2.3551  0.6443  0.0615
 1981SOL    HW217577   1.899   3.634  12.911 -0.2310  0.4049  0.3253
 1982SOL     OW17578   3.000   0.065  17.727  0.2692 -0.4597 -0.2976
 1982SOL    HW117579   2.918   0.058  17.679 -1.7905 -1.4270  3.3114
 1982SOL    HW217580   3.056   0.106  17.661  0.7297 -1.0448 -0.2637
 1983SOL     OW17581   0.170   0.137   5.066 -0.5235 -0.3746  0.3105
 1983SOL    HW117582   0.231   0.100   5.131  0.2641 -0.0003 -0.2134
 1983SOL    HW217583   0.239   0.160   5.004 -3.1720 -0.8565 -2.7999
 1984SOL     OW17584   1.932   3.639   8.229 -0.7097 -0.6512  0.1126
 1984SOL    HW117585   2.001   3.588   8.272 -1.1318 -1.6645 -0.4109
 1984SOL    HW217586   1.868   3.610   8.294 -0.0026 -0.5697  0.8634
 1985SOL     OW17587   3.729   0.491   9.696 -0.2004 -0.2757 -0.1885
 1985SOL    HW117588   3.747   0.405   9.734 -1.2854 -0.3656  0.1270
 1985SOL    HW217589   3.795   0.496   9.627  0.7221 -2.0215  0.5813
 1986SOL     OW17590   3.975   2.987   4.843  0.1436 -0.0292  0.4958
 1986SOL    HW117591   4.067   2.974   4.869  0.3973  2.1911  0.7138
 1986SOL    HW217592   3.994   3.001   4.750  4.0427  2.3861  1.6468
 1987SOL     OW17593   2.473   3.501  10.701  0.7244 -0.0522 -0.3131
 1987SOL    HW117594   2.457   3.585  10.659  0.6687 -0.7405 -1.6533
 1987SOL    HW217595   2.438   3.525  10.787 -0.3846  1.8096 -1.2956
 1988SOL     OW17596   0.004   3.808  12.507 -0.3282 -0.6077 -0.5832
 1988SOL    HW117597   4.680   3.880  12.525 -1.1956 -1.6292  0.5706
 1988SOL    HW217598   4.680   3.738  12.486  0.8310 -1.4387 -1.1744
 1989SOL     OW17599   3.785   4.421   3.118  0.2946  0.1976  0.4320
 1989SOL    HW117600   3.795   4.513   3.092  2.3715  0.2034  1.2159
 1989SOL    HW217601   3.775   4.378   3.033  0.0033  2.3390 -0.5951
 1990SOL     OW17602   0.071   0.863   9.460 -0.1471  0.0061 -0.4622
 1990SOL    HW117603   4.716   0.837   9.456 -0.4352  1.1156 -1.0468
 1990SOL    HW217604   0.073   0.956   9.439  0.5523 -0.4617 -2.4547
 1991SOL     OW17605   4.673   1.557   5.159  0.3876 -0.3252 -0.2863
 1991SOL    HW117606   4.672   1.577   5.253 -0.6510  0.6650 -0.5045
 1991SOL    HW217607   4.653   1.639   5.114 -0.0562 -0.3176 -0.0726
 1992SOL     OW17608   1.770   3.188   9.854  0.1071  0.0125 -0.2974
 1992SOL    HW117609   1.863   3.179   9.830 -0.1077  0.7752 -1.4140
 1992SOL    HW217610   1.765   3.274   9.895  2.3799 -0.8409  1.7749
 1993SOL     OW17611   1.415   3.468   0.206  0.3925 -0.2545  0.2695
 1993SOL    HW117612   1.375   3.395   0.253 -0.6256 -0.7725 -1.4109
 1993SOL    HW217613   1.437   3.531   0.274  0.4025 -1.0269  0.9824
 1994SOL     OW17614   4.336   4.328   5.313 -0.4936 -0.0158  0.2921
 1994SOL    HW117615   4.272   4.258   5.329 -1.8949  1.1421 -0.2490
 1994SOL    HW217616   4.318   4.396   5.378 -1.2474 -1.3999  1.5292
 1995SOL     OW17617   3.699   0.142   2.163 -0.2432  0.0940 -0.1086
 1995SOL    HW117618   3.694   0.113   2.254  0.2314 -1.0003 -0.4316
 1995SOL    HW217619   3.654   0.226   2.162 -1.0031 -0.3202 -0.3955
 1996SOL     OW17620   1.924   4.310  16.625 -0.2438  0.1895  0.4586
 1996SOL    HW117621   1.917   4.382  16.562  0.3602  0.6473  0.9145
 1996SOL    HW217622   1.842   4.264  16.609 -1.6166  2.9690 -0.5034
 1997SOL     OW17623   3.735   4.149   1.865  1.0259  0.0913 -0.4774
 1997SOL    HW117624   3.696   4.062   1.867  0.3568  0.4137  1.0715
 1997SOL    HW217625   3.764   4.148   1.774  1.7255  0.0191 -0.2535
 1998SOL     OW17626   4.103   0.531   9.710 -0.1653  0.1086 -0.0080
 1998SOL    HW117627   4.062   0.463   9.764 -3.3754  1.4191 -0.7586
 1998SOL    HW217628   4.039   0.535   9.639  1.6529  0.8801 -1.5790
 1999SOL     OW17629   3.641   2.388   0.957  0.6106  0.1626 -0.5576
 1999SOL    HW117630   3.696   2.395   1.035  1.1072  0.0311 -0.8909
 1999SOL    HW217631   3.618   2.477   0.931  0.7330  0.5598  0.6962
 2000SOL     OW17632   4.250   2.990   4.919 -0.2106  0.1666  0.5360
 2000SOL    HW117633   4.300   3.003   4.839 -1.1138  0.2295 -0.0156
 2000SOL    HW217634   4.294   2.913   4.954  1.6609  0.8993 -0.2533
 2001SOL     OW17635   0.514   3.392   7.585  0.1369 -0.0670 -0.1021
 2001SOL    HW117636   0.506   3.298   7.566  0.9545 -0.2016  0.1831
 2001SOL    HW217637   0.420   3.407   7.592 -0.0202 -1.1457  0.1613
 2002SOL     OW17638   0.467   0.592   5.830  0.1362  0.3796 -0.0674
 2002SOL    HW117639   0.483   0.551   5.746 -1.2701  0.3851 -0.3392
 2002SOL    HW217640   0.501   0.680   5.814  3.3470 -1.3148 -2.4234
 2003SOL     OW17641   4.584   0.767   8.546 -0.1430 -0.2425  0.1139
 2003SOL    HW117642   4.574   0.674   8.566 -0.7626 -0.2351 -0.1594
 2003SOL    HW217643   4.659   0.791   8.601  1.3834 -2.2309 -1.1242
 2004SOL     OW17644   0.366   0.023   5.245  0.0434 -0.2648 -0.7219
 2004SOL    HW117645   0.347   4.669   5.223 -0.0888 -0.1140 -1.2361
 2004SOL    HW217646   0.462   0.024   5.244  0.0558  0.3338  0.5929
 2005SOL     OW17647   0.489   0.820   8.127  0.2373  0.9010 -0.4137
 2005SOL    HW117648   0.572   0.844   8.085 -0.0726 -1.3042 -2.3009
 2005SOL    HW217649   0.454   0.777   8.049  2.3324 -0.8193 -0.4315
 2006SOL     OW17650   3.865   3.679  14.820 -0.3318  0.1936  0.0006
 2006SOL    HW117651   3.816   3.597  14.820  0.6682 -0.4108 -0.2937
 2006SOL    HW217652   3.865   3.705  14.728 -2.2072 -2.1482 -0.6612
 2007SOL     OW17653   3.016   2.802   9.409 -0.2457 -0.5857 -0.5135
 2007SOL    HW117654   3.058   2.744   9.473  1.6479  0.5117 -0.7407
 2007SOL    HW217655   2.931   2.812   9.452  0.2389  1.3653 -0.0288
 2008SOL     OW17656   3.025   4.690   5.709 -0.1658 -0.3240 -0.8344
 2008SOL    HW117657   3.048   4.624   5.644 -0.0843 -1.2992  0.1839
 2008SOL    HW217658   3.069   4.664   5.791 -2.2368 -1.9619 -0.2395
 2009SOL     OW17659   4.208   4.349  17.435 -0.3186 -0.3371 -0.6149
 2009SOL    HW117660   4.296   4.321  17.460  0.0991  0.2332 -1.4198
 2009SOL    HW217661   4.161   4.269  17.459 -1.1481  0.6054  0.8824
 2010SOL     OW17662   0.985   4.112   8.590 -0.1863 -0.0595 -0.7679
 2010SOL    HW117663   1.075   4.088   8.566  0.2342  1.0236 -0.2811
 2010SOL    HW217664   0.997   4.178   8.658  1.9291 -1.3650  0.1337
 2011SOL     OW17665   1.789   4.626   7.418 -1.1162  0.0383  0.0208
 2011SOL    HW117666   1.753   4.649   7.504 -0.2444  0.3612  0.2932
 2011SOL    HW217667   1.825   4.542   7.446 -1.8222  0.4476  2.2132
 2012SOL     OW17668   4.540   4.656   4.009  0.0891 -0.3489 -0.0922
 2012SOL    HW117669   4.550   4.604   3.929 -2.6314  0.3978 -0.9185
 2012SOL    HW217670   4.620   4.639   4.059  0.3915 -1.8872 -1.0732
 2013SOL     OW17671   0.092   2.916   5.381 -0.0391 -0.1421 -0.3090
 2013SOL    HW117672   0.035   2.992   5.369  0.3849  0.2193 -0.0406
 2013SOL    HW217673   0.132   2.906   5.294 -0.9752 -2.5569 -0.4638
 2014SOL     OW17674   2.262   4.272   0.387  0.1641 -0.1997  0.0657
 2014SOL    HW117675   2.248   4.330   0.462 -1.3091 -0.8789  0.3306
 2014SOL    HW217676   2.339   4.225   0.420  0.4744 -1.1432 -2.0051
 2015SOL     OW17677   0.487   2.319   7.066  0.1259 -0.0730  0.0473
 2015SOL    HW117678   0.454   2.409   7.064  1.1323  0.2824 -0.4317
 2015SOL    HW217679   0.436   2.290   7.142 -1.0941 -0.0448 -0.7549
 2016SOL     OW17680   3.081   4.007  14.562 -0.1570  0.1270  0.6535
 2016SOL    HW117681   3.079   4.103  14.558  0.2082  0.1786  1.6121
 2016SOL    HW217682   3.170   3.990  14.595 -0.3037 -0.7243  0.6178
 2017SOL     OW17683   0.640   0.043   4.161  0.0907 -0.6000  1.1298
 2017SOL    HW117684   0.685   4.703   4.125 -0.2867 -1.7305  3.0629
 2017SOL    HW217685   0.712   0.068   4.219  0.2819  1.1784  0.1253
 2018SOL     OW17686   1.507   3.114   5.443 -0.4991  0.4212 -0.6856
 2018SOL    HW117687   1.551   3.122   5.527 -0.3366  0.9709 -0.8203
 2018SOL    HW217688   1.553   3.178   5.389 -1.5901 -0.3689 -2.5579
 2019SOL     OW17689   0.980   1.369  12.190 -0.3221 -0.7453 -0.1130
 2019SOL    HW117690   1.003   1.462  12.191 -0.9923 -0.5727 -0.6080
 2019SOL    HW217691   0.953   1.353  12.281  3.2224  1.4936  1.3308
 2020SOL     OW17692   3.202   1.776  10.440 -1.0081  0.6426  0.1768
 2020SOL    HW117693   3.257   1.819  10.374  1.7367 -0.6032  1.6353
 2020SOL    HW217694   3.264   1.721  10.488 -2.1781 -0.8721 -0.0475
 2021SOL     OW17695   3.752   4.443   3.656  0.4308  0.2671  0.3197
 2021SOL    HW117696   3.804   4.369   3.622  0.1731 -0.8126  2.2552
 2021SOL    HW217697   3.704   4.478   3.581 -1.0302 -0.3123  0.9809
 2022SOL     OW17698   1.749   1.047   4.322 -0.0765 -0.0817  0.0803
 2022SOL    HW117699   1.774   1.062   4.231  2.0841 -0.0827  0.6697
 2022SOL    HW217700   1.717   1.135   4.342  2.4428  0.6423  0.9842
 2023SOL     OW17701   2.153   3.161  11.960 -0.0657 -0.4201  0.0581
 2023SOL    HW117702   2.242   3.130  11.947 -0.4471 -1.0433 -1.1155
 2023SOL    HW217703   2.119   3.092  12.017 -2.2903  1.7114  1.3043
 2024SOL     OW17704   4.442   3.103   8.435  0.2333  0.0177  0.3400
 2024SOL    HW117705   4.419   3.180   8.383  3.2583  1.6537  1.3988
 2024SOL    HW217706   4.432   3.142   8.522 -1.1315  1.5872 -0.5336
 2025SOL     OW17707   0.439   2.579  14.142  0.3027  0.4267 -0.2743
 2025SOL    HW117708   0.457   2.643  14.211 -0.0406 -0.7880  0.9310
 2025SOL    HW217709   0.490   2.613  14.068 -0.8834  0.6254 -1.0026
 2026SOL     OW17710   0.653   0.495  13.148  0.0247 -0.2171  0.4125
 2026SOL    HW117711   0.730   0.446  13.120 -2.5636 -3.8637 -0.4214
 2026SOL    HW217712   0.668   0.572  13.094  1.4791 -0.2084  0.8227
 2027SOL     OW17713   1.535   3.127  12.959 -0.1738 -0.2231 -0.1402
 2027SOL    HW117714   1.568   3.051  13.005 -0.8670 -0.1286  0.5092
 2027SOL    HW217715   1.560   3.194  13.023 -1.1160  1.1073 -1.1535
 2028SOL     OW17716   2.894   3.826   9.633 -0.4000  0.1889 -0.1117
 2028SOL    HW117717   2.884   3.906   9.580  1.5717 -0.6205 -1.7227
 2028SOL    HW217718   2.812   3.782   9.615 -0.6987 -0.1206  2.0201
 2029SOL     OW17719   2.132   4.280   2.002 -0.0200 -0.4676  0.3733
 2029SOL    HW117720   2.047   4.322   2.011  0.0480 -0.1544 -0.4714
 2029SOL    HW217721   2.119   4.230   1.922  2.1493  1.5433 -1.2454
 2030SOL     OW17722   0.208   2.300   6.831 -0.7849  0.8074  0.9361
 2030SOL    HW117723   0.294   2.278   6.797 -3.1140 -2.4899 -2.8735
 2030SOL    HW217724   0.210   2.258   6.917 -0.6967 -0.8153  0.1353
 2031SOL     OW17725   3.769   4.221   4.912  0.2013 -0.1708 -0.4569
 2031SOL    HW117726   3.704   4.199   4.845  0.0200  2.1445 -1.0480
 2031SOL    HW217727   3.852   4.199   4.869  0.9827 -0.8326  1.4266
 2032SOL     OW17728   2.106   1.840   7.514 -0.4198  0.7853  0.1146
 2032SOL    HW117729   2.189   1.866   7.475 -1.0375 -1.7885 -2.8890
 2032SOL    HW217730   2.067   1.787   7.445  0.7862 -0.7951  0.6591
 2033SOL     OW17731   3.381   4.381   8.651  0.5630 -0.2557  0.4738
 2033SOL    HW117732   3.406   4.345   8.736 -0.0529  0.7484  1.0806
 2033SOL    HW217733   3.319   4.453   8.665  0.8966 -0.0878  1.0425
 2034SOL     OW17734   3.828   3.802  16.285 -0.2661  0.0319  0.4615
 2034SOL    HW117735   3.899   3.823  16.224  0.3750 -0.2633  1.1100
 2034SOL    HW217736   3.769   3.762  16.222  0.2077  2.8208 -1.7320
 2035SOL     OW17737   2.297   0.968   8.546 -0.2283 -0.5723 -0.5147
 2035SOL    HW117738   2.298   1.016   8.629 -2.9337 -1.4118  0.0201
 2035SOL    HW217739   2.360   0.899   8.565 -0.0571  0.2426  1.8907
 2036SOL     OW17740   2.582   0.404   9.040 -0.2132  0.4137  0.0853
 2036SOL    HW117741   2.640   0.436   8.971  0.7712 -0.6184  0.4347
 2036SOL    HW217742   2.644   0.353   9.093 -2.5837 -1.2302  1.2876
 2037SOL     OW17743   3.350   4.333   3.077  0.1162  0.1495 -0.4712
 2037SOL    HW117744   3.366   4.257   3.134 -1.8988 -0.7984 -1.2010
 2037SOL    HW217745   3.339   4.407   3.137 -0.5403 -0.9607  0.7911
 2038SOL     OW17746   3.794   4.272   3.960 -0.1406  0.2003  0.0345
 2038SOL    HW117747   3.841   4.188   3.970  0.1730  0.2971 -0.6041
 2038SOL    HW217748   3.867   4.326   3.930  0.3093 -0.1660  0.4672
 2039SOL     OW17749   0.321   2.491   1.309  0.6916 -0.1799  0.0457
 2039SOL    HW117750   0.406   2.452   1.326 -0.4875 -1.8319  2.1841
 2039SOL    HW217751   0.340   2.584   1.297  1.7047 -0.3392  0.4594
 2040SOL     OW17752   4.605   2.348  11.943  0.8060 -0.4423  0.5825
 2040SOL    HW117753   4.512   2.366  11.929  1.5467  1.8072 -1.4075
 2040SOL    HW217754   4.643   2.436  11.935  1.9403 -1.0935 -1.0915
 2041SOL     OW17755   1.072   0.291   7.424  0.6782 -0.0709 -0.5170
 2041SOL    HW117756   1.032   0.260   7.504 -2.6087  0.7391 -1.8372
 2041SOL    HW217757   1.079   0.384   7.448  3.4417 -0.3774 -0.1572
 2042SOL     OW17758   0.707   2.280   5.231  0.1111 -0.1362 -0.0929
 2042SOL    HW117759   0.760   2.214   5.275 -0.5486 -0.5478  0.0856
 2042SOL    HW217760   0.619   2.271   5.267  0.3195 -3.4632 -0.4159
 2043SOL     OW17761   3.454   1.370  12.306  0.3429  0.1531 -0.1859
 2043SOL    HW117762   3.501   1.288  12.314  0.8332  0.4396 -0.1269
 2043SOL    HW217763   3.391   1.371  12.378  1.9268  2.1002  1.2000
 2044SOL     OW17764   2.164   0.483  13.849 -0.1346  0.0441  0.0355
 2044SOL    HW117765   2.149   0.570  13.812  2.1212 -0.1116 -1.2614
 2044SOL    HW217766   2.230   0.448  13.789 -0.1703  0.4222 -0.2217
 2045SOL     OW17767   4.362   4.279  16.622 -0.4043 -0.0067 -0.9027
 2045SOL    HW117768   4.364   4.349  16.687  0.8944 -0.5068 -0.4091
 2045SOL    HW217769   4.347   4.198  16.670  0.5143  0.7284  0.6010
 2046SOL     OW17770   1.458   2.373  16.823 -0.2852  0.2570 -0.2387
 2046SOL    HW117771   1.435   2.280  16.824 -2.0582  0.6904 -0.8528
 2046SOL    HW217772   1.382   2.411  16.779  0.2838 -0.6597 -2.0379
 2047SOL     OW17773   0.171   3.906  10.717 -0.0025 -0.0435  0.5524
 2047SOL    HW117774   0.161   3.995  10.684 -0.9752 -0.3998 -0.1143
 2047SOL    HW217775   0.158   3.898  10.812  1.9274  2.2986  1.0138
 2048SOL     OW17776   4.329   3.940   3.153  0.6556  0.0125  0.7476
 2048SOL    HW117777   4.282   3.865   3.190  0.0661 -0.0846 -0.2094
 2048SOL    HW217778   4.292   3.962   3.068  0.3981 -0.5676  0.7113
 2049SOL     OW17779   1.434   1.070   4.337  0.1234  0.1817 -0.2141
 2049SOL    HW117780   1.371   1.059   4.266  0.5302 -1.1405 -0.3669
 2049SOL    HW217781   1.480   0.987   4.346  2.2996  1.4160  0.0553
 2050SOL     OW17782   3.553   0.775   2.130  0.5406  0.9665 -0.3891
 2050SOL    HW117783   3.541   0.802   2.221 -1.0189  1.2851 -0.6833
 2050SOL    HW217784   3.548   0.864   2.095  0.3104  0.8368 -0.6964
 2051SOL     OW17785   1.728   2.611   2.961 -0.3418  0.2666  0.3171
 2051SOL    HW117786   1.656   2.555   2.991 -1.5632  3.3811  3.1445
 2051SOL    HW217787   1.683   2.693   2.942 -2.3535 -0.4068  2.1855
 2052SOL     OW17788   4.309   1.804  13.080 -0.0138 -0.2710 -0.1450
 2052SOL    HW117789   4.237   1.867  13.082 -0.5197 -0.8965  0.9028
 2052SOL    HW217790   4.322   1.775  13.170 -1.4744  2.8705  1.0741
 2053SOL     OW17791   1.238   2.330   8.794  0.2716  0.1076  0.2743
 2053SOL    HW117792   1.207   2.388   8.864  1.3767 -1.1299  1.7837
 2053SOL    HW217793   1.153   2.322   8.750  0.4862  0.6328 -0.2232
 2054SOL     OW17794   3.022   0.247   7.032 -0.4582  0.2362  0.6913
 2054SOL    HW117795   3.029   0.198   6.950 -0.7628  1.6719 -0.2126
 2054SOL    HW217796   3.085   0.318   7.020  0.3971 -0.5147  0.7637
 2055SOL     OW17797   3.405   2.344   1.193 -0.3572 -0.0066  0.1730
 2055SOL    HW117798   3.310   2.355   1.196 -0.4011  0.2199 -2.0318
 2055SOL    HW217799   3.434   2.414   1.252  1.3906 -0.6193  0.0394
 2056SOL     OW17800   1.438   1.451   9.708  0.5654  0.1711  1.0177
 2056SOL    HW117801   1.521   1.416   9.739  0.1755 -0.6707  1.1183
 2056SOL    HW217802   1.436   1.546   9.719 -2.7528  0.2439 -0.2294
 2057SOL     OW17803   3.846   2.547   3.345  0.2966 -0.2100 -0.4508
 2057SOL    HW117804   3.868   2.501   3.426  1.3135  3.3336  1.2799
 2057SOL    HW217805   3.752   2.562   3.355  1.0363  3.2216  1.1840
 2058SOL     OW17806   0.098   3.130   9.718  0.4370 -0.2242  0.4296
 2058SOL    HW117807   0.123   3.122   9.811 -2.7184 -0.7300  1.2335
 2058SOL    HW217808   0.169   3.076   9.684  0.7069 -0.7476  1.7859
 2059SOL     OW17809   3.848   3.580   6.133 -0.0217 -1.0066  0.2534
 2059SOL    HW117810   3.857   3.538   6.218  0.5548  1.0462  1.2058
 2059SOL    HW217811   3.881   3.509   6.078 -0.4060 -0.2015 -1.0219
 2060SOL     OW17812   0.571   3.974   7.419  0.4882  0.2611  0.2728
 2060SOL    HW117813   0.632   4.048   7.425  2.7574 -1.5606  0.0156
 2060SOL    HW217814   0.489   4.021   7.405 -0.7157 -1.5416  1.3228
 2061SOL     OW17815   2.379   4.028   5.640  0.1483 -0.1587  0.0818
 2061SOL    HW117816   2.473   4.036   5.622 -0.6438  0.7991 -3.5715
 2061SOL    HW217817   2.382   3.954   5.702  0.0577  0.0488  0.3323
 2062SOL     OW17818   2.450   2.993   4.451 -0.0975  0.2517 -0.7899
 2062SOL    HW117819   2.468   2.899   4.439  2.0427  0.4138  1.2159
 2062SOL    HW217820   2.536   3.029   4.430  0.2224  0.2179  0.4797
 2063SOL     OW17821   1.225   3.416   5.556 -0.2703  0.1967  0.5496
 2063SOL    HW117822   1.309   3.445   5.590 -1.5636  1.8603  2.3725
 2063SOL    HW217823   1.242   3.407   5.463  2.5745  0.5813  1.0391
 2064SOL     OW17824   2.732   3.988   9.119 -0.2603 -0.4433  0.1795
 2064SOL    HW117825   2.808   3.938   9.148  0.2312  2.8289  4.4785
 2064SOL    HW217826   2.688   3.980   9.204 -2.3742 -1.4048 -1.0040
 2065SOL     OW17827   4.591   2.610   7.824  0.8169  0.2461 -0.2785
 2065SOL    HW117828   4.507   2.565   7.819  1.8265 -1.4914 -1.5272
 2065SOL    HW217829   4.587   2.661   7.905  1.1665 -2.2167  1.3027
 2066SOL     OW17830   2.821   1.615   3.572 -0.8838  0.1932 -0.4472
 2066SOL    HW117831   2.809   1.616   3.477 -1.2588  1.5651 -0.3746
 2066SOL    HW217832   2.742   1.566   3.593 -0.2746  0.3549  2.2506
 2067SOL     OW17833   1.003   2.902   4.251  0.6040 -0.3467 -0.2287
 2067SOL    HW117834   1.061   2.960   4.301  0.3872  0.2588 -0.6825
 2067SOL    HW217835   1.049   2.905   4.167  0.6358 -1.7049 -0.2633
 2068SOL     OW17836   0.355   0.291  13.792 -0.4398 -0.2814  0.2428
 2068SOL    HW117837   0.439   0.259  13.826 -0.9625 -1.0747  0.7859
 2068SOL    HW217838   0.384   0.300  13.701 -1.3804 -0.9049 -0.1177
 2069SOL     OW17839   4.150   2.661  13.119 -0.2538 -0.0137 -0.2598
 2069SOL    HW117840   4.057   2.659  13.140  0.0022  0.2996  0.8739
 2069SOL    HW217841   4.146   2.689  13.028  3.9412  1.1085 -0.1069
 2070SOL     OW17842   3.059   3.146  13.212  0.1500  0.2994 -0.4374
 2070SOL    HW117843   3.079   3.108  13.298 -2.4120  1.8156  0.8493
 2070SOL    HW217844   2.993   3.206  13.246  0.6612  0.6907 -0.1343
 2071SOL     OW17845   3.528   2.743   3.119 -0.3903 -0.1487  0.1390
 2071SOL    HW117846   3.444   2.771   3.081 -0.4754 -1.0557 -0.3400
 2071SOL    HW217847   3.500   2.667   3.169  0.2668 -1.6429 -1.7676
 2072SOL     OW17848   1.227   2.996   7.350 -0.1205 -0.5521 -0.0652
 2072SOL    HW117849   1.225   3.054   7.273  0.3975  1.1805  1.2266
 2072SOL    HW217850   1.155   3.037   7.398 -0.6141 -0.8136 -0.5804
 2073SOL     OW17851   1.708   3.950   3.295 -0.4419  0.3602 -0.0782
 2073SOL    HW117852   1.796   3.984   3.281 -0.5811 -0.1195 -2.1521
 2073SOL    HW217853   1.690   3.890   3.223 -0.4405 -0.0168  0.2319
 2074SOL     OW17854   3.437   4.509   3.735 -0.0622 -0.3720  0.5723
 2074SOL    HW117855   3.465   4.592   3.698  2.8254 -0.3346  2.7557
 2074SOL    HW217856   3.515   4.495   3.789  1.0526 -0.4928 -1.0936
 2075SOL     OW17857   0.958   2.748   4.462  0.2661 -0.1912 -0.1764
 2075SOL    HW117858   0.972   2.763   4.368 -1.7435  0.1174 -0.4307
 2075SOL    HW217859   1.014   2.817   4.496  2.7402 -1.4243 -1.7288
 2076SOL     OW17860   3.772   1.120   4.035  0.3548  0.0398 -0.3833
 2076SOL    HW117861   3.704   1.168   3.988  0.9238  2.1891  0.9834
 2076SOL    HW217862   3.850   1.144   3.985  0.1909 -1.4283 -1.3671
 2077SOL     OW17863   0.667   1.728  12.837  0.0218  0.4266 -0.1107
 2077SOL    HW117864   0.631   1.738  12.925 -1.6353  0.2746 -0.7735
 2077SOL    HW217865   0.718   1.648  12.849  0.3182  0.9794  2.3571
 2078SOL     OW17866   0.622   2.303   3.639 -0.4883 -0.2115  0.5374
 2078SOL    HW117867   0.656   2.310   3.549  0.6211 -0.5913  0.9209
 2078SOL    HW217868   0.528   2.318   3.635 -0.1754  1.2514 -1.2187
 2079SOL     OW17869   1.545   2.435   3.354  0.2101  0.0345  0.1816
 2079SOL    HW117870   1.528   2.528   3.368  2.3380  0.3842  0.3354
 2079SOL    HW217871   1.459   2.396   3.370  0.5726 -0.0894  1.8341
 2080SOL     OW17872   3.462   3.000   3.370 -0.5776 -0.0959  0.1962
 2080SOL    HW117873   3.449   2.954   3.287 -1.2098 -1.8701  1.2875
 2080SOL    HW217874   3.478   3.086   3.332  2.5861 -1.9376 -2.6493
 2081SOL     OW17875   0.401   3.532   4.996  0.0162  0.3744 -0.2365
 2081SOL    HW117876   0.389   3.478   4.918  2.2522  1.1300 -1.0823
 2081SOL    HW217877   0.467   3.596   4.972 -0.6585  1.5474  1.0379
 2082SOL     OW17878   0.869   0.222   4.758  0.1348  0.0267 -0.2029
 2082SOL    HW117879   0.908   0.309   4.751 -1.5055  0.7329 -0.5077
 2082SOL    HW217880   0.784   0.239   4.717  0.5170 -1.0256 -1.4061
 2083SOL     OW17881   0.993   0.710  10.505  0.1699  0.3291  0.1921
 2083SOL    HW117882   0.942   0.640  10.545 -0.9925  2.7959  2.9645
 2083SOL    HW217883   1.059   0.721  10.573 -0.0811 -0.0169  0.4887
 2084SOL     OW17884   3.456   2.073  16.521  0.1078 -0.2422 -0.5848
 2084SOL    HW117885   3.516   1.999  16.514 -1.4252 -1.6008  0.6229
 2084SOL    HW217886   3.503   2.146  16.481 -0.8331  0.8274  0.2521
 2085SOL     OW17887   2.032   4.714   5.079 -0.5595 -0.0674 -0.0656
 2085SOL    HW117888   2.118   0.007   5.050 -1.7560  2.4670 -0.9582
 2085SOL    HW217889   2.039   4.625   5.046 -1.4574  0.7874 -2.5458
 2086SOL     OW17890   1.229   3.228   9.146 -0.1931  0.1873  0.2490
 2086SOL    HW117891   1.206   3.193   9.232  0.8532 -0.6443  0.1868
 2086SOL    HW217892   1.310   3.180   9.129 -0.5498  0.4238 -2.0507
 2087SOL     OW17893   4.726   2.952   1.656 -0.4168  0.5950  0.0879
 2087SOL    HW117894   4.641   2.907   1.654 -0.5206  0.7360  1.3650
 2087SOL    HW217895   0.014   2.951   1.564  0.1974  0.5696  0.2570
 2088SOL     OW17896   0.589   0.658  11.333  0.0658 -0.6972 -0.0688
 2088SOL    HW117897   0.551   0.592  11.392  1.9744 -2.4899 -0.8548
 2088SOL    HW217898   0.672   0.618  11.310  1.3393  0.5895  2.2244
 2089SOL     OW17899   0.699   0.435   4.107 -0.4310  0.1908  0.5708
 2089SOL    HW117900   0.613   0.411   4.141 -1.3789  0.9270 -1.3133
 2089SOL    HW217901   0.672   0.453   4.017 -1.4675 -0.6906  0.7171
 2090SOL     OW17902   4.413   0.376   1.994 -0.3526 -1.0167  0.6441
 2090SOL    HW117903   4.426   0.457   1.944 -2.2639 -1.8587 -1.2306
 2090SOL    HW217904   4.495   0.380   2.044 -1.3504 -0.1201  2.2117
 2091SOL     OW17905   3.253   3.969  15.634  0.0975  0.6396 -0.7678
 2091SOL    HW117906   3.190   4.026  15.678 -1.4517 -1.5325 -0.1890
 2091SOL    HW217907   3.224   3.881  15.657 -0.1606  0.1134 -3.0611
 2092SOL     OW17908   1.984   2.063   8.872 -0.3064 -0.2233  0.4351
 2092SOL    HW117909   1.995   2.113   8.791 -1.5843 -1.2333 -0.3646
 2092SOL    HW217910   2.011   2.132   8.932 -0.2772  0.7818 -0.7461
 2093SOL     OW17911   0.437   1.148  13.719 -0.4045  0.0087 -0.2510
 2093SOL    HW117912   0.455   1.234  13.680 -2.2678  0.0086 -1.0710
 2093SOL    HW217913   0.525   1.112  13.709 -0.3627  0.5603 -1.9993
 2094SOL     OW17914   2.455   4.573   2.751 -0.0462 -0.0796 -0.1867
 2094SOL    HW117915   2.488   4.542   2.835  2.1742 -2.0454 -1.7911
 2094SOL    HW217916   2.532   4.619   2.719 -0.8491  0.7227 -0.9613
 2095SOL     OW17917   3.097   1.176  17.487 -0.0882 -0.4944  0.2722
 2095SOL    HW117918   3.165   1.165  17.553  1.8595  1.0846 -1.4792
 2095SOL    HW217919   3.075   1.086  17.461 -1.8576  0.1274 -0.3686
 2096SOL     OW17920   4.376   3.634   3.695 -0.0326 -0.1279  0.2951
 2096SOL    HW117921   4.318   3.576   3.743 -0.2186 -0.4931 -0.3737
 2096SOL    HW217922   4.429   3.681   3.760  2.0142 -1.2393 -0.5444
 2097SOL     OW17923   2.407   2.265  11.173  0.9371  0.1979  0.2492
 2097SOL    HW117924   2.486   2.241  11.125  1.3469 -1.6853  1.8662
 2097SOL    HW217925   2.442   2.271  11.262  1.2983 -2.6812  0.3107
 2098SOL     OW17926   0.417   2.628  10.001 -0.2972 -0.2488 -0.4728
 2098SOL    HW117927   0.475   2.702  10.020  0.2569 -0.6269 -0.7175
 2098SOL    HW217928   0.333   2.670   9.982  0.6847  3.7430  3.8055
 2099SOL     OW17929   0.736   2.561   5.213  0.7806  0.5294  0.4063
 2099SOL    HW117930   0.724   2.466   5.220 -0.4049  0.5187 -1.5353
 2099SOL    HW217931   0.647   2.593   5.228 -0.2678 -2.1929  0.0980
 2100SOL     OW17932   4.307   3.010   7.553 -0.2766  0.5443  0.7323
 2100SOL    HW117933   4.364   2.947   7.509  0.1853  1.9833 -0.7069
 2100SOL    HW217934   4.241   3.019   7.484  0.9358  0.9728 -0.3589
 2101SOL     OW17935   0.678   3.627   9.175 -0.2091 -0.4217 -0.5629
 2101SOL    HW117936   0.638   3.574   9.244  0.1310 -1.1702 -0.9317
 2101SOL    HW217937   0.760   3.580   9.161 -0.7061 -1.4743 -0.0003
 2102SOL     OW17938   3.238   4.726   7.885 -0.0645 -0.2557  0.1722
 2102SOL    HW117939   3.255   0.058   7.949 -2.3040  0.5792 -0.1331
 2102SOL    HW217940   3.302   0.014   7.818 -1.3242  2.4545 -0.0261
 2103SOL     OW17941   3.469   4.101  16.222  0.1204  0.3138 -0.1731
 2103SOL    HW117942   3.393   4.107  16.279  1.9176  0.0974  2.2484
 2103SOL    HW217943   3.469   4.005  16.216 -1.9896  0.2589  0.7193
 2104SOL     OW17944   4.690   4.461   2.064  0.7419 -0.0762 -0.3199
 2104SOL    HW117945   4.612   4.502   2.101 -0.5389 -2.7628  0.0037
 2104SOL    HW217946   4.650   4.374   2.065  1.8648 -0.5637  1.5312
 2105SOL     OW17947   4.233   3.941   7.077  0.4987  0.3625 -0.5196
 2105SOL    HW117948   4.194   3.873   7.132 -1.6215 -0.2276 -2.7810
 2105SOL    HW217949   4.323   3.909   7.074  0.4339  0.0921  0.4384
 2106SOL     OW17950   3.233   4.484   6.686 -0.1442  0.0694  0.7742
 2106SOL    HW117951   3.191   4.412   6.639 -0.2872  0.2789  0.5750
 2106SOL    HW217952   3.181   4.488   6.766  1.8850  0.8619  2.0483
 2107SOL     OW17953   1.714   2.809   2.307  0.3125 -0.0722 -0.0579
 2107SOL    HW117954   1.686   2.778   2.221  0.3681  1.9255 -0.7989
 2107SOL    HW217955   1.697   2.741   2.373 -0.2926 -0.5143 -0.6791
 2108SOL     OW17956   1.509   3.680  16.823 -0.2208 -0.5468  0.1737
 2108SOL    HW117957   1.596   3.669  16.862 -0.0105  0.7905  0.0786
 2108SOL    HW217958   1.485   3.756  16.875 -0.5825 -0.0800 -0.6874
 2109SOL     OW17959   3.928   0.538  12.261  0.0173 -0.1687 -0.3127
 2109SOL    HW117960   4.016   0.501  12.256  0.7979  1.4788  1.2283
 2109SOL    HW217961   3.891   0.497  12.182  1.9605 -0.1649 -1.2333
 2110SOL     OW17962   1.349   4.015  10.608  0.2330 -0.5839  0.1250
 2110SOL    HW117963   1.302   4.097  10.591  2.3220  0.7977  1.0627
 2110SOL    HW217964   1.281   3.964  10.652 -0.8333  0.6382 -0.1106
 2111SOL     OW17965   2.539   0.043  15.658 -0.2415 -0.2316 -0.2108
 2111SOL    HW117966   2.533   4.685  15.655 -0.0653 -0.2970  1.3053
 2111SOL    HW217967   2.467   0.063  15.717  0.3420 -0.4153  0.5684
 2112SOL     OW17968   1.196   2.603   9.348 -0.2493 -0.4186 -0.4439
 2112SOL    HW117969   1.117   2.623   9.298  0.9749 -0.6678 -2.4944
 2112SOL    HW217970   1.217   2.519   9.307  0.7909 -0.3661 -0.0203
 2113SOL     OW17971   2.243   0.953   5.536 -0.3782 -0.0814 -0.0481
 2113SOL    HW117972   2.166   0.985   5.489 -0.4649  0.5514  0.5350
 2113SOL    HW217973   2.257   1.031   5.589  2.4706 -1.8385  1.8105
 2114SOL     OW17974   3.981   3.103   9.885 -0.3986 -0.3428  0.2993
 2114SOL    HW117975   4.073   3.097   9.910 -0.3448  0.8836  0.3786
 2114SOL    HW217976   3.981   3.106   9.789  1.4503  2.9887  0.4154
 2115SOL     OW17977   3.884   3.715   2.277  0.0995 -0.4844 -0.1357
 2115SOL    HW117978   3.868   3.701   2.184  1.4345  0.7330 -0.5529
 2115SOL    HW217979   3.854   3.635   2.319 -1.2743  0.5339  0.8103
 2116SOL     OW17980   4.737   1.955   8.076 -0.2549 -0.0652 -0.2683
 2116SOL    HW117981   4.647   1.926   8.090 -0.7641  1.7622  0.2973
 2116SOL    HW217982   4.720   2.045   8.047 -2.0677  0.4159  2.3315
 2117SOL     OW17983   0.266   0.376  12.619  0.1996  0.4243  0.0099
 2117SOL    HW117984   0.327   0.325  12.672  0.2784 -0.7475 -1.2139
 2117SOL    HW217985   0.199   0.317  12.584  1.6137 -0.4627 -1.1949
 2118SOL     OW17986   1.697   0.887  12.396  0.3235  0.1209 -0.5854
 2118SOL    HW117987   1.724   0.822  12.462 -1.3846 -1.7680 -1.7417
 2118SOL    HW217988   1.753   0.963  12.413 -0.7184  0.9901 -1.0701
 2119SOL     OW17989   0.551   0.556   5.505 -0.3941 -0.1143 -0.4227
 2119SOL    HW117990   0.458   0.540   5.525 -0.3414  0.5431  0.2915
 2119SOL    HW217991   0.593   0.483   5.550  0.0929  1.0705  1.0354
 2120SOL     OW17992   3.462   3.731   5.292 -0.7010  0.3678 -0.7056
 2120SOL    HW117993   3.470   3.720   5.387 -2.2585 -1.3630 -0.7894
 2120SOL    HW217994   3.552   3.753   5.269 -0.1021 -0.4091  0.8931
 2121SOL     OW17995   3.537   4.239  16.975 -0.8306  0.1122 -0.7149
 2121SOL    HW117996   3.482   4.290  16.917  0.1289  0.7535 -1.0451
 2121SOL    HW217997   3.549   4.286  17.057  0.8747 -2.6521  0.6409
 2122SOL     OW17998   1.161   3.682   4.734  0.0761 -0.0364  0.2698
 2122SOL    HW117999   1.218   3.645   4.666 -2.2319 -0.4754 -1.4362
 2122SOL    HW218000   1.193   3.622   4.802  1.0115 -1.1176 -1.1242
 2123SOL     OW18001   0.242   0.876   2.512  0.0332 -0.4071 -0.1877
 2123SOL    HW118002   0.171   0.940   2.507  0.3974  0.1116  1.3202
 2123SOL    HW218003   0.199   0.796   2.483  1.0824 -0.8655 -0.4749
 2124SOL     OW18004   3.691   0.086   4.673 -0.3418  0.2591 -0.0361
 2124SOL    HW118005   3.756   0.048   4.613 -0.6522 -0.1430 -0.1184
 2124SOL    HW218006   3.729   0.054   4.754 -2.2666 -0.0365  0.7674
 2125SOL     OW18007   1.521   0.633   4.078  0.5504  0.2834  0.5570
 2125SOL    HW118008   1.446   0.684   4.048  0.3308  0.5775  1.6121
 2125SOL    HW218009   1.482   0.546   4.072  2.6372 -0.4812 -1.7713
 2126SOL     OW18010   0.754   4.127  13.601 -0.2694 -0.5818  0.0906
 2126SOL    HW118011   0.720   4.197  13.656  0.6389 -0.6877  0.7780
 2126SOL    HW218012   0.792   4.061  13.659  1.6177  0.3337 -0.1161
 2127SOL     OW18013   4.574   3.914   2.483  0.2664  0.4349 -0.2197
 2127SOL    HW118014   4.521   3.989   2.512  1.6115  0.8129  1.2536
 2127SOL    HW218015   4.514   3.879   2.417  1.1603 -1.3830 -0.0755
 2128SOL     OW18016   0.332   0.351  10.411 -0.1090 -0.0217  0.0114
 2128SOL    HW118017   0.386   0.272  10.411  1.5907  1.1482  0.4407
 2128SOL    HW218018   0.244   0.319  10.390  0.4170 -1.0500 -0.5936
 2129SOL     OW18019   3.326   0.771   3.901  0.2621 -0.2927  1.1908
 2129SOL    HW118020   3.358   0.812   3.982  1.5042 -2.6276  1.8788
 2129SOL    HW218021   3.270   0.840   3.864  0.2235 -0.6588  0.5809
 2130SOL     OW18022   2.642   1.056   6.547 -0.2798  0.5305  0.2136
 2130SOL    HW118023   2.600   1.048   6.632  0.8365  0.9143  0.8083
 2130SOL    HW218024   2.572   1.017   6.495 -1.0235  0.9630  0.9068
 2131SOL     OW18025   1.318   1.877   1.398  0.7139  0.1283 -0.1351
 2131SOL    HW118026   1.300   1.943   1.332 -0.9816 -0.5774 -0.3839
 2131SOL    HW218027   1.298   1.789   1.368  2.4798  0.8161 -3.3780
 2132SOL     OW18028   3.487   2.873  13.685 -0.4444  0.4904  0.1224
 2132SOL    HW118029   3.456   2.929  13.756 -1.4591  1.6651 -1.2418
 2132SOL    HW218030   3.581   2.879  13.703  0.0084 -0.4682 -1.9484
 2133SOL     OW18031   1.833   3.279   1.964  0.3464 -0.3669 -0.5204
 2133SOL    HW118032   1.807   3.348   1.902 -0.3787 -1.5150 -1.5022
 2133SOL    HW218033   1.790   3.314   2.042  1.3456  0.9433 -0.5513
 2134SOL     OW18034   3.510   3.195  14.580 -0.4101 -0.1763  0.2157
 2134SOL    HW118035   3.422   3.191  14.617 -0.2520 -0.0193  0.6084
 2134SOL    HW218036   3.533   3.103  14.574 -0.0275 -0.0138 -0.8646
 2135SOL     OW18037   3.480   1.285   4.599 -0.3895 -0.3439  0.0303
 2135SOL    HW118038   3.495   1.325   4.684  1.1297 -0.5242 -0.1596
 2135SOL    HW218039   3.411   1.334   4.554 -0.7906 -1.4589 -0.5829
 2136SOL     OW18040   4.598   0.715  13.040 -0.3947  0.2023 -0.3350
 2136SOL    HW118041   4.685   0.693  13.074 -1.1002  0.2069  1.4653
 2136SOL    HW218042   4.598   0.811  13.040 -2.3154  0.1911  0.3003
 2137SOL     OW18043   4.401   2.613   1.580  0.4587 -0.1170 -0.7173
 2137SOL    HW118044   4.353   2.536   1.609 -0.2035  0.7847  0.5840
 2137SOL    HW218045   4.493   2.584   1.582  0.4044 -0.2787 -0.5590
 2138SOL     OW18046   2.304   1.697  11.825 -0.3515  0.2188 -0.2000
 2138SOL    HW118047   2.378   1.744  11.787  1.2823 -1.6073  0.7372
 2138SOL    HW218048   2.249   1.682  11.748 -3.0416  1.9274  1.3765
 2139SOL     OW18049   1.272   4.419  15.658 -0.5489 -0.3430  0.3119
 2139SOL    HW118050   1.227   4.360  15.598  1.2500  0.5727 -1.9279
 2139SOL    HW218051   1.364   4.412  15.631 -0.0119 -0.1550  2.0512
 2140SOL     OW18052   2.609   1.087   3.920  0.4957  0.3103 -0.0219
 2140SOL    HW118053   2.577   1.063   3.833 -1.1276 -0.4911  0.8015
 2140SOL    HW218054   2.686   1.127   3.880  1.1541 -0.2379  0.7068
 2141SOL     OW18055   4.359   3.448   6.639  0.4496  0.1804 -0.0542
 2141SOL    HW118056   4.400   3.527   6.675  0.0134 -0.1310  1.1290
 2141SOL    HW218057   4.279   3.443   6.691  1.3522  0.5149  1.3778
 2142SOL     OW18058   0.545   3.486  11.889 -0.1070 -0.3148  0.0794
 2142SOL    HW118059   0.598   3.441  11.823  2.9149  1.2457  1.4590
 2142SOL    HW218060   0.481   3.533  11.835 -1.1366 -1.3484  0.3784
 2143SOL     OW18061   1.019   1.063   3.943  0.0573  0.9036  0.4908
 2143SOL    HW118062   0.980   1.106   4.019  0.9610  2.5000  0.0457
 2143SOL    HW218063   0.936   1.034   3.905  1.0267  0.8115 -1.5836
 2144SOL     OW18064   4.004   4.671   5.802  0.4882 -0.9259 -0.0654
 2144SOL    HW118065   4.017   4.693   5.894 -0.9835  0.4746 -0.1790
 2144SOL    HW218066   3.909   4.661   5.791  0.3170 -0.2245  0.8408
 2145SOL     OW18067   3.042   3.394   4.280  0.0974 -0.0284  0.0643
 2145SOL    HW118068   3.107   3.463   4.292  1.5759 -1.4197  0.0697
 2145SOL    HW218069   3.112   3.329   4.282  0.6781  0.5782 -0.3175
 2146SOL     OW18070   1.095   0.274   3.459 -0.9013 -0.1445  0.3516
 2146SOL    HW118071   1.082   0.354   3.408 -0.8541  0.5187  1.3660
 2146SOL    HW218072   1.039   0.215   3.409 -3.2761  0.9753  1.6689
 2147SOL     OW18073   1.379   4.189   1.673  0.4118  0.0904 -0.3098
 2147SOL    HW118074   1.457   4.168   1.723  0.7083 -0.4936 -1.0125
 2147SOL    HW218075   1.312   4.142   1.722  1.2211 -0.8612 -0.1081
 2148SOL     OW18076   2.338   1.562   5.195  0.0640  0.4000 -0.5100
 2148SOL    HW118077   2.252   1.570   5.236  1.3395  0.6595  2.1056
 2148SOL    HW218078   2.384   1.508   5.259  0.9754  1.5162 -0.2245
 2149SOL     OW18079   2.874   2.705   0.106 -0.2786 -0.7757 -0.1681
 2149SOL    HW118080   2.845   2.751   0.185 -0.0692  1.2609 -1.2863
 2149SOL    HW218081   2.906   2.626   0.149 -0.0283 -0.7570 -0.3242
 2150SOL     OW18082   3.934   2.803   5.991 -0.2415 -0.5777  0.0908
 2150SOL    HW118083   3.872   2.738   6.023 -1.6789  0.7143 -0.0450
 2150SOL    HW218084   4.002   2.796   6.058  1.6926 -0.7058 -1.9241
 2151SOL     OW18085   3.148   2.831   5.259 -0.1963  0.7198 -0.2437
 2151SOL    HW118086   3.211   2.769   5.296 -1.6785 -0.4174  0.3583
 2151SOL    HW218087   3.152   2.901   5.324 -2.7841 -1.2599  2.0595
 2152SOL     OW18088   1.278   1.810   6.162  0.0091  0.6389 -0.2288
 2152SOL    HW118089   1.348   1.802   6.228  0.2028 -0.1735 -0.5383
 2152SOL    HW218090   1.215   1.858   6.217  1.2035  0.9785  0.8524
 2153SOL     OW18091   1.594   1.546   7.586 -0.1370 -0.1179  0.6770
 2153SOL    HW118092   1.500   1.559   7.599 -0.6831  0.1547 -3.3978
 2153SOL    HW218093   1.594   1.450   7.591 -0.9945 -0.2423 -1.5150
 2154SOL     OW18094   1.996   3.984   1.314  0.4165  0.2965  0.0786
 2154SOL    HW118095   1.994   4.079   1.324  0.9386  0.2582  0.5749
 2154SOL    HW218096   2.052   3.976   1.236 -0.2714  2.0285 -0.5863
 2155SOL     OW18097   0.311   1.484   8.338 -0.1078  0.3222 -0.4749
 2155SOL    HW118098   0.326   1.526   8.254 -0.5395  0.0194 -0.7055
 2155SOL    HW218099   0.217   1.483   8.356  0.1932  0.4166  1.1281
 2156SOL     OW18100   3.731   4.668   5.693  0.0698 -0.0204 -0.0378
 2156SOL    HW118101   3.732   0.000   5.759 -0.0144  3.5394 -3.7934
 2156SOL    HW218102   3.636   4.665   5.678 -0.0074  0.1589  0.4300
 2157SOL     OW18103   1.873   0.640   1.225 -0.0508  0.3034  0.3398
 2157SOL    HW118104   1.821   0.570   1.266 -1.5231  0.7007 -0.8566
 2157SOL    HW218105   1.813   0.714   1.218  0.2778  0.7585  2.2200
 2158SOL     OW18106   2.517   0.775  14.838 -0.0182  0.1639  0.1478
 2158SOL    HW118107   2.514   0.741  14.928 -2.0173  0.7192  0.2913
 2158SOL    HW218108   2.433   0.744  14.805 -0.3048 -0.5456  1.5602
 2159SOL     OW18109   4.023   4.509  12.725 -0.2428 -0.6108 -0.3414
 2159SOL    HW118110   3.975   4.447  12.779 -2.6364  0.5711 -1.0905
 2159SOL    HW218111   3.951   4.535  12.667 -0.5700  0.6278  0.6069
 2160SOL     OW18112   0.288   0.758   3.088  0.1609  0.2620  0.1450
 2160SOL    HW118113   0.272   0.712   3.170 -0.7382 -0.9785 -0.7014
 2160SOL    HW218114   0.380   0.783   3.095  0.4495 -0.8898  0.4932
 2161SOL     OW18115   1.995   0.847   8.063  0.7361  0.5123  0.4737
 2161SOL    HW118116   2.072   0.854   8.119  1.3335 -1.1269 -0.1240
 2161SOL    HW218117   1.954   0.766   8.095 -0.0275  0.7972  0.2170
 2162SOL     OW18118   1.062   1.423   6.497 -0.0426 -0.0053 -0.6825
 2162SOL    HW118119   1.141   1.416   6.551 -0.6640 -1.0046  0.1258
 2162SOL    HW218120   1.091   1.404   6.408 -1.1808 -1.5933 -0.7304
 2163SOL     OW18121   3.036   3.467   8.198 -0.1945 -0.0851 -0.1914
 2163SOL    HW118122   3.103   3.444   8.133 -0.2405 -0.2811 -0.1717
 2163SOL    HW218123   3.047   3.561   8.209 -2.4136 -0.0325  1.4630
 2164SOL     OW18124   2.385   1.872   7.381  0.2880  0.4322 -0.0485
 2164SOL    HW118125   2.454   1.932   7.410 -1.7461  3.2761 -1.1095
 2164SOL    HW218126   2.431   1.821   7.315 -1.0045 -0.2321 -0.4351
 2165SOL     OW18127   2.825   3.711   3.961  0.7295 -0.7845 -0.6176
 2165SOL    HW118128   2.809   3.632   4.012  2.5833 -0.6623  0.1593
 2165SOL    HW218129   2.875   3.770   4.018  0.2998 -1.6021  0.6063
 2166SOL     OW18130   4.079   1.525   6.263 -1.0544 -0.3887  0.0898
 2166SOL    HW118131   4.122   1.486   6.339  0.8880  0.4281 -0.5754
 2166SOL    HW218132   4.149   1.513   6.198 -0.8671 -1.8405  0.5708
 2167SOL     OW18133   0.509   1.525  12.678 -0.0703 -0.6337 -0.3285
 2167SOL    HW118134   0.416   1.550  12.676  0.3560  0.9310 -0.9686
 2167SOL    HW218135   0.544   1.601  12.725 -1.8944  0.5067 -0.8072
 2168SOL     OW18136   3.687   0.523   6.636 -0.1070  0.0663 -0.0510
 2168SOL    HW118137   3.631   0.566   6.572 -0.4093  0.3346  0.3959
 2168SOL    HW218138   3.657   0.582   6.706  1.5577  0.6048  0.2119
 2169SOL     OW18139   2.938   1.416   4.285  0.1075  0.1133  0.7582
 2169SOL    HW118140   2.868   1.481   4.276  0.2843  0.0097 -1.2584
 2169SOL    HW218141   2.960   1.436   4.376 -1.3962  0.7934  0.9754
 2170SOL     OW18142   0.813   3.103  15.089 -0.9029  0.0986 -0.5251
 2170SOL    HW118143   0.783   3.082  15.178  2.0981 -0.6427  0.3163
 2170SOL    HW218144   0.795   3.196  15.077  0.0403 -0.1562 -3.6616
 2171SOL     OW18145   4.448   2.130  13.349 -0.3146 -0.9484  0.1875
 2171SOL    HW118146   4.361   2.104  13.378 -0.3236 -0.2973  0.7371
 2171SOL    HW218147   4.500   2.090  13.418 -0.3969  0.7669  1.2505
 2172SOL     OW18148   3.939   2.341   5.289 -0.1798  0.0555  1.0166
 2172SOL    HW118149   3.947   2.297   5.373 -0.1285 -1.7280  0.0922
 2172SOL    HW218150   4.028   2.331   5.257 -0.8212 -2.1238 -0.0671
 2173SOL     OW18151   4.658   0.874   7.447  0.1696 -0.7812 -0.3277
 2173SOL    HW118152   4.676   0.851   7.356  0.0961 -1.3519 -0.1944
 2173SOL    HW218153   4.588   0.812   7.466 -2.5463  2.0687 -1.0756
 2174SOL     OW18154   2.478   1.118   2.761  0.3252 -0.2231  0.3985
 2174SOL    HW118155   2.392   1.077   2.768 -1.0685  2.4006 -1.3661
 2174SOL    HW218156   2.524   1.090   2.841 -2.0117 -0.1704  1.7529
 2175SOL     OW18157   2.857   3.032   6.357  0.3780 -0.1823  0.0253
 2175SOL    HW118158   2.918   2.962   6.332  1.6046  1.8159 -2.5763
 2175SOL    HW218159   2.789   3.019   6.291  1.1584  0.7364 -0.9761
 2176SOL     OW18160   0.453   3.284   5.130  0.3919  0.5445  0.0713
 2176SOL    HW118161   0.361   3.270   5.153  0.8120 -1.5590  0.5116
 2176SOL    HW218162   0.454   3.366   5.081  0.2742 -1.1713 -2.7372
 2177SOL     OW18163   3.191   2.028  16.433  0.1765  0.4237 -0.2501
 2177SOL    HW118164   3.165   1.936  16.429  0.0011  0.4944 -0.7122
 2177SOL    HW218165   3.273   2.029  16.483 -0.0365  3.9923  0.0572
 2178SOL     OW18166   4.370   0.543  13.975  0.1075  0.0371 -0.1771
 2178SOL    HW118167   4.342   0.508  13.890  3.1649  0.5313 -1.3817
 2178SOL    HW218168   4.412   0.469  14.019  0.5665  0.9188  0.8485
 2179SOL     OW18169   0.272   3.287  16.598 -0.2922 -0.3167 -0.4101
 2179SOL    HW118170   0.332   3.359  16.576  0.6577 -0.5160  1.5736
 2179SOL    HW218171   0.257   3.301  16.692 -0.0951 -2.2651 -0.0882
 2180SOL     OW18172   0.580   1.655   7.023  0.9415  0.0531  0.2041
 2180SOL    HW118173   0.489   1.685   7.024  0.4261 -1.5705  1.8742
 2180SOL    HW218174   0.608   1.678   7.111  3.4257 -0.6907 -0.3872
 2181SOL     OW18175   1.831   0.947   8.306 -0.3592 -0.3054 -0.3537
 2181SOL    HW118176   1.897   0.878   8.315 -2.6390 -2.3503  0.6249
 2181SOL    HW218177   1.895   1.017   8.310 -1.4104  0.5663  1.0709
 2182SOL     OW18178   4.197   1.679  11.586 -0.2462 -0.1527  0.1054
 2182SOL    HW118179   4.147   1.631  11.520  0.1376  0.4215 -0.5942
 2182SOL    HW218180   4.160   1.645  11.668 -0.0664 -0.0569  0.2270
 2183SOL     OW18181   2.424   3.810   8.029  0.9930  0.5317 -0.5758
 2183SOL    HW118182   2.480   3.810   7.951  1.7465  1.1869 -0.0336
 2183SOL    HW218183   2.487   3.784   8.096  3.0395  1.3896 -2.1520
 2184SOL     OW18184   2.135   2.752   9.441 -0.0439  0.0794 -0.2778
 2184SOL    HW118185   2.058   2.700   9.465  0.2600 -0.0678  0.3801
 2184SOL    HW218186   2.123   2.750   9.346 -0.7082  0.8490 -0.2096
 2185SOL     OW18187   3.669   2.526   4.848 -0.5591 -0.0087  0.2422
 2185SOL    HW118188   3.718   2.481   4.778 -0.7603  1.3645 -0.7862
 2185SOL    HW218189   3.701   2.616   4.860 -0.5347 -0.1208  0.9591
 2186SOL     OW18190   3.822   3.197   4.514  0.1325  0.3578  0.1281
 2186SOL    HW118191   3.766   3.182   4.590  0.8922 -2.3595  0.1463
 2186SOL    HW218192   3.906   3.216   4.557  0.2468  0.4745 -0.1423
 2187SOL     OW18193   2.452   1.294   3.710 -0.2491 -0.2467 -0.7730
 2187SOL    HW118194   2.493   1.220   3.664 -0.4773 -0.7867 -0.1076
 2187SOL    HW218195   2.417   1.254   3.790  0.8201  0.1483 -0.1045
 2188SOL     OW18196   0.397   2.953   4.946  0.0675 -0.0826  0.1322
 2188SOL    HW118197   0.388   2.954   4.851 -2.0478 -2.5504  0.3084
 2188SOL    HW218198   0.489   2.976   4.957  0.5569 -1.9212 -0.1774
 2189SOL     OW18199   4.241   3.380   4.902 -0.2447 -0.5281 -0.1577
 2189SOL    HW118200   4.203   3.326   4.971 -1.2603  1.4423  0.8170
 2189SOL    HW218201   4.187   3.458   4.888  1.1426 -0.1357 -3.4553
 2190SOL     OW18202   4.672   0.084   3.032  0.0600 -0.5231 -0.1001
 2190SOL    HW118203   4.710   0.152   3.088  2.5171 -2.5261  0.6857
 2190SOL    HW218204   0.004   0.018   3.023 -0.5616 -1.4185  1.9169
 2191SOL     OW18205   3.573   4.005   8.757  0.1941  0.0601 -0.0166
 2191SOL    HW118206   3.659   3.967   8.774  0.8122  2.0763  1.2866
 2191SOL    HW218207   3.535   3.997   8.844 -0.1475 -1.7776 -0.3366
 2192SOL     OW18208   1.892   3.335   8.771 -0.2956 -0.1502  0.5371
 2192SOL    HW118209   1.981   3.327   8.735 -0.2190  2.7547  0.0707
 2192SOL    HW218210   1.915   3.326   8.863  2.3950  0.4146 -0.0712
 2193SOL     OW18211   3.891   4.380   5.129 -0.1156  0.4739 -0.2476
 2193SOL    HW118212   3.812   4.403   5.080  0.1732  2.4659  0.2398
 2193SOL    HW218213   3.949   4.437   5.079  2.1279 -1.1923  0.4707
 2194SOL     OW18214   1.746   4.422   2.682  0.2304  0.2381 -0.0968
 2194SOL    HW118215   1.839   4.409   2.704  0.1113 -0.0885  0.2104
 2194SOL    HW218216   1.745   4.385   2.594 -2.3266  2.1625 -0.8590
 2195SOL     OW18217   2.497   4.351   6.642  0.2864  0.1879  0.7033
 2195SOL    HW118218   2.577   4.340   6.590 -0.9690  0.1663 -1.2359
 2195SOL    HW218219   2.527   4.412   6.710  1.1700  0.5529 -0.0141
 2196SOL     OW18220   0.054   4.549   8.213  0.6405 -0.2821  0.6582
 2196SOL    HW118221   0.012   4.633   8.197 -0.6935 -1.1840 -0.5668
 2196SOL    HW218222   0.142   4.586   8.212 -0.5479  2.4791 -0.2583
 2197SOL     OW18223   0.005   0.170   2.165  0.2595 -0.3931  0.6650
 2197SOL    HW118224   0.089   0.140   2.128  1.6952  2.2569  1.7678
 2197SOL    HW218225   0.017   0.149   2.257  2.2256 -1.3864  0.1809
 2198SOL     OW18226   4.015   2.796  14.289 -0.5735 -0.0014  0.5468
 2198SOL    HW118227   4.008   2.703  14.269  0.2059  0.4375 -1.7300
 2198SOL    HW218228   3.948   2.830  14.231 -0.5840 -1.0135 -0.0406
 2199SOL     OW18229   2.788   2.107  14.130  0.5970  0.0573  0.1328
 2199SOL    HW118230   2.833   2.029  14.099 -0.7661 -1.1664  1.2596
 2199SOL    HW218231   2.770   2.069  14.216 -0.2864 -2.0119 -0.9747
 2200SOL     OW18232   4.219   3.716   9.527 -0.0286  0.3981  0.2507
 2200SOL    HW118233   4.162   3.645   9.558  1.2539 -0.1557  1.3151
 2200SOL    HW218234   4.285   3.667   9.479 -0.8052 -0.8218  0.4167
 2201SOL     OW18235   1.225   4.307   5.260 -0.1795  0.6199  0.4045
 2201SOL    HW118236   1.156   4.245   5.239 -0.2092  0.7352  0.1563
 2201SOL    HW218237   1.178   4.351   5.331  0.8061 -0.9416  2.0125
 2202SOL     OW18238   2.401   0.997   4.079 -0.2002 -0.0641 -0.0890
 2202SOL    HW118239   2.459   0.976   4.006  2.8867  1.0629  2.0500
 2202SOL    HW218240   2.400   0.906   4.109  3.0750  0.1476  0.6423
 2203SOL     OW18241   1.884   0.030   4.256 -0.3659 -0.2529  0.1693
 2203SOL    HW118242   1.903   4.684   4.300 -1.2446 -1.8637 -2.4937
 2203SOL    HW218243   1.870   0.005   4.164  0.9369  1.8777 -0.6052
 2204SOL     OW18244   2.324   1.814  16.149 -0.1840 -0.0600  0.1293
 2204SOL    HW118245   2.416   1.814  16.176  0.0465  3.0211 -0.7494
 2204SOL    HW218246   2.294   1.892  16.196 -1.7683 -0.4600 -0.2428
 2205SOL     OW18247   2.972   3.691  15.940  0.0205 -0.2033  0.1777
 2205SOL    HW118248   3.043   3.756  15.935  1.1570 -1.4127  0.5097
 2205SOL    HW218249   2.936   3.701  16.028  1.3203  1.3079  0.5448
 2206SOL     OW18250   1.893   2.814   9.183  0.1156 -0.3109  0.7861
 2206SOL    HW118251   1.810   2.781   9.217 -0.6300  2.7255  1.9586
 2206SOL    HW218252   1.860   2.881   9.122 -0.7259 -0.5559  0.9751
 2207SOL     OW18253   3.536   4.232  15.029 -0.5980 -0.4844 -0.0010
 2207SOL    HW118254   3.560   4.220  15.121  0.4235  0.7271 -0.1127
 2207SOL    HW218255   3.495   4.147  15.012  1.3902 -1.0892 -1.6977
 2208SOL     OW18256   0.765   2.133   7.934  0.3565  0.6069 -0.5071
 2208SOL    HW118257   0.695   2.074   7.963  0.1254  1.2392  0.2464
 2208SOL    HW218258   0.767   2.198   8.006  1.4551  1.3135 -1.1847
 2209SOL     OW18259   0.781   4.463   9.492 -0.1332  0.4119  0.0069
 2209SOL    HW118260   0.725   4.420   9.427 -1.3425  0.5697  0.9480
 2209SOL    HW218261   0.860   4.489   9.444  0.9620  0.8768  2.0564
 2210SOL     OW18262   3.366   1.042  16.459 -0.0277 -0.7379 -0.0618
 2210SOL    HW118263   3.408   1.103  16.398  1.3608  0.2805  1.8995
 2210SOL    HW218264   3.339   1.086  16.540  0.3841 -1.3714  0.4125
 2211SOL     OW18265   3.323   3.900   8.073 -0.5369 -0.5970  0.4236
 2211SOL    HW118266   3.249   3.940   8.117  0.6491  2.5105 -0.4401
 2211SOL    HW218267   3.385   3.972   8.075  0.5349 -1.5602  1.7922
 2212SOL     OW18268   0.700   2.633   4.359  0.0922 -0.1141  0.6499
 2212SOL    HW118269   0.777   2.641   4.415  0.5576  1.4628 -0.1943
 2212SOL    HW218270   0.688   2.539   4.369  2.1554 -0.3985  0.5177
 2213SOL     OW18271   1.894   1.439  17.139 -0.0614  0.0388 -0.5437
 2213SOL    HW118272   1.891   1.417  17.232  0.3798  2.9315  0.1306
 2213SOL    HW218273   1.989   1.448  17.129 -0.1795 -0.1144 -1.9141
 2214SOL     OW18274   4.395   2.036   0.601 -0.0101  0.0061  0.5352
 2214SOL    HW118275   4.452   2.041   0.524 -1.6640  0.0625 -0.6779
 2214SOL    HW218276   4.360   2.124   0.585  0.5428  0.7969  3.6670
 2215SOL     OW18277   3.061   1.216   5.645 -0.0581 -0.0698  0.2789
 2215SOL    HW118278   3.027   1.252   5.726  0.2951 -2.3745  1.4625
 2215SOL    HW218279   2.977   1.191   5.606  0.5818 -0.7144 -0.6924
 2216SOL     OW18280   2.716   0.640   7.863 -0.2414  0.4645  0.0294
 2216SOL    HW118281   2.796   0.589   7.872 -0.9357 -0.1944  2.4637
 2216SOL    HW218282   2.700   0.643   7.957 -2.3714 -2.5085 -0.2353
 2217SOL     OW18283   4.050   4.232   5.301  0.0545 -0.0742  0.4842
 2217SOL    HW118284   4.000   4.294   5.247  0.7805 -0.7677 -1.0026
 2217SOL    HW218285   4.073   4.170   5.231  0.7745 -0.1957  0.8273
 2218SOL     OW18286   4.069   4.091   6.923 -0.0107  0.5171  0.4858
 2218SOL    HW118287   4.117   4.032   6.981  0.6963  1.3507  0.7353
 2218SOL    HW218288   4.091   4.058   6.835  1.5688 -0.4067  1.2267
 2219SOL     OW18289   1.355   2.827   4.845  0.0555 -0.1159 -0.5016
 2219SOL    HW118290   1.274   2.811   4.894  0.7607 -0.6718  0.4924
 2219SOL    HW218291   1.378   2.737   4.822 -0.5066 -0.0716 -1.2270
 2220SOL     OW18292   2.488   2.665   4.008  0.3336 -0.4232 -0.0633
 2220SOL    HW118293   2.498   2.625   4.095 -0.0889 -0.0739  0.1427
 2220SOL    HW218294   2.483   2.757   4.034 -2.9653 -1.5862  3.3800
 2221SOL     OW18295   3.996   0.818  12.297  0.2055  0.1048  0.5536
 2221SOL    HW118296   3.997   0.727  12.268  0.4408  0.9663 -2.1127
 2221SOL    HW218297   4.070   0.822  12.357  0.1561 -1.9328  0.7595
 2222SOL     OW18298   4.161   3.157   3.196  0.0431  0.0397  0.4871
 2222SOL    HW118299   4.159   3.250   3.173  0.2770 -0.1551 -0.3261
 2222SOL    HW218300   4.097   3.147   3.266 -0.0571  0.7842  0.4982
 2223SOL     OW18301   0.636   1.575   3.403  0.9077  0.5156  0.3284
 2223SOL    HW118302   0.675   1.521   3.472 -1.6840 -0.4436  1.0477
 2223SOL    HW218303   0.670   1.540   3.321 -1.4153  2.6472 -1.5251
 2224SOL     OW18304   3.553   0.915   2.392  0.2530 -0.0028  0.1669
 2224SOL    HW118305   3.592   0.896   2.477  0.1253  1.1697  0.4881
 2224SOL    HW218306   3.565   1.009   2.383 -0.4077  0.1465  0.9160
 2225SOL     OW18307   4.005   4.587   2.500  0.2285 -0.1894 -0.0413
 2225SOL    HW118308   4.092   4.592   2.462 -0.3962 -1.0756 -1.6130
 2225SOL    HW218309   3.988   4.496   2.473  0.3274 -0.1029 -0.3873
 2226SOL     OW18310   4.677   2.096   9.306  0.4510 -0.1549  0.7095
 2226SOL    HW118311   4.607   2.129   9.249  0.7536 -0.0867  0.3769
 2226SOL    HW218312   4.664   2.163   9.373 -0.8218 -0.2142  0.5199
 2227SOL     OW18313   2.061   1.144   9.211 -0.8883 -0.3288  0.3648
 2227SOL    HW118314   1.981   1.100   9.239 -0.0516 -2.2828 -0.3007
 2227SOL    HW218315   2.116   1.133   9.289  1.6599 -1.4825 -1.5741
 2228SOL     OW18316   0.665   3.664   7.593  0.4915 -0.1236 -0.6450
 2228SOL    HW118317   0.606   3.593   7.567 -1.1291  1.3180 -0.9283
 2228SOL    HW218318   0.621   3.700   7.670  0.4712 -0.8041 -0.3451
 2229SOL     OW18319   4.465   3.920  12.014  0.5193  0.4990  0.0104
 2229SOL    HW118320   4.518   3.923  12.093 -0.2703 -0.6969  0.5885
 2229SOL    HW218321   4.461   4.009  11.978  0.3117  0.3296 -0.3927
 2230SOL     OW18322   3.672   3.685   4.390 -0.5069 -0.4428  0.0461
 2230SOL    HW118323   3.579   3.664   4.401 -0.0597 -2.2094  0.5222
 2230SOL    HW218324   3.676   3.716   4.300 -4.6890  1.3247  0.4744
 2231SOL     OW18325   0.863   4.434   7.427 -0.3421  0.3948 -0.3978
 2231SOL    HW118326   0.825   4.347   7.415  0.1895 -0.1367  1.7985
 2231SOL    HW218327   0.951   4.423   7.391 -0.0588  0.0799  0.3943
 2232SOL     OW18328   1.523   1.297   7.643  0.0066 -0.7954  0.5710
 2232SOL    HW118329   1.579   1.297   7.721  1.4496  0.1005 -0.4751
 2232SOL    HW218330   1.437   1.327   7.672  0.3276  0.0874  0.6115
 2233SOL     OW18331   0.927   3.556   4.385 -0.7366  0.1396  0.3216
 2233SOL    HW118332   0.990   3.484   4.381  0.6301  1.3016  0.9698
 2233SOL    HW218333   0.956   3.622   4.321 -0.0968  0.2585  0.7368
 2234SOL     OW18334   4.378   3.313   5.634 -0.0119  0.0781 -0.0289
 2234SOL    HW118335   4.380   3.364   5.553 -0.6244  0.9839  0.5248
 2234SOL    HW218336   4.336   3.234   5.601 -1.2006  0.5707  0.3158
 2235SOL     OW18337   1.655   3.533  13.539  0.0029  0.3168  0.3687
 2235SOL    HW118338   1.741   3.502  13.568 -0.4789 -1.2954  0.0264
 2235SOL    HW218339   1.659   3.551  13.445 -2.3821  1.5713  0.5127
 2236SOL     OW18340   0.310   4.124   8.720 -0.4604 -0.0127  0.3743
 2236SOL    HW118341   0.377   4.124   8.788  1.2038  0.1101 -1.2579
 2236SOL    HW218342   0.359   4.106   8.640  1.4671 -0.8659  1.7460
 2237SOL     OW18343   4.724   0.569  11.670 -0.0044 -0.1639  0.0031
 2237SOL    HW118344   4.661   0.563  11.599  1.3246 -1.3352 -1.0910
 2237SOL    HW218345   0.005   0.662  11.658  2.0748 -0.2108  2.6355
 2238SOL     OW18346   2.905   3.937   5.397  1.1026 -0.0458  0.1030
 2238SOL    HW118347   2.948   4.017   5.427 -2.0639  1.4437  0.6688
 2238SOL    HW218348   2.837   3.973   5.339 -0.7517  0.3147  2.5127
 2239SOL     OW18349   4.259   2.729   1.117 -0.3840 -0.6976 -0.2411
 2239SOL    HW118350   4.243   2.696   1.205 -0.7272  0.6634  0.2102
 2239SOL    HW218351   4.345   2.696   1.092 -0.3778 -0.4086 -0.6126
 2240SOL     OW18352   2.822   2.670   9.802 -0.3311  0.3215 -0.5211
 2240SOL    HW118353   2.812   2.582   9.767  1.2147  0.5652 -1.5369
 2240SOL    HW218354   2.752   2.674   9.868  2.0358 -0.1923  2.0398
 2241SOL     OW18355   1.010   4.435   3.167  0.5190 -0.0935 -0.0060
 2241SOL    HW118356   1.067   4.406   3.238  3.0091 -0.0110 -1.9880
 2241SOL    HW218357   1.075   4.456   3.101  0.0952  1.2335  0.0020
 2242SOL     OW18358   0.587   2.702   9.724 -0.5747 -0.5034  0.1977
 2242SOL    HW118359   0.674   2.691   9.762 -0.6216  0.8062  0.6831
 2242SOL    HW218360   0.539   2.646   9.785 -2.5658 -0.8193 -1.6293
 2243SOL     OW18361   3.101   0.333   5.147  0.3134  0.2063  0.1263
 2243SOL    HW118362   3.033   0.400   5.148  0.1180  0.0161 -1.2191
 2243SOL    HW218363   3.044   0.260   5.126  1.0435 -0.1194 -0.7249
 2244SOL     OW18364   4.519   1.330   5.316  0.0123 -0.7748 -0.3727
 2244SOL    HW118365   4.496   1.265   5.383  0.0747 -0.3024  0.1143
 2244SOL    HW218366   4.577   1.388   5.366  2.0243 -2.5128 -0.7088
 2245SOL     OW18367   3.206   3.178   7.975 -0.4215  0.1424  0.3899
 2245SOL    HW118368   3.250   3.164   7.891 -0.0129 -3.8540  1.2990
 2245SOL    HW218369   3.273   3.181   8.044  2.0289  0.1155 -1.9891
 2246SOL     OW18370   1.134   0.223   8.090  0.4770  0.5666 -0.1606
 2246SOL    HW118371   1.042   0.198   8.091  1.6370 -3.8728 -0.2214
 2246SOL    HW218372   1.125   0.318   8.093 -3.1003  0.1772  0.9603
 2247SOL     OW18373   1.566   0.642   7.708  0.2473  0.0743 -0.0623
 2247SOL    HW118374   1.661   0.642   7.700  0.3489 -1.1614  1.0967
 2247SOL    HW218375   1.551   0.574   7.774 -1.2857  0.4708 -0.0132
 2248SOL     OW18376   4.480   0.726  12.459  0.5874  0.4086 -0.6005
 2248SOL    HW118377   4.566   0.723  12.417  0.8608 -4.7155  0.3379
 2248SOL    HW218378   4.453   0.634  12.449  3.8999 -0.0825 -4.9860
 2249SOL     OW18379   0.650   4.394   8.544  0.2420  0.6666  0.2683
 2249SOL    HW118380   0.578   4.423   8.487  1.4488  1.4885 -0.8288
 2249SOL    HW218381   0.613   4.328   8.602  0.8080 -0.0117 -0.1426
 2250SOL     OW18382   0.100   4.631   2.730 -0.0993 -0.4489  1.0422
 2250SOL    HW118383   0.067   4.711   2.689  0.3418 -1.1867 -0.7384
 2250SOL    HW218384   0.116   4.672   2.815 -0.2389 -0.1232  0.9147
 2251SOL     OW18385   4.135   4.200  15.189 -0.6908  0.0775 -0.0494
 2251SOL    HW118386   4.058   4.241  15.151 -0.7943  0.3791  0.4929
 2251SOL    HW218387   4.097   4.155  15.265 -3.4956 -0.4508 -1.7534
 2252SOL     OW18388   4.394   1.255   4.242  0.6611 -0.5724 -0.2802
 2252SOL    HW118389   4.397   1.269   4.147  0.3918  0.2162 -0.1698
 2252SOL    HW218390   4.323   1.313   4.271  1.5581  0.7808 -0.7966
 2253SOL     OW18391   1.458   0.328   3.190  0.6544 -0.6014 -0.2829
 2253SOL    HW118392   1.499   0.405   3.149 -0.8053  1.4451  2.1546
 2253SOL    HW218393   1.422   0.292   3.108  0.7815  0.0006 -0.6049
 2254SOL     OW18394   3.248   1.403   1.118 -0.6311 -0.2949  0.0124
 2254SOL    HW118395   3.290   1.489   1.117  0.3030 -0.7374  1.5529
 2254SOL    HW218396   3.294   1.349   1.182  1.7950  0.3458 -1.2177
 2255SOL     OW18397   1.141   0.070   2.769 -0.0312  0.5629 -0.5792
 2255SOL    HW118398   1.227   0.068   2.728  0.8236 -3.1442  1.4705
 2255SOL    HW218399   1.169   0.038   2.854 -0.8476  0.7959 -0.2220
 2256SOL     OW18400   1.394   0.722   0.359 -0.4330  0.3858  0.0843
 2256SOL    HW118401   1.456   0.786   0.392  3.3389 -4.0514  1.6171
 2256SOL    HW218402   1.394   0.730   0.264  0.2795  1.2249  0.1607
 2257SOL     OW18403   2.430   3.720   4.292  0.1523  0.5354 -0.2080
 2257SOL    HW118404   2.339   3.733   4.267  0.2275  0.8222 -0.3331
 2257SOL    HW218405   2.424   3.672   4.374 -0.7502  0.8939 -0.0662
 2258SOL     OW18406   0.969   3.702   2.741  0.0069  0.3898 -0.0649
 2258SOL    HW118407   1.022   3.624   2.759  0.8975  1.2381  1.0196
 2258SOL    HW218408   1.026   3.739   2.674  1.3266 -0.9845  0.3003
 2259SOL     OW18409   2.529   0.365  17.045  0.1277  0.6307  0.1859
 2259SOL    HW118410   2.523   0.294  16.982  0.7669  1.8131 -1.2127
 2259SOL    HW218411   2.621   0.388  17.039 -0.1856  2.1232  0.9831
 2260SOL     OW18412   2.778   3.980   4.377 -0.1009 -0.0330 -0.0190
 2260SOL    HW118413   2.784   3.887   4.355  1.5877  0.4514 -1.5004
 2260SOL    HW218414   2.813   3.973   4.466 -0.9459  2.4485  0.4934
 2261SOL     OW18415   0.245   2.997   2.051 -0.4204  0.2364 -0.7984
 2261SOL    HW118416   0.277   3.000   2.141 -0.4627  1.9237 -0.8328
 2261SOL    HW218417   0.179   3.067   2.053 -1.3740 -0.5845 -2.9352
 2262SOL     OW18418   1.086   1.984   7.467  0.6889 -0.4936  0.3600
 2262SOL    HW118419   1.098   1.919   7.399  1.9375 -0.9252  0.9985
 2262SOL    HW218420   1.050   2.057   7.415  1.5578 -0.5454 -0.3050
 2263SOL     OW18421   3.115   0.326   7.666 -0.5261 -0.1300 -0.4978
 2263SOL    HW118422   3.035   0.292   7.707  0.3087 -2.6500 -0.9666
 2263SOL    HW218423   3.127   0.267   7.591 -1.1578 -0.1015 -0.6258
 2264SOL     OW18424   1.886   3.628  12.712  0.2570 -0.6856 -0.0232
 2264SOL    HW118425   1.821   3.560  12.696 -2.3738  1.3601  1.8866
 2264SOL    HW218426   1.956   3.581  12.667  0.8013 -0.2994  0.4134
 2265SOL     OW18427   3.783   2.141   2.459 -0.4465  0.3230  0.3551
 2265SOL    HW118428   3.855   2.178   2.408  0.1715  0.0796  1.0648
 2265SOL    HW218429   3.767   2.060   2.411  0.3472 -0.5175  1.5190
 2266SOL     OW18430   4.373   2.754  10.564 -0.0396  0.1609  0.6178
 2266SOL    HW118431   4.389   2.752  10.470  2.5031  2.3118  1.0127
 2266SOL    HW218432   4.364   2.660  10.577  1.0506  0.1465  1.2875
 2267SOL     OW18433   3.056   2.875   2.118  0.1636 -0.0120 -0.2824
 2267SOL    HW118434   3.122   2.938   2.091 -0.0285  0.9599  1.5470
 2267SOL    HW218435   3.002   2.935   2.170  0.4252  0.5918 -0.7118
 2268SOL     OW18436   0.719   2.687   2.019 -0.5349  0.4495  0.1712
 2268SOL    HW118437   0.779   2.721   1.953  0.6397  0.0284  1.0154
 2268SOL    HW218438   0.758   2.600   2.019 -0.7738  0.3393 -0.4294
 2269SOL     OW18439   1.132   0.017   7.709 -0.3218  0.1491 -0.2976
 2269SOL    HW118440   1.085   0.100   7.700  0.2072  0.6962  1.9330
 2269SOL    HW218441   1.063   4.689   7.694 -1.2453  0.9039  0.6684
 2270SOL     OW18442   4.191   1.331   0.995  0.4491 -0.0483 -0.0744
 2270SOL    HW118443   4.120   1.281   0.955 -0.4165  0.4601  0.8354
 2270SOL    HW218444   4.216   1.381   0.918  0.7564  1.0955  0.7618
 2271SOL     OW18445   4.583   2.470   9.902 -0.4211  0.0572 -0.2507
 2271SOL    HW118446   4.498   2.438   9.932 -1.3826  1.4917 -1.4267
 2271SOL    HW218447   4.604   2.530   9.973 -0.0778 -1.0181  0.5471
 2272SOL     OW18448   4.119   3.403   3.073 -0.4955 -0.6639  0.2857
 2272SOL    HW118449   4.050   3.455   3.114  1.4000  1.1637  1.1080
 2272SOL    HW218450   4.153   3.467   3.010 -0.5797  0.2928  1.2226
 2273SOL     OW18451   1.870   0.228  11.243  0.0040 -0.1180  0.3298
 2273SOL    HW118452   1.814   0.153  11.225  1.2830 -1.1574  0.7046
 2273SOL    HW218453   1.922   0.188  11.313  0.3221 -2.4219 -1.2340
 2274SOL     OW18454   4.044   0.911   5.385  0.1347  0.5781  0.2256
 2274SOL    HW118455   3.982   0.848   5.422  0.6250  0.4301  0.8052
 2274SOL    HW218456   4.026   0.906   5.291 -0.6693  0.0143  0.4067
 2275SOL     OW18457   1.722   2.051   3.051 -0.1114 -0.1940  0.1804
 2275SOL    HW118458   1.719   2.135   3.005 -2.6842 -0.9271 -0.9900
 2275SOL    HW218459   1.695   1.994   2.980 -1.0469  0.0438  0.3415
 2276SOL     OW18460   1.372   4.443   5.772  0.1816 -0.1329  0.2903
 2276SOL    HW118461   1.435   4.485   5.829 -0.6260  1.0205  0.3248
 2276SOL    HW218462   1.316   4.393   5.832 -2.1438  1.9895 -0.1014
 2277SOL     OW18463   4.603   3.853   3.261 -0.3972  0.1807 -0.3028
 2277SOL    HW118464   4.514   3.852   3.226 -0.2138 -0.3734 -0.7496
 2277SOL    HW218465   4.581   3.821   3.348 -0.3445  0.0472 -0.3384
 2278SOL     OW18466   3.798   2.346   4.424  0.2715 -0.5307  0.7739
 2278SOL    HW118467   3.815   2.318   4.514  2.9510  2.0697  1.0613
 2278SOL    HW218468   3.777   2.259   4.391  0.3047 -1.6596  3.7166
 2279SOL     OW18469   1.465   2.553   8.370  0.2868  0.4833  1.2663
 2279SOL    HW118470   1.428   2.480   8.420 -0.3202  0.5985  0.9797
 2279SOL    HW218471   1.409   2.625   8.398  1.0103  1.4349  0.2566
 2280SOL     OW18472   3.849   4.318  15.535  0.1038 -0.1869  0.3802
 2280SOL    HW118473   3.807   4.335  15.620  0.4657  0.0805  0.5092
 2280SOL    HW218474   3.791   4.375  15.484  1.0965  0.3365 -0.1533
 2281SOL     OW18475   4.557   1.597   3.278  0.3345 -0.2045  0.1403
 2281SOL    HW118476   4.550   1.690   3.258 -0.1747 -0.2967 -0.1032
 2281SOL    HW218477   4.520   1.558   3.198 -1.4460  0.4002  0.6716
 2282SOL     OW18478   2.817   2.587   1.649 -0.1483  0.5420  0.1901
 2282SOL    HW118479   2.835   2.680   1.633 -0.6926  0.3872 -1.2963
 2282SOL    HW218480   2.855   2.553   1.568 -0.7512  0.5691 -0.1077
 2283SOL     OW18481   2.472   0.641   7.244  0.0189  0.6144  0.5763
 2283SOL    HW118482   2.411   0.708   7.214 -0.7240 -0.2522  0.1354
 2283SOL    HW218483   2.408   0.569   7.245 -1.7587  2.1701 -1.1675
 2284SOL     OW18484   2.304   1.828   8.538 -0.1956  0.1027  0.2062
 2284SOL    HW118485   2.312   1.832   8.634 -0.2977  0.3815  0.2038
 2284SOL    HW218486   2.211   1.849   8.529 -0.2858  0.7700  2.6906
 2285SOL     OW18487   4.710   0.277   8.641 -0.0162 -0.4580 -0.9695
 2285SOL    HW118488   4.718   0.288   8.736 -2.7071 -1.7260 -0.6189
 2285SOL    HW218489   4.711   0.367   8.607  1.2325  0.1084  0.5319
 2286SOL     OW18490   1.442   2.529   6.653  0.3947  0.5628  0.8558
 2286SOL    HW118491   1.518   2.517   6.710  0.8094  1.4939  0.5020
 2286SOL    HW218492   1.407   2.616   6.672 -3.6190 -0.7298 -0.6938
 2287SOL     OW18493   4.185   3.204   4.379  0.0033  0.8472  0.1952
 2287SOL    HW118494   4.163   3.185   4.288 -1.8652  2.8542  0.2305
 2287SOL    HW218495   4.148   3.293   4.376 -0.6460  0.6059  0.9446
 2288SOL     OW18496   3.865   0.961  13.026  0.2555  0.3951  0.1184
 2288SOL    HW118497   3.876   0.887  12.967  0.9651 -0.0262  0.7790
 2288SOL    HW218498   3.862   0.910  13.107 -0.2240 -1.0926 -0.8418
 2289SOL     OW18499   0.838   1.397   6.766 -0.3060 -0.0658 -0.3378
 2289SOL    HW118500   0.851   1.381   6.672 -0.3881 -0.5380 -0.2690
 2289SOL    HW218501   0.744   1.400   6.781  0.0441  1.2218  1.5468
 2290SOL     OW18502   1.574   2.831   4.629  0.4925  0.3143 -0.1296
 2290SOL    HW118503   1.633   2.838   4.554 -1.1561 -1.5548 -1.6517
 2290SOL    HW218504   1.543   2.740   4.624  0.2659  0.3081  1.4916
 2291SOL     OW18505   4.041   0.722   1.170 -0.4224  0.0048  0.7850
 2291SOL    HW118506   3.988   0.656   1.126  0.0018  1.5077 -1.9354
 2291SOL    HW218507   4.060   0.783   1.099  0.6746 -0.3665  0.7686
 2292SOL     OW18508   3.540   1.566   3.340  0.0738  0.5061  0.1935
 2292SOL    HW118509   3.632   1.589   3.328  0.0872  0.2622 -0.1566
 2292SOL    HW218510   3.539   1.498   3.407 -0.6515 -0.3917 -0.7398
 2293SOL     OW18511   1.110   2.783   5.992 -0.2459  0.3449 -0.3055
 2293SOL    HW118512   1.137   2.712   6.050 -1.1517  0.2287 -0.0228
 2293SOL    HW218513   1.131   2.744   5.907  0.4458  1.0511 -0.4583
 2294SOL     OW18514   2.120   1.505  12.000 -0.1122  0.3533 -0.5493
 2294SOL    HW118515   2.111   1.576  11.936  0.0756  0.9266  0.0578
 2294SOL    HW218516   2.114   1.554  12.082 -2.2195  0.5273 -0.7935
 2295SOL     OW18517   0.311   2.653   4.552  0.0606 -0.1995  0.3974
 2295SOL    HW118518   0.359   2.704   4.488 -2.9380  0.0275 -1.6682
 2295SOL    HW218519   0.378   2.585   4.560  0.9715  0.2684 -3.2669
 2296SOL     OW18520   3.251   0.236  15.928  0.0575  0.8942  0.2024
 2296SOL    HW118521   3.273   0.326  15.951  2.6629  0.4073 -0.3399
 2296SOL    HW218522   3.250   0.187  16.010 -0.8570  0.2364 -0.1971
 2297SOL     OW18523   2.830   3.216   2.131  0.2269  0.6750  0.3167
 2297SOL    HW118524   2.763   3.220   2.063  0.2411  0.4960  0.2911
 2297SOL    HW218525   2.902   3.257   2.084  0.4215 -0.5481 -0.4670
 2298SOL     OW18526   3.995   3.825  11.421 -0.3602  0.4408 -0.0235
 2298SOL    HW118527   3.971   3.913  11.393  1.1897  0.6034 -0.8217
 2298SOL    HW218528   3.954   3.766  11.358  3.2315 -0.1913 -1.7599
 2299SOL     OW18529   3.416   3.757   4.414  0.0821 -0.0327  0.4011
 2299SOL    HW118530   3.425   3.841   4.459  3.6905 -0.9093  1.3222
 2299SOL    HW218531   3.373   3.795   4.337 -0.0954 -0.5604  0.2441
 2300SOL     OW18532   1.266   4.454   9.111  0.6163  0.1437 -0.0505
 2300SOL    HW118533   1.170   4.446   9.113  0.6466  0.0183  0.8412
 2300SOL    HW218534   1.293   4.438   9.201 -1.4828 -1.2166  0.3409
 2301SOL     OW18535   2.707   3.078   4.367  1.1480 -0.4680 -0.0496
 2301SOL    HW118536   2.776   3.137   4.397 -0.6859  1.6869 -0.0678
 2301SOL    HW218537   2.741   3.005   4.418 -1.0106 -1.7929 -0.4989
 2302SOL     OW18538   3.551   0.370   5.041 -0.0411  0.6801  0.2809
 2302SOL    HW118539   3.560   0.400   5.131  0.4855  1.9856 -0.2053
 2302SOL    HW218540   3.469   0.323   5.032  0.1216  0.5654 -0.6877
 2303SOL     OW18541   4.213   1.240   3.643  0.5327 -0.0739  0.3768
 2303SOL    HW118542   4.177   1.246   3.731 -0.6311 -1.6623  0.0007
 2303SOL    HW218543   4.210   1.334   3.625 -1.7105  0.2417  2.5693
 2304SOL     OW18544   0.973   2.357   4.348  0.2364 -0.0827 -0.2642
 2304SOL    HW118545   0.941   2.335   4.260 -1.0149 -1.4655  0.5588
 2304SOL    HW218546   1.043   2.415   4.318 -0.0145  0.1854 -0.3356
 2305SOL     OW18547   4.203   4.145  13.613 -0.1247  0.3212  0.1289
 2305SOL    HW118548   4.123   4.150  13.665 -0.8892  1.4485 -1.1382
 2305SOL    HW218549   4.244   4.218  13.658  1.9874  0.2094 -1.5955
 2306SOL     OW18550   3.190   4.442   9.036  0.0008 -0.3594 -0.3071
 2306SOL    HW118551   3.110   4.490   9.015 -0.8649 -1.7949 -0.2628
 2306SOL    HW218552   3.161   4.362   9.078  0.5045 -0.3800  0.0075
 2307SOL     OW18553   1.178   2.557   4.472  0.0929 -0.3095  0.0709
 2307SOL    HW118554   1.175   2.554   4.377  0.1327  0.1914  0.0542
 2307SOL    HW218555   1.091   2.592   4.492  0.2862  1.2217 -1.8536
 2308SOL     OW18556   1.588   1.356   6.521  0.7196 -0.3397 -0.1446
 2308SOL    HW118557   1.654   1.406   6.472 -1.3299  3.0229  0.5152
 2308SOL    HW218558   1.595   1.390   6.610  0.1876 -1.5005  0.3450
 2309SOL     OW18559   3.694   4.088  14.828  0.1691 -0.2514 -0.0353
 2309SOL    HW118560   3.689   4.130  14.913  1.1997  1.3469 -0.7629
 2309SOL    HW218561   3.669   3.997  14.845  0.8014 -0.5383 -0.6760
 2310SOL     OW18562   1.723   3.029   4.274 -0.0816  0.7156  0.0344
 2310SOL    HW118563   1.743   2.935   4.270 -1.2084  0.5267 -0.9751
 2310SOL    HW218564   1.741   3.051   4.365  1.4687 -1.2262  0.2136
 2311SOL     OW18565   1.170   0.589   5.461  0.3896 -0.4535 -0.4268
 2311SOL    HW118566   1.075   0.592   5.477  0.6401 -0.1965  0.9987
 2311SOL    HW218567   1.203   0.670   5.501  1.0017 -0.6721 -0.4908
 2312SOL     OW18568   2.875   3.661   7.405 -0.0965 -0.3676 -0.0259
 2312SOL    HW118569   2.939   3.688   7.471  0.9762  0.2026 -1.2906
 2312SOL    HW218570   2.817   3.736   7.391  0.6077  0.4606  1.5062
 2313SOL     OW18571   4.142   2.963   5.250 -0.7838  0.0909  0.2021
 2313SOL    HW118572   4.082   2.924   5.313 -0.0531 -0.7941  0.3440
 2313SOL    HW218573   4.137   2.900   5.178  0.0484 -0.5316  0.6892
 2314SOL     OW18574   3.267   0.749   5.211  0.1228  0.0864  0.2341
 2314SOL    HW118575   3.204   0.681   5.233 -1.1927  0.8441 -1.2523
 2314SOL    HW218576   3.320   0.712   5.141 -2.6996 -0.7132 -1.4779
 2315SOL     OW18577   4.214   4.097  15.489  0.8502  0.4716  0.2770
 2315SOL    HW118578   4.160   4.070  15.563  1.3092  1.0394  0.8343
 2315SOL    HW218579   4.196   4.191  15.493  0.7866  0.4172  1.3188
 2316SOL     OW18580   0.266   4.696  17.243  0.4874  0.5796  0.1218
 2316SOL    HW118581   0.257   0.048  17.278 -0.6411  0.3888  0.3219
 2316SOL    HW218582   0.232   4.636  17.309 -1.7543 -0.2181 -1.7386
 2317SOL     OW18583   4.042   4.400   3.832 -0.0616  0.0945 -0.5520
 2317SOL    HW118584   4.035   4.492   3.807  1.4216  0.4370  0.3304
 2317SOL    HW218585   4.060   4.362   3.746 -0.0134 -2.2478  0.4791
 2318SOL     OW18586   2.956   3.818   4.826 -0.5649 -0.1007 -0.0850
 2318SOL    HW118587   3.012   3.893   4.842 -2.1022  1.2205 -0.9748
 2318SOL    HW218588   2.919   3.796   4.912 -0.3912  1.4659  0.3783
 2319SOL     OW18589   0.515   0.442   3.205 -0.3984  0.4460  0.2920
 2319SOL    HW118590   0.520   0.431   3.111  0.6304  0.2505  0.3764
 2319SOL    HW218591   0.602   0.412   3.231 -1.2419 -1.0738  1.4009
 2320SOL     OW18592   3.042   3.435  15.844 -0.4298  0.7057 -0.2763
 2320SOL    HW118593   3.091   3.480  15.776 -0.5125  0.7324 -0.3176
 2320SOL    HW218594   2.991   3.505  15.885 -0.3467 -0.2808  1.5115
 2321SOL     OW18595   2.102   4.506   9.970  0.0529 -0.4862 -0.4113
 2321SOL    HW118596   2.152   4.565   9.914 -1.2912 -1.0417 -2.2096
 2321SOL    HW218597   2.167   4.445  10.003 -0.3517  0.0318  1.3395
 2322SOL     OW18598   3.380   0.293   7.435 -0.0108 -0.5150  0.3168
 2322SOL    HW118599   3.457   0.288   7.491  0.2686 -0.3112 -0.0447
 2322SOL    HW218600   3.423   0.296   7.349  1.6526  1.6395  1.2179
 2323SOL     OW18601   3.117   0.066   2.426  0.0369  0.1658  0.4075
 2323SOL    HW118602   3.200   0.105   2.454  0.6351  0.1455 -1.3293
 2323SOL    HW218603   3.074   0.040   2.508  1.3753  0.6677  1.2724
 2324SOL     OW18604   1.856   0.683   0.802 -0.3559 -0.3707  0.3353
 2324SOL    HW118605   1.921   0.629   0.848 -0.3249 -1.4139 -0.9309
 2324SOL    HW218606   1.877   0.669   0.709  2.3793  1.9309  0.5875
 2325SOL     OW18607   3.147   4.338  15.017 -0.0922  0.1537 -0.0071
 2325SOL    HW118608   3.217   4.396  14.987 -0.3028 -0.0687 -0.9212
 2325SOL    HW218609   3.075   4.401  15.020 -0.3751 -0.2634  2.0642
 2326SOL     OW18610   1.638   3.078   4.773 -0.4202 -0.3299  0.1270
 2326SOL    HW118611   1.605   2.988   4.767 -0.3699 -0.4649  1.8797
 2326SOL    HW218612   1.725   3.060   4.738  0.2952  3.0476  0.1409
 2327SOL     OW18613   2.320   0.289  11.001 -0.1757 -0.0842  0.3798
 2327SOL    HW118614   2.381   0.363  10.993  1.1782 -1.2052  0.2303
 2327SOL    HW218615   2.278   0.310  11.084  0.3539 -0.6511  0.7930
 2328SOL     OW18616   0.523   2.107  13.024 -0.0757 -0.4438 -0.4777
 2328SOL    HW118617   0.609   2.126  12.986  0.2161 -0.1258  0.3608
 2328SOL    HW218618   0.546   2.032  13.080  2.3365 -0.4106 -1.4444
 2329SOL     OW18619   2.563   1.968   6.861  0.3613  0.4344  1.0282
 2329SOL    HW118620   2.488   1.931   6.907 -0.8642  2.2748  0.5063
 2329SOL    HW218621   2.592   2.038   6.919 -0.1827  1.6469 -0.1775
 2330SOL     OW18622   2.789   0.135  15.585  0.3295  0.3514  0.6904
 2330SOL    HW118623   2.696   0.120  15.597  0.0035 -1.6276 -4.3613
 2330SOL    HW218624   2.798   0.124  15.491  2.4986  1.2914  0.7733
 2331SOL     OW18625   2.436   2.625  16.176 -0.3101 -0.1799  0.0408
 2331SOL    HW118626   2.358   2.664  16.136  1.9086  1.5807 -2.5241
 2331SOL    HW218627   2.475   2.701  16.219  0.1467 -1.7423  2.3623
 2332SOL     OW18628   3.005   2.075   5.774  0.1993  0.5289 -0.6020
 2332SOL    HW118629   3.017   1.989   5.734 -0.3548  0.0289  0.2933
 2332SOL    HW218630   3.090   2.084   5.816  0.0547  1.5330 -0.5240
 2333SOL     OW18631   1.600   1.398   5.914 -0.2224 -0.2081 -0.5517
 2333SOL    HW118632   1.626   1.477   5.866  3.5825  0.8062  3.2276
 2333SOL    HW218633   1.519   1.425   5.957  0.3741  1.8044 -0.6797
 2334SOL     OW18634   3.003   2.974  15.519 -0.4380 -0.5020 -0.3189
 2334SOL    HW118635   2.920   2.987  15.566  0.1399  0.3935  0.4603
 2334SOL    HW218636   2.988   2.893  15.470 -1.0378 -1.4115  1.3501
 2335SOL     OW18637   1.667   2.001   1.698  0.3730  0.2525  0.7680
 2335SOL    HW118638   1.760   1.997   1.718  0.8173  0.9199 -1.2028
 2335SOL    HW218639   1.673   1.963   1.611 -1.5977 -0.9046  1.1319
 2336SOL     OW18640   3.500   1.894   4.100  0.1539 -0.1544 -0.5357
 2336SOL    HW118641   3.588   1.870   4.128  0.1458  0.2363 -0.1729
 2336SOL    HW218642   3.518   1.980   4.062 -0.7451  0.8079  1.1588
 2337SOL     OW18643   4.437   1.060  16.846 -0.3652 -0.3292 -0.4317
 2337SOL    HW118644   4.484   1.127  16.896 -0.2854 -0.8619  0.2086
 2337SOL    HW218645   4.480   0.976  16.860 -0.1658 -0.0527  0.6062
 2338SOL     OW18646   2.302   3.276   4.093  0.8166 -0.1020 -0.5437
 2338SOL    HW118647   2.231   3.294   4.154  1.5249  0.9319 -0.0209
 2338SOL    HW218648   2.282   3.354   4.040 -1.2463 -0.1389  0.2205
 2339SOL     OW18649   4.457   1.517   1.276 -0.3592  0.4063 -0.1569
 2339SOL    HW118650   4.364   1.507   1.259 -0.2492  0.8929 -1.0583
 2339SOL    HW218651   4.483   1.448   1.337  0.7793  0.0207 -1.0821
 2340SOL     OW18652   0.950   2.407   3.439  0.0855 -0.2422 -0.1556
 2340SOL    HW118653   0.930   2.328   3.389  1.4967 -2.7017  3.2051
 2340SOL    HW218654   1.004   2.452   3.375 -3.2260  2.3051 -1.1502
 2341SOL     OW18655   4.463   3.992  17.214 -0.7411 -0.0766  0.5119
 2341SOL    HW118656   4.502   3.942  17.286  0.2885 -1.3123 -0.9143
 2341SOL    HW218657   4.460   4.084  17.241 -1.9445  0.0662 -0.1148
 2342SOL     OW18658   3.367   4.516   2.569 -0.4002  0.2265  0.1368
 2342SOL    HW118659   3.453   4.552   2.547 -1.0193  0.8579 -1.2798
 2342SOL    HW218660   3.378   4.507   2.663  1.2343 -0.1570 -0.0997
 2343SOL     OW18661   0.596   4.214  17.401 -0.2439  0.2814 -0.6256
 2343SOL    HW118662   0.615   4.291  17.348  1.5515  0.0661 -0.2931
 2343SOL    HW218663   0.612   4.253  17.487 -1.2662  1.3661 -0.9314
 2344SOL     OW18664   3.595   3.747   9.353 -0.3171  0.4701  0.2499
 2344SOL    HW118665   3.600   3.739   9.449 -1.0554  3.4754  0.5397
 2344SOL    HW218666   3.596   3.839   9.329 -0.3221  0.2633 -0.5449
 2345SOL     OW18667   0.745   1.363   6.223 -0.1567  0.1942  0.0094
 2345SOL    HW118668   0.790   1.291   6.178  0.5301  1.0756 -0.6916
 2345SOL    HW218669   0.729   1.406   6.139 -1.4637 -1.1350 -0.4430
 2346SOL     OW18670   1.201   2.685   5.761  0.1687 -0.3991  0.2839
 2346SOL    HW118671   1.194   2.768   5.715 -0.1856 -1.5495 -1.7328
 2346SOL    HW218672   1.138   2.628   5.717 -0.5897 -0.2320  1.1737
 2347SOL     OW18673   1.959   3.843   4.654  0.0307 -0.0449 -0.1595
 2347SOL    HW118674   2.044   3.805   4.631 -0.0583  0.5921 -1.5223
 2347SOL    HW218675   1.981   3.910   4.719 -2.6792 -1.0542  1.8340
 2348SOL     OW18676   1.867   3.444   3.472  0.4112 -0.2210  0.1505
 2348SOL    HW118677   1.819   3.362   3.465  1.3091 -0.6934 -0.4830
 2348SOL    HW218678   1.834   3.485   3.551 -1.1973 -0.9263 -0.1630
 2349SOL     OW18679   0.069   3.700  11.461  0.3917 -0.8493  0.0188
 2349SOL    HW118680   4.724   3.655  11.480 -0.1495  0.0379 -0.2041
 2349SOL    HW218681   0.103   3.719  11.548  1.0537  1.4936 -0.7578
 2350SOL     OW18682   2.465   1.480  15.462  0.2017  0.5704  0.0247
 2350SOL    HW118683   2.413   1.405  15.433  1.3105 -0.0556 -0.3819
 2350SOL    HW218684   2.478   1.530  15.381 -0.3169 -2.5851 -1.9839
 2351SOL     OW18685   2.915   0.683   8.731  0.2725 -0.3896  0.3981
 2351SOL    HW118686   2.956   0.682   8.645 -0.1995 -3.3056  0.1886
 2351SOL    HW218687   2.952   0.766   8.761 -1.9723  1.1974 -1.1942
 2352SOL     OW18688   4.590   4.189   2.070 -0.2605 -0.1970  0.2000
 2352SOL    HW118689   4.515   4.168   2.125 -0.6152 -0.2959 -0.3189
 2352SOL    HW218690   4.662   4.137   2.107 -0.8159 -1.5288 -0.5657
 2353SOL     OW18691   4.727   0.454   4.565 -0.0463 -0.4842 -0.0012
 2353SOL    HW118692   0.047   0.503   4.506 -1.1922 -0.9653 -1.4822
 2353SOL    HW218693   4.736   0.369   4.521 -2.0668 -0.8414  0.2839
 2354SOL     OW18694   3.435   3.433   6.293  0.1768 -0.1898 -0.5081
 2354SOL    HW118695   3.455   3.346   6.327 -0.2230  0.0857  0.4399
 2354SOL    HW218696   3.412   3.405   6.204  0.6067  1.3887 -1.1186
 2355SOL     OW18697   0.625   0.420   8.780 -0.3019  0.2869  0.1569
 2355SOL    HW118698   0.659   0.500   8.739  0.3496 -0.2134 -0.2888
 2355SOL    HW218699   0.683   0.413   8.856  0.1167  1.0043 -0.0978
 2356SOL     OW18700   2.963   0.952   6.184 -0.2497 -0.0086  0.3013
 2356SOL    HW118701   2.977   0.884   6.250  1.8219  0.5262  0.4125
 2356SOL    HW218702   2.931   1.025   6.236 -1.2841  0.2345 -0.6756
 2357SOL     OW18703   1.135   3.219   6.168  0.3481  0.1669  0.0848
 2357SOL    HW118704   1.051   3.256   6.192  0.8660  0.7174  1.0598
 2357SOL    HW218705   1.106   3.147   6.112 -2.7026  1.1962  0.3489
 2358SOL     OW18706   1.549   1.481   2.867  0.1236  0.2828 -0.2359
 2358SOL    HW118707   1.549   1.468   2.962  2.8862 -2.5284 -0.6277
 2358SOL    HW218708   1.607   1.410   2.841  0.1416  0.2499 -0.1023
 2359SOL     OW18709   0.351   1.994   5.965  0.4449  0.5366 -0.0476
 2359SOL    HW118710   0.417   1.944   6.012  0.7314  0.2718 -0.7241
 2359SOL    HW218711   0.343   1.935   5.889 -2.4470 -0.8694  1.3126
 2360SOL     OW18712   4.532   2.060   1.135  0.3959  0.5621 -0.6782
 2360SOL    HW118713   4.584   2.126   1.089 -0.7030  1.2387 -0.9601
 2360SOL    HW218714   4.551   1.977   1.091 -1.7978  0.4637 -1.4165
 2361SOL     OW18715   4.121   3.286   8.197  0.0290  0.2361 -0.3469
 2361SOL    HW118716   4.097   3.379   8.202  2.3573  0.8315 -0.4789
 2361SOL    HW218717   4.092   3.257   8.284 -3.2080  1.0778 -1.1424
 2362SOL     OW18718   0.453   4.537   8.855  0.5232  0.6916  0.4752
 2362SOL    HW118719   0.419   4.536   8.944  1.9429  1.0359  1.0336
 2362SOL    HW218720   0.507   4.458   8.855 -1.2748 -0.5372 -1.2868
 2363SOL     OW18721   4.313   0.994   5.339  0.6047  0.0625  0.0311
 2363SOL    HW118722   4.228   0.958   5.362  2.3433 -3.3475  1.2997
 2363SOL    HW218723   4.356   0.908   5.333  1.1042  0.3540 -0.5785
 2364SOL     OW18724   3.975   2.518   4.965 -1.3917 -0.1260  0.6098
 2364SOL    HW118725   3.939   2.430   4.976 -0.3188 -0.6047  0.2830
 2364SOL    HW218726   4.024   2.513   4.883  0.9852 -1.4587  2.1151
 2365SOL     OW18727   4.528   1.009   4.344 -0.3330 -0.3448  1.1408
 2365SOL    HW118728   4.507   1.095   4.309 -1.0506 -1.9336 -2.3883
 2365SOL    HW218729   4.502   1.007   4.436 -3.1005 -0.8896  0.3224
 2366SOL     OW18730   0.566   2.442   0.485  0.7100 -0.6374  0.3329
 2366SOL    HW118731   0.582   2.501   0.411 -1.2716  1.0044  1.2380
 2366SOL    HW218732   0.476   2.414   0.469 -0.3430  0.9514  3.5746
 2367SOL     OW18733   3.142   3.566   2.406  0.0777  0.3337  0.2554
 2367SOL    HW118734   3.172   3.487   2.452  0.3293 -0.6262 -1.5686
 2367SOL    HW218735   3.052   3.538   2.394  0.1038 -0.7786  2.5364
 2368SOL     OW18736   3.947   3.509   3.717  0.2865  0.2548 -0.1763
 2368SOL    HW118737   3.883   3.489   3.786 -1.6924 -0.8339 -2.3306
 2368SOL    HW218738   3.898   3.550   3.645  1.1911 -2.6125 -2.4111
 2369SOL     OW18739   3.804   2.896   4.450  0.0265  0.5265 -0.1959
 2369SOL    HW118740   3.816   2.991   4.446 -1.2816  0.6701 -0.7651
 2369SOL    HW218741   3.729   2.888   4.390  1.0649 -2.8003 -1.0360
 2370SOL     OW18742   3.790   2.247   9.400 -0.0637  0.2508  0.3876
 2370SOL    HW118743   3.747   2.325   9.435  1.0009  1.0554 -0.0830
 2370SOL    HW218744   3.755   2.252   9.311 -0.7214  2.6434  0.7869
 2371SOL     OW18745   3.734   4.389  10.008 -0.8104 -0.3937  0.4603
 2371SOL    HW118746   3.786   4.344  10.074  2.0857  3.4359  0.7497
 2371SOL    HW218747   3.696   4.466  10.050 -2.5480 -1.6058  1.1360
 2372SOL     OW18748   4.227   1.940  13.875  1.4210  0.1548 -0.9708
 2372SOL    HW118749   4.208   1.862  13.823 -2.2715  0.8620 -0.7333
 2372SOL    HW218750   4.218   1.997  13.798  0.9723  1.4435  0.0319
 2373SOL     OW18751   2.083   2.912  12.061  0.4215  0.0447 -0.7335
 2373SOL    HW118752   2.162   2.882  12.014 -0.8913 -0.1796 -2.8245
 2373SOL    HW218753   2.093   2.877  12.149  0.0562 -2.3374 -1.6340
 2374SOL     OW18754   4.474   0.473   3.369 -0.0101  0.1040 -0.1412
 2374SOL    HW118755   4.501   0.397   3.318  0.1743  1.2882 -1.7840
 2374SOL    HW218756   4.546   0.535   3.363  0.5963 -0.5873 -0.0738
 2375SOL     OW18757   4.458   3.555   4.351  0.4184 -0.4959  0.2675
 2375SOL    HW118758   4.467   3.623   4.284 -3.2917 -0.3871 -0.1111
 2375SOL    HW218759   4.414   3.610   4.416  2.7357 -0.9162  2.2071
 2376SOL     OW18760   2.335   0.307   2.190 -0.2710  0.1112 -0.6377
 2376SOL    HW118761   2.318   0.294   2.097  2.3665 -0.6926 -1.0184
 2376SOL    HW218762   2.391   0.233   2.213 -0.0141 -0.4973 -3.2319
 2377SOL     OW18763   4.548   2.203   7.368 -0.3063 -0.1731 -0.4884
 2377SOL    HW118764   4.484   2.175   7.434 -1.1687  1.0017 -0.8461
 2377SOL    HW218765   4.634   2.183   7.406 -1.1316  0.3793  1.6262
 2378SOL     OW18766   2.364   3.004  11.937  0.1013  0.0341  0.0807
 2378SOL    HW118767   2.446   3.045  11.911  0.2522 -0.6884 -0.5693
 2378SOL    HW218768   2.391   2.937  12.001 -1.2986  0.5014  1.1613
 2379SOL     OW18769   2.915   0.624   3.414  0.1353 -0.4127 -0.2753
 2379SOL    HW118770   2.901   0.717   3.397 -1.2937 -0.6292 -0.2534
 2379SOL    HW218771   2.968   0.629   3.494  1.2991  0.7271 -1.1202
 2380SOL     OW18772   0.665   1.939   0.853  0.3731  0.5668 -0.3704
 2380SOL    HW118773   0.668   1.946   0.758 -1.1427 -1.4123 -0.5680
 2380SOL    HW218774   0.713   1.858   0.867 -0.1142  0.2849 -0.3076
 2381SOL     OW18775   3.784   0.248   7.097  0.3660 -0.2323  0.6591
 2381SOL    HW118776   3.780   0.243   7.001 -1.3945 -1.9931  0.8338
 2381SOL    HW218777   3.866   0.297   7.107  0.6810 -0.4764 -0.6761
 2382SOL     OW18778   4.261   1.491   4.284 -0.0582 -0.3041  0.4991
 2382SOL    HW118779   4.300   1.550   4.220 -1.8707  1.5504  1.1432
 2382SOL    HW218780   4.174   1.528   4.275  0.4018  0.5754 -0.2761
 2383SOL     OW18781   1.055   1.434   0.664  0.0267 -0.1026  0.2654
 2383SOL    HW118782   1.019   1.450   0.577 -0.0645 -3.8225 -0.4031
 2383SOL    HW218783   1.016   1.347   0.675 -0.0380 -0.1159 -0.0772
 2384SOL     OW18784   4.603   3.844   9.133 -0.1430 -0.4020 -0.4045
 2384SOL    HW118785   4.543   3.873   9.202 -1.2694 -1.8093 -0.8011
 2384SOL    HW218786   4.677   3.903   9.126 -1.7476  1.4006 -2.1207
 2385SOL     OW18787   1.742   3.293   7.895 -0.0634  0.0171 -0.3098
 2385SOL    HW118788   1.808   3.288   7.825  0.1366 -2.8225  0.0972
 2385SOL    HW218789   1.805   3.305   7.966 -0.1169  1.8202 -0.5714
 2386SOL     OW18790   2.366   0.093   0.461 -0.1705 -0.0439  0.3030
 2386SOL    HW118791   2.413   0.074   0.379 -0.2758 -2.3275  0.7667
 2386SOL    HW218792   2.285   0.132   0.431  0.7907  1.2651 -0.5893
 2387SOL     OW18793   2.333   0.258   8.371  0.2298 -0.1526 -0.6697
 2387SOL    HW118794   2.259   0.198   8.361 -0.9879  1.6717 -2.6687
 2387SOL    HW218795   2.396   0.196   8.408  1.7842  1.6291 -0.2690
 2388SOL     OW18796   0.005   4.331   3.420  0.3266 -0.0755  0.2666
 2388SOL    HW118797   0.003   4.406   3.480  1.2145 -0.7357  1.1206
 2388SOL    HW218798   4.686   4.274   3.474 -2.4531 -0.0326 -2.5765
 2389SOL     OW18799   4.651   1.281   3.893  0.1366  0.0369 -0.1375
 2389SOL    HW118800   4.559   1.294   3.913 -0.2062 -2.8721  0.2385
 2389SOL    HW218801   4.679   1.367   3.861  1.0511  0.6547  2.2824
 2390SOL     OW18802   0.564   3.083   5.257 -0.7724  0.1795 -0.2827
 2390SOL    HW118803   0.602   3.042   5.179 -1.2457  1.3583 -1.1480
 2390SOL    HW218804   0.526   3.159   5.212 -0.2794  0.9481  0.5878
 2391SOL     OW18805   4.504   0.165   4.430  0.1346  0.4273  0.5685
 2391SOL    HW118806   4.492   0.186   4.523  0.3659  0.6435  0.5516
 2391SOL    HW218807   4.546   0.081   4.449  1.7241  0.8551 -1.1273
 2392SOL     OW18808   1.883   1.960   4.894  0.4424 -0.3108  0.2251
 2392SOL    HW118809   1.872   2.054   4.889  1.4646 -0.0648  2.5980
 2392SOL    HW218810   1.865   1.951   4.988  0.0644  0.1715  0.1947
 2393SOL     OW18811   2.034   4.036   7.821 -0.1285  0.0522  0.3199
 2393SOL    HW118812   1.953   4.023   7.870  1.6568  1.5683  3.6563
 2393SOL    HW218813   2.034   3.956   7.768  1.0153  0.5802 -0.4797
 2394SOL     OW18814   4.527   1.716   7.569  0.3107  0.1903 -0.2529
 2394SOL    HW118815   4.446   1.708   7.520  0.7618 -1.9956 -0.6175
 2394SOL    HW218816   4.521   1.630   7.610 -0.4637  0.3051 -0.1203
 2395SOL     OW18817   0.335   1.953  12.917 -0.4398 -0.1861 -0.5449
 2395SOL    HW118818   0.278   1.927  12.989  0.2266  1.1926  0.4695
 2395SOL    HW218819   0.392   2.014  12.963 -0.8098 -1.4803  1.6337
 2396SOL     OW18820   4.449   3.140   9.833  0.5621 -0.3572 -0.2449
 2396SOL    HW118821   4.501   3.218   9.814 -0.8356  1.3398  2.7285
 2396SOL    HW218822   4.474   3.074   9.769  1.9341  0.8957 -0.9845
 2397SOL     OW18823   0.044   1.864   9.221  0.3460  0.2776  0.8390
 2397SOL    HW118824   0.022   1.896   9.134  0.1895  1.7938  1.4336
 2397SOL    HW218825   0.028   1.944   9.270 -1.1866  0.0421  0.7204
 2398SOL     OW18826   4.655   3.585  12.420  0.5759  0.4399 -0.1777
 2398SOL    HW118827   4.627   3.577  12.329 -0.1570  3.0698 -0.1709
 2398SOL    HW218828   4.681   3.496  12.443 -2.8523 -0.2496  1.0121
 2399SOL     OW18829   3.254   1.700   6.960 -0.6027  0.1940 -0.6164
 2399SOL    HW118830   3.222   1.766   6.898 -0.4961  0.2236 -0.6412
 2399SOL    HW218831   3.235   1.726   7.050 -0.3218 -0.1429 -0.4615
 2400SOL     OW18832   3.711   1.710   9.216  0.5994  0.3228 -0.2746
 2400SOL    HW118833   3.616   1.710   9.202  0.8483 -2.6985 -2.0952
 2400SOL    HW218834   3.736   1.791   9.171 -0.0846  0.3955 -0.5215
 2401SOL     OW18835   1.863   1.622   7.527 -0.3068 -0.3105  0.0978
 2401SOL    HW118836   1.876   1.631   7.433 -3.9344  0.2343 -0.3774
 2401SOL    HW218837   1.769   1.604   7.528 -0.1455 -1.0772  1.8144
 2402SOL     OW18838   3.361   3.111  12.799  0.0088  0.2422  0.0524
 2402SOL    HW118839   3.327   3.177  12.860  1.3037  1.4562 -0.5300
 2402SOL    HW218840   3.428   3.169  12.762 -1.2922  1.5582 -0.2431
 2403SOL     OW18841   2.037   4.735   2.871  0.2050 -0.1431 -0.5826
 2403SOL    HW118842   2.049   0.049   2.790  2.3102  0.3035  0.0196
 2403SOL    HW218843   2.073   4.655   2.833 -1.7717 -0.8347 -0.9922
 2404SOL     OW18844   0.669   4.066   3.970  0.3818 -0.1452  0.2071
 2404SOL    HW118845   0.612   4.087   3.896  0.1189 -3.4436 -0.4918
 2404SOL    HW218846   0.756   4.093   3.941 -1.1459  4.8375  0.1740
 2405SOL     OW18847   1.025   1.968   6.902  0.5502  0.3028  0.5060
 2405SOL    HW118848   1.088   2.021   6.951  0.7163  0.7915 -0.2264
 2405SOL    HW218849   1.074   1.895   6.864  1.2474 -0.1811  2.3227
 2406SOL     OW18850   4.632   0.772   6.213 -0.1160 -0.0999 -0.5656
 2406SOL    HW118851   4.672   0.748   6.130  1.6133 -1.2822  0.5857
 2406SOL    HW218852   4.615   0.686   6.252  1.5341  0.4622  1.4470
 2407SOL     OW18853   3.020   3.965   6.025 -0.5066  0.0890 -0.3965
 2407SOL    HW118854   3.011   3.971   5.929 -0.7399  1.0857 -0.3165
 2407SOL    HW218855   3.090   4.029   6.038 -1.1416  0.1213  2.7480
 2408SOL     OW18856   0.952   3.976   8.251  0.3147 -0.2108  0.0130
 2408SOL    HW118857   1.042   3.961   8.281  0.4829 -1.2742 -1.0148
 2408SOL    HW218858   0.957   4.040   8.181 -1.9834  1.9532  1.8555
 2409SOL     OW18859   4.678   3.483   6.962  0.5271  0.1031  0.6646
 2409SOL    HW118860   4.715   3.491   6.874  0.0798  0.7857  0.5447
 2409SOL    HW218861   4.588   3.509   6.944  0.3127 -1.6425 -0.7695
 2410SOL     OW18862   0.050   2.319   9.157 -0.7266  0.5211  0.1618
 2410SOL    HW118863   4.695   2.299   9.173 -0.2463 -2.2490 -0.5744
 2410SOL    HW218864   0.077   2.239   9.111  2.1330  1.1851  0.6989
 2411SOL     OW18865   2.342   4.479   8.610 -0.1957  0.3231  0.2552
 2411SOL    HW118866   2.416   4.418   8.612 -0.9161 -0.6176 -1.2864
 2411SOL    HW218867   2.330   4.503   8.702 -0.8733 -3.2148  1.0803
 2412SOL     OW18868   4.600   4.142   5.954 -0.1517 -0.5703  0.2354
 2412SOL    HW118869   4.688   4.179   5.952  0.2441 -1.4501  1.7384
 2412SOL    HW218870   4.552   4.223   5.935  1.5974  0.3309 -0.3362
 2413SOL     OW18871   3.392   0.169  16.281 -0.8105  0.3889 -0.3544
 2413SOL    HW118872   3.443   0.154  16.202 -0.0835 -1.2054  0.4262
 2413SOL    HW218873   3.363   0.258  16.261 -0.2801  0.2984 -1.5177
 2414SOL     OW18874   1.722   0.730  17.419  0.5295  0.3393 -0.4274
 2414SOL    HW118875   1.802   0.770  17.384  0.8313  0.7840  0.7486
 2414SOL    HW218876   1.657   0.763  17.357  1.0057 -0.9424 -1.5979
 2415SOL     OW18877   3.115   3.608   3.582  0.0127 -0.0905  0.3494
 2415SOL    HW118878   3.121   3.545   3.653  0.3091 -0.2863  0.1522
 2415SOL    HW218879   3.021   3.624   3.567 -0.0684 -1.5655 -0.6924
 2416SOL     OW18880   2.835   2.584   2.817 -0.2427 -0.8211  0.5491
 2416SOL    HW118881   2.836   2.650   2.886 -1.8500 -0.1372 -0.0802
 2416SOL    HW218882   2.918   2.539   2.825  1.1391  1.6342 -0.0445
 2417SOL     OW18883   3.044   0.990  10.288 -0.0860 -0.0879  0.5554
 2417SOL    HW118884   2.995   0.954  10.362 -0.1682  0.7189  0.8937
 2417SOL    HW218885   3.121   1.019  10.337  0.6293 -1.9311  0.4845
 2418SOL     OW18886   1.477   2.103   2.663  0.3043 -0.2306  0.5914
 2418SOL    HW118887   1.408   2.166   2.642 -0.2707 -0.4850  1.7266
 2418SOL    HW218888   1.538   2.102   2.590 -0.6662 -0.2221 -0.2106
 2419SOL     OW18889   4.664   1.483   4.875 -0.2736 -0.6865  0.2881
 2419SOL    HW118890   4.581   1.512   4.911 -0.0378 -1.5032  1.4897
 2419SOL    HW218891   4.711   1.461   4.955  1.5641 -0.6361 -0.7728
 2420SOL     OW18892   3.302   4.079  16.726  0.4424 -0.1637  0.4818
 2420SOL    HW118893   3.358   4.001  16.734 -0.8223 -1.1708 -0.5647
 2420SOL    HW218894   3.222   4.029  16.713  1.1085 -0.9108 -0.8200
 2421SOL     OW18895   2.963   1.102   7.203  0.8218 -0.2258  0.1574
 2421SOL    HW118896   2.923   1.180   7.241  0.2385 -0.1119 -0.6830
 2421SOL    HW218897   2.957   1.045   7.280  1.8621  0.8039  1.0017
 2422SOL     OW18898   1.641   3.354   4.423 -0.1761  0.2472 -0.6086
 2422SOL    HW118899   1.652   3.444   4.453 -1.6398 -0.8135  3.1620
 2422SOL    HW218900   1.590   3.322   4.498 -1.3776  2.7417 -0.3618
 2423SOL     OW18901   2.221   3.738   1.989  0.3672 -0.5844  0.4539
 2423SOL    HW118902   2.271   3.813   1.958 -2.1336  1.1723  0.7443
 2423SOL    HW218903   2.284   3.685   2.037  1.1430 -0.3497 -0.3012
 2424SOL     OW18904   3.466   1.060   5.142 -0.4500 -0.6317 -0.4230
 2424SOL    HW118905   3.434   0.985   5.193 -1.0781 -0.9484 -1.2816
 2424SOL    HW218906   3.389   1.116   5.135 -0.2298 -0.0722  1.7856
 2425SOL     OW18907   1.547   1.691   5.510 -0.4292  0.3474 -0.2987
 2425SOL    HW118908   1.515   1.779   5.492  1.2101  0.7860 -0.9801
 2425SOL    HW218909   1.474   1.653   5.560  0.9411 -0.1058  1.3435
 2426SOL     OW18910   3.306   3.671   5.736 -0.3650 -0.0195  0.4474
 2426SOL    HW118911   3.326   3.690   5.828 -0.6507  0.4547  0.4128
 2426SOL    HW218912   3.214   3.647   5.742  0.4117 -2.8925  0.5649
 2427SOL     OW18913   2.344   0.181  14.583  0.1306  0.0634 -0.3691
 2427SOL    HW118914   2.366   0.089  14.567 -0.9403 -0.3775  0.6853
 2427SOL    HW218915   2.283   0.192  14.510  0.1368  0.5736 -0.2961
 2428SOL     OW18916   1.967   1.275  14.571  0.3168  0.2531 -0.6432
 2428SOL    HW118917   1.938   1.250  14.484 -1.7546  0.9063 -0.1406
 2428SOL    HW218918   1.910   1.346  14.599  2.1294  1.8569 -0.9853
 2429SOL     OW18919   0.633   0.728  10.647  0.2906  1.3112  0.3524
 2429SOL    HW118920   0.654   0.666  10.717  2.3197  0.4263 -1.0770
 2429SOL    HW218921   0.678   0.685  10.576 -0.3686  1.7772 -0.3533
 2430SOL     OW18922   2.252   0.872   1.797  0.0159  0.5197  0.2830
 2430SOL    HW118923   2.264   0.964   1.819  1.9946  0.3593 -0.1397
 2430SOL    HW218924   2.201   0.879   1.716 -2.5223 -1.4441  1.7039
 2431SOL     OW18925   2.711   0.579  14.496 -0.1503  0.0297 -0.2151
 2431SOL    HW118926   2.777   0.643  14.470  0.5150 -0.3674  0.5190
 2431SOL    HW218927   2.640   0.608  14.438 -0.5269  0.8324  0.6440
 2432SOL     OW18928   4.598   0.428  11.423 -0.2540 -0.1023  0.0901
 2432SOL    HW118929   4.542   0.505  11.418  1.6892  1.3765  0.7872
 2432SOL    HW218930   4.644   0.430  11.339  0.4540  0.5168  0.4940
 2433SOL     OW18931   2.763   0.390   6.920 -0.0569  0.0915 -0.3300
 2433SOL    HW118932   2.689   0.334   6.897 -1.0185  1.3990 -0.4300
 2433SOL    HW218933   2.822   0.336   6.971  1.4059  2.5122  0.5478
 2434SOL     OW18934   2.413   0.524   8.416  0.5807 -0.1074  0.2927
 2434SOL    HW118935   2.379   0.449   8.368 -1.0178  0.6505  0.2403
 2434SOL    HW218936   2.332   0.571   8.435  1.7096  1.6752  0.7218
 2435SOL     OW18937   2.373   3.806   6.693 -1.1817  0.1302 -0.2584
 2435SOL    HW118938   2.312   3.820   6.765 -0.4897 -5.4438  1.4122
 2435SOL    HW218939   2.326   3.848   6.621  0.6122  1.9908 -0.3428
 2436SOL     OW18940   4.535   4.236   2.934 -0.4203  0.1640 -0.4061
 2436SOL    HW118941   4.462   4.298   2.939 -0.5518 -0.0679  0.5180
 2436SOL    HW218942   4.603   4.292   2.970 -1.9650  0.4045  2.1251
 2437SOL     OW18943   1.364   3.360   6.190 -1.0137 -0.1016 -0.0831
 2437SOL    HW118944   1.402   3.273   6.205 -0.1789  0.3649  0.4503
 2437SOL    HW218945   1.272   3.333   6.193 -0.8993 -0.4695  0.0693
 2438SOL     OW18946   3.977   3.586  12.034 -0.3253 -0.3311  0.2075
 2438SOL    HW118947   3.978   3.586  11.939  1.5156 -0.4693  0.2241
 2438SOL    HW218948   3.884   3.569  12.047 -0.0527 -1.6480  0.4364
 2439SOL     OW18949   3.701   2.666   7.080 -0.4734 -0.4516  0.6967
 2439SOL    HW118950   3.776   2.723   7.063 -0.7983  0.0128  0.8303
 2439SOL    HW218951   3.692   2.623   6.995 -1.5125 -0.2037  0.6819
 2440SOL     OW18952   1.555   0.678  12.172 -0.4739 -0.6381  0.1511
 2440SOL    HW118953   1.649   0.678  12.188 -0.4384  1.2357 -0.0632
 2440SOL    HW218954   1.527   0.586  12.180  0.8845 -1.1531 -1.0678
 2441SOL     OW18955   3.705   1.413   7.734 -0.0043 -0.4027 -0.5879
 2441SOL    HW118956   3.643   1.440   7.666 -0.8773 -0.0783  0.3429
 2441SOL    HW218957   3.656   1.355   7.793 -0.2269  0.4333  0.0455
 2442SOL     OW18958   2.812   4.360   4.361 -0.3969 -0.1152 -0.3405
 2442SOL    HW118959   2.735   4.363   4.304  0.4221  1.1985 -1.3774
 2442SOL    HW218960   2.787   4.305   4.435 -2.4839 -0.8094 -1.5532
 2443SOL     OW18961   1.063   0.837   7.069  0.6983  0.5547 -0.1543
 2443SOL    HW118962   0.995   0.798   7.014  0.4601  0.4601  0.2007
 2443SOL    HW218963   1.105   0.901   7.011  1.6064  1.3800  1.4132
 2444SOL     OW18964   2.855   0.583   7.541 -0.1904 -0.0892  0.4713
 2444SOL    HW118965   2.847   0.549   7.630  0.9198  1.6230  1.2174
 2444SOL    HW218966   2.843   0.501   7.493  0.3402  0.9599 -1.4736
 2445SOL     OW18967   3.495   0.971  17.109 -0.0084  0.0227 -0.5094
 2445SOL    HW118968   3.547   1.037  17.154  0.6593 -1.0319  0.2585
 2445SOL    HW218969   3.560   0.935  17.048 -2.8147 -1.2682 -2.7692
 2446SOL     OW18970   4.378   3.369  13.606 -0.1049 -0.5120 -0.4388
 2446SOL    HW118971   4.316   3.422  13.655  0.9251  2.4968 -2.4004
 2446SOL    HW218972   4.450   3.432  13.610 -0.5955 -0.0538  1.0187
 2447SOL     OW18973   3.042   3.363   5.186  0.0347 -0.0790  0.6236
 2447SOL    HW118974   3.043   3.391   5.094 -2.2420 -2.4160 -0.0906
 2447SOL    HW218975   3.110   3.422   5.220 -0.5740  0.7481  0.4131
 2448SOL     OW18976   1.370   2.309   4.528  0.1073 -0.3182 -0.0876
 2448SOL    HW118977   1.298   2.369   4.510 -0.1130 -0.4065  0.4783
 2448SOL    HW218978   1.362   2.251   4.452 -0.9728  0.9993 -0.9699
 2449SOL     OW18979   4.003   2.038   7.624 -0.2804 -0.2833 -0.3011
 2449SOL    HW118980   3.953   2.091   7.685 -2.3348 -0.5072 -1.8069
 2449SOL    HW218981   4.003   1.953   7.668 -3.3575  0.8638  1.9268
 2450SOL     OW18982   2.608   2.584  13.846 -0.1474 -0.6477 -0.3547
 2450SOL    HW118983   2.647   2.577  13.759 -0.3636  3.0317 -0.7426
 2450SOL    HW218984   2.647   2.513  13.897 -0.3354 -1.3986 -1.2696
 2451SOL     OW18985   0.701   1.987   2.939 -0.3247  0.3423 -0.0320
 2451SOL    HW118986   0.787   1.975   2.900 -0.3389 -0.1115  0.0733
 2451SOL    HW218987   0.705   2.082   2.925  1.1198 -0.0406 -2.3338
 2452SOL     OW18988   0.944   2.810  16.474  0.0493  0.2001 -0.0725
 2452SOL    HW118989   0.955   2.829  16.567 -0.5700  0.3218 -0.0236
 2452SOL    HW218990   0.966   2.895  16.435  0.6450 -0.6125 -1.4960
 2453SOL     OW18991   1.774   1.738   6.218 -0.3584  0.3490 -0.7539
 2453SOL    HW118992   1.803   1.819   6.175 -0.3001  0.0445 -1.2874
 2453SOL    HW218993   1.824   1.672   6.171 -1.1138  0.7193 -2.0649
 2454SOL     OW18994   1.691   0.431  12.842 -0.4053  0.4761 -0.0360
 2454SOL    HW118995   1.778   0.391  12.839 -0.7825 -0.4008  0.6635
 2454SOL    HW218996   1.722   0.519  12.865 -0.5928  0.8927 -1.4403
 2455SOL     OW18997   1.531   4.127   2.386 -0.0365 -0.0216 -0.0272
 2455SOL    HW118998   1.575   4.053   2.344 -1.4711 -1.5293  1.1254
 2455SOL    HW218999   1.485   4.092   2.462 -1.5875 -0.3618 -1.1332
 2456SOL     OW19000   1.382   3.121   4.033  0.3360 -0.2217 -0.2975
 2456SOL    HW119001   1.425   3.035   4.027 -2.1614 -1.5406  0.7690
 2456SOL    HW219002   1.395   3.150   3.942 -2.1116  1.7209 -0.0007
 2457SOL     OW19003   1.479   2.469   7.819 -0.0314 -0.3781 -0.2797
 2457SOL    HW119004   1.451   2.427   7.738 -0.4588  1.0579 -0.8735
 2457SOL    HW219005   1.458   2.407   7.888  1.8454  0.0159  0.6465
 2458SOL     OW19006   3.855   0.323   8.371 -0.1955  0.6244  0.0708
 2458SOL    HW119007   3.863   0.231   8.347  2.6300  0.3001  2.1738
 2458SOL    HW219008   3.819   0.315   8.460  1.1105  0.8758  0.6361
 2459SOL     OW19009   4.671   0.955   9.145  0.1507 -0.2709  0.0387
 2459SOL    HW119010   4.723   0.875   9.142 -2.3639 -1.8013 -3.0770
 2459SOL    HW219011   4.719   0.991   9.220  0.3630 -1.3565  0.4249
 2460SOL     OW19012   0.324   4.288  12.159  0.1609  1.2756 -0.6721
 2460SOL    HW119013   0.259   4.346  12.199 -0.3954  0.3314 -0.2070
 2460SOL    HW219014   0.367   4.253  12.238 -2.4243 -0.1734  0.0907
 2461SOL     OW19015   2.264   3.208   4.993  0.5637  0.3429 -0.2605
 2461SOL    HW119016   2.285   3.285   4.941  0.7576  0.6240  0.2378
 2461SOL    HW219017   2.177   3.191   4.958  0.6438  0.4186 -0.4993
 2462SOL     OW19018   3.486   0.338   3.025  0.2869 -0.2697  0.3475
 2462SOL    HW119019   3.534   0.272   3.074  1.2192  0.7452  0.7964
 2462SOL    HW219020   3.525   0.418   3.061  0.2823 -0.8415  1.5943
 2463SOL     OW19021   3.409   2.267   6.393 -0.5194  0.1746 -0.0738
 2463SOL    HW119022   3.459   2.260   6.475 -1.0824  2.1825  0.4302
 2463SOL    HW219023   3.490   2.259   6.343  1.4326  0.2036  3.0367
 2464SOL     OW19024   1.996   4.389   5.625  0.1911  0.1970 -0.0660
 2464SOL    HW119025   2.089   4.391   5.602 -0.0890 -0.7917 -1.2564
 2464SOL    HW219026   1.976   4.300   5.652 -2.2452  1.4994  2.4568
 2465SOL     OW19027   0.764   1.184   9.366 -0.3651  0.1193  0.7719
 2465SOL    HW119028   0.687   1.211   9.317 -0.4307  2.4942  2.1504
 2465SOL    HW219029   0.748   1.226   9.450 -0.2584  0.1852  0.7591
 2466SOL     OW19030   3.502   3.167  15.419  0.2655 -0.1888 -0.0400
 2466SOL    HW119031   3.408   3.172  15.432  0.3181 -0.4400  0.4289
 2466SOL    HW219032   3.506   3.074  15.442 -3.1494 -0.7192 -1.5428
 2467SOL     OW19033   2.908   3.015   5.854  0.1031  0.4633 -0.1554
 2467SOL    HW119034   2.891   2.986   5.943 -0.0269 -0.4313 -0.4678
 2467SOL    HW219035   2.858   2.947   5.808  1.1893  0.2435 -1.0315
 2468SOL     OW19036   3.645   4.720   1.334 -0.1376 -0.4060  0.3329
 2468SOL    HW119037   3.590   0.034   1.393 -0.2257 -0.8100  0.6018
 2468SOL    HW219038   3.606   4.635   1.354 -0.4696  0.2219  2.3144
 2469SOL     OW19039   3.661   3.587   4.048  0.0601 -0.1744  0.1485
 2469SOL    HW119040   3.752   3.606   4.074 -0.4239 -2.2148  3.3549
 2469SOL    HW219041   3.680   3.526   3.976 -1.9668  0.2746 -0.7674
 2470SOL     OW19042   3.653   2.794  10.368 -0.0356  0.4712 -0.2462
 2470SOL    HW119043   3.619   2.751  10.290  0.8362  0.3879 -0.5792
 2470SOL    HW219044   3.595   2.867  10.386 -1.8294 -0.9877 -0.1003
 2471SOL     OW19045   4.677   2.568   4.117  0.7123 -0.2454  0.4951
 2471SOL    HW119046   4.640   2.549   4.203  3.5899 -0.0744  1.7752
 2471SOL    HW219047   4.596   2.547   4.071  0.1969 -1.1902  1.8166
 2472SOL     OW19048   1.950   4.447   2.959 -0.1437  0.0751 -0.4070
 2472SOL    HW119049   2.010   4.474   2.889 -0.0539  1.7515  0.3358
 2472SOL    HW219050   1.934   4.528   3.006  0.4520 -1.3748  2.3060
 2473SOL     OW19051   0.778   4.109   5.581 -0.1448 -0.3158  0.0077
 2473SOL    HW119052   0.800   4.192   5.539 -0.8721 -0.3006 -0.3460
 2473SOL    HW219053   0.733   4.143   5.658 -0.0010 -1.7568  0.7199
 2474SOL     OW19054   2.564   3.524  14.136  0.9584  0.3560  0.0239
 2474SOL    HW119055   2.658   3.535  14.128  1.0268 -0.4490 -0.2165
 2474SOL    HW219056   2.546   3.556  14.225  0.7351 -0.5355  0.3027
 2475SOL     OW19057   0.447   0.829   5.654  0.2973  0.3591  0.0456
 2475SOL    HW119058   0.532   0.821   5.610 -0.7372 -2.3474 -1.4283
 2475SOL    HW219059   0.428   0.920   5.631  0.2895  0.7300  1.5541
 2476SOL     OW19060   0.231   3.680   4.740 -0.4408  0.7252  0.1227
 2476SOL    HW119061   0.212   3.682   4.834  1.4672  1.4685  0.4809
 2476SOL    HW219062   0.260   3.589   4.734  1.1918  1.3322 -1.3291
 2477SOL     OW19063   4.274   0.316   3.836 -0.1936  0.1149 -0.0066
 2477SOL    HW119064   4.284   0.372   3.759  0.9185  0.1568  0.1594
 2477SOL    HW219065   4.323   0.370   3.898 -0.1787  0.0906  0.0030
 2478SOL     OW19066   3.507   2.407   7.519 -0.5489 -0.8295  0.2074
 2478SOL    HW119067   3.504   2.312   7.515  0.0076 -0.8196 -0.5011
 2478SOL    HW219068   3.414   2.428   7.507 -0.6865 -1.4172  0.2589
 2479SOL     OW19069   3.760   3.445   6.363 -0.3896 -0.0821 -0.1495
 2479SOL    HW119070   3.706   3.366   6.367 -1.8506  0.8967 -0.6075
 2479SOL    HW219071   3.842   3.408   6.397 -0.1370  0.6002 -0.0073
 2480SOL     OW19072   4.163   4.451  16.862  0.1430 -0.1523 -0.3270
 2480SOL    HW119073   4.247   4.413  16.887 -0.4378 -0.1025  1.7368
 2480SOL    HW219074   4.109   4.434  16.939 -0.9212 -1.4190 -1.3726
 2481SOL     OW19075   2.321   0.869  16.965 -0.1250  0.0267 -0.2241
 2481SOL    HW119076   2.276   0.886  16.883 -1.7485  2.3753  1.1584
 2481SOL    HW219077   2.345   0.777  16.952 -0.5844  0.1921 -2.1973
 2482SOL     OW19078   4.221   4.619   4.453 -0.2867  0.5221  0.1262
 2482SOL    HW119079   4.292   4.573   4.497  0.0137 -0.3744 -1.3044
 2482SOL    HW219080   4.218   4.694   4.513 -0.7608 -0.3980  1.2406
 2483SOL     OW19081   0.913   0.436   2.052  0.4744 -0.3376 -0.2358
 2483SOL    HW119082   0.870   0.442   2.138 -1.5318 -2.1680 -1.1072
 2483SOL    HW219083   1.001   0.406   2.077  1.3962  0.7280 -2.2627
 2484SOL     OW19084   4.225   3.966   9.824  0.2396 -0.1265 -0.0544
 2484SOL    HW119085   4.205   3.908   9.897  0.7223  2.1331  1.8767
 2484SOL    HW219086   4.293   4.024   9.858  0.2776  0.1963 -0.6770
 2485SOL     OW19087   3.895   0.756   3.332 -0.6083 -0.3077 -0.1182
 2485SOL    HW119088   3.944   0.685   3.372 -1.7780 -1.2022 -0.2550
 2485SOL    HW219089   3.826   0.772   3.396 -0.3475 -1.1614  0.3666
 2486SOL     OW19090   3.379   2.758   1.904  0.2552 -1.5331 -0.2417
 2486SOL    HW119091   3.311   2.692   1.889 -0.3685 -1.1921  1.0188
 2486SOL    HW219092   3.382   2.801   1.818  1.4071 -0.0939  0.5132
 2487SOL     OW19093   2.187   4.236   6.985 -0.0792 -0.0982  0.1037
 2487SOL    HW119094   2.224   4.292   7.053  1.0617  0.0431 -0.6312
 2487SOL    HW219095   2.215   4.288   6.910  1.0374  0.0301  0.6046
 2488SOL     OW19096   2.968   4.139   0.460  0.4928 -0.3095  0.3838
 2488SOL    HW119097   2.992   4.213   0.516 -0.9008 -0.9238  1.7783
 2488SOL    HW219098   2.969   4.068   0.525 -0.4254 -0.7922 -0.1279
 2489SOL     OW19099   1.603   2.550   9.655 -0.0652 -0.0102  0.4442
 2489SOL    HW119100   1.587   2.456   9.662 -0.2890  0.0190  0.2898
 2489SOL    HW219101   1.533   2.593   9.608  2.1738  1.2954 -1.7124
 2490SOL     OW19102   4.664   4.306  16.453  0.1170 -0.0723 -0.6345
 2490SOL    HW119103   4.585   4.272  16.495  0.1373 -0.5512 -0.9804
 2490SOL    HW219104   4.731   4.294  16.519 -0.5196  0.7787  0.1705
 2491SOL     OW19105   3.791   4.183   6.948 -0.0634  0.4135 -0.3716
 2491SOL    HW119106   3.880   4.159   6.923  0.0569 -0.0563  0.5042
 2491SOL    HW219107   3.752   4.103   6.912  0.9582 -1.1245  1.9311
 2492SOL     OW19108   3.221   0.923   3.182  0.2087  0.3680  0.5921
 2492SOL    HW119109   3.259   1.004   3.149  0.9191 -0.7946 -1.4450
 2492SOL    HW219110   3.208   0.956   3.271 -0.5135  0.3487  0.4960
 2493SOL     OW19111   1.773   1.728   4.233 -0.4278  0.5968 -0.2705
 2493SOL    HW119112   1.711   1.656   4.241 -2.8556  2.8639  1.0376
 2493SOL    HW219113   1.850   1.678   4.260 -0.1156  1.0760 -0.2601
 2494SOL     OW19114   1.485   3.524   7.588 -0.2469 -0.8346  0.0841
 2494SOL    HW119115   1.425   3.561   7.523  1.3338  3.1170  0.8612
 2494SOL    HW219116   1.535   3.602   7.614  0.0381 -0.8308 -0.4865
 2495SOL     OW19117   2.759   1.344   3.236 -0.7414 -0.6569 -0.1485
 2495SOL    HW119118   2.807   1.371   3.157  0.7498 -1.5141  0.4548
 2495SOL    HW219119   2.783   1.416   3.294 -0.3143  3.1089 -5.0710
 2496SOL     OW19120   0.512   3.334   4.539 -0.0325  0.1109  0.5430
 2496SOL    HW119121   0.573   3.283   4.592 -0.5375 -0.3381  0.6964
 2496SOL    HW219122   0.516   3.308   4.446 -1.1120 -1.5659  0.9553
 2497SOL     OW19123   0.322   1.684   9.632 -0.0451 -0.0016 -0.4075
 2497SOL    HW119124   0.410   1.721   9.621 -1.3563  3.3001  0.1700
 2497SOL    HW219125   0.349   1.592   9.633 -0.9421 -0.2808 -1.5903
 2498SOL     OW19126   3.073   4.058  17.543  0.2617  0.3351  0.0862
 2498SOL    HW119127   3.078   4.144  17.500  2.9813 -0.2651 -0.8080
 2498SOL    HW219128   3.039   3.995  17.480 -2.0311  0.1288  1.5289
 2499SOL     OW19129   1.799   4.076   8.604 -0.0560 -0.4049 -0.1722
 2499SOL    HW119130   1.835   4.113   8.524  0.5252  1.7871  1.1217
 2499SOL    HW219131   1.813   3.982   8.588 -1.3470 -0.4152 -1.2805
 2500SOL     OW19132   4.428   3.916   4.270 -0.2453  0.5959 -0.6107
 2500SOL    HW119133   4.461   4.002   4.245  1.1984 -0.4273 -2.2244
 2500SOL    HW219134   4.362   3.937   4.337 -0.5191  0.7155 -0.9179
 2501SOL     OW19135   2.816   0.697  13.269  0.3076  0.2586  0.2249
 2501SOL    HW119136   2.885   0.700  13.202  0.4128 -0.3307  0.3111
 2501SOL    HW219137   2.740   0.708  13.212 -0.8577  1.8615  2.0698
 2502SOL     OW19138   1.442   2.238   5.877 -0.0196  0.3154  0.2350
 2502SOL    HW119139   1.355   2.228   5.837 -1.2317 -0.9574  3.2126
 2502SOL    HW219140   1.475   2.316   5.832 -2.3933  1.3327  0.2393
 2503SOL     OW19141   4.471   0.088   9.188 -0.6423 -0.3981 -0.7727
 2503SOL    HW119142   4.408   0.144   9.143  1.0239  1.8939 -0.1862
 2503SOL    HW219143   4.480   0.018   9.122 -0.1458 -0.2740 -0.8359
 2504SOL     OW19144   3.644   4.117   5.498  0.4964  0.1603  0.1035
 2504SOL    HW119145   3.565   4.169   5.517  0.1648 -0.2916 -0.0237
 2504SOL    HW219146   3.697   4.183   5.453 -1.0135  1.2813 -0.0680
 2505SOL     OW19147   1.129   2.740  12.596  0.0987  0.5707  0.3842
 2505SOL    HW119148   1.170   2.822  12.624  2.2294 -0.4230  0.1362
 2505SOL    HW219149   1.041   2.778  12.593 -0.7458 -1.3619  0.3744
 2506SOL     OW19150   0.754   1.869   8.748 -0.2942  0.3479 -0.4098
 2506SOL    HW119151   0.735   1.786   8.704  1.9394 -0.7420  0.6387
 2506SOL    HW219152   0.693   1.861   8.822  1.3479 -0.1021  0.9083
 2507SOL     OW19153   2.404   3.996  16.744  0.1905  0.2797  0.3556
 2507SOL    HW119154   2.321   3.947  16.748  0.5317 -0.2661  0.7652
 2507SOL    HW219155   2.466   3.923  16.745 -0.1785 -0.0306  0.8582
 2508SOL     OW19156   0.794   4.486   9.045  0.5623  0.0199 -0.1173
 2508SOL    HW119157   0.709   4.443   9.052  0.5127  0.1170 -0.1279
 2508SOL    HW219158   0.816   4.496   8.953  2.3059  0.4193  0.3341
 2509SOL     OW19159   3.392   0.391  17.714 -0.6536 -0.6021  0.1363
 2509SOL    HW119160   3.333   0.465  17.703  0.5313  0.6504  2.2275
 2509SOL    HW219161   3.398   0.352  17.627 -2.0794  1.5158 -0.8962
 2510SOL     OW19162   3.936   1.359   3.831  0.5390  0.7256 -0.1031
 2510SOL    HW119163   3.939   1.308   3.750 -1.2294 -0.0349  0.3053
 2510SOL    HW219164   3.870   1.423   3.805 -0.7970  0.1148  1.8361
 2511SOL     OW19165   4.146   1.324   5.917  0.1843  0.1756  0.4076
 2511SOL    HW119166   4.057   1.338   5.948  0.9101  1.0427  2.0576
 2511SOL    HW219167   4.201   1.387   5.963  3.7179 -2.5282 -0.0957
 2512SOL     OW19168   3.700   0.252   9.799 -0.1849  0.8423 -0.2972
 2512SOL    HW119169   3.646   0.189   9.847 -0.6647  0.4576 -1.3467
 2512SOL    HW219170   3.710   0.206   9.716 -0.2036  2.2330 -1.0820
 2513SOL     OW19171   0.086   1.377   3.249  0.0266 -0.3665  0.0693
 2513SOL    HW119172   0.151   1.350   3.185 -1.0011 -0.4975 -0.9212
 2513SOL    HW219173   0.133   1.456   3.275  0.4416 -0.0904 -1.5236
 2514SOL     OW19174   2.788   2.883   4.538 -0.4268  0.4180 -0.6023
 2514SOL    HW119175   2.759   2.792   4.547 -2.8032  1.3788  1.3116
 2514SOL    HW219176   2.761   2.921   4.621  1.3942 -2.1104  1.1549
 2515SOL     OW19177   1.143   0.734   1.602  0.5333  0.2792  0.0541
 2515SOL    HW119178   1.213   0.797   1.618  0.1256  0.9214 -0.6524
 2515SOL    HW219179   1.125   0.712   1.694 -0.5614 -2.9571 -0.9351
 2516SOL     OW19180   2.586   3.460   6.226  0.4627 -0.0452 -0.3171
 2516SOL    HW119181   2.627   3.521   6.288  2.6914 -1.0360 -0.8413
 2516SOL    HW219182   2.502   3.505   6.211  0.0765 -0.2460  1.2507
 2517SOL     OW19183   1.986   2.810   8.459 -0.2904 -0.8007  0.0706
 2517SOL    HW119184   1.891   2.811   8.469  0.0617 -0.4596  3.6852
 2517SOL    HW219185   2.015   2.770   8.541  2.2042  0.4601 -0.1969
 2518SOL     OW19186   4.636   1.608  16.269 -0.1924  0.2606 -0.1851
 2518SOL    HW119187   4.649   1.702  16.283 -2.0544  0.6276 -0.9390
 2518SOL    HW219188   4.725   1.573  16.262  0.4792  1.7006  1.2115
 2519SOL     OW19189   4.127   1.116  14.546  0.2357 -0.5380  0.0703
 2519SOL    HW119190   4.097   1.185  14.604  2.0571  0.4622 -0.1911
 2519SOL    HW219191   4.213   1.094  14.581 -0.5444 -4.0973 -0.2006
 2520SOL     OW19192   4.446   2.943   9.017  0.5137  0.1559  0.7639
 2520SOL    HW119193   4.540   2.954   9.005  0.4046 -0.4887 -0.6119
 2520SOL    HW219194   4.428   2.881   8.947 -1.7824  2.9487 -1.1304
 2521SOL     OW19195   0.733   3.661   2.234 -0.5200  0.0026  0.3868
 2521SOL    HW119196   0.728   3.567   2.254 -0.0216 -0.0624  0.2104
 2521SOL    HW219197   0.743   3.696   2.322  1.9753  1.0180 -0.3166
 2522SOL     OW19198   3.862   2.563  13.261 -0.5303 -0.0020 -0.2134
 2522SOL    HW119199   3.820   2.575  13.347 -0.9740 -0.6259 -0.3409
 2522SOL    HW219200   3.799   2.510  13.212 -0.9228 -0.5459  0.8651
 2523SOL     OW19201   2.858   3.895   0.249 -0.3571 -0.2102  0.0455
 2523SOL    HW119202   2.773   3.855   0.230 -0.7182  0.6393 -0.1121
 2523SOL    HW219203   2.829   3.983   0.273 -0.1073  0.0250 -0.5126
 2524SOL     OW19204   3.011   2.840   5.619 -0.1124 -0.6149 -0.3051
 2524SOL    HW119205   2.964   2.766   5.581  0.6855 -0.5755 -1.3725
 2524SOL    HW219206   2.981   2.911   5.561  0.7477 -0.6721 -0.8257
 2525SOL     OW19207   0.513   3.948  15.190  0.6014 -0.5499  0.0386
 2525SOL    HW119208   0.451   4.013  15.223 -1.2048 -1.2557 -1.9482
 2525SOL    HW219209   0.601   3.986  15.184  0.5075 -0.0716  1.6265
 2526SOL     OW19210   4.112   3.742  17.182 -0.5888  0.0860  0.4416
 2526SOL    HW119211   4.059   3.715  17.257  0.6873 -2.1697  0.5467
 2526SOL    HW219212   4.134   3.832  17.205 -1.3302  0.1254  0.9754
 2527SOL     OW19213   2.061   4.581   6.687 -0.1851  0.0859 -0.3566
 2527SOL    HW119214   2.050   4.559   6.595 -1.3919  1.3301 -0.5118
 2527SOL    HW219215   1.978   4.555   6.727  0.5331  0.9416  1.7038
 2528SOL     OW19216   3.002   4.415  12.570 -0.3921 -0.0086  0.1283
 2528SOL    HW119217   3.054   4.403  12.650 -0.3259 -0.4229  0.0223
 2528SOL    HW219218   2.975   4.504  12.593 -1.2432 -0.9126  2.7314
 2529SOL     OW19219   4.212   0.238  11.449 -0.3881  0.2999 -0.5320
 2529SOL    HW119220   4.116   0.230  11.452 -0.4388  1.0451 -0.0983
 2529SOL    HW219221   4.207   0.302  11.378  1.2230  2.0980  0.9784
 2530SOL     OW19222   4.338   3.338   1.987  0.9447 -0.5129  0.1387
 2530SOL    HW119223   4.428   3.310   2.005  0.3950  0.0830  3.7397
 2530SOL    HW219224   4.339   3.433   1.993 -0.1644 -0.4370 -0.8362
 2531SOL     OW19225   0.981   1.418   9.585 -0.0502 -0.0439 -0.8125
 2531SOL    HW119226   1.044   1.438   9.653 -0.6821 -1.0031  0.0554
 2531SOL    HW219227   1.033   1.355   9.534 -3.4556 -1.2883 -2.8416
 2532SOL     OW19228   1.453   3.865   6.274  0.0004 -0.2601  0.1335
 2532SOL    HW119229   1.464   3.797   6.207  1.7505  0.0169  0.1321
 2532SOL    HW219230   1.486   3.817   6.350 -0.6235 -0.2266  0.4195
 2533SOL     OW19231   4.411   2.522   8.408  0.4374 -0.2691  0.1349
 2533SOL    HW119232   4.507   2.530   8.409  0.4742 -0.4520 -1.4229
 2533SOL    HW219233   4.403   2.453   8.474 -0.5361  0.4017  0.7136
 2534SOL     OW19234   0.894   1.697   7.132 -0.1137  0.5572  0.0731
 2534SOL    HW119235   0.837   1.763   7.093  0.3920  0.0471 -1.5295
 2534SOL    HW219236   0.847   1.615   7.145 -0.7561  1.1625  1.5908
 2535SOL     OW19237   2.304   0.102  16.901  0.2583 -0.1439  0.1086
 2535SOL    HW119238   2.253   0.027  16.870 -0.0971  0.4521 -0.7804
 2535SOL    HW219239   2.241   0.147  16.957 -0.5722  1.1120 -1.7946
 2536SOL     OW19240   0.497   2.652   3.010  0.2311 -0.5487  0.0017
 2536SOL    HW119241   0.444   2.711   3.064 -0.6916 -0.8591 -0.5568
 2536SOL    HW219242   0.495   2.565   3.050 -0.3212  0.5783  2.4048
 2537SOL     OW19243   1.587   3.616   4.472 -0.3886 -0.1195 -0.1354
 2537SOL    HW119244   1.554   3.632   4.383  1.9310  1.0790 -0.7811
 2537SOL    HW219245   1.664   3.673   4.469  0.5188 -1.3692 -0.5678
 2538SOL     OW19246   1.998   2.596  16.061  0.2653 -0.1125 -0.2370
 2538SOL    HW119247   1.955   2.666  16.110  1.6429  0.8599 -0.4123
 2538SOL    HW219248   1.988   2.519  16.117 -1.2324  0.3147  0.0918
 2539SOL     OW19249   3.857   4.691  10.662  0.3813  0.3537  0.6904
 2539SOL    HW119250   3.915   4.633  10.712 -0.2974 -0.7066  0.2402
 2539SOL    HW219251   3.826   4.634  10.592  1.5345  1.0236 -0.3651
 2540SOL     OW19252   0.305   3.172   5.731  0.2088  0.9377 -0.2475
 2540SOL    HW119253   0.363   3.242   5.701  0.1599  0.4966 -1.3600
 2540SOL    HW219254   0.225   3.187   5.681 -1.0070 -1.2212  1.0666
 2541SOL     OW19255   1.528   2.254   9.050  0.9634 -0.7836  0.1945
 2541SOL    HW119256   1.539   2.337   9.005  0.9816 -0.2142  1.2326
 2541SOL    HW219257   1.616   2.218   9.062  1.4856  0.2952 -0.3580
 2542SOL     OW19258   0.769   2.012   6.180  0.1106  0.2844 -0.5293
 2542SOL    HW119259   0.730   1.976   6.259 -1.0246  0.3501 -1.0578
 2542SOL    HW219260   0.837   2.054   6.232  0.2984 -1.2867  0.4892
 2543SOL     OW19261   2.369   4.074   2.371  0.1690  0.1027 -0.3527
 2543SOL    HW119262   2.417   4.142   2.418  1.4671 -1.8178  1.1174
 2543SOL    HW219263   2.307   4.124   2.318  0.9213 -0.8398 -2.1274
 2544SOL     OW19264   0.693   2.592  13.385  0.4364 -0.0969 -0.2001
 2544SOL    HW119265   0.764   2.651  13.412  0.0481 -0.0109  0.6366
 2544SOL    HW219266   0.686   2.621  13.294 -0.2183  0.0265 -0.1129
 2545SOL     OW19267   0.790   0.974   8.303 -0.7514  0.3745 -0.2255
 2545SOL    HW119268   0.783   0.975   8.207  2.8175 -0.4800 -0.4870
 2545SOL    HW219269   0.696   0.983   8.321 -0.5647 -0.4187  1.1408
 2546SOL     OW19270   2.523   3.772   6.006  0.1328 -0.2979  0.6353
 2546SOL    HW119271   2.618   3.780   6.002  0.3225 -2.1645  1.4781
 2546SOL    HW219272   2.497   3.864   6.006  2.4207  0.3248 -0.4741
 2547SOL     OW19273   0.661   4.721   8.575 -0.3201 -0.2756 -0.5159
 2547SOL    HW119274   0.655   4.629   8.600  1.0045 -0.5821 -1.2952
 2547SOL    HW219275   0.669   0.026   8.661  1.8836  0.7701 -1.2244
 2548SOL     OW19276   2.331   0.913   0.776 -0.1905 -0.0778 -0.3835
 2548SOL    HW119277   2.363   0.861   0.850  1.3251  0.6349 -0.5437
 2548SOL    HW219278   2.295   0.842   0.724 -1.1330  0.9361 -1.1199
 2549SOL     OW19279   3.366   2.800   7.791  0.3862  0.0468 -0.8038
 2549SOL    HW119280   3.415   2.751   7.725 -0.7196 -1.4957 -0.4862
 2549SOL    HW219281   3.430   2.867   7.814 -0.3476  0.7680 -0.8926
 2550SOL     OW19282   1.112   1.956  14.501  0.0069 -0.2382  0.3771
 2550SOL    HW119283   1.130   1.878  14.448 -1.5545  0.5093 -1.2515
 2550SOL    HW219284   1.058   2.012  14.445  1.0470  0.6219  0.2446
 2551SOL     OW19285   2.136   0.322  11.209 -0.1816  0.7364 -0.1009
 2551SOL    HW119286   2.067   0.255  11.202 -0.5046  0.8466  2.1831
 2551SOL    HW219287   2.114   0.369  11.129 -1.9688  1.8664  1.0612
 2552SOL     OW19288   2.040   0.618  11.668 -0.4673  0.3606 -0.2696
 2552SOL    HW119289   1.971   0.553  11.672 -3.6220  3.8376  2.2323
 2552SOL    HW219290   2.109   0.583  11.723  0.2685  0.6495 -1.0023
 2553SOL     OW19291   2.163   0.007   1.336  0.3828 -0.3651 -0.6044
 2553SOL    HW119292   2.176   0.094   1.375 -2.2376  1.2286 -3.2700
 2553SOL    HW219293   2.190   4.700   1.417  0.1767 -1.9144 -1.3923
 2554SOL     OW19294   3.946   2.146   0.743  0.6238  0.4092 -0.4957
 2554SOL    HW119295   4.001   2.193   0.805  0.0152  0.5034 -0.0240
 2554SOL    HW219296   4.012   2.088   0.706  3.0346  1.4930  2.1628
 2555SOL     OW19297   4.458   0.157  12.391  0.3286  0.1777  0.4086
 2555SOL    HW119298   4.463   0.062  12.392 -1.6895  0.0733  1.5279
 2555SOL    HW219299   4.491   0.175  12.303 -0.1311  0.1593  0.2319
 2556SOL     OW19300   3.541   4.115  17.338  0.4036 -0.2873 -0.3887
 2556SOL    HW119301   3.569   4.196  17.294 -2.4739 -0.5500 -2.6735
 2556SOL    HW219302   3.574   4.048  17.278  3.2058  1.6686 -1.0415
 2557SOL     OW19303   2.330   3.382   1.872 -0.2376 -0.1260  0.0626
 2557SOL    HW119304   2.286   3.302   1.844 -0.5163 -0.2001  0.7105
 2557SOL    HW219305   2.258   3.408   1.928 -0.6750 -2.1864  0.4608
 2558SOL     OW19306   3.817   0.988  12.379 -0.1788  0.0028 -0.5389
 2558SOL    HW119307   3.745   0.952  12.327 -0.0416 -0.0230 -0.7123
 2558SOL    HW219308   3.878   0.915  12.368 -0.2666 -0.1806  0.1576
 2559SOL     OW19309   3.178   3.795  12.009 -0.2370 -0.1520 -0.0934
 2559SOL    HW119310   3.272   3.805  11.993 -0.4579  2.6186  0.3814
 2559SOL    HW219311   3.169   3.846  12.090 -0.3930  0.4594 -0.4954
 2560SOL     OW19312   1.921   0.837   5.968  0.5353  0.0539  0.8306
 2560SOL    HW119313   1.872   0.891   6.030  0.3160 -1.4762  1.9752
 2560SOL    HW219314   1.887   0.749   5.982  0.3847  0.4486  2.8647
 2561SOL     OW19315   0.762   4.081   8.408  0.4496  0.8990 -0.1189
 2561SOL    HW119316   0.824   4.113   8.473  1.4706 -2.5440  0.6483
 2561SOL    HW219317   0.827   4.046   8.347 -0.0214  0.4244 -0.3493
 2562SOL     OW19318   0.992   0.278  13.303  0.3785 -0.0223  0.4324
 2562SOL    HW119319   0.902   0.246  13.291  0.5341 -0.6948  1.0762
 2562SOL    HW219320   1.027   0.201  13.348  0.4553  0.3268  0.9685
 2563SOL     OW19321   2.991   2.037   2.837  0.2242 -0.5506  0.3035
 2563SOL    HW119322   2.955   2.109   2.787 -0.4338 -1.6240 -0.7779
 2563SOL    HW219323   2.921   1.971   2.832 -0.0050 -0.4079  1.5075
 2564SOL     OW19324   1.537   1.823   5.147 -0.1519  0.1524  1.0231
 2564SOL    HW119325   1.451   1.792   5.118  0.9664 -1.8412 -0.1470
 2564SOL    HW219326   1.519   1.854   5.236 -1.8115  2.1640 -0.0312
 2565SOL     OW19327   3.571   3.961   1.776 -0.7130  0.6612 -0.4078
 2565SOL    HW119328   3.525   4.000   1.702 -0.0829  2.2562  0.0310
 2565SOL    HW219329   3.490   3.928   1.814  0.5437 -1.7891  0.1436
 2566SOL     OW19330   1.029   3.121   8.373 -0.1116 -0.5641  0.1256
 2566SOL    HW119331   0.987   3.066   8.438 -1.2335  0.7902  0.5435
 2566SOL    HW219332   0.967   3.194   8.362  2.7753  1.4358 -2.9680
 2567SOL     OW19333   0.143   2.918   4.241  0.4189 -0.0937 -0.6186
 2567SOL    HW119334   0.164   2.962   4.324  1.9448  0.1211 -1.1220
 2567SOL    HW219335   0.235   2.910   4.214 -0.1887  0.2584 -2.7784
 2568SOL     OW19336   1.901   3.137  16.580  0.1914 -0.0925 -0.6316
 2568SOL    HW119337   1.807   3.134  16.592  0.2055 -1.8685 -0.9418
 2568SOL    HW219338   1.919   3.230  16.593  2.2614 -0.4995 -0.5219
 2569SOL     OW19339   0.213   2.096   0.073  0.3821  0.6213 -0.4838
 2569SOL    HW119340   0.246   2.025   0.127 -0.9784  2.0610  2.2227
 2569SOL    HW219341   0.276   2.155   0.115  0.1843  1.1451 -0.9255
 2570SOL     OW19342   1.993   2.093   5.452 -0.1439 -0.0602 -0.3418
 2570SOL    HW119343   2.054   2.061   5.519  1.3230  0.1441 -1.5869
 2570SOL    HW219344   2.038   2.068   5.371 -0.0526 -1.4430  0.1378
 2571SOL     OW19345   1.848   0.499   5.220 -0.2428 -0.1249 -0.7940
 2571SOL    HW119346   1.779   0.563   5.208  0.7323  1.0157 -0.3418
 2571SOL    HW219347   1.801   0.420   5.193  1.2048 -0.5743 -2.0258
 2572SOL     OW19348   0.959   0.441  10.660 -0.0964  0.2428  0.5645
 2572SOL    HW119349   0.992   0.375  10.720  2.6876  0.0117 -1.2284
 2572SOL    HW219350   1.015   0.424  10.584 -2.4431 -1.5364 -0.7562
 2573SOL     OW19351   1.804   3.930   4.241  0.0749 -0.1049 -0.0359
 2573SOL    HW119352   1.878   3.937   4.181  0.5661  0.5121  0.6380
 2573SOL    HW219353   1.734   3.943   4.177  0.1609 -0.5255 -0.2170
 2574SOL     OW19354   1.543   0.461   2.721  0.1592  0.1919  0.3484
 2574SOL    HW119355   1.537   0.435   2.629 -3.2462 -2.1212  1.2413
 2574SOL    HW219356   1.637   0.452   2.736  0.3321 -0.9737 -1.4125
 2575SOL     OW19357   3.248   3.075  10.800  0.2937  0.5306 -0.3432
 2575SOL    HW119358   3.206   3.149  10.845 -2.4038 -0.6049 -0.9956
 2575SOL    HW219359   3.339   3.100  10.789  0.4889  0.2029  0.5361
 2576SOL     OW19360   2.744   1.950  16.986  0.0236  0.0206  0.3020
 2576SOL    HW119361   2.691   2.016  17.030  1.1148  0.3925  1.0793
 2576SOL    HW219362   2.709   1.947  16.897 -1.6203  1.1820  0.9229
 2577SOL     OW19363   1.232   2.310   4.800  0.4528 -0.0589 -0.0071
 2577SOL    HW119364   1.270   2.298   4.713 -1.1775 -2.1800 -0.4520
 2577SOL    HW219365   1.243   2.221   4.833 -1.2589 -0.2412  0.0886
 2578SOL     OW19366   2.107   2.631  13.969  0.0224  0.0456  0.0185
 2578SOL    HW119367   2.069   2.570  13.906 -0.4224 -1.4281  1.6925
 2578SOL    HW219368   2.042   2.636  14.039  0.5577  1.3097  0.4277
 2579SOL     OW19369   0.295   0.454   5.584  0.2012 -0.2654  0.0406
 2579SOL    HW119370   0.254   0.405   5.656  1.7717 -0.8241  0.5470
 2579SOL    HW219371   0.281   0.383   5.522  2.2397  1.3161 -2.2374
 2580SOL     OW19372   1.681   3.759   5.796 -0.0499  0.4708 -0.2762
 2580SOL    HW119373   1.715   3.696   5.859  0.2620  3.4477  2.5347
 2580SOL    HW219374   1.683   3.705   5.717 -3.7908  0.5805 -0.4663
 2581SOL     OW19375   1.386   1.180  12.003  0.1125 -0.2091 -0.0289
 2581SOL    HW119376   1.374   1.097  12.050 -1.2666  0.4864  0.8686
 2581SOL    HW219377   1.295   1.209  11.993  0.5765  1.0245 -0.6381
 2582SOL     OW19378   3.194   1.639  14.211 -0.0506 -0.0028  0.6228
 2582SOL    HW119379   3.194   1.733  14.194  3.0688 -0.3444 -1.3596
 2582SOL    HW219380   3.284   1.607  14.204 -0.2300  0.0850 -2.0703
 2583SOL     OW19381   3.515   2.178  12.627  0.0469 -0.1245 -0.0540
 2583SOL    HW119382   3.597   2.156  12.671  0.7950  1.1858 -0.8058
 2583SOL    HW219383   3.480   2.089  12.621  1.6147 -0.7805  0.6559
 2584SOL     OW19384   1.532   2.234   6.662 -0.1177  0.5671  0.5420
 2584SOL    HW119385   1.611   2.181   6.674 -0.0299  0.3232 -1.0354
 2584SOL    HW219386   1.561   2.317   6.700 -0.1395  1.5428 -1.5654
 2585SOL     OW19387   3.947   2.306   2.279 -0.1144  0.1340  0.7543
 2585SOL    HW119388   4.011   2.363   2.236  0.6608 -0.9585  0.4727
 2585SOL    HW219389   3.997   2.224   2.281 -0.8472 -0.3650 -1.3079
 2586SOL     OW19390   2.292   0.890   7.849  0.0455  0.0551 -0.0797
 2586SOL    HW119391   2.284   0.802   7.811 -2.1876  0.7895 -1.3348
 2586SOL    HW219392   2.366   0.929   7.804 -0.4881 -1.6282 -2.4232
 2587SOL     OW19393   2.407   4.690  13.941 -0.1137 -0.3171 -0.3983
 2587SOL    HW119394   2.470   4.720  13.876 -0.5449 -0.2624 -0.7880
 2587SOL    HW219395   2.339   0.020  13.937 -0.0448 -0.1092  1.6418
 2588SOL     OW19396   1.559   3.918   0.365  0.1877 -0.1835 -0.0073
 2588SOL    HW119397   1.585   3.991   0.421 -2.3361 -0.3377  1.3799
 2588SOL    HW219398   1.643   3.885   0.332 -0.6388  0.9160 -3.1768
 2589SOL     OW19399   0.425   1.778   0.857  0.4241 -0.4057 -0.2901
 2589SOL    HW119400   0.477   1.703   0.885 -0.7316 -0.5221  1.5453
 2589SOL    HW219401   0.490   1.845   0.837 -0.2664  0.1314 -0.7312
 2590SOL     OW19402   2.370   2.732   9.049 -0.0343  0.2967  0.0393
 2590SOL    HW119403   2.288   2.694   9.080  0.4304 -0.9003 -0.1755
 2590SOL    HW219404   2.392   2.797   9.115 -0.5389 -1.9552  2.4078
 2591SOL     OW19405   1.938   3.189   2.710  0.2204  0.6093  0.1703
 2591SOL    HW119406   1.946   3.162   2.802 -1.8226  0.3901  0.2787
 2591SOL    HW219407   1.883   3.267   2.716  0.7727  1.0929 -1.0272
 2592SOL     OW19408   4.357   1.239   8.961 -0.0223 -0.3546  0.0287
 2592SOL    HW119409   4.403   1.178   9.019  1.4800  2.1159  1.4562
 2592SOL    HW219410   4.394   1.325   8.985 -1.2852  0.3507 -0.5737
 2593SOL     OW19411   0.896   0.836  14.365 -0.6471 -0.4801 -0.3599
 2593SOL    HW119412   0.992   0.835  14.360 -0.6167 -0.5450  0.2023
 2593SOL    HW219413   0.893   0.856  14.459 -0.3294 -1.2807 -0.1797
 2594SOL     OW19414   1.128   0.749   3.593 -0.1522  0.7074 -0.5557
 2594SOL    HW119415   1.130   0.820   3.657 -1.6601  1.1899 -1.0380
 2594SOL    HW219416   1.038   0.717   3.601  0.3192 -0.1877  1.0105
 2595SOL     OW19417   2.170   3.221   2.319  0.2435 -0.5804  0.5418
 2595SOL    HW119418   2.243   3.271   2.355 -1.2472  2.8593 -1.1611
 2595SOL    HW219419   2.173   3.139   2.367  1.2194 -0.1952  1.1365
 2596SOL     OW19420   2.424   1.704   8.321  0.3326  0.4003  0.0760
 2596SOL    HW119421   2.393   1.734   8.407 -3.0393  0.5990 -1.2062
 2596SOL    HW219422   2.373   1.624   8.308  1.0236  0.2932 -1.9469
 2597SOL     OW19423   4.050   1.675  17.747 -0.0071 -0.7908  0.4539
 2597SOL    HW119424   3.967   1.629   0.016  0.3908 -1.6311  0.1213
 2597SOL    HW219425   4.120   1.609  17.742 -1.8295 -2.5138 -2.4685
 2598SOL     OW19426   4.301   1.111   6.979  0.4010  0.6492 -0.0341
 2598SOL    HW119427   4.214   1.073   6.984 -0.2040  1.7093 -2.7592
 2598SOL    HW219428   4.304   1.161   6.898 -1.9195  1.2309  0.2464
 2599SOL     OW19429   2.034   0.404  10.957  0.4050 -0.2098 -0.2262
 2599SOL    HW119430   2.106   0.396  10.894 -0.4999 -3.3876 -0.8343
 2599SOL    HW219431   1.965   0.374  10.899 -0.6206  1.7057  0.0213
 2600SOL     OW19432   2.707   1.748   3.902 -0.3360 -0.3607  0.2947
 2600SOL    HW119433   2.667   1.827   3.865  2.4812  1.7963  1.8431
 2600SOL    HW219434   2.793   1.778   3.932  0.7867 -0.2871 -3.0438
 2601SOL     OW19435   0.263   4.571   4.304  0.0857  0.0723 -0.3291
 2601SOL    HW119436   0.246   4.519   4.383  3.4984 -0.7656 -0.1187
 2601SOL    HW219437   0.353   4.545   4.281 -0.0883 -1.5001  0.7303
 2602SOL     OW19438   3.539   2.621   4.185 -0.7296  0.3922 -0.1362
 2602SOL    HW119439   3.630   2.600   4.205 -0.7035 -0.2062 -0.8928
 2602SOL    HW219440   3.516   2.569   4.108 -4.0136  0.2156  0.9277
 2603SOL     OW19441   1.061   3.891   7.253 -0.6637 -0.3058 -0.2288
 2603SOL    HW119442   0.975   3.854   7.232 -1.0696  0.8377 -0.5914
 2603SOL    HW219443   1.029   3.977   7.282  0.7510  0.0430  0.3003
 2604SOL     OW19444   4.257   2.544   6.619  0.8301 -0.5477  0.4931
 2604SOL    HW119445   4.309   2.518   6.694  1.3375 -0.6261  0.1181
 2604SOL    HW219446   4.264   2.639   6.604 -1.6276  0.0316  3.0068
 2605SOL     OW19447   2.450   0.752  16.666  0.3885 -0.1869 -0.8761
 2605SOL    HW119448   2.493   0.722  16.746 -1.4043  2.0044  0.9090
 2605SOL    HW219449   2.403   0.680  16.625  1.7780 -1.5940  0.0295
 2606SOL     OW19450   3.713   1.899   0.260  0.1926  0.2976  0.9105
 2606SOL    HW119451   3.639   1.958   0.245  0.7946  0.5824 -0.9101
 2606SOL    HW219452   3.735   1.868   0.172 -0.7891  0.5694  0.5685
 2607SOL     OW19453   2.654   3.931  15.120 -0.3704 -0.1719 -0.1024
 2607SOL    HW119454   2.575   3.887  15.089 -0.0945 -0.8085  0.1186
 2607SOL    HW219455   2.728   3.876  15.096  1.8011  1.0085  3.9870
 2608SOL     OW19456   3.690   3.093   5.405 -0.1212  0.6826  0.2703
 2608SOL    HW119457   3.645   3.063   5.484 -1.2812  0.8535 -0.3265
 2608SOL    HW219458   3.647   3.177   5.391 -1.8091 -0.3173 -0.6428
 2609SOL     OW19459   0.422   0.677   4.553  0.8646  0.1170 -0.5399
 2609SOL    HW119460   0.347   0.730   4.580 -1.0268 -1.6511 -2.2357
 2609SOL    HW219461   0.393   0.653   4.465 -1.2711  1.6137 -0.2440
 2610SOL     OW19462   2.983   3.877   2.724  0.2179  0.4675 -0.0577
 2610SOL    HW119463   3.021   3.824   2.654 -0.4121  0.5785 -0.4821
 2610SOL    HW219464   2.899   3.902   2.687 -0.9262 -0.6049  1.7748
 2611SOL     OW19465   2.939   2.661   4.835 -0.2126 -0.1968 -0.3558
 2611SOL    HW119466   2.978   2.603   4.899  0.8134  1.1091  0.2023
 2611SOL    HW219467   2.938   2.740   4.890 -0.2136 -0.9706  0.7473
 2612SOL     OW19468   4.334   2.422   1.082 -0.5509  0.2716 -0.1754
 2612SOL    HW119469   4.363   2.462   1.164 -0.0277 -0.3440 -0.0621
 2612SOL    HW219470   4.394   2.462   1.019 -1.0665  0.6034 -0.4580
 2613SOL     OW19471   2.362   1.581   2.919  0.0965  0.5586 -0.1438
 2613SOL    HW119472   2.277   1.608   2.883  0.3323  0.7873 -0.5253
 2613SOL    HW219473   2.367   1.502   2.866  2.0438  0.9338 -0.5030
 2614SOL     OW19474   3.370   3.174   8.173  0.5654  0.7150  0.3977
 2614SOL    HW119475   3.339   3.168   8.263 -0.1456  0.4443  0.1365
 2614SOL    HW219476   3.464   3.186   8.190  0.4056  0.7940  1.2303
 2615SOL     OW19477   2.016   4.559   9.018 -0.3002  0.3157  0.1291
 2615SOL    HW119478   2.011   4.464   9.009 -2.0725  0.3554  0.8625
 2615SOL    HW219479   1.946   4.575   8.955  0.5910 -1.2784 -1.2838
 2616SOL     OW19480   3.959   0.481   2.615  0.4120 -0.0516 -0.6288
 2616SOL    HW119481   3.874   0.461   2.575  0.1027 -0.2796  0.1469
 2616SOL    HW219482   3.975   0.396   2.655  0.0426  0.3407  0.3407
 2617SOL     OW19483   3.309   0.435  16.212 -0.1025 -0.0872 -0.8224
 2617SOL    HW119484   3.239   0.461  16.272  1.1861 -0.4733  0.8205
 2617SOL    HW219485   3.371   0.507  16.225 -1.0750  0.7215 -0.6283
 2618SOL     OW19486   1.399   1.765   3.610  0.2493  0.4018 -0.5205
 2618SOL    HW119487   1.474   1.714   3.580  2.4775  1.5146  3.1595
 2618SOL    HW219488   1.377   1.806   3.526 -0.0636  1.6680  0.1757
 2619SOL     OW19489   2.603   4.660   8.351 -0.4851  0.0568  1.0487
 2619SOL    HW119490   2.553   4.674   8.271  0.6215 -0.8031  0.2216
 2619SOL    HW219491   2.562   4.715   8.418 -1.8182  3.3061 -2.4615
 2620SOL     OW19492   1.146   2.542   4.188 -0.0546  0.0946 -0.2983
 2620SOL    HW119493   1.229   2.502   4.163  0.0064 -1.6562  2.6349
 2620SOL    HW219494   1.116   2.570   4.102  1.1793  1.2086 -0.3674
 2621SOL     OW19495   1.491   4.487   4.483  1.0438  0.9677  0.6355
 2621SOL    HW119496   1.459   4.430   4.554 -0.7276 -0.4451 -1.2856
 2621SOL    HW219497   1.432   4.560   4.500 -1.1354  0.2456 -3.8603
 2622SOL     OW19498   3.675   1.646   7.181  0.1380  0.2887 -0.2263
 2622SOL    HW119499   3.691   1.673   7.272 -0.1204 -0.8297  0.1674
 2622SOL    HW219500   3.665   1.731   7.139  0.1508  1.0699  1.3558
 2623SOL     OW19501   1.329   3.207  17.012  0.1162  0.5774  0.6535
 2623SOL    HW119502   1.238   3.208  16.981  0.8750 -2.1794 -1.6256
 2623SOL    HW219503   1.336   3.224  17.106 -0.0898  0.9071  0.6102
 2624SOL     OW19504   1.017   4.599  16.046 -0.0364 -0.3440 -0.4033
 2624SOL    HW119505   1.089   4.540  16.024 -0.4877 -1.6041  1.5565
 2624SOL    HW219506   1.060   4.676  16.009 -0.4304  0.5148  0.9219
 2625SOL     OW19507   2.375   1.516   1.722 -0.4474  0.2341 -0.2631
 2625SOL    HW119508   2.418   1.553   1.644  3.6698  0.1755  2.0080
 2625SOL    HW219509   2.389   1.588   1.784  0.6964 -2.3973  2.5190
 2626SOL     OW19510   1.207   4.334   7.906 -0.4798 -0.4094 -0.4856
 2626SOL    HW119511   1.201   4.266   7.839 -1.1533 -0.4712 -0.3607
 2626SOL    HW219512   1.299   4.317   7.923 -0.9157  0.0544  2.3145
 2627SOL     OW19513   2.317   0.177   5.498  0.5137  0.1156  0.1514
 2627SOL    HW119514   2.249   0.153   5.434 -0.3531 -0.5627  1.3244
 2627SOL    HW219515   2.324   0.272   5.502  1.0602  0.1527 -1.6849
 2628SOL     OW19516   3.753   1.095   2.969  0.3410  0.3869 -0.3518
 2628SOL    HW119517   3.810   1.063   3.039 -2.3794 -1.6877  0.9048
 2628SOL    HW219518   3.777   1.031   2.902  2.9927  0.3041  0.6900
 2629SOL     OW19519   2.282   1.857   8.796 -0.0821 -0.0718  0.0283
 2629SOL    HW119520   2.197   1.868   8.837  1.8028  3.4402  3.0576
 2629SOL    HW219521   2.311   1.770   8.823  1.9847  0.2175 -1.2325
 2630SOL     OW19522   3.916   2.046   3.975 -0.0819  0.0408 -0.6013
 2630SOL    HW119523   3.937   2.119   4.033  1.4696 -1.8131  1.1991
 2630SOL    HW219524   3.823   2.066   3.980  0.0484  1.1494 -3.0011
 2631SOL     OW19525   2.013   4.022   2.961  0.2717 -0.3258 -0.0208
 2631SOL    HW119526   1.967   3.960   2.904  0.5246 -0.9596  0.4698
 2631SOL    HW219527   2.106   4.015   2.941  1.0819  2.8138  2.6793
 2632SOL     OW19528   4.336   1.114   5.876 -0.1466 -0.6108  0.4164
 2632SOL    HW119529   4.301   1.201   5.896  1.5944  0.5241 -1.3783
 2632SOL    HW219530   4.325   1.104   5.781 -0.0736  0.8136  0.2487
 2633SOL     OW19531   1.777   4.298   7.065 -0.0821 -0.2545 -0.6677
 2633SOL    HW119532   1.763   4.366   7.000 -1.0159  1.5084  1.3677
 2633SOL    HW219533   1.729   4.222   7.031  0.8288 -0.8619 -0.5996
 2634SOL     OW19534   0.042   3.875   1.132 -0.1372 -0.2006  0.7604
 2634SOL    HW119535   4.706   3.921   1.174  1.5623  1.4838  1.8870
 2634SOL    HW219536   0.028   3.906   1.043 -0.0175 -2.3138 -0.0024
 2635SOL     OW19537   3.812   2.017   8.519  0.2231  0.5153  0.2533
 2635SOL    HW119538   3.784   1.925   8.519  1.1493  0.2416 -0.8333
 2635SOL    HW219539   3.725   2.056   8.510  0.1045  0.5298  1.4032
 2636SOL     OW19540   1.673   1.755   8.084 -0.0515 -0.1499  0.3209
 2636SOL    HW119541   1.593   1.772   8.133 -0.3229 -1.1600  0.2302
 2636SOL    HW219542   1.635   1.707   8.010  1.3825  2.9339 -2.3996
 2637SOL     OW19543   2.326   4.614   6.120 -0.1383 -0.8798 -0.2720
 2637SOL    HW119544   2.381   4.578   6.050  2.8407  1.5576  0.8110
 2637SOL    HW219545   2.350   4.554   6.191  0.4012 -0.9423 -0.5079
 2638SOL     OW19546   3.259   3.510   1.657  0.0478 -0.1456 -0.0666
 2638SOL    HW119547   3.163   3.513   1.655 -0.0359 -2.5657 -0.5461
 2638SOL    HW219548   3.275   3.415   1.660  1.6396  0.0241 -2.5944
 2639SOL     OW19549   2.958   0.442   4.702  0.1222  0.1243  0.2896
 2639SOL    HW119550   3.010   0.477   4.775 -0.5285  3.0231 -0.6200
 2639SOL    HW219551   2.901   0.516   4.681  0.2884  0.7066  1.8601
 2640SOL     OW19552   1.809   0.000   1.454  0.1504 -0.3089  0.0920
 2640SOL    HW119553   1.734   0.005   1.514  0.0312  0.4504 -0.1237
 2640SOL    HW219554   1.823   0.094   1.462  0.6878 -0.4037  0.2476
 2641SOL     OW19555   1.701   3.579   5.586 -0.1363  0.0582  0.7939
 2641SOL    HW119556   1.766   3.515   5.616 -1.0948  0.3480  3.5199
 2641SOL    HW219557   1.746   3.625   5.516  0.9200 -1.9571  0.1313
 2642SOL     OW19558   4.223   4.591   7.258  0.2631 -0.4060 -0.3785
 2642SOL    HW119559   4.239   4.677   7.298  0.5423 -0.5403 -0.2056
 2642SOL    HW219560   4.152   4.621   7.201  0.4115  2.1829  0.7669
 2643SOL     OW19561   3.035   1.169  10.600  0.7978  0.0051  0.3179
 2643SOL    HW119562   2.951   1.186  10.557  0.1852  2.1060  2.3670
 2643SOL    HW219563   3.091   1.155  10.523  1.5307  2.2543  0.4215
 2644SOL     OW19564   0.276   2.021   6.506 -0.5973  0.1050  0.2660
 2644SOL    HW119565   0.280   2.005   6.411 -0.8382  2.3414 -0.1206
 2644SOL    HW219566   0.306   1.935   6.535  0.2637 -0.0771 -1.1291
 2645SOL     OW19567   0.464   0.335  16.502 -0.0119 -0.0172 -0.9584
 2645SOL    HW119568   0.479   0.264  16.439 -1.1153 -1.7008  0.6644
 2645SOL    HW219569   0.401   0.310  16.570 -0.5805  1.4803 -0.9504
 2646SOL     OW19570   4.484   2.504   9.077  0.0193 -0.3977 -0.4187
 2646SOL    HW119571   4.403   2.550   9.055 -0.0463 -1.2142 -1.8656
 2646SOL    HW219572   4.513   2.550   9.156  2.5438 -2.8888  0.1156
 2647SOL     OW19573   0.718   1.879   4.895  0.7282  0.6499  0.2735
 2647SOL    HW119574   0.708   1.799   4.843 -0.1605  2.1885 -1.9434
 2647SOL    HW219575   0.626   1.905   4.900 -0.0816 -1.7759 -1.9412
 2648SOL     OW19576   0.926   3.883  17.134  0.2998  0.2512  0.2772
 2648SOL    HW119577   0.949   3.862  17.044 -0.3585 -0.5319  0.2897
 2648SOL    HW219578   0.838   3.846  17.131 -0.1248  1.1907  0.9998
 2649SOL     OW19579   3.802   4.708  13.183  0.3410  0.1849 -0.6853
 2649SOL    HW119580   3.837   4.660  13.259 -0.1181 -0.5705 -0.9476
 2649SOL    HW219581   3.711   4.721  13.211  0.7856 -1.1507  1.4223
 2650SOL     OW19582   4.622   1.140   7.419  0.2244 -0.0149  0.2709
 2650SOL    HW119583   4.681   1.180   7.483  2.0517 -1.3279 -0.6226
 2650SOL    HW219584   4.643   1.047   7.421 -0.7680 -0.2557 -0.2848
 2651SOL     OW19585   3.460   3.682   1.700  0.0281 -0.6403  0.0299
 2651SOL    HW119586   3.389   3.624   1.674  0.2148 -0.0196 -1.8197
 2651SOL    HW219587   3.420   3.735   1.769 -0.4422  0.4218 -1.0539
 2652SOL     OW19588   3.250   3.738   6.588 -0.1835  0.4814  0.3903
 2652SOL    HW119589   3.164   3.778   6.578 -0.5743 -0.3604  0.4013
 2652SOL    HW219590   3.235   3.670   6.653  1.1976 -0.5019 -0.3355
 2653SOL     OW19591   1.935   2.456   9.221 -0.0243  0.1293  0.2343
 2653SOL    HW119592   1.859   2.515   9.221 -0.9283 -1.0253 -0.5632
 2653SOL    HW219593   1.911   2.401   9.296 -1.0409  2.3702  1.5258
 2654SOL     OW19594   1.029   4.033   6.533 -0.4013  0.3027  0.4163
 2654SOL    HW119595   1.096   3.992   6.479  0.8698  1.8154  0.8445
 2654SOL    HW219596   0.961   4.052   6.468 -0.2831  1.2216  0.5610
 2655SOL     OW19597   2.185   3.784   4.561 -0.1542 -0.1019  0.1252
 2655SOL    HW119598   2.278   3.805   4.547 -0.7946  3.2941  1.0019
 2655SOL    HW219599   2.152   3.844   4.494  0.0770  0.4079  0.4739
 2656SOL     OW19600   1.255   2.598  12.266  0.0623 -0.3692  0.2449
 2656SOL    HW119601   1.327   2.608  12.204  0.6401  1.2003  1.1689
 2656SOL    HW219602   1.186   2.657  12.237 -0.9496 -0.8065  1.7784
 2657SOL     OW19603   2.131   1.659  13.704  0.4274  0.1058 -0.8978
 2657SOL    HW119604   2.043   1.672  13.668 -0.0373 -0.4429  0.0549
 2657SOL    HW219605   2.183   1.695  13.632 -0.0825 -0.2693 -1.4520
 2658SOL     OW19606   3.391   4.429   9.353 -0.4834 -0.2256 -0.0399
 2658SOL    HW119607   3.402   4.334   9.359 -3.9596 -0.3824  3.7464
 2658SOL    HW219608   3.453   4.457   9.422 -1.0762 -2.2836  1.3128
 2659SOL     OW19609   2.155   2.055  17.107 -0.0867 -0.2981  0.5569
 2659SOL    HW119610   2.249   2.075  17.110 -0.1057  0.1319 -1.5106
 2659SOL    HW219611   2.163   1.965  17.140 -1.6853 -0.2075  1.1585
 2660SOL     OW19612   1.350   0.578  12.683 -0.5978 -0.2368  0.0476
 2660SOL    HW119613   1.342   0.575  12.587 -0.6505 -0.1838  0.0505
 2660SOL    HW219614   1.404   0.657  12.684 -0.9167 -0.0281  0.6014
 2661SOL     OW19615   3.774   1.192   2.678 -0.4507  0.3894 -0.2145
 2661SOL    HW119616   3.866   1.219   2.672 -0.4112  0.1373 -0.7443
 2661SOL    HW219617   3.782   1.105   2.719  0.6502  0.0141 -1.2321
 2662SOL     OW19618   1.278   3.331   0.607 -0.4756  1.0660  0.7120
 2662SOL    HW119619   1.188   3.351   0.635 -1.0621  0.5487 -0.8085
 2662SOL    HW219620   1.297   3.262   0.671  0.7220 -0.4629 -1.2806
 2663SOL     OW19621   1.264   0.832   5.230  0.0197  0.7216  0.0266
 2663SOL    HW119622   1.180   0.843   5.275 -1.3730 -2.9983 -1.6131
 2663SOL    HW219623   1.297   0.920   5.246  0.3839  0.8956 -1.6876
 2664SOL     OW19624   2.450   2.912   4.121  0.1471  0.5064  0.2501
 2664SOL    HW119625   2.381   2.888   4.183  0.7729 -3.6335 -0.6491
 2664SOL    HW219626   2.408   2.955   4.047  0.8408 -1.1630 -1.1321
 2665SOL     OW19627   1.830   3.578  10.411  0.0564 -0.2107 -0.7035
 2665SOL    HW119628   1.908   3.529  10.435 -0.3342  0.0819  1.1623
 2665SOL    HW219629   1.855   3.657  10.362 -0.8235  0.0386 -0.7717
 2666SOL     OW19630   0.459   3.930  16.882  0.0918 -0.0339 -0.3760
 2666SOL    HW119631   0.422   3.849  16.847  0.1399 -0.3337  0.2555
 2666SOL    HW219632   0.547   3.898  16.900 -1.0107 -3.1504 -0.4631
 2667SOL     OW19633   0.852   1.601   3.720  0.1268  0.6373  0.0880
 2667SOL    HW119634   0.911   1.654   3.668  0.2833  0.7990  0.4321
 2667SOL    HW219635   0.818   1.535   3.660  1.2784  1.5628 -1.5685
 2668SOL     OW19636   4.527   2.687   7.111 -0.0257  0.4451  0.4610
 2668SOL    HW119637   4.556   2.602   7.146 -0.6835  0.2213  0.4741
 2668SOL    HW219638   4.597   2.711   7.051  0.1865 -1.8168 -0.1989
 2669SOL     OW19639   0.058   4.616   0.051  0.3532  0.4243  0.3062
 2669SOL    HW119640   0.059   4.707   0.080  3.6816 -0.1562  1.9495
 2669SOL    HW219641   0.145   4.577   0.057 -0.5321 -1.6255  0.0013
 2670SOL     OW19642   2.117   0.545  13.117  0.4805  0.3234  0.5507
 2670SOL    HW119643   2.176   0.470  13.111 -0.3319 -0.3434  1.1641
 2670SOL    HW219644   2.106   0.567  13.024 -1.8722  1.8675  1.2113
 2671SOL     OW19645   1.351   2.695   7.037  0.3539  0.2957  0.3657
 2671SOL    HW119646   1.389   2.762   6.981  0.5682 -0.5893 -0.5484
 2671SOL    HW219647   1.375   2.735   7.121 -1.0065  1.2359  0.3142
 2672SOL     OW19648   2.451   1.746   6.168 -0.3351  0.4760  0.0642
 2672SOL    HW119649   2.362   1.742   6.203 -0.1725  1.6706  0.6139
 2672SOL    HW219650   2.484   1.809   6.233 -0.7581  0.3763  0.3727
 2673SOL     OW19651   4.711   1.421  13.168  0.2443 -0.5407 -0.4665
 2673SOL    HW119652   4.618   1.443  13.159  0.6611  1.0441 -0.8690
 2673SOL    HW219653   4.728   1.426  13.074  3.0205  0.5157  0.0940
 2674SOL     OW19654   0.855   0.518   3.379 -0.0732 -0.2016 -0.0179
 2674SOL    HW119655   0.838   0.437   3.332  0.7918  0.4670 -1.4905
 2674SOL    HW219656   0.949   0.527   3.365 -0.0839 -0.7185 -0.4019
 2675SOL     OW19657   0.466   0.217   2.677 -0.4153 -0.0996 -0.4030
 2675SOL    HW119658   0.548   0.169   2.684 -1.9479 -2.9989 -2.5147
 2675SOL    HW219659   0.402   0.147   2.667  2.1270 -2.5319  0.7464
 2676SOL     OW19660   2.878   3.322   5.528  0.1323  0.5002  0.2568
 2676SOL    HW119661   2.902   3.411   5.552  2.3311 -0.2407  0.7929
 2676SOL    HW219662   2.783   3.332   5.535  0.3889  2.5262  0.8116
 2677SOL     OW19663   3.721   3.933   2.380  0.0955 -0.5294 -0.2249
 2677SOL    HW119664   3.795   3.875   2.362  0.4332  0.6642 -2.6694
 2677SOL    HW219665   3.656   3.904   2.316 -0.8215  1.3182 -0.1243
 2678SOL     OW19666   1.905   3.146   6.657 -0.0159  0.0840 -0.2451
 2678SOL    HW119667   2.000   3.156   6.666  0.1410 -2.1873  0.6269
 2678SOL    HW219668   1.874   3.212   6.720 -0.0965  0.9948 -1.2435
 2679SOL     OW19669   3.386   3.971  12.055 -0.3020 -0.5052  0.2452
 2679SOL    HW119670   3.345   4.046  12.011  0.3099  0.3484  1.1142
 2679SOL    HW219671   3.474   4.009  12.057 -0.2440 -0.6377  0.1395
 2680SOL     OW19672   2.649   1.531   6.123 -0.5731 -0.5509  0.2781
 2680SOL    HW119673   2.693   1.531   6.208  0.0747  3.5202 -0.0628
 2680SOL    HW219674   2.596   1.611   6.128 -0.8550 -0.6605 -0.9068
 2681SOL     OW19675   4.663   0.044   8.160  0.3006  0.4379 -0.2154
 2681SOL    HW119676   4.673   0.066   8.252 -0.6748  2.1933 -0.5244
 2681SOL    HW219677   4.704   0.120   8.118 -2.8431  2.9151  1.1342
 2682SOL     OW19678   2.733   2.167  10.502  0.1891 -0.2941 -0.2471
 2682SOL    HW119679   2.658   2.126  10.460 -1.1631  0.5038  1.3631
 2682SOL    HW219680   2.787   2.089  10.515 -0.6640 -0.9004 -0.3599
 2683SOL     OW19681   2.694   3.567   8.397 -0.0199 -0.2460  0.6112
 2683SOL    HW119682   2.636   3.506   8.443 -0.6593  0.5981  0.9385
 2683SOL    HW219683   2.650   3.564   8.312  0.4994  2.6935  0.2198
 2684SOL     OW19684   0.010   0.978   4.685 -0.5956 -0.2197  0.1863
 2684SOL    HW119685   4.657   0.958   4.658 -0.1154 -0.0520 -1.5947
 2684SOL    HW219686   0.004   1.051   4.746  1.8813 -0.2663  0.4921
 2685SOL     OW19687   0.759   2.835   4.791  0.5731  0.1148 -0.6132
 2685SOL    HW119688   0.759   2.742   4.815  1.9795  0.0917 -0.7234
 2685SOL    HW219689   0.760   2.831   4.695  1.2735  0.3026 -0.6098
 2686SOL     OW19690   2.629   3.691   9.740  0.4856 -0.2884  0.2706
 2686SOL    HW119691   2.652   3.603   9.710 -1.4053 -1.3219  1.8458
 2686SOL    HW219692   2.632   3.682   9.835 -2.3611  1.1155  0.4807
 2687SOL     OW19693   2.373   4.685  10.645  0.1320  0.2087 -0.1803
 2687SOL    HW119694   2.400   0.001  10.570  1.2055  0.9592  0.7317
 2687SOL    HW219695   2.340   0.012  10.708 -1.1861 -0.5403 -0.1050
 2688SOL     OW19696   0.931   2.675   2.646  0.1570  0.2235  0.0852
 2688SOL    HW119697   1.014   2.636   2.618  0.1569 -0.1619  0.6205
 2688SOL    HW219698   0.865   2.626   2.596  1.6135 -0.5440 -1.0804
 2689SOL     OW19699   2.441   0.482   2.885  0.2019 -0.0119 -0.1064
 2689SOL    HW119700   2.492   0.497   2.964  1.2390 -0.2336 -0.7403
 2689SOL    HW219701   2.497   0.441   2.820  0.1309 -0.3333  0.0315
 2690SOL     OW19702   0.879   1.108   5.402 -0.4458 -0.3108  0.1543
 2690SOL    HW119703   0.882   1.161   5.482 -0.2000  0.6611 -0.4974
 2690SOL    HW219704   0.785   1.091   5.411 -0.5064 -0.8973 -1.5569
 2691SOL     OW19705   2.426   2.076   8.738 -0.0260  0.2718  0.5494
 2691SOL    HW119706   2.352   2.136   8.751 -0.3930  0.3760 -2.1588
 2691SOL    HW219707   2.386   1.999   8.779 -1.3084  1.7413  2.0612
 2692SOL     OW19708   0.607   4.513   3.720 -0.2090  0.0709 -0.1843
 2692SOL    HW119709   0.577   4.455   3.650  0.7840 -1.1164  0.3730
 2692SOL    HW219710   0.703   4.508   3.717 -0.1711 -0.1242  1.1558
 2693SOL     OW19711   2.227   4.620  11.527 -0.0607  0.0546  0.0667
 2693SOL    HW119712   2.172   4.608  11.604  0.3405 -0.7921  0.2166
 2693SOL    HW219713   2.308   4.581  11.558 -0.6650 -1.7067 -0.5720
 2694SOL     OW19714   0.138   1.472   2.090 -0.3485 -0.0757 -0.3312
 2694SOL    HW119715   0.078   1.397   2.097  0.4774 -0.7105 -0.0324
 2694SOL    HW219716   0.079   1.545   2.106 -0.1274 -0.2736  1.3965
 2695SOL     OW19717   0.741   1.720   7.434  0.1477  0.3574 -0.8028
 2695SOL    HW119718   0.757   1.630   7.405  0.7660  0.7401 -1.6383
 2695SOL    HW219719   0.701   1.750   7.352 -1.0418  0.1695 -0.2873
 2696SOL     OW19720   4.019   0.378   3.798 -0.7883  0.3157 -0.3185
 2696SOL    HW119721   4.100   0.341   3.835 -1.4526 -0.3964  0.4090
 2696SOL    HW219722   3.991   0.430   3.873 -1.5138 -0.1102 -0.2975
 2697SOL     OW19723   2.698   2.097   7.048 -0.5271 -0.3648 -0.1222
 2697SOL    HW119724   2.691   2.073   7.140 -0.8326  0.9528  0.1883
 2697SOL    HW219725   2.741   2.182   7.048  3.2124 -2.2249  1.8842
 2698SOL     OW19726   2.354   3.883   1.639  0.3697 -1.3333 -0.0982
 2698SOL    HW119727   2.358   3.973   1.672  0.2164 -1.2559 -0.2966
 2698SOL    HW219728   2.445   3.860   1.621  0.5328 -0.2693 -0.6214
 2699SOL     OW19729   1.268   2.789   5.252  0.1725 -0.2351  0.9104
 2699SOL    HW119730   1.282   2.734   5.175  1.7475  2.1477 -0.5001
 2699SOL    HW219731   1.193   2.848   5.237  0.9474  0.5324  0.0793
 2700SOL     OW19732   0.518   0.175   3.480  0.0034 -0.1452 -0.0735
 2700SOL    HW119733   0.468   0.183   3.561  1.0324  0.0537  0.5452
 2700SOL    HW219734   0.521   0.261   3.438 -0.5726  0.7666  1.7787
 2701SOL     OW19735   0.778   3.022   4.271 -0.4236  0.1284  0.9171
 2701SOL    HW119736   0.765   3.074   4.191  0.8975  1.6407  1.6817
 2701SOL    HW219737   0.857   2.974   4.247 -0.5558 -0.7706  2.2945
 2702SOL     OW19738   0.100   2.530   4.746  0.4321  0.5305  0.3577
 2702SOL    HW119739   0.138   2.442   4.741  2.4651  1.4277  0.0115
 2702SOL    HW219740   0.146   2.570   4.672 -3.5938 -0.9129 -2.9414
 2703SOL     OW19741   0.611   1.236   9.148 -0.0489 -0.5978 -0.1782
 2703SOL    HW119742   0.520   1.246   9.119  0.2847  0.7704 -0.7451
 2703SOL    HW219743   0.636   1.173   9.080 -1.1490  0.2579 -1.4005
 2704SOL     OW19744   3.688   3.043   9.612 -0.1113 -0.5965 -0.1524
 2704SOL    HW119745   3.782   3.046   9.626 -0.2317 -0.6417  0.7139
 2704SOL    HW219746   3.681   3.038   9.517 -2.5099 -0.0674 -0.0225
 2705SOL     OW19747   1.619   4.718  14.604  0.3256  0.4801 -0.2777
 2705SOL    HW119748   1.565   0.046  14.560  1.1633 -0.8039 -3.1803
 2705SOL    HW219749   1.563   4.686  14.675  2.6143  0.7663  1.6456
 2706SOL     OW19750   1.413   2.401  13.396 -0.2091 -0.5234  0.4642
 2706SOL    HW119751   1.460   2.322  13.368  0.2203 -0.2133  0.3155
 2706SOL    HW219752   1.461   2.411  13.478 -0.1663  0.6979  0.2925
 2707SOL     OW19753   4.224   0.740   6.196 -0.5426 -0.4557 -0.2809
 2707SOL    HW119754   4.220   0.647   6.218 -0.0389 -0.1291  1.2205
 2707SOL    HW219755   4.177   0.774   6.272 -1.7470  0.2233 -1.3177
 2708SOL     OW19756   2.697   2.194   9.799 -0.1154  0.0916 -0.3093
 2708SOL    HW119757   2.645   2.128   9.844  0.7387 -0.0722  0.4430
 2708SOL    HW219758   2.627   2.239   9.752 -1.5964 -1.9100 -0.0212
 2709SOL     OW19759   0.050   1.422   4.627 -0.3699  0.0861 -0.0377
 2709SOL    HW119760   0.111   1.495   4.636 -0.8522  0.6680 -1.4914
 2709SOL    HW219761   4.732   1.429   4.705 -0.2937  0.4060 -0.0126
 2710SOL     OW19762   0.436   1.180   3.334 -0.3173  0.2603 -0.1840
 2710SOL    HW119763   0.388   1.248   3.381 -1.8571 -0.6422 -0.4456
 2710SOL    HW219764   0.418   1.208   3.244 -1.4900  0.5528  0.1452
 2711SOL     OW19765   0.803   3.110  15.351 -0.3998 -0.2672  0.8034
 2711SOL    HW119766   0.775   3.058  15.427  0.1084 -2.2775 -0.3777
 2711SOL    HW219767   0.767   3.195  15.374  0.1944 -0.2013  1.5011
 2712SOL     OW19768   2.603   1.320   6.921 -0.1516 -0.0590 -0.2504
 2712SOL    HW119769   2.543   1.247   6.901 -1.9334  0.6571  2.5361
 2712SOL    HW219770   2.669   1.318   6.852  0.6997 -0.0771  0.5736
 2713SOL     OW19771   0.682   1.740   2.715 -0.0159 -0.7983 -0.6545
 2713SOL    HW119772   0.700   1.814   2.656 -2.7146 -0.4504 -1.0751
 2713SOL    HW219773   0.702   1.793   2.792 -3.2168  0.5510 -0.7347
 2714SOL     OW19774   3.807   0.260   7.473  0.5652 -0.3168 -0.2022
 2714SOL    HW119775   3.866   0.185   7.462  0.5473 -0.1760 -1.3490
 2714SOL    HW219776   3.869   0.333   7.479  1.4951 -0.9976 -1.3780
 2715SOL     OW19777   1.479   0.323   5.562  0.6466 -0.2269 -0.1975
 2715SOL    HW119778   1.540   0.286   5.626 -0.5895  1.6150  2.0486
 2715SOL    HW219779   1.404   0.329   5.621 -0.7047 -2.0593 -1.7247
 2716SOL     OW19780   0.006   4.736   8.911 -0.2384 -0.3270 -0.2536
 2716SOL    HW119781   4.674   4.684   8.869 -2.1268  1.5638  0.5534
 2716SOL    HW219782   0.011   0.062   8.839  0.4769 -0.9926 -0.7944
 2717SOL     OW19783   0.557   3.688   0.382 -0.2667 -0.3145 -0.4795
 2717SOL    HW119784   0.634   3.631   0.388  0.9961  1.6258  1.5067
 2717SOL    HW219785   0.556   3.719   0.292 -0.7521  0.3971 -0.2205
 2718SOL     OW19786   3.576   3.752   3.469  0.0092 -0.6278  0.2098
 2718SOL    HW119787   3.565   3.804   3.389  2.1145  0.3318  0.5285
 2718SOL    HW219788   3.488   3.745   3.504 -0.5153 -1.2068 -1.2165
 2719SOL     OW19789   4.422   0.504   5.934 -0.0386  0.6827  0.0266
 2719SOL    HW119790   4.488   0.441   5.966 -1.6728 -0.6336  0.8395
 2719SOL    HW219791   4.386   0.456   5.859  1.1670  1.4829 -1.0629
 2720SOL     OW19792   3.831   2.364   7.056 -0.5422  0.1103  0.3695
 2720SOL    HW119793   3.751   2.366   7.003  0.5661  1.0110 -1.2428
 2720SOL    HW219794   3.791   2.364   7.143  1.1321 -0.5845  1.1400
 2721SOL     OW19795   2.656   0.161   0.036 -0.3292 -0.4084 -0.2541
 2721SOL    HW119796   2.592   0.229   0.017 -0.8063 -0.7479  0.1118
 2721SOL    HW219797   2.705   0.165  17.702 -1.6618  2.4338 -0.8951
 2722SOL     OW19798   2.342   2.213   7.078  0.8219  0.1857  0.9183
 2722SOL    HW119799   2.270   2.236   7.137  0.1141 -1.4698  0.6923
 2722SOL    HW219800   2.344   2.118   7.067 -1.4360  0.2011  0.2347
 2723SOL     OW19801   2.791   0.303   0.734  0.0579 -0.8842 -0.2155
 2723SOL    HW119802   2.717   0.243   0.737 -0.2417 -0.4658  0.6103
 2723SOL    HW219803   2.805   0.298   0.639  3.3973  0.0356  0.2105
 2724SOL     OW19804   2.616   4.114   3.842  0.3989  0.1055 -0.3232
 2724SOL    HW119805   2.689   4.062   3.875 -2.9629 -3.7295  0.9737
 2724SOL    HW219806   2.554   4.047   3.815  1.7059 -1.4327  0.5122
 2725SOL     OW19807   3.148   4.222   9.430 -0.0312  0.2665  0.3756
 2725SOL    HW119808   3.181   4.171   9.504  2.7033 -0.0716 -1.0486
 2725SOL    HW219809   3.188   4.306   9.452  0.3647  0.1799 -0.0164
 2726SOL     OW19810   4.449   0.268   7.178 -0.4222 -0.2266  0.1504
 2726SOL    HW119811   4.447   0.360   7.152 -2.4555 -0.4926 -0.5997
 2726SOL    HW219812   4.368   0.256   7.226 -2.1339 -2.4697 -3.3472
 2727SOL     OW19813   1.011   4.696   2.241 -0.1586  0.4301 -0.3605
 2727SOL    HW119814   0.958   4.621   2.267  0.2055  0.0208 -0.7832
 2727SOL    HW219815   0.940   0.021   2.231 -0.1312  0.4427 -0.4752
 2728SOL     OW19816   4.282   3.991  11.644  0.8624 -0.0652 -0.2015
 2728SOL    HW119817   4.362   3.952  11.610  1.0128  1.0136 -1.0938
 2728SOL    HW219818   4.329   4.075  11.646  0.5179  0.0815  1.6880
 2729SOL     OW19819   0.280   4.284  16.562 -0.1155  0.5398 -0.2284
 2729SOL    HW119820   0.205   4.242  16.604  0.1865 -0.1477 -0.3799
 2729SOL    HW219821   0.331   4.204  16.550  0.5514  0.8661  0.4189
 2730SOL     OW19822   4.684   4.296   4.502 -0.1687 -0.5673 -0.2034
 2730SOL    HW119823   4.601   4.261   4.534 -1.7509  1.9365 -1.6086
 2730SOL    HW219824   4.685   4.245   4.421  0.9160 -0.8579 -0.0078
 2731SOL     OW19825   4.733   2.166  11.678 -0.3811  0.7038  0.0133
 2731SOL    HW119826   4.667   2.156  11.747  0.6456  0.7388  0.9871
 2731SOL    HW219827   0.078   2.129  11.711 -0.7518 -0.7038 -0.6521
 2732SOL     OW19828   3.891   4.650   5.398  0.3321 -0.5264  0.5042
 2732SOL    HW119829   3.969   4.628   5.348 -0.2308 -0.0832 -0.5794
 2732SOL    HW219830   3.920   4.646   5.489  2.4478  1.6527 -0.0732
 2733SOL     OW19831   1.140   4.678   7.349 -0.2570  0.7446  0.5788
 2733SOL    HW119832   1.188   0.009   7.397  2.0624 -0.3098 -0.2451
 2733SOL    HW219833   1.159   4.594   7.392  0.9242 -0.0946 -1.5567
 2734SOL     OW19834   0.389   2.734  12.733  0.4169 -0.0989 -0.1862
 2734SOL    HW119835   0.381   2.648  12.692  2.1294 -2.3498  4.2501
 2734SOL    HW219836   0.482   2.737  12.754  0.4478 -0.9572 -0.1988
 2735SOL     OW19837   4.658   0.757   3.605 -0.0060  0.3708  0.5672
 2735SOL    HW119838   4.605   0.824   3.648  0.3615  2.0008 -1.5018
 2735SOL    HW219839   4.637   0.688   3.668 -0.4314  1.8277  2.0025
 2736SOL     OW19840   0.099   1.563   9.150 -0.0490 -0.2494 -0.0416
 2736SOL    HW119841   0.063   1.651   9.150 -0.7217 -0.5128 -1.3106
 2736SOL    HW219842   0.193   1.577   9.155 -0.1950 -0.1816  2.2726
 2737SOL     OW19843   4.695   0.656   3.357 -0.2893 -0.4356  0.0941
 2737SOL    HW119844   4.705   0.724   3.290  1.1697 -0.3446  0.3998
 2737SOL    HW219845   4.687   0.705   3.439  3.6125  1.8734 -0.9285
 2738SOL     OW19846   3.407   4.114   6.803  0.5832 -0.1760  0.0199
 2738SOL    HW119847   3.444   4.196   6.771 -2.0831  0.3201 -1.8391
 2738SOL    HW219848   3.424   4.064   6.723  1.2811  2.5113 -1.5024
 2739SOL     OW19849   3.091   4.251   2.376  0.0006 -0.1198 -0.4917
 2739SOL    HW119850   3.057   4.336   2.403  1.3121  0.4776 -0.7279
 2739SOL    HW219851   3.157   4.227   2.441 -1.1986  2.5351  1.6853
 2740SOL     OW19852   2.885   3.961  12.000  0.3890 -0.0866  0.2015
 2740SOL    HW119853   2.972   3.959  12.038  0.5977 -2.1780 -0.3897
 2740SOL    HW219854   2.913   3.978  11.911 -1.1557  0.0583 -0.2616
 2741SOL     OW19855   2.651   4.078   5.400 -0.2741 -0.1589 -0.1350
 2741SOL    HW119856   2.647   4.017   5.473 -0.1481 -1.1419 -0.9486
 2741SOL    HW219857   2.675   4.162   5.439 -2.2959 -0.2325  1.2459
 2742SOL     OW19858   3.086   3.180  13.908 -0.1118  0.2600 -0.2967
 2742SOL    HW119859   2.996   3.169  13.878 -0.9977  0.2578  2.3859
 2742SOL    HW219860   3.073   3.271  13.937 -2.2642 -0.3455  0.6145
 2743SOL     OW19861   0.132   3.803   6.594 -0.2069  0.0209  0.1887
 2743SOL    HW119862   0.052   3.844   6.628  0.7975 -0.9778  3.6407
 2743SOL    HW219863   0.176   3.754   6.663  0.6922  1.7241  0.8103
 2744SOL     OW19864   0.377   3.977   5.184  0.5776 -0.0760 -0.1169
 2744SOL    HW119865   0.380   3.944   5.094 -1.7891  1.6401 -0.8422
 2744SOL    HW219866   0.464   4.013   5.195 -0.0235  1.6217 -0.9848
 2745SOL     OW19867   0.469   4.467   8.360 -0.1671  0.3589 -0.7858
 2745SOL    HW119868   0.412   4.541   8.344  0.2124  0.7889 -0.1568
 2745SOL    HW219869   0.514   4.471   8.276  0.7086 -0.8154 -0.3785
 2746SOL     OW19870   3.547   2.299  16.389 -0.3933 -0.5247 -0.4722
 2746SOL    HW119871   3.627   2.348  16.407  1.7506 -4.0200 -0.5242
 2746SOL    HW219872   3.502   2.367  16.339 -4.2991 -1.5090  1.7882
 2747SOL     OW19873   0.798   2.623   5.923  0.4793  0.1476 -0.5044
 2747SOL    HW119874   0.703   2.617   5.918  0.5681  0.9989 -3.1011
 2747SOL    HW219875   0.808   2.659   6.012  0.5101  0.5170 -0.6555
 2748SOL     OW19876   3.462   0.585   7.002 -0.6653  0.6533  0.2335
 2748SOL    HW119877   3.405   0.510   7.023 -0.3346  0.3913  0.1874
 2748SOL    HW219878   3.492   0.617   7.087 -1.6433  0.7296  0.5510
 2749SOL     OW19879   1.860   1.118  10.079  0.0125  0.4411 -0.3698
 2749SOL    HW119880   1.938   1.138  10.130 -0.1460 -1.4247  0.6407
 2749SOL    HW219881   1.894   1.093   9.993 -3.0197  1.7589 -1.9447
 2750SOL     OW19882   4.514   4.041   1.662  0.0038 -0.6460  0.1534
 2750SOL    HW119883   4.429   4.001   1.680 -0.4608  0.1076 -0.3535
 2750SOL    HW219884   4.542   3.984   1.591 -1.0293 -0.0508 -0.7375
 2751SOL     OW19885   3.108   0.625   4.054 -0.3460  0.5128  0.2041
 2751SOL    HW119886   3.027   0.647   4.008  0.4732  2.9139 -0.1032
 2751SOL    HW219887   3.174   0.646   3.987  0.2372 -0.5711  0.4466
 2752SOL     OW19888   4.237   2.857   2.767  0.3029  0.2611  0.0363
 2752SOL    HW119889   4.266   2.905   2.844  2.6659 -0.0603 -0.6608
 2752SOL    HW219890   4.168   2.919   2.743 -0.1056 -0.8961 -1.7814
 2753SOL     OW19891   4.708   3.156  15.035  0.0469 -0.4831  0.2308
 2753SOL    HW119892   4.616   3.169  15.057  0.7604  1.7024  1.9683
 2753SOL    HW219893   4.709   3.182  14.943  0.3691  0.0299  0.3776
 2754SOL     OW19894   1.216   3.988   8.519  0.0306 -0.5089  0.6810
 2754SOL    HW119895   1.240   3.905   8.560  1.1164 -1.0678 -1.1236
 2754SOL    HW219896   1.289   3.991   8.457  0.6555 -0.8590  1.3978
 2755SOL     OW19897   3.581   1.643   6.204 -0.2444 -0.5595 -0.5287
 2755SOL    HW119898   3.651   1.580   6.221  1.1075  0.7324 -1.3427
 2755SOL    HW219899   3.612   1.693   6.129 -1.7961 -1.4346 -1.7849
 2756SOL     OW19900   2.524   0.323   1.272 -0.2401  0.3163 -0.0567
 2756SOL    HW119901   2.519   0.236   1.231 -0.3237 -0.2505  1.1538
 2756SOL    HW219902   2.486   0.310   1.359  0.5564  1.9326  0.5311
 2757SOL     OW19903   0.106   4.396   8.938 -0.4846  0.0993 -0.5456
 2757SOL    HW119904   0.041   4.390   9.007 -1.1581 -1.6715 -1.3156
 2757SOL    HW219905   0.150   4.478   8.959 -3.8491  1.8571 -0.5227
 2758SOL     OW19906   2.483   0.211   1.644  0.0630  0.5869 -0.6063
 2758SOL    HW119907   2.552   0.144   1.634 -1.1135 -0.8129  0.6816
 2758SOL    HW219908   2.539   0.288   1.655  0.8849 -0.2259  0.9082
 2759SOL     OW19909   3.551   3.241   3.703  0.1380  0.1084  0.1169
 2759SOL    HW119910   3.523   3.312   3.645  0.1310  0.0433  0.0415
 2759SOL    HW219911   3.585   3.180   3.637 -0.5079 -1.9195  1.6624
 2760SOL     OW19912   2.119   3.398  14.266 -0.2388  0.0905 -0.1873
 2760SOL    HW119913   2.074   3.314  14.275  0.6870 -0.6443 -2.4405
 2760SOL    HW219914   2.189   3.380  14.203  0.9911  0.7561  0.9962
 2761SOL     OW19915   3.554   1.601   6.904  0.2588  0.0902 -0.0521
 2761SOL    HW119916   3.464   1.630   6.918  0.2016 -0.9765  1.9033
 2761SOL    HW219917   3.596   1.609   6.990  0.1009  2.4691 -0.1923
 2762SOL     OW19918   0.386   3.981   3.883  0.2396  0.2111 -0.5779
 2762SOL    HW119919   0.376   4.024   3.798 -0.8173 -0.0947 -0.6100
 2762SOL    HW219920   0.298   3.944   3.891 -0.2435  1.4400 -0.2755
 2763SOL     OW19921   1.546   2.104   9.715  0.5923  0.0915  0.1698
 2763SOL    HW119922   1.532   2.073   9.625 -1.0693 -0.3875  0.5896
 2763SOL    HW219923   1.491   2.182   9.718 -2.2358 -1.8963  0.6782
 2764SOL     OW19924   3.500   3.155  10.825 -0.1873  0.0108  0.1735
 2764SOL    HW119925   3.566   3.178  10.759  1.3353  0.0535  1.7218
 2764SOL    HW219926   3.516   3.232  10.880  0.2878  0.4819 -0.6243
 2765SOL     OW19927   0.498   2.027   8.078  0.0930  0.5865 -0.4582
 2765SOL    HW119928   0.403   2.036   8.089  0.2556 -1.0866  2.3204
 2765SOL    HW219929   0.506   1.932   8.081  1.6761  0.6536 -2.8275
 2766SOL     OW19930   2.450   4.187   0.709  0.8414  0.1263  0.4286
 2766SOL    HW119931   2.387   4.154   0.773  1.1488  0.3465  0.8499
 2766SOL    HW219932   2.420   4.277   0.696 -1.8541 -0.9532 -0.6891
 2767SOL     OW19933   3.032   4.722   3.467  0.8850  0.0649  0.5686
 2767SOL    HW119934   2.942   0.009   3.445  0.4700  0.4839  2.7136
 2767SOL    HW219935   3.025   4.729   3.562 -1.2881 -1.7942  0.5374
 2768SOL     OW19936   3.880   0.840  14.946 -0.0811 -0.2961  0.2317
 2768SOL    HW119937   3.828   0.760  14.936  0.4636 -0.7263  0.8184
 2768SOL    HW219938   3.874   0.883  14.861 -0.5456 -1.9402 -0.5672
 2769SOL     OW19939   1.463   4.286   6.927 -0.3375  0.2634 -0.1722
 2769SOL    HW119940   1.422   4.312   6.844 -0.8209  1.8386  0.5553
 2769SOL    HW219941   1.443   4.366   6.975 -0.5583  0.3048 -0.3359
 2770SOL     OW19942   2.717   3.875  14.793 -0.4626  0.1622 -0.2830
 2770SOL    HW119943   2.761   3.833  14.719  2.5236 -0.1290  1.6719
 2770SOL    HW219944   2.638   3.910  14.752 -0.0151 -0.2112 -1.4572
 2771SOL     OW19945   1.218   4.289   7.190 -0.0607 -0.1207  0.0985
 2771SOL    HW119946   1.273   4.231   7.243  1.0017  1.6444  0.8974
 2771SOL    HW219947   1.219   4.241   7.107  3.1853 -2.0873  1.2921
 2772SOL     OW19948   2.272   3.602   9.848  0.8573  0.1456  0.1432
 2772SOL    HW119949   2.275   3.566   9.760  1.3780 -2.1906  1.1234
 2772SOL    HW219950   2.217   3.539   9.895  0.3203 -0.3986 -1.2182
 2773SOL     OW19951   3.857   3.839   6.174  0.0757  0.0656 -0.2164
 2773SOL    HW119952   3.883   3.754   6.139 -1.5278 -0.1223 -0.9522
 2773SOL    HW219953   3.761   3.836   6.174  0.0633  0.5588  0.4849
 2774SOL     OW19954   4.529   0.958   7.063 -0.6530 -0.0404 -0.1896
 2774SOL    HW119955   4.438   0.988   7.054 -0.3670  0.2472 -2.1071
 2774SOL    HW219956   4.532   0.892   6.993 -0.1688 -0.7106  0.4614
 2775SOL     OW19957   1.508   4.469   1.449  0.9506 -0.6221  0.3408
 2775SOL    HW119958   1.549   4.383   1.447  1.2761 -0.5507  3.7177
 2775SOL    HW219959   1.502   4.477   1.544  0.4457  1.3919  0.1521
 2776SOL     OW19960   4.538   2.111   8.183  0.0472  0.1310  0.0440
 2776SOL    HW119961   4.474   2.175   8.216  0.5412  0.9132 -0.5131
 2776SOL    HW219962   4.477   2.054   8.137  0.2277 -1.4283  1.7451
 2777SOL     OW19963   2.087   3.252   4.244  0.2458 -0.7591 -0.1380
 2777SOL    HW119964   2.040   3.329   4.276  0.0776 -1.0293  0.2718
 2777SOL    HW219965   2.137   3.236   4.324  0.0264  2.4389  0.6154
 2778SOL     OW19966   0.019   4.636  14.285 -0.4226  0.2875 -0.2938
 2778SOL    HW119967   0.055   4.670  14.203 -0.8576  0.2987 -0.4766
 2778SOL    HW219968   4.675   4.686  14.290 -0.2509  0.2578  2.8627
 2779SOL     OW19969   3.347   1.475   6.235 -0.2293 -0.6981 -0.1138
 2779SOL    HW119970   3.430   1.521   6.251 -0.0365 -1.1930  0.3226
 2779SOL    HW219971   3.296   1.555   6.222 -0.7247 -1.0673 -0.4223
 2780SOL     OW19972   4.402   0.888   8.145 -0.4877 -0.1429  0.5387
 2780SOL    HW119973   4.379   0.876   8.237 -1.1214  0.8852  0.5156
 2780SOL    HW219974   4.493   0.859   8.155  0.0446  0.8505 -1.3955
 2781SOL     OW19975   2.385   1.711  11.362 -0.0513  0.5839  0.2853
 2781SOL    HW119976   2.412   1.650  11.431 -0.9005 -0.9666 -0.7236
 2781SOL    HW219977   2.313   1.760  11.402 -0.4574  1.2216 -1.2170
 2782SOL     OW19978   3.270   0.597   8.368  0.6382 -0.5490  0.3083
 2782SOL    HW119979   3.300   0.591   8.459  1.2356 -3.1849 -0.0651
 2782SOL    HW219980   3.349   0.639   8.335  0.1269 -1.5932 -2.2174
 2783SOL     OW19981   2.266   3.583   6.427 -0.1785 -0.2746  0.6151
 2783SOL    HW119982   2.276   3.589   6.332 -1.2756  1.3818  0.6116
 2783SOL    HW219983   2.233   3.667   6.457  2.7315  0.5397  1.5770
 2784SOL     OW19984   2.763   0.664  17.296 -0.4468 -0.1756  0.3838
 2784SOL    HW119985   2.822   0.629  17.363 -2.4668  0.7234  2.6630
 2784SOL    HW219986   2.733   0.738  17.350  1.5687 -1.2702  2.9858
 2785SOL     OW19987   4.623   4.503  16.044  0.2904  0.0041  0.3270
 2785SOL    HW119988   4.638   4.521  15.951 -1.5338  2.3881  0.4897
 2785SOL    HW219989   4.634   4.408  16.050 -4.9211 -0.7383 -1.8348
 2786SOL     OW19990   0.403   1.976   8.889  0.0879  0.4031 -0.1914
 2786SOL    HW119991   0.405   1.890   8.848 -2.5086 -1.0367  2.7250
 2786SOL    HW219992   0.480   1.967   8.945  1.2866  1.4679 -1.6818
 2787SOL     OW19993   3.329   0.222   5.272 -0.0550 -0.4012  0.1712
 2787SOL    HW119994   3.259   0.162   5.300 -2.0507  1.2200 -1.3085
 2787SOL    HW219995   3.272   0.284   5.226  0.3625  0.1286  0.3673
 2788SOL     OW19996   4.091   0.863   5.068 -0.2556 -0.1475  0.2374
 2788SOL    HW119997   4.000   0.884   5.089  0.2678  3.0559 -0.5953
 2788SOL    HW219998   4.122   0.947   5.034 -0.8448 -0.2465 -0.5273
 2789SOL     OW19999   0.094   0.062   3.772 -0.1638 -0.7622  0.6388
 2789SOL    HW120000   0.141   0.082   3.853 -0.2909  2.3694 -0.0498
 2789SOL    HW220001   0.069   0.151   3.748  2.5430 -0.4890 -1.2094
 2790SOL     OW20002   4.350   2.597   4.992  0.5158 -0.0620  0.2289
 2790SOL    HW120003   4.431   2.551   4.973  0.3455  0.0933 -0.8625
 2790SOL    HW220004   4.313   2.624   4.908 -1.0666  1.2458  1.3235
 2791SOL     OW20005   2.995   3.201  10.133 -0.0918  0.2520 -0.3538
 2791SOL    HW120006   2.965   3.288  10.109 -1.4582 -0.0320  0.3173
 2791SOL    HW220007   2.918   3.177  10.185  0.3784 -2.0541 -0.7332
 2792SOL     OW20008   2.922   0.317   6.070 -0.8926 -0.1481 -0.5263
 2792SOL    HW120009   2.945   0.309   5.977 -0.1117 -0.1980 -0.3218
 2792SOL    HW220010   2.962   0.397   6.102 -0.2621 -0.5504 -0.3168
 2793SOL     OW20011   4.454   4.145   6.414 -0.0276  0.3103  0.5015
 2793SOL    HW120012   4.361   4.139   6.432 -0.2990  0.4947 -0.7906
 2793SOL    HW220013   4.460   4.078   6.346 -2.9516 -1.2155  1.7659
 2794SOL     OW20014   3.580   3.318  13.431 -0.3663  0.1823  0.4319
 2794SOL    HW120015   3.540   3.302  13.516  0.1567 -1.1108  0.4412
 2794SOL    HW220016   3.578   3.231  13.390  0.5955 -0.2512  1.3242
 2795SOL     OW20017   4.254   0.672   9.496  0.3432 -0.6309  0.4493
 2795SOL    HW120018   4.226   0.662   9.587  2.0225 -1.1137  0.9048
 2795SOL    HW220019   4.197   0.740   9.461  1.3578  1.0457  2.0735
 2796SOL     OW20020   0.235   3.252   8.479 -0.2300 -0.3750  0.6055
 2796SOL    HW120021   0.173   3.321   8.457 -1.2161 -1.1600  0.9032
 2796SOL    HW220022   0.177   3.181   8.508  1.0821 -1.3794  0.7909
 2797SOL     OW20023   3.374   4.537   8.184  0.0272 -0.6442  0.0239
 2797SOL    HW120024   3.322   4.485   8.245  1.9260 -1.5045  0.9274
 2797SOL    HW220025   3.396   4.618   8.230 -0.0939  0.4074 -1.7642
 2798SOL     OW20026   3.615   0.592   6.262 -0.1291  0.4932 -0.1688
 2798SOL    HW120027   3.563   0.512   6.265 -1.2849  1.3393  1.5817
 2798SOL    HW220028   3.598   0.632   6.347  1.3336  0.7403  0.0154
 2799SOL     OW20029   1.762   2.104   6.656 -0.7877 -0.4492 -0.4042
 2799SOL    HW120030   1.784   2.012   6.639 -1.3609 -0.3038 -1.9462
 2799SOL    HW220031   1.826   2.131   6.721 -0.6899 -0.3549 -0.5391
 2800SOL     OW20032   3.225   4.409  11.949  0.0184 -0.1578 -0.0207
 2800SOL    HW120033   3.200   4.483  11.893  0.8669  0.4041  0.3276
 2800SOL    HW220034   3.176   4.435  12.027  1.3761 -2.2686  1.5320
 2801SOL     OW20035   1.937   2.005   2.520  0.2130 -0.3930  0.0306
 2801SOL    HW120036   1.972   1.941   2.582  0.0356 -0.3154  0.2108
 2801SOL    HW220037   1.863   1.955   2.486 -1.6983  0.5038  2.8088
 2802SOL     OW20038   2.756   3.010   5.154  0.2347  0.6028  0.1587
 2802SOL    HW120039   2.841   2.971   5.132 -0.3125 -0.6454  0.2105
 2802SOL    HW220040   2.700   2.935   5.131  0.8265  0.8193 -1.9768
 2803SOL     OW20041   4.390   1.029   2.357  0.2774  0.0702 -0.0664
 2803SOL    HW120042   4.349   0.944   2.344 -0.1872  0.7467 -2.9965
 2803SOL    HW220043   4.328   1.086   2.312 -1.1564 -1.7096 -0.3285
 2804SOL     OW20044   4.642   4.677   1.819 -0.2568  0.3769  0.0676
 2804SOL    HW120045   4.592   0.017   1.845 -0.5763  0.4047 -0.6153
 2804SOL    HW220046   4.712   4.677   1.883  0.4587 -1.6834 -0.7219
 2805SOL     OW20047   0.656   4.321   6.628 -0.1437 -0.1602 -0.6802
 2805SOL    HW120048   0.582   4.314   6.569 -2.3100 -0.9089  2.0956
 2805SOL    HW220049   0.668   4.415   6.638 -1.0718 -0.1902  0.6602
 2806SOL     OW20050   4.630   3.431  15.659 -0.1621 -0.2700  0.1708
 2806SOL    HW120051   4.639   3.410  15.566 -1.7854 -2.2297  0.4454
 2806SOL    HW220052   4.608   3.524  15.661 -0.6727 -0.3967  0.4080
 2807SOL     OW20053   4.187   1.268   5.280  0.5285  0.0592  0.2923
 2807SOL    HW120054   4.091   1.278   5.283  1.0423  4.2328  2.2194
 2807SOL    HW220055   4.219   1.189   5.322  1.5696  2.1935  3.4996
 2808SOL     OW20056   2.594   4.435   7.787 -0.0513  0.0618 -0.3423
 2808SOL    HW120057   2.600   4.510   7.728 -1.2189  1.3895  1.2074
 2808SOL    HW220058   2.606   4.482   7.870  1.0556 -0.5500 -0.1587
 2809SOL     OW20059   4.170   0.459   1.237 -0.1411  0.7443  0.0191
 2809SOL    HW120060   4.090   0.507   1.217 -0.6146  0.1185  0.3958
 2809SOL    HW220061   4.121   0.376   1.239  1.1065  0.0282  1.4269
 2810SOL     OW20062   1.122   1.941   4.509  0.2639  0.0384  0.2699
 2810SOL    HW120063   1.217   1.940   4.522 -0.0826 -0.1392  2.8345
 2810SOL    HW220064   1.110   2.034   4.528  0.5752 -0.3393  2.3467
 2811SOL     OW20065   2.347   3.678  13.199 -0.1471 -0.3054 -0.2252
 2811SOL    HW120066   2.376   3.673  13.290 -1.5729  1.2342  0.3178
 2811SOL    HW220067   2.271   3.619  13.203 -0.0244 -0.6499 -3.5617
 2812SOL     OW20068   4.668   4.185  15.618  0.1938 -0.0158  0.5562
 2812SOL    HW120069   4.734   4.143  15.673  1.9517  0.9072 -0.8382
 2812SOL    HW220070   4.588   4.160  15.663 -0.3733  0.3967 -0.2123
 2813SOL     OW20071   0.581   0.766  10.974  0.1742 -0.5123 -0.3521
 2813SOL    HW120072   0.666   0.722  10.984 -0.6579 -1.9148  0.6155
 2813SOL    HW220073   0.574   0.813  11.057 -2.8366 -2.6421  0.5865
 2814SOL     OW20074   3.435   0.258   5.661 -0.0065  0.5688  0.6747
 2814SOL    HW120075   3.439   0.250   5.757  1.4808  0.6360  0.6201
 2814SOL    HW220076   3.429   0.165   5.639 -1.4807  0.7820  0.1839
 2815SOL     OW20077   0.721   2.123  16.849 -0.5557  0.0226 -0.3089
 2815SOL    HW120078   0.683   2.127  16.937  2.3758  1.6816  0.8474
 2815SOL    HW220079   0.636   2.135  16.807 -1.0479  0.3559  0.7570
 2816SOL     OW20080   3.537   4.352   3.951 -0.0604 -0.1130  0.2284
 2816SOL    HW120081   3.540   4.431   4.005  1.2609  0.3992 -0.6070
 2816SOL    HW220082   3.629   4.328   3.948  0.5478  2.4004 -1.2400
 2817SOL     OW20083   2.117   2.672   9.130  0.2371 -0.2916 -0.3798
 2817SOL    HW120084   2.042   2.731   9.120 -0.3345 -0.6316  1.7239
 2817SOL    HW220085   2.070   2.591   9.151  0.8600 -0.6972 -0.5471
 2818SOL     OW20086   0.412   3.349   2.718  0.1119  0.1776 -0.0361
 2818SOL    HW120087   0.420   3.305   2.802 -1.3582 -0.6728 -0.3333
 2818SOL    HW220088   0.399   3.274   2.661 -0.3741  0.3558 -0.1633
 2819SOL     OW20089   0.585   1.745  10.213 -0.3533 -0.0582  0.2715
 2819SOL    HW120090   0.497   1.714  10.236 -1.2061  1.0360 -1.4643
 2819SOL    HW220091   0.573   1.742  10.118  0.1527 -0.1005  0.2119
 2820SOL     OW20092   1.856   4.369  11.896  0.8300  0.1367 -0.1157
 2820SOL    HW120093   1.804   4.289  11.888 -1.9550  1.7812  1.4344
 2820SOL    HW220094   1.799   4.421  11.952  0.4641 -1.0893  0.6454
 2821SOL     OW20095   0.015   1.424  11.172 -0.2004 -0.7953  0.1138
 2821SOL    HW120096   4.709   1.508  11.188 -1.5839 -1.4076 -0.4476
 2821SOL    HW220097   0.026   1.429  11.077 -2.8612 -1.0072 -0.1998
 2822SOL     OW20098   0.599   0.575   6.101 -0.3820  0.1811  0.3363
 2822SOL    HW120099   0.544   0.577   6.023  1.0695  0.7603 -0.6707
 2822SOL    HW220100   0.596   0.481   6.118 -1.2728 -0.0227 -0.9591
 2823SOL     OW20101   4.355   4.583   6.905 -0.0689  0.3431  0.3456
 2823SOL    HW120102   4.285   4.645   6.885  0.2292  0.4186 -0.4839
 2823SOL    HW220103   4.432   4.640   6.905 -0.9877  1.5814  1.3148
 2824SOL     OW20104   2.401   0.667   1.680 -0.3066 -0.3698  0.1719
 2824SOL    HW120105   2.323   0.628   1.640 -0.1714  0.3779 -0.7938
 2824SOL    HW220106   2.365   0.756   1.689  0.8048  0.1787 -0.7774
 2825SOL     OW20107   3.156   4.665   9.304  0.2848 -0.5017 -0.5182
 2825SOL    HW120108   3.235   4.611   9.307 -0.0079 -0.8206  1.8630
 2825SOL    HW220109   3.123   4.634   9.389  0.5112 -0.4436 -0.4076
 2826SOL     OW20110   4.312   1.270  13.033 -0.3544  0.5550 -0.2231
 2826SOL    HW120111   4.236   1.217  13.056 -0.3757  1.1878  1.1978
 2826SOL    HW220112   4.293   1.296  12.943 -0.7627 -2.0814 -0.8800
 2827SOL     OW20113   3.068   3.501   2.705 -0.2652  0.0164  0.2097
 2827SOL    HW120114   3.157   3.510   2.741 -0.8036  3.0071  0.8046
 2827SOL    HW220115   3.036   3.431   2.762  0.3914 -1.7720 -1.6246
 2828SOL     OW20116   0.980   0.721   2.816  0.3934  0.2935 -0.4295
 2828SOL    HW120117   1.055   0.772   2.785 -1.3580  2.9122 -0.3134
 2828SOL    HW220118   1.016   0.675   2.892 -3.1956 -0.6588  0.6961
 2829SOL     OW20119   1.369   0.062   2.602 -0.1226 -0.2966 -0.3019
 2829SOL    HW120120   1.346   0.148   2.568 -0.2918 -0.0943  0.3284
 2829SOL    HW220121   1.464   0.072   2.601 -0.2296  0.5018 -2.2469
 2830SOL     OW20122   4.327   0.147   7.904 -0.3439 -0.1154  0.2687
 2830SOL    HW120123   4.292   0.090   7.836 -0.7664 -1.0190  1.2440
 2830SOL    HW220124   4.386   0.085   7.947  0.9217  2.9183  2.8993
 2831SOL     OW20125   4.366   4.291   1.584  0.3093 -0.9976 -0.4534
 2831SOL    HW120126   4.435   4.225   1.590 -0.7404 -2.0918 -0.3062
 2831SOL    HW220127   4.295   4.228   1.570 -0.0947 -1.0852  2.0406
 2832SOL     OW20128   2.843   3.545   5.307 -0.3000  0.5744 -0.4407
 2832SOL    HW120129   2.883   3.458   5.303 -2.0702 -0.3611  2.6441
 2832SOL    HW220130   2.750   3.528   5.317 -0.5671  2.9383  1.0322
 2833SOL     OW20131   1.083   2.820   8.111  0.5401 -0.3885 -0.6341
 2833SOL    HW120132   1.144   2.886   8.141  1.1348 -1.5727  0.7886
 2833SOL    HW220133   1.146   2.751   8.091 -1.1150 -2.3108  0.7036
 2834SOL     OW20134   3.358   3.715   6.013 -0.1281  0.5583  0.1563
 2834SOL    HW120135   3.412   3.782   6.055 -0.2580  0.1239  1.0160
 2834SOL    HW220136   3.425   3.648   6.001  0.1879  0.6206  1.5283
 2835SOL     OW20137   4.364   1.035   2.870  0.0945 -0.1551 -0.3519
 2835SOL    HW120138   4.455   1.006   2.863 -0.4950 -1.3807 -2.9144
 2835SOL    HW220139   4.313   0.956   2.889  2.3322 -1.2170  1.1923
 2836SOL     OW20140   2.375   0.907   7.253  0.0296 -0.0842 -0.5552
 2836SOL    HW120141   2.299   0.890   7.308  0.7518 -0.2184  0.4001
 2836SOL    HW220142   2.389   0.999   7.276 -2.8158  0.2681 -0.2584
 2837SOL     OW20143   0.117   1.603   4.269  0.4321 -0.0544 -0.1253
 2837SOL    HW120144   0.087   1.679   4.319  2.5339  0.5453  0.2271
 2837SOL    HW220145   0.058   1.543   4.314 -0.3559 -0.5008 -1.7743
 2838SOL     OW20146   3.730   1.992  12.050  0.1877 -0.1217  0.3490
 2838SOL    HW120147   3.721   2.083  12.080 -0.8506 -0.7214  1.8527
 2838SOL    HW220148   3.662   1.984  11.983  1.0412 -1.2802 -0.3794
 2839SOL     OW20149   1.443   0.123   4.846  0.4704  0.0567 -0.1644
 2839SOL    HW120150   1.445   0.071   4.927  0.4166  0.1720 -0.0891
 2839SOL    HW220151   1.348   0.131   4.836  0.3537 -1.4446 -0.2071
 2840SOL     OW20152   2.811   1.763   4.833  0.2125  0.3331  0.1443
 2840SOL    HW120153   2.850   1.782   4.918 -1.1583  1.9516  0.4082
 2840SOL    HW220154   2.886   1.770   4.773  0.9931  0.9440  1.1764
 2841SOL     OW20155   0.090   0.519   8.600 -0.0238 -0.6709 -0.7796
 2841SOL    HW120156   0.161   0.551   8.544 -0.2405  0.6928 -0.2687
 2841SOL    HW220157   0.056   0.599   8.639  0.1813  0.6833 -3.4095
 2842SOL     OW20158   2.407   1.717   0.126 -0.0746  0.2083 -0.0500
 2842SOL    HW120159   2.452   1.664   0.191  0.4863 -1.2074 -1.6232
 2842SOL    HW220160   2.314   1.708   0.148  0.8140 -1.1071  3.2099
 2843SOL     OW20161   3.004   2.761   8.146  0.4187 -0.1953 -0.1594
 2843SOL    HW120162   3.065   2.791   8.078 -1.1611 -0.2336 -1.5903
 2843SOL    HW220163   2.930   2.820   8.133  0.6407 -0.4801 -2.9208
 2844SOL     OW20164   0.221   4.488   0.917 -0.0755 -0.1795 -0.3186
 2844SOL    HW120165   0.162   4.465   0.989 -3.1615  4.0336 -1.5252
 2844SOL    HW220166   0.171   4.565   0.891  0.4180 -0.4477 -2.0707
 2845SOL     OW20167   2.993   0.913  15.484 -0.4790 -0.2030 -0.3505
 2845SOL    HW120168   2.974   0.871  15.401  0.1161 -0.8361 -0.1682
 2845SOL    HW220169   2.910   0.929  15.528 -0.0433  0.9719  0.0535
 2846SOL     OW20170   2.432   4.442   0.878  0.1027  0.6175  0.2882
 2846SOL    HW120171   2.471   4.508   0.935 -1.0988  0.5440  1.2131
 2846SOL    HW220172   2.395   4.495   0.808 -2.9703 -0.1232  1.3572
 2847SOL     OW20173   0.367   3.759   3.628 -0.1804 -0.0830  0.2486
 2847SOL    HW120174   0.277   3.790   3.618 -0.3662 -1.1076 -1.1955
 2847SOL    HW220175   0.370   3.685   3.689 -2.6049 -0.3003  0.0931
 2848SOL     OW20176   4.082   0.400   2.226 -0.1407  0.2080  0.0394
 2848SOL    HW120177   4.044   0.316   2.202  1.5480 -1.0269  1.7267
 2848SOL    HW220178   4.095   0.442   2.141 -1.9067 -1.8275 -1.2150
 2849SOL     OW20179   3.597   4.123  15.680 -0.2378 -0.1163  0.4319
 2849SOL    HW120180   3.656   4.196  15.701 -0.3210 -0.4765  1.9471
 2849SOL    HW220181   3.575   4.105  15.772 -1.5207 -3.7533 -0.5882
 2850SOL     OW20182   1.698   1.280  11.403  0.1142 -0.2336 -0.4153
 2850SOL    HW120183   1.663   1.295  11.491  1.8614 -2.9236  0.7302
 2850SOL    HW220184   1.747   1.200  11.420  0.8580 -0.0959 -1.8916
 2851SOL     OW20185   1.847   1.087   4.057 -0.4766  0.3330 -0.1990
 2851SOL    HW120186   1.846   1.150   3.985 -3.0193 -0.6047 -0.9898
 2851SOL    HW220187   1.831   1.004   4.010 -0.3786  0.4529 -0.4447
 2852SOL     OW20188   2.876   2.399   9.722  0.2893 -0.4751 -0.0922
 2852SOL    HW120189   2.904   2.312   9.753  0.8299  0.3759  1.8445
 2852SOL    HW220190   2.783   2.379   9.734  0.2601  0.0197  0.4877
 2853SOL     OW20191   0.106   4.688  14.539  0.0892 -0.3019  0.2357
 2853SOL    HW120192   0.089   0.044  14.532  0.8467 -0.3540 -2.5907
 2853SOL    HW220193   0.087   4.651  14.453  1.7128  0.8607 -0.6297
 2854SOL     OW20194   0.754   2.795   3.593  0.0047 -0.1300  0.2504
 2854SOL    HW120195   0.755   2.709   3.635  2.0209 -0.3699 -0.2872
 2854SOL    HW220196   0.662   2.822   3.593  0.2720  0.7469  1.4848
 2855SOL     OW20197   0.511   0.763   8.869 -0.0910  0.2325  0.2564
 2855SOL    HW120198   0.583   0.827   8.861  0.7708 -0.9683 -1.6398
 2855SOL    HW220199   0.524   0.730   8.958 -0.0623 -0.6698 -0.0791
 2856SOL     OW20200   4.215   2.164   2.887  0.3238 -0.7566  0.9233
 2856SOL    HW120201   4.281   2.095   2.901  1.1367  0.4918  3.1932
 2856SOL    HW220202   4.137   2.124   2.927 -0.7388  0.1495 -0.2674
 2857SOL     OW20203   1.435   3.261   4.637 -1.1091  0.7239  0.3534
 2857SOL    HW120204   1.382   3.184   4.614  0.3905 -0.4543  0.8893
 2857SOL    HW220205   1.486   3.210   4.700  1.5960 -0.4016 -2.7603
 2858SOL     OW20206   2.376   4.504   6.373 -0.1737  0.3038 -0.0365
 2858SOL    HW120207   2.414   4.564   6.436  1.2495 -0.0188 -0.5945
 2858SOL    HW220208   2.295   4.475   6.415  1.1921 -1.3337  1.4754
 2859SOL     OW20209   1.366   3.530  16.163 -0.2191 -0.0872 -0.0708
 2859SOL    HW120210   1.372   3.529  16.258 -0.8154  1.5787 -0.0033
 2859SOL    HW220211   1.352   3.438  16.141 -0.6555  0.3933 -1.7811
 2860SOL     OW20212   1.802   0.867   4.885 -0.2128  0.8444  0.3481
 2860SOL    HW120213   1.782   0.774   4.876  0.7893  0.6841 -0.2482
 2860SOL    HW220214   1.755   0.905   4.810 -0.9742 -1.6237 -0.4095
 2861SOL     OW20215   0.960   1.902   6.559  0.0097  0.0470 -0.2489
 2861SOL    HW120216   0.872   1.941   6.554 -1.3136 -2.8367  0.5642
 2861SOL    HW220217   0.933   1.811   6.572 -0.2632  0.2889  0.8601
 2862SOL     OW20218   0.921   0.530   2.465  0.3825 -0.0682  0.1321
 2862SOL    HW120219   0.991   0.501   2.405 -1.5193 -2.6790 -0.8236
 2862SOL    HW220220   0.857   0.467   2.431  0.7049  0.4795 -1.5064
 2863SOL     OW20221   4.453   3.667  12.631 -0.3555 -0.5000  0.1842
 2863SOL    HW120222   4.518   3.701  12.692  2.1084  0.5243 -3.0118
 2863SOL    HW220223   4.512   3.615  12.577  0.3711 -0.3909  0.8818
 2864SOL     OW20224   1.480   4.670   6.812  0.0905 -0.2853 -0.0947
 2864SOL    HW120225   1.475   4.589   6.861 -1.0541  0.2960  0.7458
 2864SOL    HW220226   1.434   4.726   6.874 -0.0185 -1.1585  0.5999
 2865SOL     OW20227   3.101   4.719  15.618  0.2430  0.2455  0.2729
 2865SOL    HW120228   3.017   4.678  15.596 -0.0255  0.1775  1.4009
 2865SOL    HW220229   3.140   4.720  15.531 -0.1507 -0.5043  0.0849
 2866SOL     OW20230   0.430   1.442   3.746 -0.6043 -0.1832  0.0751
 2866SOL    HW120231   0.457   1.440   3.838  0.1745 -0.9150 -0.1653
 2866SOL    HW220232   0.413   1.535   3.731  0.5942  0.0112 -0.1035
 2867SOL     OW20233   4.420   1.799   4.310  0.1218 -0.0779 -0.7011
 2867SOL    HW120234   4.364   1.874   4.331 -0.5293 -0.8087  0.1985
 2867SOL    HW220235   4.432   1.760   4.397 -0.3023  0.7375 -0.2725
 2868SOL     OW20236   1.129   4.229   0.808  0.1030  0.0759 -0.3627
 2868SOL    HW120237   1.161   4.318   0.798 -1.4661  0.9670  2.2524
 2868SOL    HW220238   1.037   4.241   0.834  0.2276  0.2795 -0.0118
 2869SOL     OW20239   3.766   4.045  11.617  0.0944  0.3080 -0.0894
 2869SOL    HW120240   3.775   4.000  11.702 -0.0985  1.1728  0.3826
 2869SOL    HW220241   3.844   4.101  11.616  0.7756 -0.6364 -0.4408
 2870SOL     OW20242   1.456   3.396   8.290  0.6066  0.2593 -0.3024
 2870SOL    HW120243   1.368   3.367   8.263  0.5089  0.3046 -0.0371
 2870SOL    HW220244   1.455   3.353   8.376 -1.0509  1.7936  0.4405
 2871SOL     OW20245   2.788   2.666   5.157  0.5808 -0.2352 -0.4389
 2871SOL    HW120246   2.816   2.575   5.171 -0.8630 -0.1900  2.7478
 2871SOL    HW220247   2.715   2.667   5.218  1.0601  2.1077  0.0977
 2872SOL     OW20248   2.126   0.936   1.550  0.1631  0.5355 -0.3801
 2872SOL    HW120249   2.121   0.882   1.470  0.2126 -1.2463  0.8180
 2872SOL    HW220250   2.032   0.941   1.563  0.2279  1.7365 -0.4092
 2873SOL     OW20251   0.846   0.163   5.088 -0.2474  0.2681  0.2049
 2873SOL    HW120252   0.858   0.229   5.156 -1.5793  0.6847  0.0300
 2873SOL    HW220253   0.864   0.221   5.014 -1.0652  0.3138  0.0378
 2874SOL     OW20254   2.372   4.414   0.567  0.3286 -0.4861 -0.2479
 2874SOL    HW120255   2.366   4.510   0.567  1.5832 -0.4068 -0.6208
 2874SOL    HW220256   2.464   4.406   0.592  1.1168 -1.3766 -3.5188
 2875SOL     OW20257   1.064   0.801  10.989  0.4996  0.3606 -0.0826
 2875SOL    HW120258   1.072   0.894  11.009 -1.9415  0.6130 -0.3581
 2875SOL    HW220259   1.129   0.764  11.048 -0.3063 -0.0149  0.5635
 2876SOL     OW20260   2.486   1.692   3.337 -0.3001  0.3455 -0.0262
 2876SOL    HW120261   2.487   1.784   3.309 -0.2671  0.0799 -0.9108
 2876SOL    HW220262   2.535   1.657   3.262  0.9654  2.0509 -0.0081
 2877SOL     OW20263   2.077   1.490   8.102 -0.2356  0.3041  0.0060
 2877SOL    HW120264   2.168   1.519   8.102  0.0030 -0.4159  0.8944
 2877SOL    HW220265   2.039   1.574   8.125 -1.9117 -1.0189  2.0735
 2878SOL     OW20266   3.058   1.550  10.502 -0.1054  0.4764  0.3783
 2878SOL    HW120267   3.087   1.638  10.480  0.8674  0.2591  0.8007
 2878SOL    HW220268   3.050   1.513  10.413  1.2288 -0.6797  0.7404
 2879SOL     OW20269   4.249   0.727  12.789 -0.0721  0.6494 -0.0296
 2879SOL    HW120270   4.231   0.637  12.760 -1.8254  0.0814  2.7502
 2879SOL    HW220271   4.267   0.716  12.882  1.0049  2.4598 -0.0368
 2880SOL     OW20272   1.884   1.383   2.312  0.0225 -0.3195 -0.0139
 2880SOL    HW120273   1.826   1.335   2.371  0.5945 -2.2060 -0.9789
 2880SOL    HW220274   1.865   1.341   2.227 -2.0738  0.9294 -0.1707
 2881SOL     OW20275   1.121   1.501   5.685  0.0342 -0.3136 -0.0565
 2881SOL    HW120276   1.170   1.572   5.644 -2.7510  0.6780 -1.6037
 2881SOL    HW220277   1.056   1.549   5.736 -2.4764 -3.1764 -0.5640
 2882SOL     OW20278   0.402   3.015   9.152 -0.0051 -0.0717  0.4946
 2882SOL    HW120279   0.401   3.025   9.056 -0.0070 -0.5468  0.4441
 2882SOL    HW220280   0.455   2.937   9.169 -3.1733 -2.2649  0.2236
 2883SOL     OW20281   0.221   3.162   9.961 -0.0992  0.5630  0.2136
 2883SOL    HW120282   0.241   3.093  10.025 -1.0581  2.1493  2.2031
 2883SOL    HW220283   0.156   3.204  10.017 -0.0365  0.4105  0.4007
 2884SOL     OW20284   0.881   4.093  13.897  0.0573 -0.1408  0.2005
 2884SOL    HW120285   0.884   4.047  13.981  1.0430 -0.3251  0.0704
 2884SOL    HW220286   0.801   4.143  13.905  0.8268  1.3965 -1.8874
 2885SOL     OW20287   0.986   2.500   5.299 -0.7798 -0.1702 -0.2107
 2885SOL    HW120288   1.031   2.488   5.215 -1.0060  2.0585 -0.6478
 2885SOL    HW220289   0.906   2.540   5.265 -0.9228 -2.0262 -2.1074
 2886SOL     OW20290   3.841   1.559   0.980  0.6493  0.3050 -0.5576
 2886SOL    HW120291   3.747   1.545   0.970  0.4713 -0.1050  1.5850
 2886SOL    HW220292   3.875   1.516   0.902 -0.4384  0.9353 -1.3711
 2887SOL     OW20293   0.395   0.284   5.018  0.2908 -0.3015  0.2912
 2887SOL    HW120294   0.420   0.372   4.989  3.3194 -1.4209 -0.4148
 2887SOL    HW220295   0.466   0.266   5.079  1.1371 -1.3625 -1.0232
 2888SOL     OW20296   1.999   3.479  12.523  0.4116  0.2203 -1.0463
 2888SOL    HW120297   1.917   3.429  12.531  0.2865  0.6241  0.2055
 2888SOL    HW220298   2.012   3.493  12.429  0.7764 -0.6618 -1.1311
 2889SOL     OW20299   1.681   2.257  13.334  0.5234  0.6326  0.4442
 2889SOL    HW120300   1.714   2.341  13.300 -1.1902  0.5875 -1.3800
 2889SOL    HW220301   1.750   2.193  13.315 -0.3679 -0.4937  1.0082
 2890SOL     OW20302   2.627   4.093   9.687 -0.3581 -0.3368  0.0327
 2890SOL    HW120303   2.565   4.020   9.679  1.7804 -2.1001 -0.5739
 2890SOL    HW220304   2.598   4.138   9.609 -0.4341 -0.6529 -0.1220
 2891SOL     OW20305   2.016   0.268   5.635 -0.2021  0.2630  0.1729
 2891SOL    HW120306   1.937   0.301   5.593  0.7554  0.6119 -1.3473
 2891SOL    HW220307   2.062   0.238   5.556  1.4197  0.4256  1.0491
 2892SOL     OW20308   4.167   3.979   2.933 -0.2632 -0.1085  1.1414
 2892SOL    HW120309   4.101   3.927   2.980 -0.6158 -0.8284 -0.1437
 2892SOL    HW220310   4.118   4.039   2.877  1.3293  0.3718  0.2780
 2893SOL     OW20311   2.881   3.934  15.362 -0.4011 -0.0007  0.5275
 2893SOL    HW120312   2.968   3.897  15.351 -1.6845 -2.4114 -1.3503
 2893SOL    HW220313   2.827   3.859  15.340  1.9452 -1.3411 -0.5834
 2894SOL     OW20314   2.370   2.506   6.217 -0.2485 -0.1244 -0.3680
 2894SOL    HW120315   2.464   2.503   6.234 -0.1032 -0.5257 -1.2452
 2894SOL    HW220316   2.367   2.491   6.123 -1.1777  0.0712 -0.3715
 2895SOL     OW20317   3.241   3.060   6.382 -0.3430 -0.4946  0.1393
 2895SOL    HW120318   3.155   3.026   6.359 -0.3605 -0.2644 -0.1431
 2895SOL    HW220319   3.226   3.155   6.381  1.0221 -0.2836 -1.5719
 2896SOL     OW20320   4.464   3.230  12.231 -0.4239 -0.2903  0.0609
 2896SOL    HW120321   4.554   3.222  12.199 -0.8869 -2.3206 -0.7057
 2896SOL    HW220322   4.429   3.150  12.195 -0.8092 -0.2051  0.2484
 2897SOL     OW20323   3.181   3.770   2.555  1.1912 -0.1321 -0.3335
 2897SOL    HW120324   3.275   3.762   2.571  0.8050 -1.2016  1.4708
 2897SOL    HW220325   3.160   3.684   2.519 -0.7653  0.7328 -1.2227
 2898SOL     OW20326   1.720   1.634   5.093  0.2910 -0.2898  0.5791
 2898SOL    HW120327   1.768   1.629   5.176  1.1567 -2.3942 -0.0507
 2898SOL    HW220328   1.659   1.708   5.101  2.1443  1.4164 -1.0121
 2899SOL     OW20329   0.416   3.928  15.906  0.7161  0.8174  0.0190
 2899SOL    HW120330   0.331   3.967  15.886  0.8759  1.4090  0.5120
 2899SOL    HW220331   0.440   3.919  15.813  1.1213 -0.9505  0.2968
 2900SOL     OW20332   4.727   3.218   7.026 -0.5910 -0.0833 -0.1153
 2900SOL    HW120333   4.723   3.308   6.993  0.2651  0.0669  0.2040
 2900SOL    HW220334   4.673   3.230   7.104 -0.3338 -0.5192  0.1241
 2901SOL     OW20335   4.527   3.279   3.228 -0.0469 -0.1142  0.0367
 2901SOL    HW120336   4.513   3.248   3.318 -1.0751 -0.3374 -0.2017
 2901SOL    HW220337   4.583   3.355   3.240  2.6244 -2.4126  2.2157
 2902SOL     OW20338   1.209   4.688   8.285  0.1217 -0.0370  0.5200
 2902SOL    HW120339   1.121   4.714   8.312 -1.4727 -0.6982 -4.0889
 2902SOL    HW220340   1.187   4.647   8.201 -0.8789 -1.2108  1.3517
 2903SOL     OW20341   4.319   2.753   6.958 -0.7468 -0.0859 -0.3927
 2903SOL    HW120342   4.372   2.699   7.016  0.8304  2.1230  0.2367
 2903SOL    HW220343   4.275   2.686   6.905 -0.0497 -0.4062 -0.5570
 2904SOL     OW20344   3.702   3.673   7.798  0.1745 -0.2933 -0.2469
 2904SOL    HW120345   3.693   3.722   7.716  0.5678 -0.6505 -0.5019
 2904SOL    HW220346   3.627   3.707   7.846 -1.6116  0.7304 -3.8071
 2905SOL     OW20347   1.917   2.920   6.381 -0.2392  0.2505 -0.3323
 2905SOL    HW120348   1.887   2.832   6.362  2.0137 -0.3895 -0.8517
 2905SOL    HW220349   1.860   2.973   6.325  0.2722  0.2818 -0.8182
 2906SOL     OW20350   0.946   0.786   5.661  0.1818  0.2051  0.9183
 2906SOL    HW120351   0.946   0.698   5.700  0.3630 -0.0268  0.3946
 2906SOL    HW220352   0.864   0.779   5.612  1.3906  2.4584 -1.3655
 2907SOL     OW20353   3.082   0.862  16.816 -0.1156 -0.1970  0.2598
 2907SOL    HW120354   3.173   0.872  16.788 -0.0022 -1.0379  0.3453
 2907SOL    HW220355   3.049   0.935  16.763  0.2264  0.9981  1.7012
 2908SOL     OW20356   3.192   0.238  14.036  0.1503  0.1223  0.2386
 2908SOL    HW120357   3.126   0.271  13.975 -1.5615 -3.3304  0.1999
 2908SOL    HW220358   3.132   0.216  14.107  0.4803  0.3109  0.5785
 2909SOL     OW20359   1.749   4.294   2.453  0.0080 -0.0619  0.0022
 2909SOL    HW120360   1.691   4.219   2.467  0.6304 -0.4355  0.5340
 2909SOL    HW220361   1.834   4.252   2.446 -0.6715 -1.0543 -2.6113
 2910SOL     OW20362   2.280   3.578   9.094  0.2757 -0.1822 -0.4689
 2910SOL    HW120363   2.199   3.618   9.062 -0.3624 -1.4048 -0.3435
 2910SOL    HW220364   2.246   3.510   9.152  0.8751 -0.6855 -0.6998
 2911SOL     OW20365   4.659   4.230  16.036 -0.3763 -0.2029 -0.2539
 2911SOL    HW120366   4.630   4.205  15.948 -1.2720  0.9176 -0.2716
 2911SOL    HW220367   4.608   4.168  16.089  0.8859  0.8610  2.1859
 2912SOL     OW20368   3.490   1.453   8.245 -0.1398 -0.2257 -0.2132
 2912SOL    HW120369   3.414   1.459   8.188  0.2833 -1.6389 -0.9306
 2912SOL    HW220370   3.560   1.418   8.189  0.2233 -2.8346  1.8719
 2913SOL     OW20371   3.456   1.046   2.862  0.0244  0.0942 -0.2073
 2913SOL    HW120372   3.418   1.033   2.775  0.6279 -1.6901 -0.2166
 2913SOL    HW220373   3.542   1.006   2.850  0.1893  0.2026  0.6104
 2914SOL     OW20374   3.243   1.425  14.614  0.2429  0.3883  0.4368
 2914SOL    HW120375   3.193   1.436  14.533 -1.1601 -0.2508  1.2313
 2914SOL    HW220376   3.267   1.333  14.609 -1.3805 -0.0809  1.5913
 2915SOL     OW20377   0.475   2.498   5.646 -0.1182  0.1344  0.4671
 2915SOL    HW120378   0.561   2.513   5.607 -0.4015  0.1297 -0.1559
 2915SOL    HW220379   0.435   2.463   5.566  1.1177  0.1285 -0.1596
 2916SOL     OW20380   4.730   0.568   7.804  0.0519 -0.2896 -0.3838
 2916SOL    HW120381   0.053   0.609   7.867 -0.1117 -0.0836 -0.3611
 2916SOL    HW220382   0.054   0.566   7.729  2.7339 -0.0615  1.8016
 2917SOL     OW20383   0.259   0.505   1.767  0.4889 -0.9832 -0.1332
 2917SOL    HW120384   0.326   0.573   1.760  0.8258 -1.3508 -0.4652
 2917SOL    HW220385   0.318   0.430   1.770  0.6320 -0.7946  2.2180
 2918SOL     OW20386   2.704   4.174  10.078 -1.1461  0.5339 -0.0270
 2918SOL    HW120387   2.750   4.184   9.994 -0.8755 -0.3704  0.0142
 2918SOL    HW220388   2.619   4.207  10.049 -1.3116  0.9234  0.8939
 2919SOL     OW20389   0.815   2.721   8.797 -0.4672  0.4697 -0.3066
 2919SOL    HW120390   0.889   2.780   8.792 -0.0262 -0.0278  0.2636
 2919SOL    HW220391   0.740   2.775   8.821  0.1991  2.2631 -2.3261
 2920SOL     OW20392   3.447   3.838  16.242 -0.2973 -0.3758 -0.5275
 2920SOL    HW120393   3.462   3.754  16.286 -3.2926  0.9331  3.0056
 2920SOL    HW220394   3.407   3.795  16.167 -2.2118 -0.7382  0.7128
 2921SOL     OW20395   1.908   2.490   5.158  0.0721 -0.2241  0.1372
 2921SOL    HW120396   1.903   2.431   5.233  0.8996 -0.2839  0.1463
 2921SOL    HW220397   1.928   2.572   5.203 -0.5818  0.9366 -1.6966
 2922SOL     OW20398   4.081   1.226  12.709  0.0621 -0.0170  0.5031
 2922SOL    HW120399   4.167   1.187  12.724  0.6257  1.2558  0.5828
 2922SOL    HW220400   4.076   1.245  12.616 -0.4235  0.8564  0.7136
 2923SOL     OW20401   1.666   3.671  16.584  0.2334  0.0136 -0.2640
 2923SOL    HW120402   1.587   3.657  16.636 -1.0004  3.1202 -1.3359
 2923SOL    HW220403   1.715   3.589  16.597 -0.3921 -0.0272  1.8146
 2924SOL     OW20404   3.057   0.534   5.407  0.2314  0.0872 -0.3914
 2924SOL    HW120405   3.120   0.481   5.457  0.2507  1.2112  0.7920
 2924SOL    HW220406   2.976   0.488   5.425  0.6796 -1.6583 -2.8569
 2925SOL     OW20407   3.867   2.928   9.033 -0.5117  0.0339  0.5327
 2925SOL    HW120408   3.934   2.972   9.087 -2.7053  0.7113  2.6790
 2925SOL    HW220409   3.916   2.868   8.977 -2.6897  0.6598 -2.0426
 2926SOL     OW20410   1.564   2.022   6.444 -0.3893 -0.4496  0.3935
 2926SOL    HW120411   1.565   2.114   6.416  2.9547 -0.0953  1.6530
 2926SOL    HW220412   1.641   2.021   6.501 -0.1027  0.6404  0.0422
 2927SOL     OW20413   2.031   2.239   3.435  0.4617 -0.0446  0.5986
 2927SOL    HW120414   1.980   2.201   3.506 -0.1214  0.5070  0.4738
 2927SOL    HW220415   1.982   2.320   3.422  2.4072  1.2928  1.4907
 2928SOL     OW20416   2.244   2.946   5.314 -0.3509 -0.2785 -0.1021
 2928SOL    HW120417   2.170   2.991   5.274 -0.3802 -1.0132 -0.8761
 2928SOL    HW220418   2.309   2.936   5.244 -0.5042  1.1474 -0.4359
 2929SOL     OW20419   4.092   1.125  12.447  0.1167 -0.2345  0.9909
 2929SOL    HW120420   4.000   1.112  12.422  0.1742  0.7025  0.2913
 2929SOL    HW220421   4.121   1.037  12.472  0.0127 -0.9239 -1.3392
 2930SOL     OW20422   0.977   1.871   8.033 -0.2471 -0.0173 -0.0597
 2930SOL    HW120423   0.977   1.885   8.128  3.8926  1.1143 -0.2151
 2930SOL    HW220424   1.000   1.779   8.032  1.2157  0.3624 -0.9318
 2931SOL     OW20425   4.675   4.120  10.698  0.6709 -0.6831 -0.2227
 2931SOL    HW120426   4.662   4.044  10.641  1.3967  1.1064 -2.7950
 2931SOL    HW220427   4.596   4.173  10.685  0.5419 -0.4225  1.6221
 2932SOL     OW20428   0.185   3.282   9.464  1.0138  0.1452 -0.1026
 2932SOL    HW120429   0.230   3.205   9.431  0.6356  0.7998 -2.1290
 2932SOL    HW220430   0.147   3.262   9.550  1.9025  1.3205  0.5732
 2933SOL     OW20431   1.146   0.649  12.230  0.5103  0.1994  0.3761
 2933SOL    HW120432   1.207   0.629  12.159 -0.4347 -2.0039  0.1772
 2933SOL    HW220433   1.064   0.644  12.182 -0.1409 -0.9692  1.5898
 2934SOL     OW20434   2.429   2.125   3.628 -0.1559 -0.2750 -0.5010
 2934SOL    HW120435   2.376   2.180   3.685  0.9810  0.1566  0.1429
 2934SOL    HW220436   2.369   2.117   3.554 -0.6483  0.8552 -0.2208
 2935SOL     OW20437   1.820   4.215   2.974  0.3833  0.5171  0.1932
 2935SOL    HW120438   1.853   4.305   2.976  2.6355 -0.3620  3.2268
 2935SOL    HW220439   1.895   4.156   2.969  0.2191  0.3727 -0.4952
 2936SOL     OW20440   0.856   0.457  14.622 -0.3985 -0.1434 -0.3052
 2936SOL    HW120441   0.939   0.500  14.604 -0.9920  1.1250  0.0097
 2936SOL    HW220442   0.827   0.447  14.531  2.6070  0.1558 -1.3050
 2937SOL     OW20443   1.202   2.495   6.939  0.8636 -0.3118 -0.1735
 2937SOL    HW120444   1.167   2.535   6.860 -1.4789 -1.0798  0.4829
 2937SOL    HW220445   1.256   2.570   6.965 -0.0769  0.9989 -2.0397
 2938SOL     OW20446   2.521   4.151   5.164 -0.9165 -0.2303  0.1303
 2938SOL    HW120447   2.557   4.115   5.245 -1.3179  0.4164  0.5928
 2938SOL    HW220448   2.592   4.212   5.142 -1.1919  0.0235 -0.0626
 2939SOL     OW20449   3.254   3.283  10.212 -0.0199 -0.1377  0.0847
 2939SOL    HW120450   3.168   3.241  10.206  0.5178 -1.2186 -0.0979
 2939SOL    HW220451   3.286   3.242  10.132  2.3089  2.3909 -0.2890
 2940SOL     OW20452   0.033   1.780   8.338 -0.2466  0.5803 -0.0389
 2940SOL    HW120453   4.675   1.789   8.343 -0.1591  1.0268  0.7852
 2940SOL    HW220454   0.063   1.855   8.287 -1.1291  1.3167  0.5190
 2941SOL     OW20455   1.126   2.953   3.057  0.2931  0.8293 -0.8318
 2941SOL    HW120456   1.216   2.931   3.033 -0.8951 -3.9260 -0.8794
 2941SOL    HW220457   1.111   2.895   3.131  4.2128  1.1003  0.1699
 2942SOL     OW20458   0.486   1.030   4.935  0.2449 -0.6062 -0.3517
 2942SOL    HW120459   0.501   1.118   4.902 -0.7674 -0.9987 -1.8605
 2942SOL    HW220460   0.479   1.047   5.029  1.5973  0.6076 -0.4746
 2943SOL     OW20461   4.541   3.314   5.061  0.7938  0.1950  0.5792
 2943SOL    HW120462   4.453   3.352   5.052  0.6538 -0.1817  0.3431
 2943SOL    HW220463   4.551   3.271   4.976 -1.6483  1.0718 -0.1603
 2944SOL     OW20464   4.737   2.232   6.676  0.9580  0.4825  0.3262
 2944SOL    HW120465   4.708   2.142   6.691  0.5182  0.6804  0.6722
 2944SOL    HW220466   0.064   2.237   6.747 -1.2680 -0.4603  2.4015
 2945SOL     OW20467   4.466   3.785   2.727  0.6542 -0.2889 -0.1340
 2945SOL    HW120468   4.478   3.850   2.657  1.2385 -1.2238 -0.9006
 2945SOL    HW220469   4.534   3.719   2.714  0.3530 -0.4002 -1.1330
 2946SOL     OW20470   2.574   2.710   5.308  0.3313 -0.7577 -0.6213
 2946SOL    HW120471   2.533   2.754   5.234  0.6517  0.4302 -0.0873
 2946SOL    HW220472   2.545   2.762   5.382 -0.8048  1.4209 -2.6129
 2947SOL     OW20473   1.994   0.858   4.669 -0.2214  0.2206  0.3989
 2947SOL    HW120474   1.918   0.889   4.719  0.1464  0.7409  0.6385
 2947SOL    HW220475   1.993   0.910   4.588 -1.6469 -1.0959 -0.4090
 2948SOL     OW20476   3.048   4.589   0.377 -0.7197 -0.6326  0.0150
 2948SOL    HW120477   3.002   4.508   0.401 -0.9912  0.0750  1.8774
 2948SOL    HW220478   3.044   4.583   0.282 -0.2882 -4.5386  0.2234
 2949SOL     OW20479   2.896   4.040  14.946  0.6816 -0.0569  0.1281
 2949SOL    HW120480   2.835   4.113  14.934 -0.2134 -1.0636 -1.4651
 2949SOL    HW220481   2.846   3.966  14.912 -0.5986  2.0980 -2.7322
 2950SOL     OW20482   2.138   1.918  12.633  0.2070  0.3498  0.4105
 2950SOL    HW120483   2.181   1.952  12.555 -1.1831 -1.6238 -1.2166
 2950SOL    HW220484   2.191   1.954  12.704 -0.5642 -0.7882  1.5705
 2951SOL     OW20485   3.903   1.823   8.068  0.7728 -0.3349 -0.1351
 2951SOL    HW120486   3.918   1.731   8.090 -0.1097 -0.4730 -0.0996
 2951SOL    HW220487   3.904   1.852   8.160  1.3933 -0.4306 -0.1146
 2952SOL     OW20488   4.121   1.120  10.814  0.2914 -1.0010  0.1736
 2952SOL    HW120489   4.040   1.103  10.768 -0.0576  0.8462  0.0907
 2952SOL    HW220490   4.190   1.082  10.759  0.2140 -1.0787  0.1297
 2953SOL     OW20491   0.499   0.636   3.632 -0.2762 -0.0440  0.2093
 2953SOL    HW120492   0.574   0.680   3.672 -0.2937  1.6460 -1.6432
 2953SOL    HW220493   0.431   0.700   3.609 -1.0361 -0.4988  1.1440
 2954SOL     OW20494   1.790   1.939   5.142 -0.1148  0.0243  0.1940
 2954SOL    HW120495   1.706   1.897   5.155  0.4118 -0.4266  2.1846
 2954SOL    HW220496   1.774   2.012   5.203  1.9698 -0.3164  1.1662
 2955SOL     OW20497   4.157   1.197   7.814 -0.2051  0.3492 -0.1574
 2955SOL    HW120498   4.126   1.128   7.756  2.9376 -0.1336 -1.2681
 2955SOL    HW220499   4.182   1.145   7.890 -1.2760 -0.0740 -0.0897
 2956SOL     OW20500   0.615   4.270   7.460  0.5093 -0.0455  0.2801
 2956SOL    HW120501   0.527   4.271   7.424  0.4929  0.3996  0.3285
 2956SOL    HW220502   0.604   4.310   7.546 -0.6637 -0.9024  0.5210
 2957SOL     OW20503   3.020   0.144   6.774 -0.0811  0.1426 -0.4243
 2957SOL    HW120504   2.983   0.209   6.714  1.0183  1.7976  0.6815
 2957SOL    HW220505   2.974   0.070   6.735 -0.3986 -0.5283  1.2548
 2958SOL     OW20506   0.996   2.333   6.542  0.3658 -0.1397 -0.0242
 2958SOL    HW120507   0.968   2.261   6.599  0.6178  0.9508  1.4813
 2958SOL    HW220508   1.089   2.328   6.566  0.0168  0.1694  1.3623
 2959SOL     OW20509   2.320   0.982   1.125 -0.4749 -0.6141  0.2648
 2959SOL    HW120510   2.382   0.910   1.123  0.8813  0.5958 -1.4221
 2959SOL    HW220511   2.322   0.999   1.220  1.1187 -0.0623  0.1318
 2960SOL     OW20512   2.799   1.095   8.279  0.4803 -0.3786 -0.0402
 2960SOL    HW120513   2.762   1.160   8.339 -0.2297  0.1447 -1.0447
 2960SOL    HW220514   2.807   1.022   8.340 -2.3887  0.8254  1.7840
 2961SOL     OW20515   3.358   4.635   7.456  0.3741 -0.7012 -0.3430
 2961SOL    HW120516   3.427   4.631   7.390  1.3126 -0.9268  0.6466
 2961SOL    HW220517   3.419   4.644   7.530 -1.2941 -1.8416  1.1707
 2962SOL     OW20518   1.847   0.745   2.773 -0.2417  0.1323  0.1823
 2962SOL    HW120519   1.854   0.731   2.868 -0.2995 -1.3240 -0.0251
 2962SOL    HW220520   1.881   0.659   2.746 -0.9291 -0.1720  0.3047
 2963SOL     OW20521   2.343   2.922  12.625 -0.0207 -0.4604  0.1753
 2963SOL    HW120522   2.431   2.927  12.663 -0.4464  2.0972  0.8501
 2963SOL    HW220523   2.348   2.997  12.566  0.9399 -1.5313 -1.0924
 2964SOL     OW20524   0.969   3.826  14.434 -0.1561  0.0321 -0.6452
 2964SOL    HW120525   0.970   3.916  14.401 -0.2648  0.6183  0.9558
 2964SOL    HW220526   1.063   3.813  14.443 -0.3937 -2.2748 -1.4041
 2965SOL     OW20527   3.385   0.992  10.018  0.8597  0.1781  0.1790
 2965SOL    HW120528   3.366   1.080   9.985 -0.5891 -0.6641 -1.2069
 2965SOL    HW220529   3.473   0.984   9.980  0.7640 -0.9398  0.1921
 2966SOL     OW20530   1.297   1.609   1.308 -0.2994  0.0232  0.4477
 2966SOL    HW120531   1.235   1.540   1.285 -1.3433  1.2504 -0.4736
 2966SOL    HW220532   1.328   1.630   1.220 -0.1354  0.3676  0.5875
 2967SOL     OW20533   4.306   3.284   1.650 -0.2705  0.0474  0.1904
 2967SOL    HW120534   4.237   3.331   1.604 -0.0361  1.3586  1.2005
 2967SOL    HW220535   4.290   3.212   1.589 -1.2533 -1.4412  2.2169
 2968SOL     OW20536   2.013   0.206   1.638 -0.0320  0.1460  0.1312
 2968SOL    HW120537   2.095   0.206   1.589 -2.3255  1.5607 -3.7043
 2968SOL    HW220538   1.951   0.226   1.568  1.3290 -0.3137 -1.1732
 2969SOL     OW20539   1.647   0.191   9.935 -0.1611 -0.0819  0.2488
 2969SOL    HW120540   1.585   0.128   9.971 -1.4713  1.0119 -0.0709
 2969SOL    HW220541   1.621   0.271   9.980 -1.8782 -0.7831  0.4976
 2970SOL     OW20542   3.186   3.374  14.690 -0.8605  0.6192  0.7744
 2970SOL    HW120543   3.095   3.350  14.711 -1.7392  2.3986 -1.0121
 2970SOL    HW220544   3.225   3.288  14.707 -1.0571  0.4963  0.6042
 2971SOL     OW20545   0.651   3.245  11.250 -0.1502 -0.0453  0.1188
 2971SOL    HW120546   0.562   3.226  11.278  0.2371  0.1389  1.4838
 2971SOL    HW220547   0.700   3.247  11.332  0.0120  4.7741 -0.0825
 2972SOL     OW20548   3.496   0.064   6.199 -0.1204 -0.1720  0.3715
 2972SOL    HW120549   3.406   0.090   6.219 -0.8553 -1.5585 -1.0939
 2972SOL    HW220550   3.533   0.044   6.284  0.9998  0.3778  0.0034
 2973SOL     OW20551   0.260   0.629   5.198 -0.4314 -0.4775 -0.1531
 2973SOL    HW120552   0.204   0.682   5.255 -0.7666 -1.3469  0.3297
 2973SOL    HW220553   0.239   0.539   5.222  3.3886 -0.9084  1.5232
 2974SOL     OW20554   1.944   1.209   6.883 -0.5057  0.1369  0.0303
 2974SOL    HW120555   1.850   1.216   6.896 -0.5885 -1.5907  0.3484
 2974SOL    HW220556   1.943   1.147   6.811 -2.8694 -0.2027  0.3614
 2975SOL     OW20557   1.785   0.281   3.921  0.0338  0.4502 -0.5213
 2975SOL    HW120558   1.706   0.245   3.960  0.6595 -0.9788 -0.5728
 2975SOL    HW220559   1.814   0.205   3.870  0.6275  1.0597 -1.0909
 2976SOL     OW20560   1.261   4.446  13.831  0.0523  0.1234  0.2802
 2976SOL    HW120561   1.180   4.401  13.808  0.6242 -0.1025 -1.2871
 2976SOL    HW220562   1.321   4.374  13.849 -0.3176  0.0208  1.1374
 2977SOL     OW20563   3.952   0.674  15.319  0.6995  0.0421  0.2622
 2977SOL    HW120564   4.042   0.679  15.286  0.6234 -1.9637 -0.2617
 2977SOL    HW220565   3.941   0.741  15.386  2.6702  0.0581  0.5688
 2978SOL     OW20566   4.400   2.493  16.462  0.2373 -0.4812 -0.0714
 2978SOL    HW120567   4.395   2.529  16.373  2.8069 -3.7286 -1.5313
 2978SOL    HW220568   4.473   2.545  16.495 -0.1684 -0.1701  0.3347
 2979SOL     OW20569   2.280   2.552   6.614 -0.0577 -0.1826 -0.3790
 2979SOL    HW120570   2.343   2.623   6.616  1.3678 -1.4448 -0.2381
 2979SOL    HW220571   2.323   2.490   6.556  0.0764  0.2025 -0.6851
 2980SOL     OW20572   1.139   2.988   3.640 -0.3973 -0.0100  0.4209
 2980SOL    HW120573   1.125   3.074   3.600  1.5768 -0.0137 -0.2781
 2980SOL    HW220574   1.059   2.979   3.692 -1.9177  1.3110 -1.7008
 2981SOL     OW20575   1.670   3.847   4.940 -0.1090 -0.2740  0.1498
 2981SOL    HW120576   1.678   3.895   5.023 -2.5469  0.3043  0.0591
 2981SOL    HW220577   1.680   3.915   4.874  1.3274 -0.9242 -0.3038
 2982SOL     OW20578   3.322   2.466   8.384  0.1649 -0.2671 -0.3791
 2982SOL    HW120579   3.257   2.484   8.316  0.0802 -2.1599 -0.8057
 2982SOL    HW220580   3.267   2.479   8.461  1.1368  2.0171 -0.0621
 2983SOL     OW20581   3.658   2.060   3.437 -0.1214 -0.0349 -0.3000
 2983SOL    HW120582   3.633   2.006   3.362 -0.8288  0.6417 -0.5499
 2983SOL    HW220583   3.712   2.132   3.406 -1.4497  2.0996  2.3869
 2984SOL     OW20584   0.633   3.326   4.869 -0.0583 -0.3885 -0.2969
 2984SOL    HW120585   0.658   3.247   4.821 -1.1564 -2.0261  1.8594
 2984SOL    HW220586   0.619   3.297   4.959 -0.5010  1.0220  0.0984
 2985SOL     OW20587   2.171   3.010   6.099  0.3213  0.8031  0.6836
 2985SOL    HW120588   2.111   3.083   6.087 -0.4452  0.1809  0.7563
 2985SOL    HW220589   2.124   2.940   6.055  0.1546 -0.4731  2.8874
 2986SOL     OW20590   1.604   1.869   1.480 -0.5056 -0.1143 -0.6034
 2986SOL    HW120591   1.556   1.887   1.399 -1.3727  0.7453  0.1083
 2986SOL    HW220592   1.564   1.790   1.514  2.3520 -1.7010 -0.9096
 2987SOL     OW20593   2.015   1.557   4.182  0.1019 -0.0231  0.2726
 2987SOL    HW120594   2.084   1.534   4.119  0.0199  0.2654  0.0786
 2987SOL    HW220595   2.019   1.476   4.233  0.9977 -1.7008 -2.4669
 2988SOL     OW20596   1.007   0.997   4.622  0.0953 -0.1256 -0.5110
 2988SOL    HW120597   1.100   1.010   4.640 -0.2789 -0.8394  1.9540
 2988SOL    HW220598   1.005   0.988   4.527  1.1899 -1.0085 -0.4546
 2989SOL     OW20599   1.028   1.770  12.632  0.4307  0.2806  0.3289
 2989SOL    HW120600   1.048   1.683  12.598  0.9209  1.5099 -2.4519
 2989SOL    HW220601   0.935   1.785  12.613  0.5854  0.4278 -0.2994
 2990SOL     OW20602   3.999   4.538   8.272 -0.7658  1.1657  0.2247
 2990SOL    HW120603   4.017   4.618   8.321  2.3837  0.4049  0.3295
 2990SOL    HW220604   4.082   4.495   8.292 -1.0692  0.6954  0.4866
 2991SOL     OW20605   1.175   1.427   8.615  0.3218  0.1113  0.6429
 2991SOL    HW120606   1.156   1.366   8.544  0.4702  1.9423 -0.9675
 2991SOL    HW220607   1.270   1.415   8.612  0.4318  1.0823  0.1817
 2992SOL     OW20608   1.348   0.821  12.943 -0.1778  0.1983  0.3562
 2992SOL    HW120609   1.346   0.910  12.977 -0.3127 -0.3462  1.7735
 2992SOL    HW220610   1.425   0.823  12.885 -1.1415  0.5227 -0.9306
 2993SOL     OW20611   0.811   0.293  11.845 -0.0042  0.1881  0.5085
 2993SOL    HW120612   0.753   0.217  11.854  0.5517 -0.0914  1.7988
 2993SOL    HW220613   0.774   0.339  11.921 -1.9471  1.7450 -1.3747
 2994SOL     OW20614   0.666   3.924  10.393  0.3261  0.0177 -0.1392
 2994SOL    HW120615   0.734   3.966  10.340 -0.9600 -2.5352 -3.7946
 2994SOL    HW220616   0.609   3.880  10.330 -0.8744  0.2889  0.7554
 2995SOL     OW20617   1.440   0.863   5.829 -0.5433  0.0573  0.4981
 2995SOL    HW120618   1.485   0.945   5.850  0.3592 -0.1246 -0.6812
 2995SOL    HW220619   1.502   0.820   5.769 -1.3020  0.0834 -0.3132
 2996SOL     OW20620   2.852   3.439   4.932 -1.0591 -0.1394 -0.1320
 2996SOL    HW120621   2.786   3.503   4.960  0.2745  1.5197 -0.7906
 2996SOL    HW220622   2.807   3.357   4.950 -0.5948 -0.6635 -1.3602
 2997SOL     OW20623   2.199   1.881   1.610 -0.5142  0.5431 -0.1609
 2997SOL    HW120624   2.260   1.859   1.681 -0.2502  1.4507 -0.1056
 2997SOL    HW220625   2.171   1.971   1.624  0.8016  1.2724 -2.2759
 2998SOL     OW20626   4.547   1.184  12.898  0.7265 -0.4293 -0.2138
 2998SOL    HW120627   4.470   1.237  12.920  0.8135  0.0816 -1.1426
 2998SOL    HW220628   4.614   1.247  12.874  0.9957 -0.6552 -0.0538
 2999SOL     OW20629   4.696   0.962   5.719  0.7300  0.3328  0.2481
 2999SOL    HW120630   4.685   0.870   5.699  0.8533  0.2587  0.5096
 2999SOL    HW220631   4.658   0.966   5.807 -1.4253 -1.5524 -0.6025
 3000SOL     OW20632   2.685   1.556  11.194  0.4576  0.0920 -0.2383
 3000SOL    HW120633   2.741   1.521  11.125 -1.1353 -0.4901 -1.2307
 3000SOL    HW220634   2.647   1.474  11.226  1.1306  0.8960  2.5924
 3001SOL     OW20635   2.477   3.870   9.608 -0.1615  0.4271 -0.5526
 3001SOL    HW120636   2.388   3.875   9.644 -0.6724  2.9450 -2.0959
 3001SOL    HW220637   2.518   3.805   9.664 -1.1918  0.6434  0.4520
 3002SOL     OW20638   3.856   3.727   8.047  0.1104 -0.6229  0.5691
 3002SOL    HW120639   3.797   3.685   7.985  0.3549 -0.5262  0.2700
 3002SOL    HW220640   3.791   3.777   8.098 -1.0180 -0.4618 -1.0383
 3003SOL     OW20641   4.061   2.407  12.987  0.0900 -0.7543 -0.1320
 3003SOL    HW120642   4.154   2.389  12.975  0.0833 -1.0581  0.2667
 3003SOL    HW220643   4.050   2.383  13.079  1.3010 -1.8147 -0.2737
 3004SOL     OW20644   2.761   1.494   4.946  0.2189  0.0456 -0.4986
 3004SOL    HW120645   2.753   1.583   4.979 -0.3158 -0.7361  1.4977
 3004SOL    HW220646   2.788   1.451   5.027  2.1283 -0.2309 -1.2922
 3005SOL     OW20647   2.852   1.749   8.012 -0.0722 -0.1717 -0.2868
 3005SOL    HW120648   2.874   1.755   8.105  3.2762  0.1001 -1.0793
 3005SOL    HW220649   2.757   1.762   8.012 -0.4107 -2.6378  0.0568
 3006SOL     OW20650   0.002   4.530   6.091  0.0951  0.0639  0.1663
 3006SOL    HW120651   0.029   4.446   6.053 -3.2186 -0.8402 -0.1668
 3006SOL    HW220652   4.732   4.512   6.185  3.3334 -0.8252  0.2399
 3007SOL     OW20653   2.938   2.549  17.180  0.3808 -0.1107  0.0684
 3007SOL    HW120654   2.858   2.578  17.225  1.3497  1.1397  0.9622
 3007SOL    HW220655   2.905   2.460  17.168 -1.7385  0.8153 -1.0663
 3008SOL     OW20656   1.771   2.222   4.268 -0.1742 -0.1956  0.3108
 3008SOL    HW120657   1.833   2.204   4.339 -1.9888  1.3039  2.2581
 3008SOL    HW220658   1.729   2.136   4.260 -1.5630  0.7225 -2.3214
 3009SOL     OW20659   0.893   0.681   5.356  0.0036  0.5070  0.4320
 3009SOL    HW120660   0.886   0.650   5.266 -0.0130  0.7675  0.3433
 3009SOL    HW220661   0.942   0.763   5.349 -0.8667  1.1381  1.4990
 3010SOL     OW20662   2.719   4.123   8.802 -0.4150  0.3479 -0.2736
 3010SOL    HW120663   2.807   4.126   8.839 -0.5806 -0.1798  0.1629
 3010SOL    HW220664   2.681   4.041   8.834  0.0631  1.3467  2.8714
 3011SOL     OW20665   2.233   3.021   9.408  0.5055 -0.0330  0.2904
 3011SOL    HW120666   2.171   2.947   9.412 -1.5039  1.5222 -2.5139
 3011SOL    HW220667   2.205   3.067   9.487  1.8775  0.2961  0.5688
 3012SOL     OW20668   0.434   1.527   9.882 -0.8572  0.2789 -0.0421
 3012SOL    HW120669   0.445   1.485   9.797  5.3331 -1.6562  1.7084
 3012SOL    HW220670   0.478   1.466   9.942  0.5076  0.2722 -1.0440
 3013SOL     OW20671   4.283   0.743   4.896  0.0944  0.1923 -0.5037
 3013SOL    HW120672   4.202   0.747   4.844  0.3249 -1.6085 -1.0069
 3013SOL    HW220673   4.255   0.782   4.979 -0.6014 -0.0494 -0.6226
 3014SOL     OW20674   1.453   3.502   5.675 -0.4184  0.2406 -0.2451
 3014SOL    HW120675   1.428   3.589   5.707 -1.3581 -0.5395  1.1436
 3014SOL    HW220676   1.546   3.512   5.655 -0.1878  0.2056  0.8028
 3015SOL     OW20677   0.900   2.053   2.785  0.0611  0.2647 -0.5657
 3015SOL    HW120678   0.859   2.004   2.714 -0.2127  1.6738 -1.3527
 3015SOL    HW220679   0.983   2.076   2.743 -0.0262 -0.1328 -0.9536
 3016SOL     OW20680   2.540   1.530   2.531 -0.5861 -0.4571 -0.2584
 3016SOL    HW120681   2.449   1.559   2.526 -0.3854  0.4367  1.0732
 3016SOL    HW220682   2.555   1.489   2.447  3.1128  0.3305  0.0304
 3017SOL     OW20683   0.296   2.435   8.360 -0.7230 -0.2164  0.7860
 3017SOL    HW120684   0.316   2.342   8.350  1.2524  0.4811 -1.8084
 3017SOL    HW220685   0.309   2.440   8.454 -1.1070  0.5706  0.7987
 3018SOL     OW20686   1.878   3.546  14.850 -0.3459  0.1588  0.2461
 3018SOL    HW120687   1.835   3.631  14.861 -2.8663 -0.4898 -4.2936
 3018SOL    HW220688   1.799   3.492  14.850 -0.2084 -0.0597 -3.0303
 3019SOL     OW20689   2.698   3.616   8.769 -0.5228 -0.3609  0.2382
 3019SOL    HW120690   2.774   3.574   8.810 -0.3619  0.8198  1.1775
 3019SOL    HW220691   2.636   3.555   8.809  0.3491 -0.9549  0.7072
 3020SOL     OW20692   4.043   1.271   8.211  0.2512  0.1427 -0.4068
 3020SOL    HW120693   3.988   1.343   8.243  1.6184  0.3383  1.4732
 3020SOL    HW220694   4.130   1.308   8.203 -1.1051  2.8354 -2.6357
 3021SOL     OW20695   3.927   2.649   2.717 -0.3757 -0.1541  0.6456
 3021SOL    HW120696   4.016   2.670   2.688 -0.1344 -1.3916  0.4819
 3021SOL    HW220697   3.896   2.604   2.639  1.0515 -1.7041  0.9598
 3022SOL     OW20698   2.734   3.687  15.006  0.2606  0.1573  0.0309
 3022SOL    HW120699   2.759   3.703  14.915  0.8285  1.1929  0.3803
 3022SOL    HW220700   2.640   3.707  15.000 -0.1801 -1.9164 -0.1233
 3023SOL     OW20701   2.195   3.690  11.547 -0.0147 -0.2406  0.3077
 3023SOL    HW120702   2.170   3.598  11.555 -0.4531 -0.2126 -0.8458
 3023SOL    HW220703   2.285   3.690  11.514 -0.7520 -0.5683 -1.6708
 3024SOL     OW20704   0.212   3.360   5.944  0.3164  0.0018 -0.4630
 3024SOL    HW120705   0.209   3.328   5.854 -0.3274  0.2064 -0.5076
 3024SOL    HW220706   0.251   3.282   5.984 -1.7827  0.3614  2.2887
 3025SOL     OW20707   3.381   3.863   0.090  0.1558  0.0103 -0.5899
 3025SOL    HW120708   3.446   3.841   0.023  1.5281  1.2324  0.3413
 3025SOL    HW220709   3.364   3.775   0.124  0.2877 -0.1894 -1.0431
 3026SOL     OW20710   0.586   0.304   8.159  0.3023  0.6343 -0.1339
 3026SOL    HW120711   0.496   0.304   8.128 -0.7739  0.6050  3.0343
 3026SOL    HW220712   0.598   0.222   8.207  2.5451 -0.2855 -2.2320
 3027SOL     OW20713   0.136   3.243   3.223 -0.3167 -0.3482  0.1743
 3027SOL    HW120714   0.083   3.197   3.287 -1.2439 -0.6215 -0.7868
 3027SOL    HW220715   0.140   3.335   3.246 -1.3904 -0.1160 -0.5827
 3028SOL     OW20716   2.912   3.700   5.523  0.0448  0.1929 -0.2956
 3028SOL    HW120717   2.920   3.656   5.439 -0.8541  2.0259 -1.3288
 3028SOL    HW220718   2.909   3.793   5.501 -0.3851  0.0707 -0.7511
 3029SOL     OW20719   1.450   1.835  16.901 -0.0677  0.3278  0.2304
 3029SOL    HW120720   1.441   1.841  16.996 -0.3306  0.5029  0.1939
 3029SOL    HW220721   1.522   1.897  16.890  0.9636 -0.9904 -0.4652
 3030SOL     OW20722   4.030   4.559  12.259 -0.6556  0.2306 -0.2748
 3030SOL    HW120723   4.069   4.557  12.346  0.8488 -0.4447 -0.9651
 3030SOL    HW220724   4.059   4.644  12.226 -1.0557  1.0648  1.5362
 3031SOL     OW20725   4.370   4.386   3.416 -0.3451  0.4010  0.3791
 3031SOL    HW120726   4.277   4.372   3.404 -0.5794  0.5680  2.0202
 3031SOL    HW220727   4.402   4.323   3.351 -1.6531 -0.2081  0.3440
 3032SOL     OW20728   2.300   3.461  16.256  0.2721 -0.4891  0.1182
 3032SOL    HW120729   2.341   3.378  16.229  0.6798  0.1820 -1.3095
 3032SOL    HW220730   2.354   3.528  16.215  1.1953 -1.5475 -0.4100
 3033SOL     OW20731   1.107   4.251   2.933  0.4990 -0.0305  0.0790
 3033SOL    HW120732   1.158   4.171   2.932 -0.3796 -0.6112  1.8794
 3033SOL    HW220733   1.161   4.313   2.982  0.2202  1.3279 -1.3024
 3034SOL     OW20734   0.691   4.000   6.549  0.3378  0.0740 -0.2037
 3034SOL    HW120735   0.644   3.922   6.580 -0.1900  1.1364  1.7055
 3034SOL    HW220736   0.693   4.052   6.630 -1.7692 -1.8415  1.0888
 3035SOL     OW20737   1.048   1.075   9.127  0.5344  0.0843 -0.0814
 3035SOL    HW120738   1.070   1.042   9.040  1.8618 -0.2391  0.3800
 3035SOL    HW220739   1.135   1.095   9.161  0.1148  1.0766  0.4027
 3036SOL     OW20740   0.025   1.160   4.933 -0.1242  0.3695 -0.0235
 3036SOL    HW120741   0.081   1.225   4.975 -0.0435  0.1494  0.2097
 3036SOL    HW220742   0.013   1.091   4.999 -0.7900  0.3183 -0.2029
 3037SOL     OW20743   1.384   3.725   5.842 -0.1866  0.1205  0.0248
 3037SOL    HW120744   1.451   3.793   5.835 -0.9187  0.7354 -1.0544
 3037SOL    HW220745   1.417   3.676   5.917 -0.5930 -0.4728 -0.1838
 3038SOL     OW20746   3.939   0.487   9.511 -0.5887 -0.0775 -0.2175
 3038SOL    HW120747   4.012   0.476   9.450 -0.0841  0.0529  0.3647
 3038SOL    HW220748   3.869   0.516   9.451 -0.2969 -0.0389 -0.5394
 3039SOL     OW20749   0.451   4.112  10.165  0.3400  0.1219  0.0552
 3039SOL    HW120750   0.447   4.187  10.224 -1.7170  0.4374 -0.4946
 3039SOL    HW220751   0.525   4.073  10.212 -0.0071  0.9496  1.2846
 3040SOL     OW20752   3.525   3.799  10.557 -0.2058 -0.1133  0.6722
 3040SOL    HW120753   3.477   3.832  10.633  0.9267  1.1415  0.8350
 3040SOL    HW220754   3.457   3.783  10.491 -0.7267  0.3350  1.1059
 3041SOL     OW20755   2.655   3.500   7.383 -0.4505  0.0983 -0.6124
 3041SOL    HW120756   2.609   3.583   7.373 -1.1737 -0.1111  0.9324
 3041SOL    HW220757   2.734   3.539   7.421 -0.1498 -1.5496  0.4713
 3042SOL     OW20758   4.216   3.043   1.274  0.8600 -0.2797 -0.3558
 3042SOL    HW120759   4.275   2.983   1.229  1.3112 -0.6633  0.7404
 3042SOL    HW220760   4.137   3.036   1.221 -0.6413 -0.0955  1.8780
 3043SOL     OW20761   4.468   1.036   4.623 -0.2311  0.0134  0.0268
 3043SOL    HW120762   4.375   1.038   4.647 -0.2493 -0.8872  0.0338
 3043SOL    HW220763   4.503   1.119   4.655 -0.7948 -0.3357  1.5519
 3044SOL     OW20764   0.797   1.155  14.603 -0.5173 -0.4221  0.0243
 3044SOL    HW120765   0.711   1.159  14.645  0.8200  3.7121  2.3637
 3044SOL    HW220766   0.808   1.061  14.588 -1.5412 -0.9059  2.3394
 3045SOL     OW20767   4.707   1.880   5.118 -0.1210 -0.1855 -0.6139
 3045SOL    HW120768   4.650   1.952   5.095 -1.1600 -0.5931  0.6549
 3045SOL    HW220769   0.004   1.900   5.206  3.7143 -1.4673 -1.7933
 3046SOL     OW20770   3.148   3.834   1.167 -0.3497 -0.0976  0.1356
 3046SOL    HW120771   3.059   3.798   1.168 -0.0339 -0.8419  1.0638
 3046SOL    HW220772   3.137   3.924   1.134 -1.8187 -0.6295 -0.8497
 3047SOL     OW20773   4.031   2.555  14.202 -0.2895 -0.0671  0.2010
 3047SOL    HW120774   4.021   2.460  14.199  0.8596 -0.2598  3.0132
 3047SOL    HW220775   4.124   2.566  14.182 -0.6765  2.6908 -0.1429
 3048SOL     OW20776   2.382   2.506   9.864  0.0989 -0.7219 -0.1303
 3048SOL    HW120777   2.295   2.532   9.833  0.6012 -0.2397 -1.1440
 3048SOL    HW220778   2.378   2.469   9.952  1.2140  2.6673  1.3179
 3049SOL     OW20779   0.253   1.518   0.367  0.4818 -0.2149 -0.0917
 3049SOL    HW120780   0.291   1.598   0.403  2.5175 -0.5393 -1.5527
 3049SOL    HW220781   0.216   1.480   0.446  0.1001 -1.2645 -0.7749
 3050SOL     OW20782   0.763   4.669   6.379  0.6314  0.4242  0.0145
 3050SOL    HW120783   0.757   4.586   6.425 -2.5876  1.9403  2.3254
 3050SOL    HW220784   0.734   4.643   6.292  1.1293  0.3305 -0.1274
 3051SOL     OW20785   3.371   1.892   7.433  0.2993  0.0938 -0.2656
 3051SOL    HW120786   3.349   1.816   7.486  1.7323 -1.2295 -1.5759
 3051SOL    HW220787   3.346   1.867   7.344  1.8371 -0.9961 -0.3942
 3052SOL     OW20788   2.633   2.093   3.102 -0.1581  0.0983  0.4984
 3052SOL    HW120789   2.658   2.179   3.137  0.5962 -0.6454  1.8290
 3052SOL    HW220790   2.612   2.120   3.013  0.8933  0.2726  0.3012
 3053SOL     OW20791   2.185   0.265   0.357 -0.1705  0.1162  0.0676
 3053SOL    HW120792   2.236   0.345   0.371  0.4741 -0.4317  0.9347
 3053SOL    HW220793   2.106   0.273   0.410 -1.2267 -1.8436 -1.2298
 3054SOL     OW20794   1.651   1.182   8.385  0.0488 -0.3677  0.1400
 3054SOL    HW120795   1.693   1.099   8.362  0.7019 -0.4856  1.7977
 3054SOL    HW220796   1.659   1.165   8.479  0.9545  0.1351  0.1503
 3055SOL     OW20797   2.231   3.054  14.274  0.0763  0.6507  0.7519
 3055SOL    HW120798   2.143   3.088  14.293 -0.9307 -2.5254  1.7401
 3055SOL    HW220799   2.269   3.126  14.224 -0.5983  0.7753  0.4147
 3056SOL     OW20800   0.637   0.144   7.646  0.0584 -0.0040  0.1936
 3056SOL    HW120801   0.599   0.176   7.728  3.1372 -0.0902  1.6427
 3056SOL    HW220802   0.577   0.185   7.584  0.9284  0.8165 -0.0984
 3057SOL     OW20803   3.313   2.326   2.912  0.3243  0.3203 -0.2740
 3057SOL    HW120804   3.323   2.248   2.857  0.4480  0.8157 -0.9543
 3057SOL    HW220805   3.307   2.289   3.000 -0.5697 -0.9493 -0.8656
 3058SOL     OW20806   3.608   4.389   9.565  0.4494 -0.6054  0.5475
 3058SOL    HW120807   3.629   4.322   9.500 -1.8607 -1.1509  0.3796
 3058SOL    HW220808   3.642   4.353   9.647 -0.8343  0.1063  1.3881
 3059SOL     OW20809   3.011   4.651   4.204  0.3714 -0.1858 -0.3538
 3059SOL    HW120810   2.924   4.669   4.170 -0.7284 -3.9527  0.4795
 3059SOL    HW220811   3.045   0.004   4.213 -0.2355  0.1483 -1.3759
 3060SOL     OW20812   2.161   0.132   2.673  0.1800 -0.1977  0.2184
 3060SOL    HW120813   2.253   0.119   2.652  0.9900  2.4130  2.0821
 3060SOL    HW220814   2.174   0.222   2.704 -2.7231  0.3878 -0.2605
 3061SOL     OW20815   1.573   3.042   7.957  0.2799  1.1140 -0.2293
 3061SOL    HW120816   1.543   3.023   7.868 -0.4431  0.0491  0.2477
 3061SOL    HW220817   1.635   3.115   7.944  0.1610  1.2372 -0.1003
 3062SOL     OW20818   3.476   2.596   6.819  0.0044 -0.1343  0.3675
 3062SOL    HW120819   3.442   2.510   6.846  1.8394 -0.2849  2.1796
 3062SOL    HW220820   3.571   2.586   6.816 -0.1198 -1.2609  0.3320
 3063SOL     OW20821   3.048   4.268  14.521 -0.4771  0.1712 -0.3531
 3063SOL    HW120822   3.018   4.358  14.520  0.3933  0.4814  1.1671
 3063SOL    HW220823   3.126   4.286  14.470  1.0701 -0.6558  1.7073
 3064SOL     OW20824   4.524   0.671   5.071  0.2593 -0.2645 -0.3150
 3064SOL    HW120825   4.459   0.682   5.002  0.8094  0.3282 -0.7362
 3064SOL    HW220826   4.602   0.714   5.035 -0.3075 -0.6700 -1.9729
 3065SOL     OW20827   3.209   3.536   4.554  0.5380 -0.1174  0.4030
 3065SOL    HW120828   3.263   3.581   4.489  1.0816  1.0574  1.6960
 3065SOL    HW220829   3.274   3.487   4.605 -0.1410  0.2745  1.6331
 3066SOL     OW20830   0.108   3.974   2.512 -0.1222  0.1937 -0.3067
 3066SOL    HW120831   0.018   3.961   2.542 -0.0671 -2.9552 -1.5000
 3066SOL    HW220832   0.139   4.033   2.581 -2.1477 -0.2049  0.9390
 3067SOL     OW20833   2.523   3.619   2.809  0.0889 -0.0699 -0.5928
 3067SOL    HW120834   2.518   3.566   2.889 -0.1653 -1.7196 -1.6861
 3067SOL    HW220835   2.516   3.706   2.848  0.5738 -0.7733  1.0755
 3068SOL     OW20836   0.367   3.134   2.508 -0.5201  0.3408 -0.4697
 3068SOL    HW120837   0.390   3.072   2.438  0.5094 -2.4158  2.3142
 3068SOL    HW220838   0.340   3.081   2.583  0.5885  0.7475  0.2086
 3069SOL     OW20839   2.142   3.897   2.471 -0.4375 -0.6444  0.6506
 3069SOL    HW120840   2.207   3.948   2.424 -1.0398  0.2298  0.7719
 3069SOL    HW220841   2.127   3.842   2.394 -3.4281  2.0473 -0.6772
 3070SOL     OW20842   1.936   2.127   8.557  0.3276  0.3780 -1.0655
 3070SOL    HW120843   1.841   2.128   8.551  0.3159 -3.0300 -1.5929
 3070SOL    HW220844   1.961   2.169   8.475  2.3012 -0.5590 -0.9478
 3071SOL     OW20845   2.792   1.994   2.134  0.6891  0.4356  0.5788
 3071SOL    HW120846   2.863   1.944   2.173  0.4046  0.0756  0.6373
 3071SOL    HW220847   2.820   2.081   2.161 -2.9041  1.0380  2.3484
 3072SOL     OW20848   0.562   1.386   5.988 -0.1703  0.0429 -0.0020
 3072SOL    HW120849   0.512   1.381   5.907 -0.4957 -1.4465  0.2919
 3072SOL    HW220850   0.527   1.315   6.041  0.0127 -0.9154 -1.1825
 3073SOL     OW20851   1.462   1.644   4.460  0.1772  0.9837  0.0830
 3073SOL    HW120852   1.497   1.642   4.371  1.6642 -0.1181  0.6923
 3073SOL    HW220853   1.530   1.705   4.489  1.9575 -0.6972 -0.5004
 3074SOL     OW20854   3.526   0.841   9.559  0.3805  0.0842  0.2081
 3074SOL    HW120855   3.605   0.841   9.613 -0.4615  1.9495  1.4344
 3074SOL    HW220856   3.462   0.799   9.616  0.6673 -0.3383  0.2212
 3075SOL     OW20857   4.366   2.314   4.811 -0.1095 -0.0531  0.2045
 3075SOL    HW120858   4.436   2.379   4.820 -0.7921  0.6482  0.3928
 3075SOL    HW220859   4.384   2.268   4.893 -1.3559  0.1515  0.5948
 3076SOL     OW20860   2.030   3.666   5.221 -0.2906  0.0219 -0.2353
 3076SOL    HW120861   1.946   3.695   5.256  0.2007  1.5322 -0.3238
 3076SOL    HW220862   2.021   3.706   5.135  2.1526 -1.1443 -1.0355
 3077SOL     OW20863   0.899   0.103   3.357 -0.3277  0.3316 -0.3513
 3077SOL    HW120864   0.860   0.088   3.443  2.9162 -0.0870  1.0589
 3077SOL    HW220865   0.900   0.013   3.324 -0.4772  0.1692  0.0893
 3078SOL     OW20866   0.824   2.659  15.832 -0.3737 -0.2558  0.3300
 3078SOL    HW120867   0.845   2.678  15.740 -3.0765 -0.4897 -0.3392
 3078SOL    HW220868   0.765   2.584  15.820 -0.7550  0.4276 -2.1106
 3079SOL     OW20869   1.958   2.142   1.880 -0.2308 -0.2591 -0.0549
 3079SOL    HW120870   1.944   2.070   1.819 -0.9597  0.3752 -0.6267
 3079SOL    HW220871   2.050   2.132   1.906  0.3444  0.3044 -1.8644
 3080SOL     OW20872   2.434   0.048  12.554 -0.5970 -0.1163  0.1641
 3080SOL    HW120873   2.404   4.736  12.630  3.6821 -0.6446  1.5050
 3080SOL    HW220874   2.359   0.035  12.496 -0.8378 -1.4335  0.7777
 3081SOL     OW20875   3.609   1.719   7.798 -0.2222 -0.5159 -0.4196
 3081SOL    HW120876   3.651   1.648   7.749  0.8733  0.3541 -0.7535
 3081SOL    HW220877   3.623   1.802   7.752 -0.8227  0.2404  0.7616
 3082SOL     OW20878   1.780   4.386   9.565  0.4522  0.8377  0.7468
 3082SOL    HW120879   1.692   4.423   9.575 -0.8888 -2.2165  0.1993
 3082SOL    HW220880   1.827   4.442   9.628  2.3660 -0.0008  0.0679
 3083SOL     OW20881   0.618   1.829   7.220 -0.1153 -0.1479  1.0417
 3083SOL    HW120882   0.543   1.888   7.228  0.7032  0.9013  0.9160
 3083SOL    HW220883   0.657   1.874   7.145 -1.1378 -0.3439  0.3902
 3084SOL     OW20884   2.054   1.410  12.330 -0.2741 -0.9031  0.4010
 3084SOL    HW120885   1.971   1.370  12.304 -0.8825  0.2556  0.5502
 3084SOL    HW220886   2.038   1.492  12.284  0.6565  0.5647  2.6586
 3085SOL     OW20887   2.488   0.008   3.911 -0.2914 -0.4757 -0.3591
 3085SOL    HW120888   2.489   0.000   3.816 -2.7083  1.3534 -0.5491
 3085SOL    HW220889   2.572   0.052   3.922 -0.7790  0.0548  1.3289
 3086SOL     OW20890   1.171   2.675  15.317 -0.0478 -0.4656 -0.3170
 3086SOL    HW120891   1.233   2.730  15.365  0.4731 -2.1621  0.9470
 3086SOL    HW220892   1.144   2.623  15.393  0.1625 -0.1044  0.0076
 3087SOL     OW20893   1.087   2.026   1.996  0.3626  0.1344  0.4079
 3087SOL    HW120894   1.017   2.004   2.058 -2.9861  0.7846 -3.1605
 3087SOL    HW220895   1.118   2.107   2.035  1.3439  0.8140 -1.7952
 3088SOL     OW20896   0.392   3.806   8.665 -0.5008  0.1497  0.4006
 3088SOL    HW120897   0.433   3.835   8.746 -0.4423  1.1242  0.0272
 3088SOL    HW220898   0.336   3.877   8.635  0.2021  0.2486 -0.6740
 3089SOL     OW20899   3.235   0.675   2.661  0.2013 -0.7379 -0.1103
 3089SOL    HW120900   3.215   0.677   2.755  0.6159 -1.0141 -0.0161
 3089SOL    HW220901   3.234   0.579   2.656 -0.2811 -0.8233  1.4543
 3090SOL     OW20902   0.783   0.680   1.918  0.6534  0.0878  0.1527
 3090SOL    HW120903   0.691   0.700   1.936  1.2083  3.2091 -0.5967
 3090SOL    HW220904   0.816   0.668   2.007  0.9204 -1.0486 -0.0885
 3091SOL     OW20905   2.965   2.486   0.250 -0.0890  0.1712 -0.3273
 3091SOL    HW120906   3.032   2.451   0.191 -0.9688 -0.7033 -0.8165
 3091SOL    HW220907   2.977   2.437   0.331 -0.5724 -0.5612 -0.6976
 3092SOL     OW20908   3.270   4.709   6.550 -0.1104  0.6465 -0.3118
 3092SOL    HW120909   3.261   4.623   6.592  1.1972  1.6278  1.9511
 3092SOL    HW220910   3.274   0.025   6.629  1.5041  0.4299 -0.2471
 3093SOL     OW20911   3.785   2.264   6.742  0.2166 -0.0522 -0.6846
 3093SOL    HW120912   3.740   2.203   6.684  0.4271 -2.4880  1.7034
 3093SOL    HW220913   3.706   2.312   6.765  1.7346  1.3020  1.8080
 3094SOL     OW20914   2.024   2.184  16.892 -0.0545  0.0386 -0.0875
 3094SOL    HW120915   2.076   2.124  16.945 -0.8539  0.0438  0.6979
 3094SOL    HW220916   2.009   2.258  16.950 -0.0150 -2.2722  2.8275
 3095SOL     OW20917   2.430   2.211   6.003 -0.2920  0.1734  0.1769
 3095SOL    HW120918   2.472   2.160   5.933  1.1486  0.8269  0.5616
 3095SOL    HW220919   2.369   2.149   6.042  2.2482 -2.0299  0.7063
 3096SOL     OW20920   1.125   2.072   7.917  0.0208  0.2105  0.0371
 3096SOL    HW120921   1.120   2.161   7.952 -3.1168 -0.0630  0.2791
 3096SOL    HW220922   1.047   2.028   7.951  0.3033  1.2739  2.0683
 3097SOL     OW20923   3.278   3.414  10.736  0.1951 -0.0463  0.0214
 3097SOL    HW120924   3.214   3.343  10.736  0.9323 -0.6972 -2.1009
 3097SOL    HW220925   3.281   3.427  10.642  0.7241 -0.5759 -0.0334
 3098SOL     OW20926   2.204   3.968  11.515  0.4764 -0.4339 -0.3549
 3098SOL    HW120927   2.128   3.986  11.460 -0.9181 -0.7813  1.4489
 3098SOL    HW220928   2.198   3.875  11.536  0.4963 -0.8058 -2.0539
 3099SOL     OW20929   3.927   0.872   7.954  0.1427 -0.1901 -0.8190
 3099SOL    HW120930   3.937   0.891   7.861  0.7323 -2.7296 -1.2506
 3099SOL    HW220931   4.019   0.867   7.980 -0.0208 -0.5338 -0.3076
 3100SOL     OW20932   2.457   3.024  13.771 -0.4412 -0.3611  0.8199
 3100SOL    HW120933   2.404   2.952  13.807 -0.0502 -0.2703  1.5712
 3100SOL    HW220934   2.404   3.054  13.697  0.5361 -2.8527 -0.9115
 3101SOL     OW20935   0.747   0.592   8.059  0.3718 -0.4315  0.3350
 3101SOL    HW120936   0.675   0.588   8.122  0.1643 -1.4913  0.0321
 3101SOL    HW220937   0.704   0.547   7.987  1.2768 -0.8526  0.0543
 3102SOL     OW20938   3.850   3.164  16.888  0.3260 -0.2112  0.1485
 3102SOL    HW120939   3.925   3.122  16.847  0.3390  0.2675 -0.3272
 3102SOL    HW220940   3.816   3.096  16.945  1.3405 -0.4181  0.4989
 3103SOL     OW20941   1.346   2.324   3.812 -0.6573 -0.4487 -0.1597
 3103SOL    HW120942   1.269   2.271   3.832  0.8374 -2.1422  1.0755
 3103SOL    HW220943   1.304   2.384   3.750  0.5979  0.0403 -0.5360
 3104SOL     OW20944   2.136   2.573   6.840  0.3508 -0.5602  0.1645
 3104SOL    HW120945   2.084   2.600   6.764 -0.5830  1.5670  1.5435
 3104SOL    HW220946   2.213   2.561   6.785  1.1516 -2.3764  1.6802
 3105SOL     OW20947   1.690   0.577   4.820  0.2590 -0.5049  0.3295
 3105SOL    HW120948   1.609   0.527   4.823 -2.2202  3.5318 -0.1144
 3105SOL    HW220949   1.697   0.594   4.726  0.9742 -1.8240  0.1460
 3106SOL     OW20950   0.012   0.152   2.750  0.3516 -0.4270 -0.0947
 3106SOL    HW120951   0.056   0.237   2.743 -0.1224 -0.2436 -0.9654
 3106SOL    HW220952   4.714   0.155   2.839  2.1211  0.1284  0.5919
 3107SOL     OW20953   4.106   1.762   5.730  0.6445  0.2433  0.1451
 3107SOL    HW120954   4.121   1.840   5.676  0.9716 -1.1176 -1.7139
 3107SOL    HW220955   4.128   1.786   5.820 -0.6096  0.7273  0.3173
 3108SOL     OW20956   3.051   3.543  12.007 -0.5513 -0.2339 -0.0665
 3108SOL    HW120957   3.094   3.629  12.010 -2.1495  0.5702  0.2749
 3108SOL    HW220958   2.965   3.561  12.046 -0.4461 -0.9490  0.4765
 3109SOL     OW20959   3.027   0.463   8.469 -0.0015  0.5549 -0.8180
 3109SOL    HW120960   3.086   0.445   8.543 -1.1183 -1.6163 -0.4659
 3109SOL    HW220961   3.090   0.484   8.400  2.3417  0.4439  1.2809
 3110SOL     OW20962   2.818   1.476  10.972  0.0221  0.3489 -0.6359
 3110SOL    HW120963   2.812   1.386  11.002 -1.2282  0.1558 -1.4869
 3110SOL    HW220964   2.888   1.470  10.907  0.3756  2.3098 -0.4480
 3111SOL     OW20965   1.400   1.676   4.826  0.2895  0.0353 -0.1120
 3111SOL    HW120966   1.485   1.634   4.838  0.5815  0.2323 -1.3998
 3111SOL    HW220967   1.435   1.761   4.799 -0.8444  0.1211 -1.3408
 3112SOL     OW20968   1.371   1.661   6.567  0.2483  0.0864  0.3335
 3112SOL    HW120969   1.465   1.677   6.581  0.6160 -0.4337 -1.4824
 3112SOL    HW220970   1.338   1.748   6.547 -0.6513  0.0747  1.7743
 3113SOL     OW20971   3.917   2.362   6.398 -0.1377 -0.5699  0.1165
 3113SOL    HW120972   3.880   2.278   6.373  0.2765 -0.8732  0.5294
 3113SOL    HW220973   3.847   2.419   6.365  2.6094  4.0514  2.1431
 3114SOL     OW20974   1.900   0.971  15.351  0.5545  0.0116  0.2930
 3114SOL    HW120975   1.809   0.959  15.377 -0.3992  1.9092 -2.1592
 3114SOL    HW220976   1.933   0.882  15.363  1.0407  0.0303 -0.8349
 3115SOL     OW20977   3.407   4.267  14.785  0.1834  0.1505 -0.0797
 3115SOL    HW120978   3.469   4.202  14.821 -2.1138 -2.8167 -1.4469
 3115SOL    HW220979   3.325   4.219  14.793 -0.6399  2.0682  2.7589
 3116SOL     OW20980   1.863   4.431   2.146  0.1814  0.6460  0.7481
 3116SOL    HW120981   1.802   4.360   2.166 -1.1147  1.9267  1.3334
 3116SOL    HW220982   1.923   4.418   2.220  1.5012  0.9203 -0.2565
 3117SOL     OW20983   4.219   3.332  12.303  0.2323 -0.0304 -1.0425
 3117SOL    HW120984   4.305   3.293  12.312 -0.0888 -0.5327 -0.1355
 3117SOL    HW220985   4.196   3.353  12.394 -0.5569  0.8335 -1.4419
 3118SOL     OW20986   2.508   3.190   7.630  0.2742 -0.1308  0.3615
 3118SOL    HW120987   2.526   3.120   7.568 -3.6669 -1.0926  0.3401
 3118SOL    HW220988   2.415   3.188   7.609 -0.1037  2.3894  1.7685
 3119SOL     OW20989   1.919   4.329   3.305  0.0258  0.0060 -0.1507
 3119SOL    HW120990   1.839   4.280   3.323  0.1476 -0.5234 -1.0747
 3119SOL    HW220991   1.886   4.417   3.289  1.1351  0.5016  0.2845
 3120SOL     OW20992   1.561   3.410   5.102 -1.1220 -0.4056 -0.8197
 3120SOL    HW120993   1.522   3.444   5.022  0.1829  0.4770 -1.0777
 3120SOL    HW220994   1.522   3.323   5.096  0.8248 -1.3581  0.5166
 3121SOL     OW20995   4.508   2.400   5.222  0.3739 -0.2559 -0.0467
 3121SOL    HW120996   4.415   2.413   5.239  0.4591 -1.9595  1.6954
 3121SOL    HW220997   4.499   2.334   5.154  0.3248 -0.9218  0.5998
 3122SOL     OW20998   0.775   2.661   0.921 -0.1256 -0.2151 -0.2513
 3122SOL    HW120999   0.706   2.660   0.855 -1.5311  0.8973  1.2148
 3122SOL    HW221000   0.835   2.597   0.882  0.2608 -0.2768  0.4566
 3123SOL     OW21001   4.480   0.076   4.850  0.0254 -0.3654 -0.0136
 3123SOL    HW121002   4.408   0.082   4.912  1.1074 -2.0206  1.4159
 3123SOL    HW221003   4.465   0.152   4.794 -0.2250 -0.5429 -0.1854
 3124SOL     OW21004   4.233   4.266   4.360  0.1358  0.1024 -1.2480
 3124SOL    HW121005   4.300   4.334   4.359  1.5138 -1.2319  0.2257
 3124SOL    HW221006   4.254   4.205   4.290 -0.9598 -1.4138 -0.2690
 3125SOL     OW21007   0.143   0.318   4.167  0.4592  0.1021 -0.1279
 3125SOL    HW121008   0.054   0.338   4.196  0.1438 -2.1232  0.4851
 3125SOL    HW221009   0.182   0.306   4.254  1.2001  2.7244 -0.0952
 3126SOL     OW21010   0.328   2.896   1.644  0.2112  0.0168 -0.4292
 3126SOL    HW121011   0.362   2.953   1.713  1.9294 -2.0371  0.3953
 3126SOL    HW221012   0.283   2.829   1.695 -3.4199  1.3631 -1.8645
 3127SOL     OW21013   0.420   0.119   7.427 -0.6290  0.3910 -0.0243
 3127SOL    HW121014   0.331   0.082   7.432 -0.6380  0.5335  0.9592
 3127SOL    HW221015   0.424   0.154   7.338  0.4627  0.6273  0.1190
 3128SOL     OW21016   2.838   0.859   1.858  0.0956 -0.2421  0.0471
 3128SOL    HW121017   2.901   0.913   1.904  0.7285 -1.0020  0.0613
 3128SOL    HW221018   2.883   0.855   1.773 -1.1339  0.6341 -0.6486
 3129SOL     OW21019   0.930   4.719  11.551  0.0493  0.4085  0.0404
 3129SOL    HW121020   0.907   4.665  11.476  0.2528  1.6002 -0.8831
 3129SOL    HW221021   0.842   4.734  11.586 -0.2861 -0.9156 -0.2531
 3130SOL     OW21022   3.884   0.972   3.182 -0.1989 -0.1646 -0.3816
 3130SOL    HW121023   3.897   0.892   3.233 -3.1695  0.1128  0.7924
 3130SOL    HW221024   3.957   1.024   3.215 -0.0351 -1.6701  1.6551
 3131SOL     OW21025   0.320   3.864   5.425  0.4549  0.0692  0.8730
 3131SOL    HW121026   0.380   3.898   5.491 -0.0567  2.2413  0.2325
 3131SOL    HW221027   0.348   3.893   5.338 -0.5633  0.3640  0.6428
 3132SOL     OW21028   1.826   4.059  15.767  0.2329  0.0962  0.1048
 3132SOL    HW121029   1.809   4.120  15.839  3.0793 -0.7132  1.4796
 3132SOL    HW221030   1.898   4.009  15.805  2.1570  1.9832 -1.0639
 3133SOL     OW21031   0.271   1.167  16.666  0.5572 -0.6125 -0.2388
 3133SOL    HW121032   0.254   1.073  16.655  0.3941 -0.5931 -0.1549
 3133SOL    HW221033   0.366   1.160  16.663  0.4815 -0.9390 -1.8563
 3134SOL     OW21034   0.762   0.888  15.604 -0.4538  0.3074 -0.5452
 3134SOL    HW121035   0.794   0.922  15.687 -2.0610  0.8084 -0.1277
 3134SOL    HW221036   0.846   0.890  15.560 -1.3607 -1.4864 -2.3770
 3135SOL     OW21037   1.787   3.868   0.598 -0.2228  0.2750 -0.1699
 3135SOL    HW121038   1.804   3.862   0.504  1.2258  0.7389  0.0613
 3135SOL    HW221039   1.851   3.805   0.630 -2.0816 -0.2966  2.4378
 3136SOL     OW21040   4.728   1.121  11.869  0.5457  0.1649  0.0775
 3136SOL    HW121041   4.643   1.098  11.832  0.1399 -1.4221  2.0413
 3136SOL    HW221042   4.700   1.187  11.933  1.1206  0.9314 -0.4649
 3137SOL     OW21043   3.039   4.219   6.280 -0.1725  0.0245 -0.1910
 3137SOL    HW121044   3.047   4.124   6.275  1.3420  0.1309  0.1907
 3137SOL    HW221045   3.113   4.239   6.337 -2.1081  0.1292  2.2533
 3138SOL     OW21046   4.594   3.543   4.724  0.4546  0.5142  0.1925
 3138SOL    HW121047   4.644   3.466   4.697 -2.0248 -2.1353  3.2574
 3138SOL    HW221048   4.504   3.511   4.729  0.3485  0.6250 -0.9654
 3139SOL     OW21049   0.108   1.103   3.844 -0.0464 -0.6510 -0.6264
 3139SOL    HW121050   0.040   1.159   3.882  0.7271 -0.0075 -0.2059
 3139SOL    HW221051   0.092   1.114   3.750 -1.9250 -1.2549 -0.3807
 3140SOL     OW21052   1.284   1.234   9.836  0.2240 -0.2088  0.5438
 3140SOL    HW121053   1.345   1.304   9.811 -2.3597  1.6814 -0.4242
 3140SOL    HW221054   1.200   1.280   9.836  1.3744  1.9038 -0.0890
 3141SOL     OW21055   0.899   4.344   2.532 -0.3478 -0.3130 -1.2134
 3141SOL    HW121056   0.827   4.381   2.583  0.2819 -0.7241 -0.0430
 3141SOL    HW221057   0.894   4.258   2.575 -1.4021  0.7986  0.8679
 3142SOL     OW21058   0.589   3.837   4.798  0.2278 -0.0750  0.0749
 3142SOL    HW121059   0.665   3.893   4.781 -1.4378  2.3497  0.5395
 3142SOL    HW221060   0.614   3.749   4.771 -2.6894 -0.6577 -0.6553
 3143SOL     OW21061   1.163   3.705   9.060 -0.0449  0.2123 -0.3370
 3143SOL    HW121062   1.227   3.748   9.003 -0.3518  2.0487  0.7331
 3143SOL    HW221063   1.083   3.739   9.020 -0.0252  2.0642  1.2023
 3144SOL     OW21064   4.679   2.322   8.063  0.4293  0.1643  0.1904
 3144SOL    HW121065   4.657   2.249   8.120 -1.6922  2.0974  1.8386
 3144SOL    HW221066   4.597   2.332   8.014  2.0365  0.3428 -2.4817
 3145SOL     OW21067   0.729   1.511  11.161  0.2257  0.4095  0.4960
 3145SOL    HW121068   0.672   1.572  11.116 -0.1972 -1.4624 -1.5096
 3145SOL    HW221069   0.806   1.521  11.105  1.8648 -0.2003  2.6348
 3146SOL     OW21070   0.489   4.105  15.485  0.2017  0.2729 -0.0466
 3146SOL    HW121071   0.560   4.141  15.433 -1.7044  0.5037 -2.4787
 3146SOL    HW221072   0.409   4.125  15.436  0.4881 -1.6395 -1.2837
 3147SOL     OW21073   0.390   4.450  16.785  0.3789 -0.0555  0.2197
 3147SOL    HW121074   0.482   4.442  16.760 -0.5205 -2.5265 -2.3942
 3147SOL    HW221075   0.352   4.398  16.714  0.9702 -0.6126  0.3169
 3148SOL     OW21076   2.190   0.691   0.627  0.0515 -0.1980  0.0358
 3148SOL    HW121077   2.149   0.742   0.557  0.5855 -1.7141 -1.3805
 3148SOL    HW221078   2.219   0.622   0.567 -0.0273  0.0928 -0.3365
 3149SOL     OW21079   1.846   2.228   7.255 -0.3828 -0.1308 -0.6979
 3149SOL    HW121080   1.762   2.251   7.294  0.0845  0.9168 -0.3181
 3149SOL    HW221081   1.904   2.301   7.278 -1.7998  0.4883  0.9184
 3150SOL     OW21082   1.626   4.691   6.243 -0.2337  0.1017  0.4965
 3150SOL    HW121083   1.587   0.038   6.267  0.4540  0.6754 -0.3997
 3150SOL    HW221084   1.552   4.631   6.245 -1.1151  1.1897  0.2630
 3151SOL     OW21085   2.278   0.817   5.814  0.4451  0.2332 -0.6845
 3151SOL    HW121086   2.221   0.829   5.738 -1.5057 -0.0272  0.7229
 3151SOL    HW221087   2.305   0.907   5.828  0.3057  0.4716 -1.9542
 3152SOL     OW21088   3.953   2.259   4.155  0.3412 -0.1089 -0.5494
 3152SOL    HW121089   3.889   2.206   4.203 -0.5358  1.8159  0.4245
 3152SOL    HW221090   3.995   2.316   4.220  0.5042  0.4308 -1.1192
 3153SOL     OW21091   4.708   1.972   8.735  0.0647 -0.0357 -0.1043
 3153SOL    HW121092   4.705   2.067   8.724 -0.9480  0.1018  1.3705
 3153SOL    HW221093   4.642   1.937   8.676  0.2266 -0.9204  0.2456
 3154SOL     OW21094   4.697   2.584   8.222 -0.7424 -0.0011 -0.0894
 3154SOL    HW121095   4.659   2.508   8.179 -0.3512  0.5434 -1.4066
 3154SOL    HW221096   0.008   2.530   8.285 -0.2581 -1.5335 -1.7658
 3155SOL     OW21097   1.864   2.231   4.952 -0.0661 -0.0970 -0.4585
 3155SOL    HW121098   1.840   2.307   5.004 -0.1600  0.3791 -1.2015
 3155SOL    HW221099   1.942   2.267   4.912 -0.7477 -0.4433 -2.1080
 3156SOL     OW21100   4.218   0.968   0.718 -0.8706  0.2001  0.0286
 3156SOL    HW121101   4.285   0.993   0.654 -0.3230  1.6085  1.1514
 3156SOL    HW221102   4.255   1.002   0.799  0.9852 -1.0206 -0.3108
 3157SOL     OW21103   4.617   4.563   0.248 -0.1591 -0.8736 -0.2452
 3157SOL    HW121104   4.685   4.571   0.182 -0.5087 -2.0371 -0.7550
 3157SOL    HW221105   4.564   4.495   0.206  1.7084 -0.3689 -3.3417
 3158SOL     OW21106   2.330   0.441  16.717 -0.2693 -0.3144 -0.4122
 3158SOL    HW121107   2.288   0.471  16.637  1.1498 -0.8296 -1.3503
 3158SOL    HW221108   2.285   0.494  16.782  1.9680  0.7627  0.2730
 3159SOL     OW21109   4.373   1.867   4.770 -0.1255  0.1413 -0.4243
 3159SOL    HW121110   4.293   1.909   4.739 -0.2335  1.7559  2.0624
 3159SOL    HW221111   4.371   1.861   4.866 -0.2804 -0.3929 -0.4562
 3160SOL     OW21112   0.612   4.087   8.116  0.3312  0.1911 -0.2042
 3160SOL    HW121113   0.617   3.992   8.124 -2.1892 -0.0018 -0.9122
 3160SOL    HW221114   0.651   4.130   8.192 -0.9070 -0.1487  0.6084
 3161SOL     OW21115   0.567   2.572   1.565 -0.1044 -0.4040 -0.3072
 3161SOL    HW121116   0.507   2.566   1.639  0.5975 -0.2799  0.2766
 3161SOL    HW221117   0.561   2.482   1.533  3.9593 -1.0905  0.7925
 3162SOL     OW21118   0.023   3.632   7.578 -0.4065  0.0040 -0.2062
 3162SOL    HW121119   4.679   3.642   7.627 -0.6326 -1.3757 -0.2833
 3162SOL    HW221120   0.079   3.707   7.599 -0.0554 -0.4714  0.5323
 3163SOL     OW21121   3.111   3.082   3.371 -0.0964  0.1919 -0.7642
 3163SOL    HW121122   3.042   3.016   3.376  1.4321 -1.5626 -3.0915
 3163SOL    HW221123   3.162   3.046   3.299 -1.2091 -1.5637 -0.6665
 3164SOL     OW21124   1.793   3.195   6.921  0.0696 -0.0725 -0.0330
 3164SOL    HW121125   1.717   3.185   6.978 -1.6020  0.3942 -2.1969
 3164SOL    HW221126   1.857   3.150   6.977 -2.3170 -0.1410  2.6582
 3165SOL     OW21127   2.929   0.104   5.079 -0.0849  0.2009 -0.5115
 3165SOL    HW121128   2.904   0.026   5.030 -0.4014 -0.5460  0.8497
 3165SOL    HW221129   2.867   0.165   5.039  1.0289  1.4351 -0.3541
 3166SOL     OW21130   3.579   1.768   2.714 -0.7489 -0.1824  0.1113
 3166SOL    HW121131   3.649   1.829   2.737 -0.4065 -0.2945 -0.6500
 3166SOL    HW221132   3.513   1.821   2.669 -0.4140 -0.2129 -0.4142
 3167SOL     OW21133   2.578   4.303   5.627 -0.3449  0.5710 -0.3832
 3167SOL    HW121134   2.510   4.290   5.693 -0.7261 -0.0550 -0.8956
 3167SOL    HW221135   2.571   4.396   5.604 -1.9133  0.6526  0.4360
 3168SOL     OW21136   2.956   2.119   3.700  0.4249 -0.0201 -0.0738
 3168SOL    HW121137   2.985   2.128   3.791 -0.3068  0.0402  0.1621
 3168SOL    HW221138   2.910   2.035   3.696  0.8667 -0.4101  2.6830
 3169SOL     OW21139   3.295   2.668   4.377  0.2772  0.8104 -0.3426
 3169SOL    HW121140   3.348   2.607   4.326 -1.2898  1.4251 -2.6832
 3169SOL    HW221141   3.208   2.628   4.386  0.4865  0.6611  1.1014
 3170SOL     OW21142   4.617   3.594   8.469  0.3991 -0.1678  0.1040
 3170SOL    HW121143   4.665   3.660   8.520  0.3556  1.1687 -1.5873
 3170SOL    HW221144   4.671   3.610   8.392  0.1087  0.2392 -0.0164
 3171SOL     OW21145   3.085   3.633   7.933 -0.4852  0.4072  0.0819
 3171SOL    HW121146   3.147   3.615   8.005  0.6248 -0.8942 -1.2066
 3171SOL    HW221147   3.140   3.608   7.859 -1.2721 -1.0851  0.0031
 3172SOL     OW21148   1.199   0.381   5.685  0.6352 -0.7109 -0.0319
 3172SOL    HW121149   1.114   0.392   5.642 -0.0618 -1.0301  1.2807
 3172SOL    HW221150   1.222   0.472   5.705 -0.8028 -0.4077  0.2147
 3173SOL     OW21151   2.608   3.759   1.675  0.0754 -0.0325 -0.3299
 3173SOL    HW121152   2.613   3.840   1.726  1.3210  0.0838 -0.6354
 3173SOL    HW221153   2.524   3.723   1.703  0.3923 -0.4532  0.0889
 3174SOL     OW21154   1.620   3.924   4.051  0.3538  0.3352  0.2423
 3174SOL    HW121155   1.567   3.893   3.978  0.3645  0.4244  0.1971
 3174SOL    HW221156   1.595   4.017   4.051 -0.5785  0.0772 -1.0925
 3175SOL     OW21157   1.462   2.225  16.027 -0.2413 -0.0030 -0.4592
 3175SOL    HW121158   1.462   2.289  16.098  0.8896 -2.1388  1.4796
 3175SOL    HW221159   1.435   2.149  16.078  2.5331 -0.9194 -0.3231
 3176SOL     OW21160   0.379   3.429  12.492 -0.5899 -1.0705  0.1280
 3176SOL    HW121161   0.344   3.515  12.470  1.4659 -0.0718  0.8065
 3176SOL    HW221162   0.300   3.394  12.533 -0.1992  0.1141  1.8647
 3177SOL     OW21163   3.140   0.980   8.338  0.2271 -0.0566  0.3155
 3177SOL    HW121164   3.193   1.055   8.367 -1.5846  0.1972  2.9372
 3177SOL    HW221165   3.082   1.023   8.275  0.0969  0.0353  0.4989
 3178SOL     OW21166   2.717   0.582  15.131  0.4684 -0.2830  0.5472
 3178SOL    HW121167   2.686   0.512  15.073 -0.7948 -0.0965  1.0028
 3178SOL    HW221168   2.810   0.561  15.132  0.3484 -0.6097  2.8645
 3179SOL     OW21169   1.752   1.492   2.599 -0.8093 -0.9599  0.4285
 3179SOL    HW121170   1.734   1.411   2.552  1.0490 -0.0887 -1.7788
 3179SOL    HW221171   1.685   1.548   2.559  1.3845  0.5001 -1.1640
 3180SOL     OW21172   4.628   0.424   5.157 -0.4525  0.1691 -0.1820
 3180SOL    HW121173   4.559   0.372   5.116  0.3486 -1.6559  0.7766
 3180SOL    HW221174   4.614   0.510   5.118 -1.7608 -1.0383 -2.3499
 3181SOL     OW21175   3.573   3.482  14.601 -0.0184 -0.2207 -0.4788
 3181SOL    HW121176   3.634   3.487  14.675 -0.1034 -3.4961 -0.1990
 3181SOL    HW221177   3.555   3.388  14.600 -1.6741  0.1019 -0.1842
 3182SOL     OW21178   0.229   1.112  10.086  0.1067 -0.4130  0.1979
 3182SOL    HW121179   0.309   1.135  10.038  0.0897  1.0327  0.8515
 3182SOL    HW221180   0.171   1.082  10.016 -1.6678 -0.0956  1.5231
 3183SOL     OW21181   3.302   4.089   8.728  0.3731  0.0742  0.1925
 3183SOL    HW121182   3.391   4.061   8.706 -0.0037 -1.4922  0.6213
 3183SOL    HW221183   3.316   4.168   8.780 -0.3841  0.2927  0.0687
 3184SOL     OW21184   1.202   4.686   5.859 -0.2504  0.3029 -0.2179
 3184SOL    HW121185   1.231   0.001   5.784  1.4054  3.3213  2.5321
 3184SOL    HW221186   1.272   4.711   5.919  1.9953 -3.0339 -1.4271
 3185SOL     OW21187   2.881   3.818  14.568  0.1855 -0.1133  0.0538
 3185SOL    HW121188   2.939   3.886  14.602  0.0195  0.9609 -1.8055
 3185SOL    HW221189   2.942   3.745  14.561 -0.7677 -0.8661 -0.5724
 3186SOL     OW21190   2.509   3.261   6.445 -1.0769  0.3548  0.3512
 3186SOL    HW121191   2.448   3.206   6.397  0.0875  2.2952 -3.3261
 3186SOL    HW221192   2.533   3.323   6.376  1.2240 -0.6342  0.2651
 3187SOL     OW21193   3.277   1.121  17.697  0.2292 -0.0708 -0.8167
 3187SOL    HW121194   3.335   1.049  17.671  1.3225  0.3185  0.5317
 3187SOL    HW221195   3.273   1.109   0.045  1.0372  0.7444 -0.6868
 3188SOL     OW21196   1.799   4.323   4.029  0.1341  0.3459 -0.8708
 3188SOL    HW121197   1.803   4.370   4.112 -0.4680  2.2298 -1.8829
 3188SOL    HW221198   1.729   4.260   4.045  0.6092  0.5350  1.8299
 3189SOL     OW21199   2.692   0.902   8.684  0.3338  0.5888 -0.1013
 3189SOL    HW121200   2.599   0.883   8.669 -0.2591  0.7288  3.5108
 3189SOL    HW221201   2.712   0.825   8.736 -3.4457 -1.1586 -1.1956
 3190SOL     OW21202   4.536   4.108   8.881 -0.2085 -0.7542 -0.0995
 3190SOL    HW121203   4.622   4.104   8.838  0.5001 -1.1008  1.3224
 3190SOL    HW221204   4.479   4.137   8.810 -3.6780 -0.7503  2.6719
 3191SOL     OW21205   2.419   0.381   0.563 -0.0103  0.2177  0.1693
 3191SOL    HW121206   2.397   0.443   0.493 -3.5594 -1.3976 -0.1723
 3191SOL    HW221207   2.489   0.349   0.507 -0.6073 -2.1945  0.8072
 3192SOL     OW21208   2.148   1.653   2.767  0.0389  0.0235  0.3481
 3192SOL    HW121209   2.124   1.746   2.773  2.2755  0.7603 -2.2217
 3192SOL    HW221210   2.073   1.595   2.757 -1.1959  1.4833  1.1505
 3193SOL     OW21211   0.517   4.083  16.301  0.3526  0.7007  0.1393
 3193SOL    HW121212   0.557   4.047  16.381 -0.7518  1.0333  0.8381
 3193SOL    HW221213   0.515   4.001  16.251  1.3685  0.0783  1.0963
 3194SOL     OW21214   1.692   2.606   9.147 -0.1571  0.2175 -0.0312
 3194SOL    HW121215   1.679   2.571   9.059 -1.2587  1.4388 -0.3682
 3194SOL    HW221216   1.602   2.618   9.176  0.7749  0.3952  2.7598
 3195SOL     OW21217   1.942   2.262   6.143  0.2726  0.3529 -0.2994
 3195SOL    HW121218   2.008   2.326   6.168 -1.1080  1.2874  0.9942
 3195SOL    HW221219   1.895   2.314   6.077 -0.4637  0.2274  0.1270
 3196SOL     OW21220   3.086   2.638   4.587 -0.2961  0.2872 -0.0834
 3196SOL    HW121221   3.032   2.609   4.513 -1.4690  2.0021  0.1215
 3196SOL    HW221222   3.031   2.613   4.661  0.6461 -1.5252  0.0030
 3197SOL     OW21223   2.669   4.228   4.536 -0.1681  0.1785 -0.2876
 3197SOL    HW121224   2.577   4.241   4.561 -0.7762 -1.9442 -1.4408
 3197SOL    HW221225   2.671   4.132   4.543 -2.0373  0.1897  0.6462
 3198SOL     OW21226   0.252   0.189   7.698  0.0829 -0.4499 -0.1021
 3198SOL    HW121227   0.217   0.113   7.652 -1.3938 -0.3093  0.8204
 3198SOL    HW221228   0.172   0.242   7.698  0.5473  0.2787 -1.4408
 3199SOL     OW21229   1.200   0.647   6.747 -0.2630 -0.6046 -0.2825
 3199SOL    HW121230   1.277   0.598   6.719 -1.2137 -2.9141  1.1664
 3199SOL    HW221231   1.247   0.714   6.795 -1.9997  0.9465 -0.7239
 3200SOL     OW21232   2.169   2.987   2.470  0.0751  0.8333 -0.0444
 3200SOL    HW121233   2.177   2.946   2.556  0.2879  0.2546 -0.3357
 3200SOL    HW221234   2.078   2.970   2.448 -0.5467  1.2576  2.1853
 3201SOL     OW21235   0.429   0.544   2.318 -0.1432 -0.1947  0.4415
 3201SOL    HW121236   0.388   0.542   2.231 -0.2794  3.8614  0.4083
 3201SOL    HW221237   0.442   0.637   2.339 -0.9219  0.9345 -4.1800
 3202SOL     OW21238   0.034   3.848  10.145  0.0084  0.0933  0.0909
 3202SOL    HW121239   4.702   3.906  10.176  0.2945  0.9271 -0.8157
 3202SOL    HW221240   0.060   3.891  10.063 -1.6249  1.2799  0.1845
 3203SOL     OW21241   1.834   4.702   3.983  0.0559 -0.3189 -0.8194
 3203SOL    HW121242   1.908   4.642   3.978  0.9432  0.9639 -3.2715
 3203SOL    HW221243   1.865   0.023   3.914 -1.9022 -0.7386 -2.0600
 3204SOL     OW21244   2.855   1.560  13.332 -0.5034  0.0621 -0.1417
 3204SOL    HW121245   2.783   1.530  13.276 -0.8357 -1.5068  1.1246
 3204SOL    HW221246   2.923   1.515  13.282 -0.7998  0.0060 -0.4939
 3205SOL     OW21247   1.316   0.736   7.644 -0.6174 -0.4190 -0.2584
 3205SOL    HW121248   1.264   0.747   7.724 -0.8127 -0.8075 -0.3344
 3205SOL    HW221249   1.398   0.711   7.687 -1.9226 -0.5008  2.1457
 3206SOL     OW21250   4.446   4.342   5.847  0.0948 -0.4422 -0.1668
 3206SOL    HW121251   4.367   4.394   5.832 -1.0070 -2.3448 -0.9508
 3206SOL    HW221252   4.497   4.375   5.773 -1.1126  0.3904 -0.6346
 3207SOL     OW21253   0.726   1.990  11.964 -0.4047 -0.4910 -0.0375
 3207SOL    HW121254   0.777   2.057  11.918  1.1931 -2.0742 -0.5734
 3207SOL    HW221255   0.701   2.045  12.039  0.5122 -0.9062  0.5676
 3208SOL     OW21256   0.358   4.401   7.364 -0.0100  0.0216  0.4426
 3208SOL    HW121257   0.412   4.475   7.393  0.7331 -0.3849  0.1147
 3208SOL    HW221258   0.270   4.438   7.364 -0.5730 -1.3152 -0.7944
 3209SOL     OW21259   0.043   3.136   6.207  0.3023  0.3065 -0.2774
 3209SOL    HW121260   0.003   3.067   6.260  0.3153  0.3408 -0.2223
 3209SOL    HW221261   0.133   3.113   6.231  0.7208 -1.4548 -3.6278
 3210SOL     OW21262   1.496   2.806   0.757 -0.6337 -0.5593 -0.2774
 3210SOL    HW121263   1.401   2.819   0.753 -0.7469 -1.4414 -0.3581
 3210SOL    HW221264   1.527   2.891   0.788 -0.3478  0.1438 -2.4801
 3211SOL     OW21265   0.215   3.002  16.781 -0.6739  0.0649  0.0255
 3211SOL    HW121266   0.150   3.072  16.783 -0.2904  0.3703  1.5238
 3211SOL    HW221267   0.234   2.987  16.688  0.6706  0.3317  0.2479
 3212SOL     OW21268   0.205   0.469  11.518 -0.2891  0.6410 -0.2450
 3212SOL    HW121269   0.199   0.375  11.507 -0.4128  0.5806  0.3475
 3212SOL    HW221270   0.115   0.492  11.540 -1.0503 -2.0589 -0.6437
 3213SOL     OW21271   3.493   3.155  14.325  0.1361  0.3777 -0.2332
 3213SOL    HW121272   3.574   3.204  14.317  0.4086 -0.0547 -0.1164
 3213SOL    HW221273   3.482   3.184  14.415  2.8819  0.8162 -0.0351
 3214SOL     OW21274   1.559   0.927  10.167 -0.2221 -0.7184 -0.3146
 3214SOL    HW121275   1.547   0.987  10.094  0.8384  0.0811  0.1767
 3214SOL    HW221276   1.605   0.853  10.126  3.7225 -0.6609  4.0981
 3215SOL     OW21277   4.730   4.532   3.837  0.1792 -0.3493  0.0755
 3215SOL    HW121278   0.059   4.463   3.832  0.2765 -0.2051 -0.6518
 3215SOL    HW221279   0.045   4.610   3.817 -2.4121  1.1489 -0.8139
 3216SOL     OW21280   3.609   3.039  16.159 -0.2642 -0.6463  0.0400
 3216SOL    HW121281   3.523   3.001  16.139 -0.6772  0.0094  0.5887
 3216SOL    HW221282   3.605   3.042  16.255  0.0374 -0.1294  0.0355
 3217SOL     OW21283   4.580   0.213  12.139  0.0408  0.0312 -0.2097
 3217SOL    HW121284   4.580   0.294  12.088  1.4542  0.4451  0.4577
 3217SOL    HW221285   4.674   0.202  12.157  0.3601  1.9322 -0.7504
 3218SOL     OW21286   2.440   3.264   7.057  0.1669 -0.5976 -0.3314
 3218SOL    HW121287   2.509   3.304   7.005  1.7893  1.7374  3.5625
 3218SOL    HW221288   2.397   3.216   6.987 -1.2615 -0.7205  0.6336
 3219SOL     OW21289   4.126   2.009   1.413  0.0154  0.1733  0.4374
 3219SOL    HW121290   4.125   1.915   1.429 -2.1441 -0.0868 -1.2898
 3219SOL    HW221291   4.093   2.012   1.324  1.2088 -0.8145 -0.0424
 3220SOL     OW21292   4.180   2.552   1.859 -0.2528  0.4080 -0.4783
 3220SOL    HW121293   4.223   2.562   1.774  1.3265 -0.9839  0.1538
 3220SOL    HW221294   4.105   2.612   1.859 -0.2411  0.4187 -0.8132
 3221SOL     OW21295   1.555   3.649   6.845 -0.3919  0.2717 -0.0462
 3221SOL    HW121296   1.488   3.586   6.818 -2.0444  1.0847  2.1198
 3221SOL    HW221297   1.630   3.591   6.854 -2.1774 -2.4934 -3.0861
 3222SOL     OW21298   1.609   4.604   3.109  0.0266 -0.8881  0.4679
 3222SOL    HW121299   1.582   4.615   3.018  1.4298  0.1275  0.1742
 3222SOL    HW221300   1.550   4.535   3.140 -0.9991  0.1620  0.8415
 3223SOL     OW21301   1.697   2.603   2.534 -0.4167  0.5888  0.2759
 3223SOL    HW121302   1.648   2.594   2.615  2.6967 -0.9760  2.0008
 3223SOL    HW221303   1.708   2.512   2.504 -1.1886  0.6170 -0.0943
 3224SOL     OW21304   4.234   3.197   3.793  0.1169  0.1863  0.1306
 3224SOL    HW121305   4.235   3.147   3.875 -1.5345 -2.2150 -1.3241
 3224SOL    HW221306   4.276   3.280   3.815 -0.1099 -0.3226  2.5025
 3225SOL     OW21307   3.142   0.988   5.764  0.3524 -0.2778  0.0599
 3225SOL    HW121308   3.203   1.034   5.822 -0.6179  2.1255 -0.8346
 3225SOL    HW221309   3.108   1.060   5.710  0.8291  0.8745  1.2789
 3226SOL     OW21310   2.630   2.983   6.194 -0.2494 -0.2236 -0.2036
 3226SOL    HW121311   2.584   3.063   6.166  0.2999  0.0805 -0.2451
 3226SOL    HW221312   2.553   2.926   6.195 -1.5801  1.5757  0.9686
 3227SOL     OW21313   3.136   0.093   1.914 -0.4724 -0.3679 -0.3361
 3227SOL    HW121314   3.107   0.110   1.824 -0.0869 -0.4678 -0.4799
 3227SOL    HW221315   3.194   0.017   1.904  2.0262  1.3582  1.0801
 3228SOL     OW21316   2.326   1.583   7.343  0.6241  0.1236 -0.4817
 3228SOL    HW121317   2.382   1.613   7.272  0.9761  0.3270 -0.1215
 3228SOL    HW221318   2.319   1.490   7.320  0.0983  0.6341 -2.3791
 3229SOL     OW21319   3.259   1.277  10.897 -0.0548 -0.0004  0.7047
 3229SOL    HW121320   3.269   1.234  10.981 -0.5151  0.9524  1.2418
 3229SOL    HW221321   3.338   1.330  10.889  0.6283 -1.3974 -2.1223
 3230SOL     OW21322   1.902   4.229  15.580  0.3700  0.2573  0.2374
 3230SOL    HW121323   1.847   4.188  15.514  2.8134 -0.1172 -1.5704
 3230SOL    HW221324   1.884   4.165  15.649  2.6849  0.7152  1.2825
 3231SOL     OW21325   3.152   3.140   7.334  0.5326  0.0726 -0.1644
 3231SOL    HW121326   3.200   3.222   7.339 -1.4224  1.2441 -0.7166
 3231SOL    HW221327   3.124   3.137   7.243 -2.7272  1.0304  0.7918
 3232SOL     OW21328   1.297   0.932   6.539  0.6732  0.1243  0.0700
 3232SOL    HW121329   1.348   1.012   6.520  0.0687  0.0198 -1.9509
 3232SOL    HW221330   1.365   0.865   6.542 -0.3107 -0.8689  0.1467
 3233SOL     OW21331   4.264   3.587   8.157  0.1206  0.4014  0.6796
 3233SOL    HW121332   4.295   3.673   8.187  0.9938  0.4749 -0.4470
 3233SOL    HW221333   4.338   3.532   8.183  0.3461  0.2631 -0.2522
 3234SOL     OW21334   2.336   4.431   0.072 -0.4398 -0.2316  0.0658
 3234SOL    HW121335   2.339   4.358   0.010  1.7865 -1.7242  1.8923
 3234SOL    HW221336   2.252   4.474   0.058 -0.3828  0.8416  3.0290
 3235SOL     OW21337   2.617   4.358   3.682  0.3686 -0.0432 -0.1884
 3235SOL    HW121338   2.644   4.278   3.727 -1.0309 -0.9806 -0.9936
 3235SOL    HW221339   2.536   4.327   3.641  1.4476  1.2737 -3.2886
 3236SOL     OW21340   0.358   2.523  11.831 -0.3798  0.6827 -0.2888
 3236SOL    HW121341   0.348   2.476  11.914  1.5616  1.5417  0.4345
 3236SOL    HW221342   0.269   2.513  11.797  0.0615  0.1713 -1.2886
 3237SOL     OW21343   0.368   4.056   5.867  1.0128 -0.4264 -0.3596
 3237SOL    HW121344   0.394   3.987   5.928 -0.1078  0.2028  0.8215
 3237SOL    HW221345   0.272   4.047   5.871  0.9796 -0.6177 -1.5507
 3238SOL     OW21346   3.980   0.140   2.152  0.2858 -0.2098 -0.5447
 3238SOL    HW121347   3.885   0.154   2.154  0.8460  3.6514  0.4166
 3238SOL    HW221348   3.989   0.060   2.101  0.6997 -0.3423 -0.2549
 3239SOL     OW21349   1.589   3.286   3.907 -0.2710 -0.4731  0.3614
 3239SOL    HW121350   1.624   3.279   3.995  1.8692  0.1854 -0.4305
 3239SOL    HW221351   1.665   3.254   3.857 -0.9066  0.1570 -1.0122
 3240SOL     OW21352   4.145   3.150   8.845  0.0264  0.0040  0.2810
 3240SOL    HW121353   4.172   3.221   8.902 -1.7062  1.1279 -0.3033
 3240SOL    HW221354   4.188   3.176   8.763  0.2987  0.2368  0.4984
 3241SOL     OW21355   0.106   1.564  11.507 -0.1634 -0.0715  0.1878
 3241SOL    HW121356   0.134   1.473  11.506 -2.0685 -0.6809  1.3374
 3241SOL    HW221357   0.021   1.558  11.463 -0.7884 -1.4357  1.5748
 3242SOL     OW21358   3.359   4.223  15.506  0.4285  0.2016  0.9078
 3242SOL    HW121359   3.298   4.248  15.576  1.0725  3.1523  0.4048
 3242SOL    HW221360   3.389   4.137  15.536  4.1857  1.9046  2.0251
 3243SOL     OW21361   1.255   2.604  11.962  0.3408  0.1277  0.3678
 3243SOL    HW121362   1.240   2.510  11.951  0.4698  0.3317 -1.4936
 3243SOL    HW221363   1.346   2.613  11.989 -0.0259  1.7393  1.0765
 3244SOL     OW21364   2.491   1.903  14.023 -0.2219  0.0905  0.1900
 3244SOL    HW121365   2.410   1.951  14.007 -1.5714 -1.7333  1.5203
 3244SOL    HW221366   2.549   1.978  14.031  1.5470 -0.9494 -2.9244
 3245SOL     OW21367   0.780   3.650   6.815 -0.2140 -0.3563 -0.5032
 3245SOL    HW121368   0.843   3.651   6.743  0.0920 -0.6650 -0.2389
 3245SOL    HW221369   0.795   3.736   6.852  2.2247 -1.4980  1.1269
 3246SOL     OW21370   3.408   2.643  11.278 -0.0802 -0.2508 -0.0579
 3246SOL    HW121371   3.494   2.638  11.236  1.5777 -0.9299  3.4663
 3246SOL    HW221372   3.362   2.565  11.249  1.4181 -1.3380  0.5365
 3247SOL     OW21373   0.865   3.269   5.073  0.1587  0.2363 -0.1398
 3247SOL    HW121374   0.873   3.302   4.983 -0.7004 -0.7468 -0.5836
 3247SOL    HW221375   0.956   3.267   5.103  0.6204 -1.0422 -1.5939
 3248SOL     OW21376   4.384   3.561   3.288 -0.3039  0.0104  0.2382
 3248SOL    HW121377   4.389   3.514   3.205  2.7149  0.5055  0.1227
 3248SOL    HW221378   4.313   3.625   3.280  0.6388  0.6593 -2.7532
 3249SOL     OW21379   1.038   3.720   4.206 -0.3867  0.4328 -0.0041
 3249SOL    HW121380   1.011   3.739   4.116  0.5059 -2.9442 -1.0041
 3249SOL    HW221381   1.133   3.730   4.198 -0.6867  2.3566 -1.0146
 3250SOL     OW21382   4.696   3.952  11.768 -0.0457 -0.6692 -0.1082
 3250SOL    HW121383   4.658   3.991  11.690 -0.2227 -0.1137  0.2628
 3250SOL    HW221384   4.719   4.029  11.820  0.1951  0.6264 -2.1504
 3251SOL     OW21385   4.096   0.819   6.440 -0.3425  0.2256 -0.0149
 3251SOL    HW121386   4.008   0.802   6.406 -0.1918 -2.5298  0.9255
 3251SOL    HW221387   4.064   0.844   6.527  0.9094  0.7311  0.3064
 3252SOL     OW21388   3.323   2.878   8.606  0.2666 -0.2290  0.2617
 3252SOL    HW121389   3.286   2.822   8.538  1.2580 -0.7981  0.1880
 3252SOL    HW221390   3.254   2.943   8.616  0.1446 -0.7302  2.4649
 3253SOL     OW21391   1.222   1.435   8.991 -0.4059 -0.0979  0.7288
 3253SOL    HW121392   1.238   1.467   9.080 -1.8884 -0.7634  1.2252
 3253SOL    HW221393   1.301   1.383   8.978 -0.1557  0.0711  1.5473
 3254SOL     OW21394   3.490   0.588   9.027 -0.3184  0.6284 -0.3730
 3254SOL    HW121395   3.456   0.567   9.114  1.0800 -2.5067 -0.5428
 3254SOL    HW221396   3.512   0.680   9.039  1.0958 -0.2711  3.9981
 3255SOL     OW21397   4.385   2.492   3.441 -0.3366  0.3171 -0.1634
 3255SOL    HW121398   4.327   2.432   3.395  1.0663 -0.5423 -0.8361
 3255SOL    HW221399   4.431   2.543   3.373 -2.4901  2.4160 -0.0339
 3256SOL     OW21400   0.951   0.889   7.345  0.3162  0.0733  0.3429
 3256SOL    HW121401   0.970   0.874   7.252 -3.0803 -1.6499 -0.0680
 3256SOL    HW221402   0.885   0.822   7.363 -1.3047  1.6143  0.1088
 3257SOL     OW21403   1.803   0.097   9.581 -0.3145  0.7859  0.6247
 3257SOL    HW121404   1.841   0.073   9.666 -0.9843  0.3298  0.7915
 3257SOL    HW221405   1.725   0.043   9.590  0.0419  0.0945 -0.4063
 3258SOL     OW21406   4.708   3.234  12.100  0.0159  0.1694 -0.0748
 3258SOL    HW121407   0.051   3.245  12.153 -0.0242  0.2502 -0.0298
 3258SOL    HW221408   4.716   3.313  12.046  0.8360 -0.0177 -0.2263
 3259SOL     OW21409   3.658   2.478   9.499  0.1066  0.0055 -0.1265
 3259SOL    HW121410   3.595   2.465   9.570 -1.6808  2.3264 -1.2816
 3259SOL    HW221411   3.718   2.536   9.547  0.0325  0.2663 -0.3558
 3260SOL     OW21412   4.026   1.386   6.696 -0.0435  0.0181  0.1238
 3260SOL    HW121413   4.050   1.407   6.787 -0.7075  1.0052  0.0706
 3260SOL    HW221414   4.040   1.475   6.664  0.7491  0.1952  0.9375
 3261SOL     OW21415   1.957   2.847   7.532  0.0222 -0.4859 -0.6400
 3261SOL    HW121416   1.971   2.838   7.626  1.7244  0.6975 -0.8007
 3261SOL    HW221417   1.893   2.776   7.524 -1.2202  0.4714  0.7734
 3262SOL     OW21418   1.784   3.538   2.904 -0.1354  0.6354  0.2534
 3262SOL    HW121419   1.692   3.562   2.919 -0.5927 -1.1110  0.2326
 3262SOL    HW221420   1.789   3.467   2.968 -1.4417 -1.4525 -1.9438
 3263SOL     OW21421   2.544   0.833   9.652  0.1292 -0.2989 -0.4367
 3263SOL    HW121422   2.570   0.809   9.741  1.1650 -2.8382 -1.4249
 3263SOL    HW221423   2.629   0.858   9.615 -0.3841  1.3498 -0.4982
 3264SOL     OW21424   1.776   3.191   3.474  0.1390  1.1242 -0.3364
 3264SOL    HW121425   1.854   3.160   3.521  0.1270  1.2752 -0.2155
 3264SOL    HW221426   1.796   3.148   3.391 -1.8001 -0.1884 -0.1157
 3265SOL     OW21427   0.064   3.529  13.115  0.8011 -0.6574  0.3578
 3265SOL    HW121428   4.729   3.491  13.065 -0.2489 -0.1572  1.4823
 3265SOL    HW221429   0.075   3.473  13.192 -1.6152  1.9836  2.6117
 3266SOL     OW21430   2.065   4.472  11.768 -0.3476 -0.3473 -0.5958
 3266SOL    HW121431   2.008   4.438  11.836 -0.1841 -1.3230 -0.9477
 3266SOL    HW221432   2.149   4.431  11.785 -0.6800 -0.9432 -0.4174
 3267SOL     OW21433   2.386   1.769   7.899  0.3155  0.0210 -0.2614
 3267SOL    HW121434   2.311   1.800   7.849  0.3940  1.3258  0.4213
 3267SOL    HW221435   2.449   1.751   7.830  0.3796 -1.0772  0.0970
 3268SOL     OW21436   1.936   1.227   1.543  0.3293 -0.4161  0.3857
 3268SOL    HW121437   2.020   1.274   1.543 -0.1800  0.4901 -0.7073
 3268SOL    HW221438   1.908   1.234   1.452  0.5661  2.3356  0.5114
 3269SOL     OW21439   1.305   4.498   4.724  0.0902 -0.0600 -0.2771
 3269SOL    HW121440   1.358   4.479   4.801 -1.6121 -2.0606  0.3862
 3269SOL    HW221441   1.237   4.432   4.732 -0.4682  0.5705  0.1852
 3270SOL     OW21442   1.741   4.051  15.439 -0.1769 -0.1302  0.1255
 3270SOL    HW121443   1.720   3.997  15.363  1.2323 -0.2991 -0.1498
 3270SOL    HW221444   1.748   3.987  15.510 -1.1507  2.0564  2.2126
 3271SOL     OW21445   3.179   3.746   7.354  0.4622  0.4805  0.4081
 3271SOL    HW121446   3.237   3.813   7.319 -1.3826 -0.1709 -3.8655
 3271SOL    HW221447   3.116   3.796   7.405  0.5828  0.8435  0.1980
 3272SOL     OW21448   4.351   4.224   9.465 -0.3504 -0.3035  0.0218
 3272SOL    HW121449   4.427   4.246   9.519  0.5256 -3.7284  0.1866
 3272SOL    HW221450   4.345   4.128   9.469  0.1809 -0.2672  1.7364
 3273SOL     OW21451   0.102   4.345   7.678  0.2803  0.3089 -0.0642
 3273SOL    HW121452   0.196   4.342   7.698  0.2583 -1.2164 -0.2279
 3273SOL    HW221453   0.106   4.393   7.596 -1.1369  1.8613  0.7726
 3274SOL     OW21454   0.257   1.350  12.470 -0.4095 -0.0019 -0.2170
 3274SOL    HW121455   0.306   1.381  12.393  1.9117 -0.7758  0.9527
 3274SOL    HW221456   0.270   1.419  12.535 -0.1240 -1.2766  1.0604
 3275SOL     OW21457   2.352   3.870   3.227  0.2926 -0.4103  0.4370
 3275SOL    HW121458   2.445   3.863   3.208  0.4550  0.0409  1.0918
 3275SOL    HW221459   2.348   3.939   3.292 -0.0506 -0.7832  0.8141
 3276SOL     OW21460   3.067   2.101   3.086 -0.3586 -0.8277 -0.9955
 3276SOL    HW121461   3.003   2.038   3.118  1.0274  0.0734  3.5184
 3276SOL    HW221462   3.070   2.086   2.991  1.3822  0.7264 -1.1826
 3277SOL     OW21463   0.877   1.818   7.642  0.1460 -0.0159  0.0983
 3277SOL    HW121464   0.835   1.794   7.560  0.3429  0.5624 -0.1741
 3277SOL    HW221465   0.888   1.912   7.627  0.3370 -0.2214 -1.0819
 3278SOL     OW21466   2.225   2.117   7.629  0.0485  0.5571 -0.1163
 3278SOL    HW121467   2.318   2.123   7.606  0.0693  0.4773 -0.0532
 3278SOL    HW221468   2.224   2.041   7.687 -0.4884  0.4778 -0.2269
 3279SOL     OW21469   3.697   0.762   3.513  0.4144 -0.2418 -0.0782
 3279SOL    HW121470   3.630   0.813   3.468 -0.8608  0.9128  3.1059
 3279SOL    HW221471   3.642   0.718   3.577 -2.7129 -1.7266 -3.8096
 3280SOL     OW21472   0.471   0.382   2.940 -0.3506 -0.3954  0.6811
 3280SOL    HW121473   0.436   0.319   2.878  1.0797 -0.2936 -0.2338
 3280SOL    HW221474   0.498   0.458   2.888  1.2591 -1.6027 -0.2412
 3281SOL     OW21475   1.358   0.548   9.427  0.7808 -0.1880  0.8847
 3281SOL    HW121476   1.420   0.619   9.412  0.6257  0.5830  4.0181
 3281SOL    HW221477   1.276   0.594   9.441 -0.3412 -1.7114 -0.5816
 3282SOL     OW21478   0.454   3.040   1.857 -0.5661 -0.4007 -0.1910
 3282SOL    HW121479   0.468   3.126   1.898 -0.9912 -0.9165  1.0362
 3282SOL    HW221480   0.401   3.015   1.932  1.7243  0.5057  1.7544
 3283SOL     OW21481   3.822   1.603   3.173 -0.2138  0.2004  0.3769
 3283SOL    HW121482   3.782   1.636   3.092  2.3168  1.1325 -0.4953
 3283SOL    HW221483   3.824   1.512   3.143 -0.5847  0.4471 -0.4065
 3284SOL     OW21484   1.149   2.784  14.859 -0.0941  0.1106 -0.0452
 3284SOL    HW121485   1.054   2.784  14.850 -0.0100  1.4099 -0.9409
 3284SOL    HW221486   1.181   2.726  14.790 -1.3499 -0.0116 -0.5131
 3285SOL     OW21487   2.857   3.725   5.087  0.0523  0.3075 -0.2792
 3285SOL    HW121488   2.909   3.800   5.117 -0.7219  0.8768 -0.3523
 3285SOL    HW221489   2.873   3.664   5.159 -1.4294  0.7352  0.4145
 3286SOL     OW21490   4.468   4.473   7.786 -0.0838  0.1581  0.6434
 3286SOL    HW121491   4.506   4.393   7.749  0.1184  0.5305  0.0413
 3286SOL    HW221492   4.375   4.455   7.772  0.0391 -0.0870  0.1446
 3287SOL     OW21493   1.706   2.643   7.837  0.5178 -0.4649  0.2032
 3287SOL    HW121494   1.671   2.699   7.768  2.7353  0.2442 -0.3656
 3287SOL    HW221495   1.633   2.583   7.847 -0.2765  0.5540  0.5646
 3288SOL     OW21496   4.611   0.383   6.089  0.2189  0.4681 -0.4100
 3288SOL    HW121497   4.678   0.448   6.108  0.3381 -0.1826  1.4456
 3288SOL    HW221498   4.612   0.335   6.172  1.0887  0.1814 -0.5858
 3289SOL     OW21499   1.612   1.125  14.472 -0.3100 -0.4571  0.3060
 3289SOL    HW121500   1.675   1.169  14.416 -0.4222 -0.6116  0.0586
 3289SOL    HW221501   1.582   1.054  14.415 -2.1695  0.2330  0.3999
 3290SOL     OW21502   2.147   1.199   9.977 -0.6371 -0.0527 -0.3362
 3290SOL    HW121503   2.081   1.179   9.910 -0.2514 -1.2498 -0.3660
 3290SOL    HW221504   2.221   1.146   9.946 -1.3715 -1.2322 -0.0780
 3291SOL     OW21505   2.772   1.575   5.869 -0.5410  0.2695  0.3530
 3291SOL    HW121506   2.844   1.636   5.885  0.1825  0.3434 -3.3260
 3291SOL    HW221507   2.722   1.568   5.951 -0.0832 -1.9019  0.4470
 3292SOL     OW21508   1.127   4.111   3.242 -0.1722 -1.0300 -0.1044
 3292SOL    HW121509   1.136   4.035   3.301  2.2072 -0.4259  0.3077
 3292SOL    HW221510   1.167   4.177   3.298  1.3057 -2.3494  0.4019
 3293SOL     OW21511   3.020   1.722   5.065 -0.0252  0.4021  0.3084
 3293SOL    HW121512   3.007   1.655   5.132  0.3402 -0.7536 -0.7725
 3293SOL    HW221513   3.112   1.703   5.042 -0.1440  0.7169 -0.4480
 3294SOL     OW21514   1.943   2.357   1.669 -0.2871 -0.1906 -0.3187
 3294SOL    HW121515   1.902   2.294   1.728  2.0577  1.2289  2.8220
 3294SOL    HW221516   1.878   2.426   1.657 -2.3325 -2.3944 -1.8539
 3295SOL     OW21517   1.420   4.532   7.503 -0.0501  0.6343  0.4138
 3295SOL    HW121518   1.342   4.481   7.484  0.3594  0.7261 -1.5203
 3295SOL    HW221519   1.483   4.460   7.513 -0.4823  0.0958 -0.7563
 3296SOL     OW21520   1.819   2.545  11.178  0.1551  0.1943  0.2006
 3296SOL    HW121521   1.847   2.470  11.125 -1.0519  1.1107 -1.7350
 3296SOL    HW221522   1.886   2.611  11.159 -0.1056  0.1924 -0.6880
 3297SOL     OW21523   0.301   0.126   1.917  0.4952 -0.2798  0.0258
 3297SOL    HW121524   0.266   0.043   1.950  1.7204 -0.1910  1.5634
 3297SOL    HW221525   0.282   0.113   1.824  0.1299 -0.4548  0.1219
 3298SOL     OW21526   1.151   0.779   9.416 -0.1141  0.5968 -0.3672
 3298SOL    HW121527   1.073   0.785   9.470  0.3838  0.0734  0.4032
 3298SOL    HW221528   1.160   0.874   9.422 -0.4162  0.6432 -0.5971
 3299SOL     OW21529   0.471   4.183   9.143  0.2975 -0.1122 -0.2458
 3299SOL    HW121530   0.390   4.221   9.178 -0.3592 -1.1657 -0.6266
 3299SOL    HW221531   0.459   4.092   9.170 -0.5047  0.1062  0.1558
 3300SOL     OW21532   1.070   2.351   5.062 -0.3757 -0.0268  0.9001
 3300SOL    HW121533   1.027   2.304   4.990 -0.7480  1.6625  0.0310
 3300SOL    HW221534   1.155   2.306   5.061  0.2386  1.1376  0.9664
 3301SOL     OW21535   3.061   0.670   6.828 -0.5083  0.0444  0.3776
 3301SOL    HW121536   2.982   0.713   6.860  0.0351  1.1107  0.3193
 3301SOL    HW221537   3.126   0.714   6.883 -0.3228 -3.0043  2.5885
 3302SOL     OW21538   3.051   3.434   7.417 -0.3421  0.4516 -0.4435
 3302SOL    HW121539   2.998   3.513   7.424  1.0919  1.2694  1.3436
 3302SOL    HW221540   3.042   3.402   7.507  0.1181  1.1392 -0.1580
 3303SOL     OW21541   2.077   1.337   5.466 -0.1862  0.2776 -0.6185
 3303SOL    HW121542   2.080   1.412   5.407  0.3293  0.1200 -0.7910
 3303SOL    HW221543   1.990   1.340   5.505  0.3604 -1.4312  0.7064
 3304SOL     OW21544   4.269   3.295   8.626 -0.4674 -0.2992  0.0258
 3304SOL    HW121545   4.281   3.375   8.574  0.0867 -0.7487 -0.5455
 3304SOL    HW221546   4.206   3.247   8.572  0.4020 -0.0856 -1.1807
 3305SOL     OW21547   2.435   2.905   2.918 -0.0951  0.0367 -0.3114
 3305SOL    HW121548   2.510   2.898   2.859  0.1569 -0.2390  0.0431
 3305SOL    HW221549   2.434   2.817   2.954 -1.1320 -0.0148 -0.4650
 3306SOL     OW21550   2.336   2.323   3.139  0.1888  0.0540 -0.1091
 3306SOL    HW121551   2.370   2.401   3.182 -0.7903 -0.6377  1.9176
 3306SOL    HW221552   2.357   2.349   3.049  0.9130  3.1540  0.9581
 3307SOL     OW21553   1.726   1.042   8.025  0.2606 -0.0458 -0.1221
 3307SOL    HW121554   1.753   1.087   7.944 -0.4004 -1.8349 -1.3427
 3307SOL    HW221555   1.813   1.007   8.048  0.2202  0.1242  0.2822
 3308SOL     OW21556   1.518   4.716   8.308  0.5612 -0.0658 -0.0628
 3308SOL    HW121557   1.550   0.069   8.300 -0.5287  0.5512  2.6216
 3308SOL    HW221558   1.427   0.002   8.290  0.3477 -1.3909 -0.6909
 3309SOL     OW21559   4.652   2.115   7.135  0.1224 -0.1071  0.7552
 3309SOL    HW121560   4.594   2.128   7.210 -0.0437  1.5276  0.3430
 3309SOL    HW221561   4.581   2.090   7.076 -0.0884  2.5877 -0.0929
 3310SOL     OW21562   4.059   3.317   3.565  0.0057 -0.1440 -0.0604
 3310SOL    HW121563   4.014   3.382   3.619  3.2835  1.4927  0.7240
 3310SOL    HW221564   4.145   3.313   3.607  0.1760  0.6723 -0.3448
 3311SOL     OW21565   3.416   2.003  13.021  0.2548 -0.3825 -0.7108
 3311SOL    HW121566   3.377   2.013  12.934  0.7643 -0.6338 -0.9654
 3311SOL    HW221567   3.381   2.082  13.063  0.7887  0.2054 -1.3690
 3312SOL     OW21568   0.824   3.973   5.126 -0.5421  0.3389  0.1652
 3312SOL    HW121569   0.753   3.948   5.185 -0.6287 -3.0651 -1.4212
 3312SOL    HW221570   0.861   3.891   5.094 -0.5999  0.8162 -1.1126
 3313SOL     OW21571   0.888   1.787  11.228  0.7648 -0.6843  0.4552
 3313SOL    HW121572   0.822   1.845  11.191  0.5395 -1.1430  0.1256
 3313SOL    HW221573   0.969   1.829  11.199  0.6294 -1.2087 -0.7008
 3314SOL     OW21574   3.046   0.110  12.086  0.9384  0.3362  0.6239
 3314SOL    HW121575   3.073   0.024  12.120 -1.6697 -0.9923 -0.6707
 3314SOL    HW221576   2.958   0.087  12.056  0.4369 -1.0984  3.1735
 3315SOL     OW21577   1.876   0.032   9.864  0.2512 -0.2890 -0.3524
 3315SOL    HW121578   1.901   0.050   9.954  1.9832 -2.8493 -0.3173
 3315SOL    HW221579   1.786   0.066   9.868 -0.0005 -1.0837  0.6316
 3316SOL     OW21580   2.321   3.848   3.749  0.2221 -0.5047 -0.1642
 3316SOL    HW121581   2.414   3.831   3.733  0.4779  0.1915  0.6000
 3316SOL    HW221582   2.289   3.781   3.688 -2.8597  1.8821 -1.1458
 3317SOL     OW21583   4.201   2.270   2.642 -0.0830  0.4415  0.0327
 3317SOL    HW121584   4.195   2.193   2.585  0.7707  2.2024 -2.4403
 3317SOL    HW221585   4.197   2.232   2.729  0.2824  0.0266 -0.1293
 3318SOL     OW21586   1.614   0.333   7.269 -0.0991  0.4029 -0.2458
 3318SOL    HW121587   1.529   0.327   7.312  1.0300  1.7643  2.1859
 3318SOL    HW221588   1.664   0.288   7.336 -0.4399 -1.1290 -1.0170
 3319SOL     OW21589   3.022   2.561   6.046  0.4873 -0.0772 -0.4130
 3319SOL    HW121590   3.045   2.505   5.971  1.5798 -0.4971  0.2256
 3319SOL    HW221591   3.099   2.546   6.101 -0.8862 -0.9869  1.2513
 3320SOL     OW21592   3.100   3.728  10.063  0.1523  0.1373  0.0377
 3320SOL    HW121593   3.131   3.653  10.012 -1.8225 -1.5130  1.2523
 3320SOL    HW221594   3.007   3.706  10.067  0.1081  0.0360 -1.4546
 3321SOL     OW21595   4.439   0.635   1.921  0.0492 -0.1581 -0.3895
 3321SOL    HW121596   4.525   0.676   1.934 -0.5730  1.5678 -1.7074
 3321SOL    HW221597   4.426   0.676   1.836 -0.6477  1.3660  0.4464
 3322SOL     OW21598   0.700   2.266   8.435 -0.3454 -0.4158 -0.4529
 3322SOL    HW121599   0.739   2.352   8.448 -0.9382 -0.3640  0.9661
 3322SOL    HW221600   0.672   2.266   8.343  1.0717 -0.1880 -0.8810
 3323SOL     OW21601   3.263   4.308   4.088  0.5672  0.6083 -0.2357
 3323SOL    HW121602   3.202   4.336   4.156  0.6879  0.2162  0.0333
 3323SOL    HW221603   3.345   4.349   4.113  0.2528 -0.1051  1.9418
 3324SOL     OW21604   0.275   1.684  16.618  0.2677 -0.1946  0.2050
 3324SOL    HW121605   0.340   1.615  16.630  1.0893  0.7844  1.4256
 3324SOL    HW221606   0.301   1.717  16.532 -0.8865 -1.3741 -0.5854
 3325SOL     OW21607   3.447   0.971   7.886 -0.0665  0.5845 -0.5887
 3325SOL    HW121608   3.356   0.978   7.915 -0.1680 -0.9172 -0.5657
 3325SOL    HW221609   3.460   0.883   7.922  1.2867  2.1905  2.7892
 3326SOL     OW21610   0.023   1.144  15.522  0.7870 -0.3230 -0.0957
 3326SOL    HW121611   0.053   1.235  15.518 -2.9998  0.9814  0.9543
 3326SOL    HW221612   0.072   1.117  15.600  1.6410  1.7893  0.1116
 3327SOL     OW21613   1.779   1.002   5.238  0.2445  0.5419  0.4332
 3327SOL    HW121614   1.776   1.094   5.213 -3.6310  0.8816  2.1334
 3327SOL    HW221615   1.872   0.992   5.218  0.4827  0.7582  1.4134
 3328SOL     OW21616   3.654   0.051   1.891  0.1813 -0.5143 -0.6501
 3328SOL    HW121617   3.651   0.072   1.985 -0.2649 -1.9486 -0.3428
 3328SOL    HW221618   3.716   0.121   1.870  0.8584 -0.6601  0.8654
 3329SOL     OW21619   3.506   2.295   8.937 -0.0840 -0.1487  0.2069
 3329SOL    HW121620   3.417   2.278   8.970 -0.4158  0.9027 -0.1175
 3329SOL    HW221621   3.485   2.289   8.844 -1.7480 -1.6547  0.6617
 3330SOL     OW21622   1.300   0.057   7.021  0.3005  0.7759  0.3072
 3330SOL    HW121623   1.359   0.125   6.987 -0.2854  1.1346 -0.0087
 3330SOL    HW221624   1.245   0.109   7.080 -1.5818 -0.8127 -0.0608
 3331SOL     OW21625   2.266   4.355  17.533 -0.3865  0.2921 -0.2035
 3331SOL    HW121626   2.224   4.327  17.452 -2.1081  0.0453  0.7678
 3331SOL    HW221627   2.298   4.267  17.554 -0.0525  0.3709 -0.3844
 3332SOL     OW21628   0.781   2.397   2.343  0.6534 -0.1747  0.0682
 3332SOL    HW121629   0.729   2.368   2.418 -1.3101 -0.8536 -1.5580
 3332SOL    HW221630   0.767   2.491   2.334 -0.7618 -0.6300 -2.5511
 3333SOL     OW21631   0.216   2.870   9.623  0.0164  0.3799  0.7462
 3333SOL    HW121632   0.269   2.800   9.586 -0.4248 -1.8642  4.2883
 3333SOL    HW221633   0.213   2.922   9.543 -0.5251  0.8587  1.0814
 3334SOL     OW21634   4.410   2.868   5.094 -0.2184 -0.0210  0.2220
 3334SOL    HW121635   4.434   2.887   5.185  0.6542 -0.0327 -0.0091
 3334SOL    HW221636   4.416   2.772   5.096  0.8951  0.0376 -0.7104
 3335SOL     OW21637   3.926   1.963  15.714  0.3401 -0.2987  0.2780
 3335SOL    HW121638   3.857   2.028  15.725 -0.6866 -1.2597 -0.4907
 3335SOL    HW221639   4.003   2.012  15.685 -1.3175  0.8090 -2.1950
 3336SOL     OW21640   4.722   3.364   8.226 -0.7030  0.2427  0.0649
 3336SOL    HW121641   4.681   3.449   8.211 -0.0895  0.4497 -0.4240
 3336SOL    HW221642   0.075   3.369   8.193 -1.1632  1.1513 -1.0273
 3337SOL     OW21643   4.214   0.506  12.263 -0.0192  0.1627  0.0510
 3337SOL    HW121644   4.273   0.433  12.245 -0.3125  0.2594 -1.2710
 3337SOL    HW221645   4.242   0.567  12.194  1.0311 -0.5535 -0.1511
 3338SOL     OW21646   4.318   1.780   6.859  0.0498  0.3366 -0.4589
 3338SOL    HW121647   4.311   1.768   6.765 -0.9079 -1.9311 -0.0887
 3338SOL    HW221648   4.225   1.784   6.878 -0.0304 -0.6093 -0.6671
 3339SOL     OW21649   0.195   4.700   5.890 -0.3321 -0.3043 -0.1854
 3339SOL    HW121650   0.103   4.699   5.915  0.3632 -0.5493  2.3219
 3339SOL    HW221651   0.195   4.712   5.795  2.5581  2.0163  0.1026
 3340SOL     OW21652   3.815   2.925   7.879 -0.0907 -0.2066  0.5999
 3340SOL    HW121653   3.813   2.842   7.927 -2.3197 -0.2547  0.4255
 3340SOL    HW221654   3.867   2.976   7.942 -2.0756  1.9609  0.4809
 3341SOL     OW21655   0.825   1.436   7.702  0.4549 -0.3629 -0.1684
 3341SOL    HW121656   0.875   1.517   7.696  0.6633 -0.7031 -3.3818
 3341SOL    HW221657   0.898   1.375   7.703  1.2013  0.5499  0.4920
 3342SOL     OW21658   0.558   2.454   2.751 -0.8106  0.2819 -0.3453
 3342SOL    HW121659   0.611   2.518   2.800  0.4214 -2.1246  1.4899
 3342SOL    HW221660   0.492   2.428   2.815 -0.1938  2.3942  1.1317
 3343SOL     OW21661   3.853   1.785  13.514  0.0864 -0.3591  0.2030
 3343SOL    HW121662   3.759   1.793  13.529  0.0522  1.8290 -1.1085
 3343SOL    HW221663   3.861   1.732  13.435  1.6774 -0.8822  0.7005
 3344SOL     OW21664   0.296   1.394   4.830 -0.1722 -0.2055  0.2040
 3344SOL    HW121665   0.369   1.370   4.886  0.8900  0.1895 -1.0146
 3344SOL    HW221666   0.286   1.486   4.853 -0.7199 -0.5964  1.5382
 3345SOL     OW21667   1.804   3.810   8.525  0.0354  0.0978  0.4560
 3345SOL    HW121668   1.755   3.728   8.513  0.5254 -0.4823  2.5178
 3345SOL    HW221669   1.867   3.820   8.453 -0.2372  0.0448  0.2067
 3346SOL     OW21670   4.245   0.050   4.122 -0.3479  0.3754 -0.0306
 3346SOL    HW121671   4.334   0.022   4.101 -0.1484  0.1155  1.1946
 3346SOL    HW221672   4.242   0.055   4.218 -3.1066 -0.5745 -0.0586
 3347SOL     OW21673   3.286   4.601  13.380 -0.3470 -0.3407  0.6087
 3347SOL    HW121674   3.218   4.576  13.318 -0.1416  2.2793 -0.6726
 3347SOL    HW221675   3.353   4.648  13.330  0.7417 -1.0661  1.3822
 3348SOL     OW21676   1.609   2.706  11.059  0.1479  0.0558 -0.7727
 3348SOL    HW121677   1.648   2.720  10.973  1.3540  2.2596  0.1295
 3348SOL    HW221678   1.652   2.632  11.101 -0.5944  0.0899  0.0574
 3349SOL     OW21679   3.693   1.463   3.702 -0.1939  0.2878 -0.2969
 3349SOL    HW121680   3.640   1.471   3.782 -0.1780 -0.2023 -0.2421
 3349SOL    HW221681   3.630   1.424   3.641  0.9374 -1.3654 -0.3932
 3350SOL     OW21682   1.534   0.840   8.057  0.2999 -0.1364 -0.1877
 3350SOL    HW121683   1.608   0.893   8.028 -0.5980  1.7861  1.0644
 3350SOL    HW221684   1.577   0.793   8.129 -2.0650  0.5039  1.6219
 3351SOL     OW21685   2.069   2.518   6.190  0.2579 -0.3908 -0.5965
 3351SOL    HW121686   2.076   2.533   6.096  3.1810 -0.2009 -0.3462
 3351SOL    HW221687   2.163   2.523   6.208  0.1387  1.1247 -0.3474
 3352SOL     OW21688   1.432   0.380   4.291  0.7033  0.6326  0.3030
 3352SOL    HW121689   1.370   0.310   4.269 -0.2495  1.7513 -0.5561
 3352SOL    HW221690   1.475   0.379   4.205 -0.3063  0.3306 -0.1970
 3353SOL     OW21691   1.875   4.625  16.659 -0.4420 -0.2783  0.5508
 3353SOL    HW121692   1.886   4.608  16.565  1.5464 -1.1267  0.9460
 3353SOL    HW221693   1.964   4.648  16.687 -0.8506  1.4661  0.4557
 3354SOL     OW21694   0.426   3.380   2.252 -0.2725 -0.0338  0.3210
 3354SOL    HW121695   0.412   3.474   2.267 -2.4279 -0.2406 -0.4356
 3354SOL    HW221696   0.361   3.344   2.312 -1.2256 -0.1112 -0.7672
 3355SOL     OW21697   2.521   1.166  12.064 -0.2841  0.8005  0.3392
 3355SOL    HW121698   2.556   1.091  12.016 -0.5867  1.9573 -1.6915
 3355SOL    HW221699   2.562   1.231  12.008 -0.2679 -0.1776 -0.8082
 3356SOL     OW21700   1.462   0.810  12.434 -0.1090  0.0520 -0.4873
 3356SOL    HW121701   1.407   0.867  12.379 -1.1885 -0.3174  0.1962
 3356SOL    HW221702   1.542   0.860  12.443  0.3068 -0.1665 -2.8738
 3357SOL     OW21703   1.196   2.628  16.200 -0.0009 -0.0290 -0.3418
 3357SOL    HW121704   1.110   2.589  16.214  0.6961 -1.1545  0.8637
 3357SOL    HW221705   1.228   2.642  16.290  0.0548 -3.2056  0.1269
 3358SOL     OW21706   0.188   4.668  10.278  0.4218  0.2417 -0.4432
 3358SOL    HW121707   0.106   4.621  10.292  0.9546 -1.0515 -1.6984
 3358SOL    HW221708   0.221   4.662  10.368 -0.9536 -2.4301 -0.1074
 3359SOL     OW21709   2.414   4.557   4.056 -0.2803  0.6527  0.0242
 3359SOL    HW121710   2.436   4.629   3.996 -0.6413  1.7877  1.2577
 3359SOL    HW221711   2.495   4.506   4.052 -1.2855 -1.2790  4.8986
 3360SOL     OW21712   2.595   3.101   5.355 -0.0352 -0.0480  0.3691
 3360SOL    HW121713   2.617   3.193   5.339  0.6206 -0.2511  0.1001
 3360SOL    HW221714   2.671   3.059   5.317 -0.2290 -0.0751  0.0161
 3361SOL     OW21715   0.212   0.300   2.366 -0.0734  0.0193  0.0883
 3361SOL    HW121716   0.244   0.319   2.278 -1.1546  0.5269 -0.1889
 3361SOL    HW221717   0.284   0.330   2.422  0.1604 -0.7930  0.2290
 3362SOL     OW21718   1.451   4.456  10.672 -0.3770  0.1766  0.0968
 3362SOL    HW121719   1.546   4.449  10.686 -0.1000 -0.8921 -2.2400
 3362SOL    HW221720   1.457   4.405  10.590 -0.0613  0.8095 -0.2734
 3363SOL     OW21721   2.629   3.404   2.237 -0.3875 -0.3673 -0.6530
 3363SOL    HW121722   2.560   3.353   2.280  0.6442 -0.2744  1.0930
 3363SOL    HW221723   2.685   3.333   2.206 -0.4423 -0.6915  0.0062
 3364SOL     OW21724   3.316   3.131   7.747 -0.1160 -0.4036  0.0415
 3364SOL    HW121725   3.349   3.183   7.674 -0.9565  1.2645  0.8651
 3364SOL    HW221726   3.385   3.068   7.770 -1.3433 -0.9088  2.3021
 3365SOL     OW21727   3.813   0.439   3.355 -0.4241 -0.2790 -0.5319
 3365SOL    HW121728   3.851   0.484   3.430 -0.8122  1.3829 -1.3278
 3365SOL    HW221729   3.782   0.361   3.400 -1.4059  0.0059 -0.6965
 3366SOL     OW21730   4.485   2.302   6.673  0.6649 -0.0695 -0.0251
 3366SOL    HW121731   4.577   2.283   6.690  0.6188 -0.1229  0.1753
 3366SOL    HW221732   4.475   2.383   6.723  0.0817 -1.0047  1.4032
 3367SOL     OW21733   2.855   2.726   3.048 -0.4236  0.3651  0.0314
 3367SOL    HW121734   2.834   2.674   3.126  0.8498  0.1281  0.2228
 3367SOL    HW221735   2.948   2.707   3.040 -0.3078  1.1290 -0.3694
 3368SOL     OW21736   1.777   1.359   3.154  0.2455 -0.0533 -0.1725
 3368SOL    HW121737   1.712   1.428   3.146  1.5773  1.4421  1.9932
 3368SOL    HW221738   1.841   1.399   3.213 -2.7701  2.8186  1.1229
 3369SOL     OW21739   1.627   4.693   8.002 -0.5651  0.5862  0.0965
 3369SOL    HW121740   1.641   0.039   8.048 -3.5704  0.5509  1.1195
 3369SOL    HW221741   1.535   4.704   7.977 -0.1956  0.3494 -1.3746
 3370SOL     OW21742   1.763   3.343  17.227  0.0207  0.1862 -0.4062
 3370SOL    HW121743   1.801   3.416  17.179 -1.1913 -0.2403 -2.0274
 3370SOL    HW221744   1.668   3.349  17.225  0.1695  2.1920 -1.2087
 3371SOL     OW21745   4.609   2.188  15.122  0.6164 -0.5153 -0.1314
 3371SOL    HW121746   4.645   2.259  15.068  1.2533 -0.8023 -0.0895
 3371SOL    HW221747   4.608   2.233  15.207  0.3333 -1.1237  0.1891
 3372SOL     OW21748   0.549   2.481  15.745  0.2890  0.0840 -0.4239
 3372SOL    HW121749   0.559   2.525  15.661 -1.0951 -0.1524 -0.7164
 3372SOL    HW221750   0.521   2.555  15.799  0.5435 -1.0935  1.3358
 3373SOL     OW21751   4.724   4.063   4.357 -0.3389 -0.2399  0.3899
 3373SOL    HW121752   0.003   4.002   4.430  0.0632 -0.8997 -0.2474
 3373SOL    HW221753   0.076   4.087   4.335 -0.7137  0.9019  0.1405
 3374SOL     OW21754   0.864   1.007   2.083  0.4997  0.2573 -0.3933
 3374SOL    HW121755   0.776   0.998   2.118  0.6922 -4.2396 -1.0413
 3374SOL    HW221756   0.848   1.065   2.009  0.8661  0.0302 -0.6535
 3375SOL     OW21757   4.263   0.771   2.302 -0.4137 -0.5715 -0.9999
 3375SOL    HW121758   4.348   0.736   2.276  1.0175 -1.0639  4.2855
 3375SOL    HW221759   4.222   0.701   2.352 -2.6263  0.4878 -1.3179
 3376SOL     OW21760   1.262   2.975   9.381 -0.4995  0.0661  0.2180
 3376SOL    HW121761   1.293   3.024   9.457  0.2995  1.2240 -0.8382
 3376SOL    HW221762   1.310   2.895   9.401 -1.7085 -1.4125 -2.7310
 3377SOL     OW21763   1.601   4.483   5.939 -0.1392  0.3505 -0.3401
 3377SOL    HW121764   1.589   4.578   5.939  1.7719  0.5849  1.0715
 3377SOL    HW221765   1.691   4.479   5.905  0.9877  0.6028  2.5843
 3378SOL     OW21766   3.236   3.983  15.967 -0.0937  0.1699 -0.0862
 3378SOL    HW121767   3.159   3.955  16.016  0.7013  0.0234  1.0807
 3378SOL    HW221768   3.196   4.066  15.939  2.3620  1.5456  0.4164
 3379SOL     OW21769   3.535   2.286  14.030  0.0838 -0.0183  0.2121
 3379SOL    HW121770   3.556   2.201  14.069  0.0357  1.1355  2.7991
 3379SOL    HW221771   3.520   2.339  14.109 -0.0067 -0.7603  0.6914
 3380SOL     OW21772   3.218   3.841   3.909  0.2639  0.4200  0.2706
 3380SOL    HW121773   3.174   3.757   3.924  1.2136 -0.6037 -2.6741
 3380SOL    HW221774   3.266   3.815   3.830  2.8144  0.7632  1.7172
 3381SOL     OW21775   2.026   0.556   0.965 -0.4463 -0.4154  0.0183
 3381SOL    HW121776   1.994   0.562   1.055 -0.3818 -1.6890  0.1267
 3381SOL    HW221777   2.120   0.543   0.979 -0.1619 -0.8735 -2.3161
 3382SOL     OW21778   0.712   3.798   4.100 -0.4636 -0.0583 -0.2706
 3382SOL    HW121779   0.769   3.856   4.151 -2.0573  0.6184  0.7617
 3382SOL    HW221780   0.691   3.728   4.161  0.6553 -0.3282 -0.2086
 3383SOL     OW21781   2.354   2.304  10.468  0.4496  0.8643 -0.0194
 3383SOL    HW121782   2.410   2.233  10.500  1.4329  0.6363 -2.2516
 3383SOL    HW221783   2.423   2.352  10.423  1.9395 -1.4146 -0.1817
 3384SOL     OW21784   0.108   3.282   2.677  0.5043  0.2135 -0.3021
 3384SOL    HW121785   0.104   3.246   2.766 -3.5655 -0.8760 -0.9287
 3384SOL    HW221786   0.108   3.201   2.625 -1.3926  0.2122 -0.2874
 3385SOL     OW21787   1.852   1.643   3.962 -0.0206 -0.0907 -0.3383
 3385SOL    HW121788   1.913   1.597   4.020  0.2002  1.6438  0.7987
 3385SOL    HW221789   1.820   1.708   4.024  0.5550 -0.6428  0.5243
 3386SOL     OW21790   1.953   2.135   4.490  0.5675  0.4064  0.3693
 3386SOL    HW121791   1.992   2.055   4.525  1.7965  0.5577 -0.6489
 3386SOL    HW221792   2.015   2.154   4.419 -0.4552  2.9346  0.1356
 3387SOL     OW21793   4.730   2.897   4.624  0.3347  0.2031 -0.0626
 3387SOL    HW121794   4.703   2.855   4.706 -2.1644  2.0267  0.0789
 3387SOL    HW221795   4.648   2.936   4.591 -0.0351  0.3432  1.0151
 3388SOL     OW21796   1.133   3.421   7.156  0.4168  0.1052  0.6037
 3388SOL    HW121797   1.131   3.456   7.245 -1.9279 -1.4181  1.1500
 3388SOL    HW221798   1.158   3.495   7.101 -0.3911  0.2871  0.4898
 3389SOL     OW21799   3.738   0.112   2.444  0.2509 -0.0774 -0.5442
 3389SOL    HW121800   3.834   0.117   2.448  0.1339  1.7983 -0.0819
 3389SOL    HW221801   3.715   0.204   2.450  0.5091 -0.0735  0.5216
 3390SOL     OW21802   2.353   3.094   3.905  0.5659 -0.0468 -0.0977
 3390SOL    HW121803   2.339   3.168   3.963  4.2923 -2.1507  3.4171
 3390SOL    HW221804   2.259   3.077   3.893  0.1510  2.5662 -0.4652
 3391SOL     OW21805   3.119   0.537   0.525  0.4691 -0.1255 -0.8099
 3391SOL    HW121806   3.140   0.505   0.438  2.1721 -2.9579  0.6754
 3391SOL    HW221807   3.128   0.453   0.570  0.6808  1.1553  1.5713
 3392SOL     OW21808   4.129   0.483   8.182  0.4845 -0.0241 -0.2484
 3392SOL    HW121809   4.124   0.569   8.141 -0.6135 -0.1158 -0.3004
 3392SOL    HW221810   4.223   0.466   8.175  0.4294 -0.0598 -0.9456
 3393SOL     OW21811   3.093   0.003  14.810  0.3018  0.0240  0.0390
 3393SOL    HW121812   3.004   0.003  14.776  0.1266 -2.2489  0.4601
 3393SOL    HW221813   3.146   0.007  14.730  0.6710 -2.0337  0.1719
 3394SOL     OW21814   3.695   0.793   3.089 -0.1647 -0.0127  0.3233
 3394SOL    HW121815   3.646   0.807   3.170 -2.6199  2.2155 -1.5613
 3394SOL    HW221816   3.755   0.867   3.093  0.7728 -0.7214 -0.7714
 3395SOL     OW21817   4.196   0.223   3.115 -0.2431  0.9517 -0.1383
 3395SOL    HW121818   4.106   0.194   3.130 -0.2308  0.7857 -0.3854
 3395SOL    HW221819   4.249   0.160   3.163 -0.6071  1.7499  1.3152
 3396SOL     OW21820   0.865   1.417   5.068 -0.2461  0.0775 -0.8124
 3396SOL    HW121821   0.935   1.411   5.003  0.5154 -3.3631  0.3205
 3396SOL    HW221822   0.864   1.330   5.108  0.6394  0.7397  0.6450
 3397SOL     OW21823   4.503   1.783   8.377 -0.1249 -1.0993  0.4221
 3397SOL    HW121824   4.492   1.861   8.431  1.2943  0.4752 -1.5349
 3397SOL    HW221825   4.430   1.730   8.409 -0.7127 -1.3046 -1.2276
 3398SOL     OW21826   2.104   3.510   5.681 -0.6879 -0.1027  0.4446
 3398SOL    HW121827   2.069   3.578   5.624  0.0810  1.4914  1.8787
 3398SOL    HW221828   2.197   3.531   5.690 -0.7437  0.9600 -1.6466
 3399SOL     OW21829   3.102   4.084   4.700 -0.1351  1.0373 -0.4437
 3399SOL    HW121830   3.147   4.164   4.728  0.7915  0.7284 -1.0446
 3399SOL    HW221831   3.012   4.104   4.724  0.4737  1.3287  1.5614
 3400SOL     OW21832   4.201   2.309   4.040  0.2055  0.0835 -0.2864
 3400SOL    HW121833   4.115   2.296   4.080 -0.2276  1.0552 -0.8964
 3400SOL    HW221834   4.172   2.272   3.956  1.6430  0.6236 -1.0155
 3401SOL     OW21835   2.714   3.880   2.592  0.0350 -0.3426 -0.6275
 3401SOL    HW121836   2.655   3.881   2.517 -2.3617 -0.1638  1.2621
 3401SOL    HW221837   2.719   3.786   2.605  2.5755  0.2695  2.7749
 3402SOL     OW21838   2.463   0.350   0.839 -0.8620  0.0807  0.2411
 3402SOL    HW121839   2.470   0.266   0.795 -0.5303  1.3729 -2.2071
 3402SOL    HW221840   2.445   0.400   0.759 -0.8136 -1.5162 -0.7513
 3403SOL     OW21841   1.774   2.257   0.374  0.0776 -0.1628 -0.1246
 3403SOL    HW121842   1.750   2.306   0.453 -0.0916  2.9217 -2.1066
 3403SOL    HW221843   1.691   2.253   0.326  1.1093  0.2081 -1.9540
 3404SOL     OW21844   3.995   3.760   5.613 -0.0360  0.3654  0.2720
 3404SOL    HW121845   3.963   3.723   5.531 -0.8372  0.6769  0.4416
 3404SOL    HW221846   3.937   3.836   5.620 -0.0484  0.4318 -0.5700
 3405SOL     OW21847   2.557   3.717  17.053  0.3191  0.1371  0.1431
 3405SOL    HW121848   2.623   3.655  17.084  1.8963  1.9484  0.3964
 3405SOL    HW221849   2.494   3.729  17.125 -1.0413  0.2573 -1.0486
 3406SOL     OW21850   1.561   0.396   2.417  0.1979 -0.4620  0.5907
 3406SOL    HW121851   1.560   0.336   2.343 -1.4442  2.0200 -1.3922
 3406SOL    HW221852   1.591   0.469   2.363  0.8992 -1.0734  0.1564
 3407SOL     OW21853   1.141   3.543   1.498  0.4534  0.4930 -0.1432
 3407SOL    HW121854   1.214   3.500   1.542  1.4605  1.3281 -0.9885
 3407SOL    HW221855   1.071   3.555   1.562 -0.3213 -1.0218 -0.7271
 3408SOL     OW21856   3.381   1.777  14.638 -0.5006  0.0798 -0.3177
 3408SOL    HW121857   3.430   1.753  14.717 -0.5835 -2.6251 -1.0857
 3408SOL    HW221858   3.294   1.754  14.668 -0.4169 -0.4368 -0.4599
 3409SOL     OW21859   0.964   2.840  10.798 -0.0981 -0.6059 -0.2314
 3409SOL    HW121860   1.000   2.751  10.793  0.3228 -0.4863  0.6317
 3409SOL    HW221861   0.982   2.844  10.892 -2.6429 -2.3531  0.3492
 3410SOL     OW21862   3.095   0.895  17.384  0.3163  0.4623 -0.0271
 3410SOL    HW121863   3.111   0.896  17.290 -2.2186  1.5220 -0.4479
 3410SOL    HW221864   3.185   0.880  17.413  0.0105  0.6537  1.0131
 3411SOL     OW21865   3.170   0.047  16.425 -0.2562 -0.3998  0.3939
 3411SOL    HW121866   3.137   0.105  16.356 -0.6173 -0.1783  0.7596
 3411SOL    HW221867   3.112   0.066  16.498 -1.7131  1.5995 -1.2533
 3412SOL     OW21868   2.787   0.420   8.553 -0.7281  0.3330  0.6100
 3412SOL    HW121869   2.880   0.423   8.531 -0.6037  2.9302  1.5062
 3412SOL    HW221870   2.760   0.511   8.545 -1.4433  0.0168 -0.5543
 3413SOL     OW21871   1.713   2.545   4.410 -0.0649  0.2936 -0.1505
 3413SOL    HW121872   1.805   2.557   4.433 -0.0019 -1.1668  0.3888
 3413SOL    HW221873   1.683   2.501   4.490  1.3454  0.8577  0.6770
 3414SOL     OW21874   3.523   4.505  14.724 -0.9209 -0.9260 -0.1710
 3414SOL    HW121875   3.511   4.492  14.630 -1.3911  0.4129 -0.2909
 3414SOL    HW221876   3.485   4.422  14.756 -1.4826  0.2818  2.3029
 3415SOL     OW21877   3.411   4.654  15.664 -0.6627 -0.6378 -0.4006
 3415SOL    HW121878   3.388   4.600  15.588  2.1581 -2.2474 -0.1271
 3415SOL    HW221879   3.382   0.006  15.648  1.5776  0.4853  1.8428
 3416SOL     OW21880   0.701   1.589  15.625 -0.3529 -0.0949  0.0226
 3416SOL    HW121881   0.631   1.560  15.567  1.0737 -1.1454 -1.1795
 3416SOL    HW221882   0.666   1.654  15.685 -1.3969 -1.0595  0.4499
 3417SOL     OW21883   2.401   2.282   2.418  0.8796 -0.3059 -0.1960
 3417SOL    HW121884   2.376   2.248   2.332  0.9201 -1.5594  0.2785
 3417SOL    HW221885   2.323   2.331   2.444  0.3797 -0.9657 -0.4534
 3418SOL     OW21886   4.099   3.098   7.221  0.2394  0.2506 -0.0820
 3418SOL    HW121887   4.180   3.133   7.256  0.1569 -0.9169  1.2771
 3418SOL    HW221888   4.120   3.012   7.186  0.9196  0.7394 -0.8677
 3419SOL     OW21889   4.344   0.801  11.860 -0.0241 -0.1394 -0.0215
 3419SOL    HW121890   4.395   0.784  11.781  0.9581  1.5119  0.2606
 3419SOL    HW221891   4.373   0.887  11.887  1.9076 -0.9594  0.4937
 3420SOL     OW21892   0.377   1.500   4.368 -0.1349  0.8287 -0.0597
 3420SOL    HW121893   0.318   1.566   4.332 -0.5430  1.4462  1.7821
 3420SOL    HW221894   0.371   1.441   4.292  1.7205 -0.5100  0.8200
 3421SOL     OW21895   3.173   3.980   3.042  0.1768 -0.2871 -0.3200
 3421SOL    HW121896   3.079   3.967   3.058  0.7744  0.4660  3.6384
 3421SOL    HW221897   3.191   3.925   2.965 -0.5542 -0.3888 -0.4220
 3422SOL     OW21898   2.548   1.041   3.636  0.2273 -0.2402  0.4014
 3422SOL    HW121899   2.546   1.036   3.541  0.4418 -1.8172  0.4787
 3422SOL    HW221900   2.630   0.995   3.657 -0.1436 -1.2603 -0.3822
 3423SOL     OW21901   1.035   0.743   6.529 -0.3581 -0.2094  0.2339
 3423SOL    HW121902   1.063   0.711   6.615 -0.8259  0.0678  0.4903
 3423SOL    HW221903   1.099   0.813   6.516  0.8740 -1.6316 -1.2329
 3424SOL     OW21904   1.674   3.283   2.335 -0.0087  0.0796  0.0886
 3424SOL    HW121905   1.648   3.200   2.375  0.2361 -0.0294  0.0235
 3424SOL    HW221906   1.614   3.342   2.380  1.3390  1.4505  0.1047
 3425SOL     OW21907   0.768   2.122   8.750  0.2382 -1.1239  0.2148
 3425SOL    HW121908   0.854   2.098   8.784 -0.3907  0.4397  2.8902
 3425SOL    HW221909   0.727   2.037   8.767  1.2001 -1.7481 -0.5745
 3426SOL     OW21910   2.524   1.593   6.632 -0.0098 -0.2532  0.0066
 3426SOL    HW121911   2.448   1.554   6.588 -0.1363 -0.8145  0.7246
 3426SOL    HW221912   2.595   1.554   6.582  0.3832 -1.0984  1.2582
 3427SOL     OW21913   1.708   4.397   0.919  0.0401 -0.1237 -0.0076
 3427SOL    HW121914   1.755   4.465   0.968 -0.7336 -0.2882  0.9576
 3427SOL    HW221915   1.664   4.454   0.856  3.0216  2.0887 -0.1301
 3428SOL     OW21916   3.597   1.123   0.339 -0.4103  0.0909 -0.2811
 3428SOL    HW121917   3.575   1.194   0.398  1.4201  1.6510 -1.4767
 3428SOL    HW221918   3.693   1.124   0.344 -0.4470  0.0828  0.3192
 3429SOL     OW21919   3.762   2.347  11.357 -0.0244 -0.5635  0.2225
 3429SOL    HW121920   3.670   2.354  11.382  0.0510 -0.0866  0.3542
 3429SOL    HW221921   3.740   2.307  11.273 -1.2989  0.4738  0.0537
 3430SOL     OW21922   3.258   4.167  11.888 -0.5422 -0.1940  0.5258
 3430SOL    HW121923   3.185   4.120  11.847 -3.0737  3.1890  1.1391
 3430SOL    HW221924   3.234   4.256  11.916 -0.3188  0.3599 -1.0431
 3431SOL     OW21925   2.533   0.865   6.831 -0.1037 -0.4461  0.8554
 3431SOL    HW121926   2.439   0.849   6.846 -0.4308 -0.0550 -0.7270
 3431SOL    HW221927   2.561   0.897   6.917 -0.7067  1.3591  0.3831
 3432SOL     OW21928   1.009   2.413   9.476  0.1314 -0.2363  0.2450
 3432SOL    HW121929   1.011   2.500   9.517 -3.3963  0.0970 -0.2656
 3432SOL    HW221930   0.919   2.421   9.444  0.4497 -0.0195 -0.5911
 3433SOL     OW21931   0.715   3.647  11.544  0.2858 -0.4436  0.6284
 3433SOL    HW121932   0.675   3.689  11.620  3.2272 -0.0351  1.9601
 3433SOL    HW221933   0.784   3.705  11.512 -1.8991  0.7487 -1.9242
 3434SOL     OW21934   0.428   3.104   8.891  0.0425  0.0002  0.1432
 3434SOL    HW121935   0.384   3.052   8.824 -0.4142 -0.0248  0.4588
 3434SOL    HW221936   0.387   3.191   8.892 -0.5222 -0.2868  2.0529
 3435SOL     OW21937   1.608   0.740   5.685 -0.0147  0.1575  0.2510
 3435SOL    HW121938   1.678   0.790   5.725 -0.8635 -0.4226  2.4210
 3435SOL    HW221939   1.627   0.753   5.592 -0.1423 -0.5370  0.1264
 3436SOL     OW21940   3.922   0.225   6.212 -0.2626 -0.1633 -0.5637
 3436SOL    HW121941   3.841   0.210   6.261 -0.3799  0.8312 -0.4594
 3436SOL    HW221942   3.915   0.315   6.180  0.8920 -0.1010 -0.6293
 3437SOL     OW21943   2.536   2.874   2.127  0.0484  0.1275 -0.6717
 3437SOL    HW121944   2.490   2.862   2.210  0.2060  1.3070 -0.4125
 3437SOL    HW221945   2.505   2.963   2.109  1.2605  1.0141  1.5003
 3438SOL     OW21946   0.458   1.228   2.853 -0.0693 -0.2427  0.1694
 3438SOL    HW121947   0.446   1.201   2.762 -1.4835 -0.4261  0.4059
 3438SOL    HW221948   0.515   1.158   2.886  0.6777  0.6848  0.8794
 3439SOL     OW21949   3.120   0.956   4.871  0.1940  0.6877 -0.4572
 3439SOL    HW121950   3.174   0.885   4.836 -0.4387  0.2844 -0.6118
 3439SOL    HW221951   3.090   0.908   4.949  0.1703  2.8805  0.8873
 3440SOL     OW21952   3.767   0.643   2.026  0.1539  0.8227 -0.0752
 3440SOL    HW121953   3.685   0.676   2.062 -0.5598  0.2059 -1.1075
 3440SOL    HW221954   3.832   0.682   2.084  0.3619  1.1334 -0.5187
 3441SOL     OW21955   1.482   0.069   4.565  0.2238  0.2256  0.8800
 3441SOL    HW121956   1.491   0.089   4.658 -0.0687 -1.5116  1.2812
 3441SOL    HW221957   1.565   0.092   4.522 -0.6673 -1.0330 -1.5548
 3442SOL     OW21958   0.911   1.569   8.226 -0.4590 -0.1658  0.1863
 3442SOL    HW121959   0.837   1.510   8.237  1.1339 -2.1399  0.2890
 3442SOL    HW221960   0.975   1.521   8.278  0.2392 -2.0726 -2.4239
 3443SOL     OW21961   3.293   3.823   8.837 -0.0993 -0.2297  0.3391
 3443SOL    HW121962   3.302   3.768   8.759 -0.2905 -1.0868  0.9234
 3443SOL    HW221963   3.291   3.907   8.790  1.5403  0.4044  1.3868
 3444SOL     OW21964   4.544   2.643   3.252  0.6865 -0.5471  0.1607
 3444SOL    HW121965   4.468   2.689   3.215  0.3866 -0.6256  0.6695
 3444SOL    HW221966   4.560   2.586   3.177 -2.1928  0.6646 -1.3988
 3445SOL     OW21967   1.447   0.040  17.538 -0.1411  0.7358  0.6158
 3445SOL    HW121968   1.411   0.072  17.456  0.7123  1.4254  0.5070
 3445SOL    HW221969   1.479   4.689  17.519  2.6111  1.1592  3.1732
 3446SOL     OW21970   3.570   1.403  13.965  0.2446 -0.0790  0.7372
 3446SOL    HW121971   3.521   1.363  14.037  1.3081  1.4368  2.3324
 3446SOL    HW221972   3.592   1.488  14.004 -0.1173  0.4141 -0.1355
 3447SOL     OW21973   4.600   2.103   0.439  0.1588 -0.1967  0.1243
 3447SOL    HW121974   4.666   2.041   0.471  0.2927 -0.1373 -0.0371
 3447SOL    HW221975   4.652   2.175   0.403 -1.9314  1.2709  0.0625
 3448SOL     OW21976   3.448   4.391  16.165  0.3526 -0.1543 -0.2006
 3448SOL    HW121977   3.359   4.356  16.156  0.2402  0.1051 -0.0854
 3448SOL    HW221978   3.487   4.316  16.210  1.6156  0.5083 -0.1928
 3449SOL     OW21979   0.675   0.782   5.480 -0.3058  0.0963 -0.5751
 3449SOL    HW121980   0.629   0.699   5.481 -0.2430  0.0663  0.1291
 3449SOL    HW221981   0.740   0.750   5.418 -1.4536  0.5937 -2.0186
 3450SOL     OW21982   3.877   4.043   0.458  0.1383  0.5020  0.4577
 3450SOL    HW121983   3.904   4.117   0.512  0.9746  0.3047  0.2988
 3450SOL    HW221984   3.782   4.057   0.464  0.5865  2.9984  1.7920
 3451SOL     OW21985   2.733   3.409  10.338  0.3846 -0.3099  0.3794
 3451SOL    HW121986   2.742   3.318  10.311 -1.4558 -0.8542  1.5495
 3451SOL    HW221987   2.696   3.401  10.426 -1.8595 -0.2539 -0.5739
 3452SOL     OW21988   2.722   1.911  12.227 -0.1823  0.3427 -0.2870
 3452SOL    HW121989   2.793   1.975  12.229 -0.0586  0.2071 -0.3685
 3452SOL    HW221990   2.761   1.841  12.278 -3.0559 -0.6331  0.5216
 3453SOL     OW21991   0.626   2.277   8.154  0.2349  0.0868 -0.6014
 3453SOL    HW121992   0.576   2.349   8.115 -0.4135  1.9515  3.5864
 3453SOL    HW221993   0.563   2.205   8.148 -0.4797  0.6588 -0.1481
 3454SOL     OW21994   0.306   2.444   0.377 -0.0456  0.7236 -0.2103
 3454SOL    HW121995   0.274   2.503   0.446  0.3761  0.2625  0.3802
 3454SOL    HW221996   0.285   2.359   0.417  0.8176  0.5327 -0.1774
 3455SOL     OW21997   0.402   1.025   3.768 -0.2108  0.0680 -0.5599
 3455SOL    HW121998   0.338   1.049   3.835  1.1840  0.0618  0.7792
 3455SOL    HW221999   0.477   0.987   3.813  1.0660  1.9645 -1.0531
 3456SOL     OW22000   0.634   4.583  16.608  0.6976  0.1578 -0.0646
 3456SOL    HW122001   0.724   4.606  16.586  1.3426 -1.6422  0.7091
 3456SOL    HW222002   0.625   4.491  16.582  2.0122 -0.0193  0.0925
 3457SOL     OW22003   0.840   0.371   5.835  0.0500 -0.3020  0.0669
 3457SOL    HW122004   0.847   0.295   5.892 -0.7875 -0.1020  0.4373
 3457SOL    HW222005   0.893   0.429   5.890 -0.3463  0.5070 -0.4048
 3458SOL     OW22006   0.725   0.433   2.274  0.2610 -0.0319  0.0512
 3458SOL    HW122007   0.681   0.410   2.355 -0.1505 -0.0210 -0.1721
 3458SOL    HW222008   0.655   0.480   2.229 -0.6150  0.0592  1.5394
 3459SOL     OW22009   2.349   1.214   6.822  0.5029  0.9016  0.2324
 3459SOL    HW122010   2.309   1.130   6.799 -0.7588  1.2468  1.1566
 3459SOL    HW222011   2.276   1.252   6.871 -0.3180 -0.5978  0.1459
 3460SOL     OW22012   0.670   3.096   5.614 -0.2873  0.2418 -0.2473
 3460SOL    HW122013   0.763   3.109   5.601 -0.1004 -1.2902 -0.4080
 3460SOL    HW222014   0.644   3.044   5.537  1.6424  0.7759 -1.2611
 3461SOL     OW22015   4.648   4.298   5.357  0.4265 -0.7897 -0.7916
 3461SOL    HW122016   4.557   4.325   5.339  0.0480 -0.2316  1.9417
 3461SOL    HW222017   4.644   4.204   5.342 -1.8700 -0.5564 -1.6255
 3462SOL     OW22018   1.476   0.867  15.807 -0.0861  0.6620 -0.1689
 3462SOL    HW122019   1.404   0.805  15.795 -0.0182  0.6298 -0.3960
 3462SOL    HW222020   1.526   0.839  15.884  1.8503 -0.4960 -1.8850
 3463SOL     OW22021   2.246   1.902   0.365 -0.4382 -0.7077 -0.5124
 3463SOL    HW122022   2.270   1.937   0.451 -1.0634 -0.9167 -0.2536
 3463SOL    HW222023   2.316   1.943   0.313 -1.1982  1.9484  0.5344
 3464SOL     OW22024   1.047   2.402  11.587 -0.0641  0.0442 -0.5674
 3464SOL    HW122025   1.036   2.470  11.653 -0.6175  0.1048 -0.7196
 3464SOL    HW222026   1.100   2.441  11.517 -0.5783  0.9336 -0.4760
 3465SOL     OW22027   3.375   4.362   0.333 -0.0158  0.2766 -0.1385
 3465SOL    HW122028   3.302   4.300   0.326 -0.6989  1.0328  0.3638
 3465SOL    HW222029   3.372   4.404   0.248 -3.0264  0.7541  0.2047
 3466SOL     OW22030   1.589   3.066   7.082  0.4683  0.3515  0.3241
 3466SOL    HW122031   1.562   3.007   7.012  0.0168 -1.0080  1.6593
 3466SOL    HW222032   1.501   3.064   7.119 -0.4383  0.2078 -1.8433
 3467SOL     OW22033   2.788   4.495  15.954  0.4826  0.6948  0.0780
 3467SOL    HW122034   2.697   4.467  15.965  0.7296 -0.2583 -0.3223
 3467SOL    HW222035   2.782   4.506  15.859  1.6963 -0.7373 -0.1517
 3468SOL     OW22036   1.021   4.314   8.245 -0.2587 -0.2377 -0.1953
 3468SOL    HW122037   1.114   4.309   8.264 -0.3899  0.5407  0.6377
 3468SOL    HW222038   1.021   4.253   8.171  0.2049 -0.5648  0.0739
 3469SOL     OW22039   3.079   3.582   3.059  0.2284 -0.1899 -0.4759
 3469SOL    HW122040   3.044   3.631   2.984 -1.2600 -1.5322 -0.6486
 3469SOL    HW222041   3.086   3.495   3.019 -0.6332 -1.5690  2.4016
 3470SOL     OW22042   2.791   2.524   6.909  0.4304  0.2414  0.7421
 3470SOL    HW122043   2.756   2.612   6.899  0.3031  0.2968  1.7030
 3470SOL    HW222044   2.775   2.499   6.818 -0.8050 -0.8100  1.2383
 3471SOL     OW22045   2.064   1.942   9.326  0.1860 -0.4883 -0.1031
 3471SOL    HW122046   2.098   1.927   9.238 -2.7053  0.6151 -1.4033
 3471SOL    HW222047   1.970   1.950   9.309  0.5274  0.4968 -1.5766
 3472SOL     OW22048   0.537   3.218   3.542 -0.1748 -0.0484  0.0979
 3472SOL    HW122049   0.463   3.159   3.531 -0.2010 -0.0610  0.3556
 3472SOL    HW222050   0.573   3.215   3.453 -1.1114  0.9565 -0.3173
 3473SOL     OW22051   3.808   1.091   8.142 -0.0494  0.8127  0.3155
 3473SOL    HW122052   3.891   1.137   8.152  1.1597 -0.9601 -1.4609
 3473SOL    HW222053   3.835   1.023   8.080 -0.8267  0.9554 -0.1664
 3474SOL     OW22054   0.205   2.950   8.760  0.2500  0.5233  0.2553
 3474SOL    HW122055   0.230   2.858   8.771  2.0477  0.3691 -4.7621
 3474SOL    HW222056   0.218   2.947   8.665 -0.7342  0.4063  0.1249
 3475SOL     OW22057   2.128   1.696   1.430 -0.2762  0.1071 -0.1150
 3475SOL    HW122058   2.063   1.731   1.368 -1.4112  1.7360  2.0053
 3475SOL    HW222059   2.155   1.770   1.484 -1.6915  0.4827  0.0854
 3476SOL     OW22060   0.919   4.136   4.020  0.0300  0.0786 -0.0447
 3476SOL    HW122061   0.874   4.220   4.019  0.1555  0.1478  0.8061
 3476SOL    HW222062   0.938   4.129   4.113  1.4396 -1.9077 -0.4722
 3477SOL     OW22063   4.181   0.495   8.498  0.1531 -0.2042 -0.4227
 3477SOL    HW122064   4.087   0.503   8.484  0.2617 -0.5426 -1.3299
 3477SOL    HW222065   4.219   0.580   8.477 -1.3118  0.3743 -0.7069
 3478SOL     OW22066   3.653   2.781   1.940  0.3257 -0.4732  0.2676
 3478SOL    HW122067   3.627   2.702   1.987  0.6126 -1.2879 -0.9810
 3478SOL    HW222068   3.564   2.814   1.925  0.5417  0.2571  0.5592
 3479SOL     OW22069   2.152   2.332  11.231  0.4904  0.1787  0.3345
 3479SOL    HW122070   2.239   2.306  11.201 -0.7811  1.2198 -4.2612
 3479SOL    HW222071   2.173   2.424  11.251 -1.8958  1.4484 -3.0197
 3480SOL     OW22072   1.982   0.464   4.060  0.8977 -0.0510 -0.3707
 3480SOL    HW122073   1.943   0.401   3.999  1.1578 -0.7670  0.2046
 3480SOL    HW222074   1.908   0.523   4.073  0.1205 -1.1900  0.3491
 3481SOL     OW22075   4.265   3.464   7.861  1.5689  0.6205 -0.0976
 3481SOL    HW122076   4.352   3.440   7.829  1.0839  0.0240 -0.9766
 3481SOL    HW222077   4.285   3.514   7.940  2.0351  0.3346 -0.0362
 3482SOL     OW22078   3.251   4.250   5.365 -0.6831  0.1323  0.0372
 3482SOL    HW122079   3.288   4.167   5.336  0.8278 -0.6162  4.1916
 3482SOL    HW222080   3.169   4.218   5.401 -0.3321 -1.4505 -0.5927
 3483SOL     OW22081   1.045   3.163   4.680  0.1226 -0.1555  0.2433
 3483SOL    HW122082   1.022   3.218   4.606 -2.2332  0.6025  1.5288
 3483SOL    HW222083   1.049   3.235   4.743  1.0634  0.3085 -0.3449
 3484SOL     OW22084   2.719   4.197   0.130 -0.0869 -0.2159  0.5035
 3484SOL    HW122085   2.718   4.292   0.121  0.3227 -0.2057  0.5480
 3484SOL    HW222086   2.659   4.163   0.064  1.6854  0.1093 -1.2780
 3485SOL     OW22087   3.756   3.833   8.807 -0.4716  0.0853  0.4668
 3485SOL    HW122088   3.747   3.767   8.875  1.5701 -0.9156 -0.2373
 3485SOL    HW222089   3.850   3.841   8.818 -0.2511 -0.4245 -1.1068
 3486SOL     OW22090   1.767   3.371  12.742 -0.0671 -0.8766  0.0492
 3486SOL    HW122091   1.818   3.291  12.737  2.6837  0.9264 -1.0292
 3486SOL    HW222092   1.680   3.341  12.716 -0.5412  0.5430 -0.0438
 3487SOL     OW22093   1.815   1.797   3.280 -0.1564 -0.1989  0.6644
 3487SOL    HW122094   1.730   1.784   3.239  1.9145 -1.8599 -3.0601
 3487SOL    HW222095   1.867   1.733   3.232 -1.8787  0.9549 -2.6928
 3488SOL     OW22096   0.351   3.758   5.686  0.2097 -0.3146 -0.1837
 3488SOL    HW122097   0.388   3.845   5.674  1.0284 -1.0637 -3.2085
 3488SOL    HW222098   0.432   3.709   5.699  0.6681  0.5937  0.3709
 3489SOL     OW22099   4.221   3.073   1.532  0.5919 -0.0197 -0.2469
 3489SOL    HW122100   4.218   3.080   1.436  0.0463  1.4133 -0.1225
 3489SOL    HW222101   4.135   3.036   1.550  0.1552  2.2404  2.2479
 3490SOL     OW22102   1.258   3.940   2.155 -0.0250 -0.4321  0.6853
 3490SOL    HW122103   1.175   3.967   2.116  0.7526 -0.9323 -1.2690
 3490SOL    HW222104   1.314   4.013   2.129  1.1085 -1.4248  0.3913
 3491SOL     OW22105   2.410   4.106   6.061 -0.2800 -0.4613  0.0668
 3491SOL    HW122106   2.497   4.146   6.053  1.3900 -4.0459  0.1887
 3491SOL    HW222107   2.354   4.163   6.009  0.5696  0.3935  0.1016
 3492SOL     OW22108   3.968   2.840  15.209 -0.3117 -0.5416  0.3512
 3492SOL    HW122109   4.031   2.885  15.153  0.6876  0.4695  2.2741
 3492SOL    HW222110   4.005   2.754  15.192 -1.5041 -1.0940  0.5978
 3493SOL     OW22111   2.349   4.261   3.629  0.7781  0.2015  0.2549
 3493SOL    HW122112   2.287   4.331   3.609  0.8668  0.5661  1.2596
 3493SOL    HW222113   2.328   4.250   3.721 -1.1772 -2.2276 -0.4868
 3494SOL     OW22114   2.117   0.865   6.190 -0.1900  0.5729  0.5597
 3494SOL    HW122115   2.202   0.909   6.188 -0.4721  1.0336 -0.8256
 3494SOL    HW222116   2.094   0.869   6.097 -3.3799 -0.6388  1.2789
 3495SOL     OW22117   4.195   3.596  12.211  0.3031 -0.5192 -0.6361
 3495SOL    HW122118   4.132   3.604  12.139 -0.3510 -2.9828 -0.3212
 3495SOL    HW222119   4.146   3.542  12.273  1.2259 -0.4890  0.1289
 3496SOL     OW22120   2.128   3.601   1.629  0.3547  0.4302  0.2436
 3496SOL    HW122121   2.121   3.560   1.542 -2.2147  0.5940  0.3880
 3496SOL    HW222122   2.158   3.687   1.597  0.2895  0.6335  0.7371
 3497SOL     OW22123   2.107   0.974   4.198  0.0184 -0.2425  0.1414
 3497SOL    HW122124   2.095   0.884   4.229  0.0265 -0.3073 -0.0437
 3497SOL    HW222125   2.124   0.959   4.105 -0.6937  0.4058 -0.0893
 3498SOL     OW22126   1.657   2.529   8.654  0.1137 -0.3063  0.6431
 3498SOL    HW122127   1.745   2.497   8.633  0.0567 -2.3948  3.6414
 3498SOL    HW222128   1.645   2.591   8.581 -0.5412  0.5130  1.4449
 3499SOL     OW22129   0.004   0.389  11.165  0.9253  0.2847  0.1511
 3499SOL    HW122130   0.078   0.451  11.162 -0.2432  1.7077  0.8321
 3499SOL    HW222131   0.055   0.310  11.147 -0.0929  0.0510 -1.6785
 3500SOL     OW22132   3.495   3.025   0.932 -0.4433  0.2185 -0.4620
 3500SOL    HW122133   3.453   2.952   0.888 -1.5352  0.2172  0.5843
 3500SOL    HW222134   3.540   3.062   0.855  0.2907 -1.0103 -0.6173
 3501SOL     OW22135   0.695   1.453   9.515  0.5370  0.6829 -0.0012
 3501SOL    HW122136   0.767   1.460   9.451  1.3198 -0.8036  0.7039
 3501SOL    HW222137   0.739   1.471   9.598 -0.1944  1.0633  0.2921
 3502SOL     OW22138   1.592   1.136   8.709  0.4049  0.4616  0.1188
 3502SOL    HW122139   1.680   1.129   8.745  0.1162 -0.3059  0.6660
 3502SOL    HW222140   1.559   1.047   8.723 -0.0483  0.3021 -1.9674
 3503SOL     OW22141   4.235   3.730   1.988  0.1199 -0.5286  0.1153
 3503SOL    HW122142   4.309   3.670   1.983  1.3506  0.7949  1.9241
 3503SOL    HW222143   4.154   3.682   1.970  0.3055 -1.0638  0.6973
 3504SOL     OW22144   1.456   4.083   8.187 -0.1011  0.0027 -0.2035
 3504SOL    HW122145   1.508   4.154   8.150 -0.6150  0.1907 -0.5652
 3504SOL    HW222146   1.378   4.127   8.220 -1.8127 -1.2494 -2.5689
 3505SOL     OW22147   4.076   2.303   3.345 -0.0626 -1.2383 -0.5065
 3505SOL    HW122148   4.050   2.244   3.415  2.5923 -0.6285  0.9524
 3505SOL    HW222149   3.992   2.302   3.298 -0.4021 -0.2538  0.0823
 3506SOL     OW22150   0.106   4.659   6.748  0.3428 -0.3715  0.2238
 3506SOL    HW122151   0.085   4.573   6.711  0.8276 -0.6720  0.6642
 3506SOL    HW222152   0.160   4.695   6.678  0.8471 -3.0131 -0.7628
 3507SOL     OW22153   2.229   0.261  11.758  0.1611  0.0380 -0.3992
 3507SOL    HW122154   2.268   0.346  11.773 -3.6236  1.5511  0.8598
 3507SOL    HW222155   2.181   0.286  11.679 -1.7805 -0.9478  0.4771
 3508SOL     OW22156   0.092   0.720   2.286 -0.3328 -0.0521  0.1534
 3508SOL    HW122157   0.136   0.722   2.202 -1.0117  0.3012 -0.1897
 3508SOL    HW222158   0.117   0.640   2.332  1.7614  0.8797  0.6021
 3509SOL     OW22159   4.495   1.268   2.993 -0.1882  0.5449  0.3698
 3509SOL    HW122160   4.443   1.207   2.942 -0.5574 -1.5117  3.2461
 3509SOL    HW222161   4.473   1.243   3.083  0.1304  2.0973  0.8834
 3510SOL     OW22162   2.239   1.094   6.501  0.1518  0.5418  0.3379
 3510SOL    HW122163   2.202   1.180   6.483  0.2339  0.7691  1.2714
 3510SOL    HW222164   2.183   1.073   6.575 -0.9135  1.4232 -0.2179
 3511SOL     OW22165   3.433   0.134   0.648 -0.1199 -0.5936  0.0164
 3511SOL    HW122166   3.391   0.109   0.566 -0.2671  1.9186 -0.6906
 3511SOL    HW222167   3.385   0.081   0.711  0.0790 -2.1891 -1.1840
 3512SOL     OW22168   1.405   4.590  15.288  0.0537 -0.2958  0.6893
 3512SOL    HW122169   1.388   4.669  15.236  3.1190  1.1662  1.9071
 3512SOL    HW222170   1.324   4.540  15.282 -1.2672  1.5122  3.7570
 3513SOL     OW22171   0.460   1.018   7.419  0.1488  0.7642 -0.2817
 3513SOL    HW122172   0.457   0.927   7.391  0.1303  0.5658  0.3810
 3513SOL    HW222173   0.472   1.067   7.337 -1.1761  1.4471 -0.0701
 3514SOL     OW22174   3.612   2.640   0.868  0.4360  0.0922 -0.0972
 3514SOL    HW122175   3.545   2.688   0.820  1.5296  0.0663 -1.6739
 3514SOL    HW222176   3.665   2.718   0.882  1.3095  0.0593 -3.1026
 3515SOL     OW22177   3.799   1.158   6.045 -0.4143  0.2889 -0.1236
 3515SOL    HW122178   3.822   1.081   5.992 -0.3115 -0.2790  0.7467
 3515SOL    HW222179   3.861   1.150   6.118 -1.0787  3.0475  0.7061
 3516SOL     OW22180   3.270   3.016   2.048 -0.5111  0.3253  0.2200
 3516SOL    HW122181   3.289   3.105   2.020 -2.5937 -0.8744 -4.9959
 3516SOL    HW222182   3.334   2.966   1.997  0.4921  0.1206  1.6586
 3517SOL     OW22183   3.974   2.782   6.785  0.3657  0.0985  0.0860
 3517SOL    HW122184   3.998   2.853   6.725 -4.5926  2.4820  0.9705
 3517SOL    HW222185   3.951   2.826   6.867  1.3208  1.0900 -0.1764
 3518SOL     OW22186   2.164   0.488   1.399  0.5247  0.3855  0.0954
 3518SOL    HW122187   2.223   0.547   1.351 -3.6026  3.0727 -1.6985
 3518SOL    HW222188   2.137   0.536   1.477  2.4281  0.4194  0.7438
 3519SOL     OW22189   4.438   2.329   2.935  0.6847 -0.5963 -0.1729
 3519SOL    HW122190   4.381   2.253   2.947 -0.2746 -0.1689 -1.9863
 3519SOL    HW222191   4.390   2.368   2.862 -0.2216 -1.1570  0.1285
 3520SOL     OW22192   3.830   1.721   5.729 -0.4026 -0.1208 -0.0970
 3520SOL    HW122193   3.924   1.733   5.717 -0.6130  1.0238 -0.6899
 3520SOL    HW222194   3.814   1.630   5.750 -0.0715 -0.3725 -0.9455
 3521SOL     OW22195   4.040   4.550   0.690  0.3560 -0.0225  0.7424
 3521SOL    HW122196   4.057   4.644   0.680 -1.7379  0.3126  0.2673
 3521SOL    HW222197   3.999   4.543   0.776 -0.4462  0.5722  0.4075
 3522SOL     OW22198   3.059   1.080   2.217  0.6265  0.0835 -0.6308
 3522SOL    HW122199   2.993   1.065   2.284 -0.4601  1.2997 -1.4391
 3522SOL    HW222200   3.133   1.034   2.257  0.1220  1.9151  2.3532
 3523SOL     OW22201   4.450   4.140   4.560 -0.6050  0.0265  0.2112
 3523SOL    HW122202   4.374   4.107   4.512  1.4308 -1.8213 -1.7405
 3523SOL    HW222203   4.478   4.072   4.621 -1.9640 -1.1606 -0.4669
 3524SOL     OW22204   1.446   3.362   7.888  0.0349  0.3898  0.5344
 3524SOL    HW122205   1.411   3.436   7.937  0.6885  0.9765  0.1168
 3524SOL    HW222206   1.534   3.354   7.923 -0.7292 -1.0043  2.1488
 3525SOL     OW22207   0.773   2.743   7.795  0.5930 -0.0004 -0.3063
 3525SOL    HW122208   0.778   2.647   7.786 -1.6802 -0.1671  0.3154
 3525SOL    HW222209   0.793   2.757   7.887  0.3609  0.7054 -0.3634
 3526SOL     OW22210   4.340   1.499   3.642 -0.2597  0.9473  0.0963
 3526SOL    HW122211   4.405   1.447   3.688  0.0110  0.6245 -0.6601
 3526SOL    HW222212   4.320   1.572   3.702 -1.6127  0.4702  0.2381
 3527SOL     OW22213   0.818   1.760   5.378  0.7678 -0.3879  0.5696
 3527SOL    HW122214   0.758   1.789   5.310  1.8442  0.2491 -0.1039
 3527SOL    HW222215   0.887   1.826   5.381  0.3369  0.0276  1.2899
 3528SOL     OW22216   0.236   2.631  10.218  0.0750 -0.4059  0.5537
 3528SOL    HW122217   0.241   2.719  10.179  0.5423 -1.3210 -1.4583
 3528SOL    HW222218   0.144   2.616  10.198 -0.1025  0.5499  0.6675
 3529SOL     OW22219   3.959   3.425   0.274 -0.1499 -0.2877  0.1125
 3529SOL    HW122220   3.881   3.370   0.279  0.4624 -1.1325  0.5826
 3529SOL    HW222221   3.939   3.467   0.191  2.6274  2.7290  0.9762
 3530SOL     OW22222   3.369   2.074   3.815 -1.0470  0.0486  0.1447
 3530SOL    HW122223   3.342   2.137   3.749 -1.0368 -1.1581 -0.9956
 3530SOL    HW222224   3.464   2.083   3.805 -0.7335 -2.1529  1.0886
 3531SOL     OW22225   0.627   1.572   5.405 -0.6293  0.0214  0.2293
 3531SOL    HW122226   0.715   1.605   5.422 -0.3435 -1.1525  1.0715
 3531SOL    HW222227   0.594   1.546   5.491 -0.9037 -0.1727  0.0670
 3532SOL     OW22228   3.909   1.401   6.037 -0.6284  0.1190 -0.2026
 3532SOL    HW122229   3.860   1.319   6.043  1.0471 -0.8933 -0.1644
 3532SOL    HW222230   3.954   1.393   6.121  0.6259 -0.9980 -0.9651
 3533SOL     OW22231   4.221   2.727   9.563  0.2670 -0.4502 -0.0316
 3533SOL    HW122232   4.297   2.669   9.560  0.0823 -0.5673 -2.4861
 3533SOL    HW222233   4.258   2.802   9.609 -0.5094  1.7441 -2.9943
 3534SOL     OW22234   3.348   2.156   8.171  0.1148 -0.4590 -0.0836
 3534SOL    HW122235   3.257   2.182   8.188  0.5904  1.6929 -0.8654
 3534SOL    HW222236   3.366   2.226   8.108  3.1336 -1.0372  0.1467
 3535SOL     OW22237   2.744   1.371  15.216 -0.1308 -0.3525  0.7277
 3535SOL    HW122238   2.752   1.466  15.209  1.1012 -0.4946  0.2162
 3535SOL    HW222239   2.653   1.344  15.220 -0.7744  1.6789 -0.3337
 3536SOL     OW22240   3.306   4.536  16.537 -0.0399 -0.0669  0.1612
 3536SOL    HW122241   3.377   4.513  16.597  0.4490 -0.9351 -0.7506
 3536SOL    HW222242   3.231   4.542  16.597 -0.8134  1.6317 -0.9808
 3537SOL     OW22243   1.324   1.268   4.641 -0.2304  0.0958  0.4809
 3537SOL    HW122244   1.326   1.173   4.655  0.8495  0.0817  0.2532
 3537SOL    HW222245   1.417   1.276   4.662 -0.1343 -0.5329  0.2948
 3538SOL     OW22246   4.453   4.080   0.728  0.7532 -0.3215  0.5482
 3538SOL    HW122247   4.453   4.107   0.636  1.9745  3.5727  1.7130
 3538SOL    HW222248   4.368   4.036   0.727  0.4503  0.3000 -0.6532
 3539SOL     OW22249   3.015   3.240   6.818  0.2424  0.8321 -0.2587
 3539SOL    HW122250   2.926   3.219   6.791  1.0888 -2.0898 -0.7131
 3539SOL    HW222251   2.990   3.297   6.892  0.0009  1.0679 -0.5210
 3540SOL     OW22252   0.736   0.059   3.607 -0.5108 -0.5180 -0.0208
 3540SOL    HW122253   0.654   0.098   3.576  0.8457  1.9514 -0.5220
 3540SOL    HW222254   0.783   0.120   3.665 -0.8792 -1.5544  1.3740
 3541SOL     OW22255   3.766   3.003  10.573 -0.6396  0.3651  0.7396
 3541SOL    HW122256   3.809   2.978  10.491 -0.4555  1.6118  0.4550
 3541SOL    HW222257   3.680   2.961  10.574  0.1133 -1.2453 -0.1779
 3542SOL     OW22258   0.475   2.483   7.710 -0.1774 -0.1803  0.1829
 3542SOL    HW122259   0.563   2.485   7.672 -0.5873  2.6482 -0.6658
 3542SOL    HW222260   0.473   2.388   7.713  0.7838 -0.2104  0.1081
 3543SOL     OW22261   2.316   0.855  10.748  0.2927  0.1138  0.5459
 3543SOL    HW122262   2.344   0.853  10.657  2.2480  1.3517  1.1062
 3543SOL    HW222263   2.232   0.901  10.751  0.7015  0.8350  0.9524
 3544SOL     OW22264   1.784   2.627   3.948  0.1958 -0.3296  0.2497
 3544SOL    HW122265   1.841   2.554   3.923  1.2293  0.8754 -0.9190
 3544SOL    HW222266   1.714   2.577   3.988  2.1854 -1.9696  1.6818
 3545SOL     OW22267   3.777   3.261   9.991 -0.0703  0.2065 -0.4470
 3545SOL    HW122268   3.832   3.197   9.946  0.1447 -0.9788  1.4974
 3545SOL    HW222269   3.733   3.305   9.919 -0.6607 -1.1690 -0.9404
 3546SOL     OW22270   3.714   4.480   2.243 -0.2743 -0.2406 -0.5025
 3546SOL    HW122271   3.631   4.493   2.197  0.5649 -0.3461 -2.0653
 3546SOL    HW222272   3.710   4.387   2.264 -0.3099 -0.0039  0.5345
 3547SOL     OW22273   3.270   2.289   3.670  0.4550  0.2130  0.3385
 3547SOL    HW122274   3.185   2.324   3.641 -0.1575 -0.3133  1.4964
 3547SOL    HW222275   3.283   2.321   3.759 -1.0089 -1.3156  1.1035
 3548SOL     OW22276   3.438   3.606   4.777 -0.3328 -0.2443  0.1595
 3548SOL    HW122277   3.532   3.593   4.759 -0.7691 -1.8058 -0.9320
 3548SOL    HW222278   3.411   3.525   4.733 -2.3505  1.2607 -1.3682
 3549SOL     OW22279   0.026   3.508   8.878  0.2137  0.1454  0.1565
 3549SOL    HW122280   0.030   3.474   8.789 -1.2819 -0.8503  0.4758
 3549SOL    HW222281   4.718   3.592   8.863  2.8047  1.9409  2.3749
 3550SOL     OW22282   3.810   2.132   5.677 -0.3839  0.6833  0.1090
 3550SOL    HW122283   3.764   2.134   5.761 -2.2988  1.5144 -0.9441
 3550SOL    HW222284   3.903   2.141   5.696 -0.0394  0.9076 -1.6192
 3551SOL     OW22285   3.363   3.970  15.347  0.0492  0.0643  0.0836
 3551SOL    HW122286   3.306   4.010  15.412 -0.3646  0.8302 -0.7509
 3551SOL    HW222287   3.447   3.964  15.393 -0.3188  0.4187  0.8162
 3552SOL     OW22288   0.381   3.374   4.773  0.0331 -0.0067 -0.0452
 3552SOL    HW122289   0.467   3.367   4.814 -0.8230 -0.0239  1.7664
 3552SOL    HW222290   0.401   3.351   4.682  0.1212  0.9982 -0.2777
 3553SOL     OW22291   2.004   3.575   7.817 -0.1371  0.1750  0.1489
 3553SOL    HW122292   2.018   3.661   7.776  1.6479  0.8188  2.0794
 3553SOL    HW222293   1.973   3.528   7.740  0.3636  0.5884 -0.3081
 3554SOL     OW22294   1.509   2.229  15.746 -0.0744  0.1499 -0.5389
 3554SOL    HW122295   1.604   2.223  15.740 -0.0025 -0.0709  0.9047
 3554SOL    HW222296   1.501   2.258  15.837 -0.7183 -1.5801 -0.0594
 3555SOL     OW22297   2.514   3.371   8.459  0.0963 -0.8427  0.2557
 3555SOL    HW122298   2.504   3.339   8.370 -0.3851 -2.2028  0.7988
 3555SOL    HW222299   2.444   3.327   8.506 -0.0405 -1.0327 -0.1291
 3556SOL     OW22300   2.222   1.006  12.582 -0.8278 -0.1014  0.1048
 3556SOL    HW122301   2.210   1.041  12.494 -2.3892 -0.5559  0.1418
 3556SOL    HW222302   2.221   1.089  12.628  0.9426 -0.0237  0.0119
 3557SOL     OW22303   1.375   0.359   1.990 -0.0321  0.1033 -0.6423
 3557SOL    HW122304   1.385   0.332   1.899 -1.5735  1.2596 -1.1452
 3557SOL    HW222305   1.389   0.284   2.047  0.9800  1.6714  1.1780
 3558SOL     OW22306   0.660   1.932  13.487 -0.5014  0.2273  0.3845
 3558SOL    HW122307   0.633   2.023  13.501  0.2422  0.3161  1.2338
 3558SOL    HW222308   0.715   1.938  13.409  0.3069  2.8799  1.1455
 3559SOL     OW22309   0.551   2.045   1.069  0.5074  0.2979  0.2760
 3559SOL    HW122310   0.603   2.024   0.992  1.3624 -0.5598  1.0917
 3559SOL    HW222311   0.480   2.095   1.028  0.3496 -1.4617 -1.5942
 3560SOL     OW22312   2.029   0.500   7.588  0.0491 -0.4395  0.4359
 3560SOL    HW122313   2.064   0.424   7.542  0.8550  1.1163 -1.4986
 3560SOL    HW222314   1.936   0.498   7.568  0.2974  0.8539 -0.8494
 3561SOL     OW22315   0.534   2.792   9.201 -0.4024  0.2625 -0.4574
 3561SOL    HW122316   0.599   2.796   9.271 -1.1646  0.1261  0.2611
 3561SOL    HW222317   0.469   2.727   9.227  0.6980 -0.5794  0.2141
 3562SOL     OW22318   4.556   1.984   4.003 -0.0227  0.4001 -0.2868
 3562SOL    HW122319   4.478   2.023   3.964 -0.7521  0.2410  1.0377
 3562SOL    HW222320   4.539   1.891   3.987  1.2331  0.3923 -1.5801
 3563SOL     OW22321   2.659   3.867   8.869 -0.0517 -0.4501 -0.3886
 3563SOL    HW122322   2.701   3.795   8.822  2.3231  0.2324  0.6659
 3563SOL    HW222323   2.695   3.869   8.958 -1.0880  3.2047 -0.0686
 3564SOL     OW22324   3.181   4.087   4.960 -0.1956 -0.2344  0.2273
 3564SOL    HW122325   3.111   4.050   5.013  2.3445 -1.4001  2.7707
 3564SOL    HW222326   3.239   4.010   4.959 -0.2497 -0.2420 -1.8422
 3565SOL     OW22327   1.257   1.286   4.033  0.2021 -0.1622  0.1920
 3565SOL    HW122328   1.352   1.290   4.042  0.4020 -1.2376 -1.4843
 3565SOL    HW222329   1.248   1.199   4.072  1.2420 -0.4248 -0.1710
 3566SOL     OW22330   4.455   4.669   7.998  0.1634 -0.3627 -0.3100
 3566SOL    HW122331   4.531   4.698   8.049 -0.6516  1.8607 -0.3779
 3566SOL    HW222332   4.491   4.590   7.958  1.1042  0.2603 -0.6866
 3567SOL     OW22333   2.206   1.475   4.015  0.4702  0.6791  0.1391
 3567SOL    HW122334   2.276   1.524   3.971  0.6457 -1.3296 -1.7663
 3567SOL    HW222335   2.220   1.383   3.997  2.3455  0.6155  1.8986
 3568SOL     OW22336   3.697   4.480  16.763  0.3861 -0.0407 -0.9867
 3568SOL    HW122337   3.611   4.457  16.725 -0.7184  0.7745  1.0491
 3568SOL    HW222338   3.743   4.396  16.756  1.9997  0.7160  0.6061
 3569SOL     OW22339   4.050   2.846  11.135 -0.0737  0.4139  0.4162
 3569SOL    HW122340   3.998   2.909  11.086  0.1314 -1.3354 -2.0731
 3569SOL    HW222341   4.138   2.881  11.123  0.8083 -2.1035 -0.5460
 3570SOL     OW22342   3.162   3.786  14.952  0.3730  0.1787 -0.2967
 3570SOL    HW122343   3.091   3.736  14.992 -0.9919  1.1153 -1.5512
 3570SOL    HW222344   3.146   3.864  15.005 -0.4101 -1.6849  2.2029
 3571SOL     OW22345   0.724   3.370  15.371 -0.0237 -0.9338 -0.0412
 3571SOL    HW122346   0.755   3.391  15.283  0.5726  0.9151  0.6103
 3571SOL    HW222347   0.699   3.458  15.402  0.0624 -0.2700 -1.8669
 3572SOL     OW22348   3.627   0.992   3.769 -0.9108 -0.3530  0.6136
 3572SOL    HW122349   3.647   0.975   3.861 -0.0395 -0.2160  0.4540
 3572SOL    HW222350   3.712   1.002   3.726 -1.5553  1.4589 -0.2357
 3573SOL     OW22351   3.460   3.031   5.929 -0.1761  0.2248 -0.2607
 3573SOL    HW122352   3.373   2.991   5.921  0.3986 -0.6670 -2.0278
 3573SOL    HW222353   3.485   3.004   6.017  0.1452 -0.6284 -0.6148
 3574SOL     OW22354   2.969   3.425   7.690  0.1248  0.5435 -0.6050
 3574SOL    HW122355   2.994   3.337   7.716 -0.3553  0.8131  0.7827
 3574SOL    HW222356   3.037   3.460   7.749  1.2184  0.0151 -1.5531
 3575SOL     OW22357   1.702   0.664  15.164 -0.1654 -0.4508 -0.1174
 3575SOL    HW122358   1.640   0.700  15.227  0.5106  2.2458 -1.0142
 3575SOL    HW222359   1.781   0.662  15.218 -0.3776 -0.3162  0.1968
 3576SOL     OW22360   0.109   3.865   7.016  0.0344 -0.4632  0.1710
 3576SOL    HW122361   0.074   3.932   6.957  1.6010 -0.2888 -0.5698
 3576SOL    HW222362   0.193   3.912   7.021 -0.8514  1.2679 -1.2115
 3577SOL     OW22363   3.276   4.103   6.063 -0.1051 -0.0288 -0.2378
 3577SOL    HW122364   3.363   4.069   6.043  0.1547  1.8428 -2.3238
 3577SOL    HW222365   3.309   4.191   6.078  1.0423 -0.3915 -0.6823
 3578SOL     OW22366   1.881   0.039   2.275 -0.5434 -0.5652 -0.1100
 3578SOL    HW122367   1.884   0.089   2.193  0.0529  0.5228  0.5675
 3578SOL    HW222368   1.831   4.697   2.257  0.5316 -1.3281  0.2282
 3579SOL     OW22369   0.822   3.898   6.918 -0.5369  0.6302  0.0069
 3579SOL    HW122370   0.769   3.932   6.990  1.6928 -0.2064  2.1017
 3579SOL    HW222371   0.831   3.979   6.869 -3.3086  0.6174 -0.5186
 3580SOL     OW22372   3.384   3.888   9.867  0.3775  0.2405 -0.1081
 3580SOL    HW122373   3.308   3.840   9.834  1.3566 -1.1470 -0.3208
 3580SOL    HW222374   3.426   3.808   9.898  1.6935  0.1223 -2.1953
 3581SOL     OW22375   4.401   3.479   2.547 -0.1949 -0.0400 -0.5295
 3581SOL    HW122376   4.418   3.495   2.640  1.3235 -2.1691 -0.4334
 3581SOL    HW222377   4.490   3.458   2.519 -0.0531 -0.5654  0.3221
 3582SOL     OW22378   2.424   2.505   8.224 -0.0694 -0.8728 -0.8384
 3582SOL    HW122379   2.367   2.446   8.175 -2.1671  1.2141 -0.9377
 3582SOL    HW222380   2.463   2.542   8.145  0.3763  3.3694  1.3433
 3583SOL     OW22381   4.233   0.355  11.213 -0.2124 -0.0444 -0.1418
 3583SOL    HW122382   4.163   0.367  11.149 -0.3068  0.5420  0.0766
 3583SOL    HW222383   4.304   0.330  11.154 -0.3655 -1.6895  0.3730
 3584SOL     OW22384   4.479   0.217  16.990  0.2946  0.2385  0.0482
 3584SOL    HW122385   4.500   0.287  17.052 -0.3408 -1.3362  2.0392
 3584SOL    HW222386   4.388   0.233  16.966  0.9509 -1.2034 -3.3623
 3585SOL     OW22387   1.504   1.777   9.645  0.4690  0.2816 -0.3850
 3585SOL    HW122388   1.595   1.750   9.661 -0.1012 -0.3689  1.6999
 3585SOL    HW222389   1.508   1.852   9.586  3.0852  0.3315 -0.1367
 3586SOL     OW22390   2.281   1.615  17.418  0.4666  0.3290 -0.0336
 3586SOL    HW122391   2.357   1.599  17.473  0.8127  0.1419 -0.5614
 3586SOL    HW222392   2.272   1.530  17.374 -2.6479  0.0403  1.1217
 3587SOL     OW22393   0.517   0.184   3.953 -0.6572  0.1301 -0.4925
 3587SOL    HW122394   0.459   0.254   3.983  0.2655 -0.8217  3.5006
 3587SOL    HW222395   0.529   0.135   4.034  1.9962 -0.2087 -1.0781
 3588SOL     OW22396   4.188   0.120   4.622  0.2687  0.3181 -0.2864
 3588SOL    HW122397   4.198   0.058   4.695 -0.0888  0.6350  0.0275
 3588SOL    HW222398   4.175   0.198   4.675  0.0155  1.1819 -1.6337
 3589SOL     OW22399   4.363   3.052  12.047 -0.1044 -0.4760 -0.1751
 3589SOL    HW122400   4.392   3.005  11.968  0.1830 -0.4246 -0.0992
 3589SOL    HW222401   4.277   3.084  12.018 -0.4803 -0.0782  1.4045
 3590SOL     OW22402   1.102   0.299  11.045 -0.3901  0.3339 -0.0515
 3590SOL    HW122403   1.134   0.364  11.106  0.6238  0.2363 -0.4807
 3590SOL    HW222404   1.097   0.221  11.100  0.1217  1.5636  1.7134
 3591SOL     OW22405   1.581   2.453   5.141  0.6421 -0.4335  0.0051
 3591SOL    HW122406   1.619   2.387   5.199  0.7027 -2.3156 -2.1536
 3591SOL    HW222407   1.591   2.530   5.196  2.3221  0.2227 -1.2319
 3592SOL     OW22408   0.948   2.334   1.134  0.2562  0.1670 -0.2209
 3592SOL    HW122409   1.004   2.258   1.118 -1.0281 -1.2637  2.0602
 3592SOL    HW222410   0.884   2.307   1.200  0.1496  1.0188  0.0319
 3593SOL     OW22411   4.251   3.272   6.449 -1.0037  0.0104  0.4880
 3593SOL    HW122412   4.268   3.362   6.419 -1.0246 -0.0620  0.2593
 3593SOL    HW222413   4.295   3.272   6.534 -2.3054  0.4403  1.1591
 3594SOL     OW22414   1.546   1.503   3.188  0.2508 -0.4207 -0.0736
 3594SOL    HW122415   1.481   1.571   3.203  0.4827  0.0507 -1.2006
 3594SOL    HW222416   1.505   1.429   3.232 -0.5582  0.6715  1.0011
 3595SOL     OW22417   3.371   1.692   4.264 -0.1932  0.3905  0.1897
 3595SOL    HW122418   3.420   1.746   4.202 -1.2385  1.3500  0.1886
 3595SOL    HW222419   3.308   1.748   4.310 -0.4655  0.0638  0.2215
 3596SOL     OW22420   1.263   1.731   5.614  0.1298 -0.4836  0.2055
 3596SOL    HW122421   1.261   1.788   5.692 -0.9592 -0.1723 -0.0357
 3596SOL    HW222422   1.287   1.781   5.536  0.3638  0.4805  0.8927
 3597SOL     OW22423   0.956   4.242   9.468 -0.0177  0.1649  0.7093
 3597SOL    HW122424   0.964   4.262   9.375 -0.3732  0.6957  0.7948
 3597SOL    HW222425   0.863   4.260   9.479 -0.8275 -2.1773 -2.2718
 3598SOL     OW22426   4.170   2.172  16.343  0.1723  0.0309 -0.1922
 3598SOL    HW122427   4.128   2.103  16.292  2.8663 -0.8239 -1.2674
 3598SOL    HW222428   4.217   2.224  16.277  1.2227  1.5117  1.7283
 3599SOL     OW22429   2.500   4.191   7.736 -0.0177 -0.4555  0.2488
 3599SOL    HW122430   2.405   4.201   7.739  0.2647  2.0532  0.6085
 3599SOL    HW222431   2.533   4.281   7.736 -2.4301  0.4219 -0.7144
 3600SOL     OW22432   1.870   1.438   6.492  0.1105 -0.5879 -0.2426
 3600SOL    HW122433   1.881   1.512   6.552  0.4102  0.5701 -1.7200
 3600SOL    HW222434   1.945   1.441   6.432  0.3148 -0.5632  0.0118
 3601SOL     OW22435   1.510   3.117   9.106 -0.6051 -0.4569 -0.3606
 3601SOL    HW122436   1.554   3.178   9.165 -2.1358  0.1713  0.1429
 3601SOL    HW222437   1.579   3.054   9.085  0.6218  0.8304 -0.1713
 3602SOL     OW22438   0.989   2.312   8.676  0.3679  0.2029 -0.4148
 3602SOL    HW122439   0.900   2.278   8.667 -0.6628  1.6664  4.2055
 3602SOL    HW222440   0.975   2.404   8.652 -0.9645  0.0702 -0.1226
 3603SOL     OW22441   0.032   3.346  12.456  0.5846  0.2320  0.0318
 3603SOL    HW122442   0.074   3.381  12.534 -0.1267 -1.4056  1.1412
 3603SOL    HW222443   0.093   3.282  12.420 -0.9274 -0.9394 -0.4377
 3604SOL     OW22444   2.863   0.885   3.423 -0.9273  0.3844 -0.0740
 3604SOL    HW122445   2.910   0.967   3.411 -0.2477  0.5310  3.6854
 3604SOL    HW222446   2.773   0.919   3.431 -1.0951 -0.4390  1.5317
 3605SOL     OW22447   2.581   0.064  14.871  0.4304  0.3719 -0.2823
 3605SOL    HW122448   2.512   0.002  14.848  0.5672 -0.6452  2.0296
 3605SOL    HW222449   2.521   0.122  14.918 -0.2563  0.1684 -0.9142
 3606SOL     OW22450   3.641   1.168  12.518  0.0163  0.1598  0.3794
 3606SOL    HW122451   3.626   1.118  12.599 -1.1608  2.1928  1.4285
 3606SOL    HW222452   3.701   1.113  12.468 -0.2790 -0.7382  0.9909
 3607SOL     OW22453   1.686   1.024   7.700  0.0863  0.2465  0.2443
 3607SOL    HW122454   1.717   1.112   7.721  0.9707  0.1662 -0.7187
 3607SOL    HW222455   1.593   1.033   7.722  0.3130  1.4613  0.7240
 3608SOL     OW22456   2.805   3.060  16.848  0.4246  0.5797 -0.2914
 3608SOL    HW122457   2.715   3.043  16.818  0.5239  0.8598 -0.7527
 3608SOL    HW222458   2.853   3.013  16.780 -0.2801 -0.5334 -0.0259
 3609SOL     OW22459   3.882   4.540   9.334 -0.0289 -0.2269  0.3346
 3609SOL    HW122460   3.828   4.616   9.315  0.8519  0.2495 -0.2316
 3609SOL    HW222461   3.848   4.490   9.259 -2.8498  2.1916  0.0016
 3610SOL     OW22462   2.392   0.244  10.685 -0.0868  0.3272 -0.1024
 3610SOL    HW122463   2.444   0.244  10.766  3.4853 -1.0735 -2.3923
 3610SOL    HW222464   2.450   0.207  10.618  2.0520  2.5649  0.5169
 3611SOL     OW22465   3.660   0.851  16.904 -0.0941 -0.1434 -0.1330
 3611SOL    HW122466   3.725   0.901  16.855 -0.5168  0.0793 -0.4669
 3611SOL    HW222467   3.660   0.772  16.849  1.0096 -1.7777  2.2093
 3612SOL     OW22468   3.236   1.555   8.602  0.1848 -0.3180  0.0594
 3612SOL    HW122469   3.182   1.603   8.540 -1.4830 -0.2053  1.6127
 3612SOL    HW222470   3.286   1.627   8.642 -0.7185 -1.5891  3.5199
 3613SOL     OW22471   4.318   1.712   6.600  0.0091  0.2902  0.0723
 3613SOL    HW122472   4.367   1.693   6.521 -0.5497  2.0070 -0.6836
 3613SOL    HW222473   4.229   1.694   6.569 -0.0450 -0.3003  0.5540
 3614SOL     OW22474   3.399   1.687   9.786 -0.3417 -0.0635 -0.5751
 3614SOL    HW122475   3.477   1.677   9.732 -0.1199  0.0072 -0.2721
 3614SOL    HW222476   3.409   1.769   9.835  0.3647 -0.6553  0.2761
 3615SOL     OW22477   0.391   2.180   3.233 -0.1722  0.6607 -0.1116
 3615SOL    HW122478   0.378   2.154   3.324  0.4197 -0.1113 -0.2504
 3615SOL    HW222479   0.304   2.215   3.214  0.3158  1.0478 -1.6089
 3616SOL     OW22480   3.991   0.182   8.159 -0.6714 -0.0326 -0.7081
 3616SOL    HW122481   4.005   0.187   8.064 -1.1691  2.4618 -0.6633
 3616SOL    HW222482   4.025   0.264   8.196  1.3198 -0.8167 -0.8108
 3617SOL     OW22483   2.356   0.539   5.750  0.0963 -0.2260 -0.1093
 3617SOL    HW122484   2.325   0.628   5.765 -0.0181 -0.1486 -0.7867
 3617SOL    HW222485   2.447   0.551   5.722  0.3790 -0.2933  0.7863
 3618SOL     OW22486   1.365   4.177   7.375 -0.3216 -0.5589 -0.6820
 3618SOL    HW122487   1.454   4.211   7.366 -0.3706 -0.6960 -1.7436
 3618SOL    HW222488   1.376   4.082   7.369 -1.3805 -0.5353 -3.2528
 3619SOL     OW22489   4.648   1.467   4.410  1.0194  0.0221 -0.3800
 3619SOL    HW122490   4.686   1.451   4.496 -0.0708  0.6937  0.2297
 3619SOL    HW222491   4.626   1.380   4.376 -0.5382  0.0477  0.5668
 3620SOL     OW22492   1.868   1.840   2.060 -0.0599 -0.0769  0.3727
 3620SOL    HW122493   1.855   1.770   2.125 -1.4051 -0.6722 -0.5384
 3620SOL    HW222494   1.847   1.789   1.982 -3.7497 -0.4011  1.5364
 3621SOL     OW22495   2.568   2.983   2.502  0.0388 -0.3300 -0.5042
 3621SOL    HW122496   2.640   3.006   2.443 -0.1654 -0.1095 -0.6668
 3621SOL    HW222497   2.502   2.944   2.444 -0.8444 -1.3684  1.1875
 3622SOL     OW22498   3.273   4.230   6.470 -0.0060 -0.2458  0.3706
 3622SOL    HW122499   3.296   4.141   6.446  3.3685  0.8112 -0.3259
 3622SOL    HW222500   3.364   4.259   6.467  0.0040 -0.5113 -1.8994
 3623SOL     OW22501   1.137   3.591  15.999  0.3196 -0.2414  0.1724
 3623SOL    HW122502   1.224   3.589  16.038  0.6855 -0.1409 -0.6410
 3623SOL    HW222503   1.144   3.675  15.953  0.1295  0.3862  1.2830
 3624SOL     OW22504   0.763   2.471   7.741 -0.0060 -0.1422 -1.1708
 3624SOL    HW122505   0.851   2.453   7.772 -0.1690  1.3460  0.1321
 3624SOL    HW222506   0.734   2.409   7.673  0.7003 -1.2805 -0.4192
 3625SOL     OW22507   2.842   4.241   5.719  0.5057 -0.1855 -0.0101
 3625SOL    HW122508   2.748   4.226   5.713  0.2665  0.9283  1.0083
 3625SOL    HW222509   2.841   4.336   5.724 -1.3477 -0.2819  1.6354
 3626SOL     OW22510   3.177   3.749   9.718 -0.1310 -0.3460 -0.4708
 3626SOL    HW122511   3.166   3.664   9.761 -3.4697  0.7927  0.9418
 3626SOL    HW222512   3.085   3.777   9.716 -0.2507 -0.7551 -0.6721
 3627SOL     OW22513   3.384   2.842   0.746  0.6181 -0.0522 -0.5730
 3627SOL    HW122514   3.294   2.825   0.719  0.2872  1.8768 -0.6832
 3627SOL    HW222515   3.427   2.839   0.661  0.1437  0.9465 -0.8515
 3628SOL     OW22516   0.013   4.552   5.285 -0.3257  0.1266 -0.4003
 3628SOL    HW122517   0.023   4.487   5.355 -1.8392  0.1632 -0.1523
 3628SOL    HW222518   0.025   4.498   5.207  2.3426  0.3942 -0.1644
 3629SOL     OW22519   0.065   1.635   1.595  0.6652 -0.1496 -0.2258
 3629SOL    HW122520   0.058   1.552   1.548  0.5268  0.7653 -1.8388
 3629SOL    HW222521   4.731   1.621   1.657 -0.6302 -0.0781 -1.6732
 3630SOL     OW22522   3.724   2.321   2.678 -0.4416 -0.0504  0.4581
 3630SOL    HW122523   3.792   2.304   2.743 -0.6937  0.2208  0.7942
 3630SOL    HW222524   3.720   2.239   2.628  0.6188  0.0429  0.2172
 3631SOL     OW22525   0.641   1.801   5.775 -0.0422  0.2008  0.0908
 3631SOL    HW122526   0.549   1.779   5.760  0.4931 -0.5279 -2.1031
 3631SOL    HW222527   0.643   1.843   5.862 -0.8184  0.1712  0.1236
 3632SOL     OW22528   4.519   3.805   0.951  0.1899 -0.2648  0.3729
 3632SOL    HW122529   4.510   3.834   1.042  0.3824  0.0318  0.2964
 3632SOL    HW222530   4.603   3.838   0.919 -0.7641  1.2238 -0.6053
 3633SOL     OW22531   3.464   4.035   2.688 -0.3586  0.1545 -0.4344
 3633SOL    HW122532   3.488   3.943   2.676 -1.6534 -0.2218 -0.1138
 3633SOL    HW222533   3.471   4.046   2.783  0.0374 -1.1716 -0.3100
 3634SOL     OW22534   2.845   3.386   3.273 -0.1606 -0.2238  0.4109
 3634SOL    HW122535   2.877   3.468   3.234 -1.3428  0.6570  1.2750
 3634SOL    HW222536   2.819   3.342   3.192  1.0901 -1.2876  0.5753
 3635SOL     OW22537   1.619   3.768  13.358  0.1925 -0.7789  0.0677
 3635SOL    HW122538   1.594   3.783  13.449 -0.0334  2.0575 -0.4619
 3635SOL    HW222539   1.657   3.851  13.330  0.9134 -0.7304  1.1849
 3636SOL     OW22540   4.093   0.374   9.189  0.0813 -0.4739  0.5080
 3636SOL    HW122541   4.168   0.370   9.248 -0.5053 -2.5028  1.1196
 3636SOL    HW222542   4.093   0.468   9.171  1.0619 -0.6437 -0.3120
 3637SOL     OW22543   3.799   0.003   4.908  0.1428  0.6611 -0.2045
 3637SOL    HW122544   3.783   4.654   4.945  1.7896  0.1045 -0.7826
 3637SOL    HW222545   3.799   0.062   4.983 -0.1807 -1.6491  1.6156
 3638SOL     OW22546   2.054   0.001  11.062  0.1927 -0.7584  0.5860
 3638SOL    HW122547   1.977   0.051  11.036  0.0138 -0.1218  2.3489
 3638SOL    HW222548   2.051   0.002  11.158 -0.5734  0.3176  0.5476
 3639SOL     OW22549   3.739   4.595   3.918 -0.5034 -0.4022 -0.1473
 3639SOL    HW122550   3.785   4.549   3.848 -2.2859 -1.2255 -0.7787
 3639SOL    HW222551   3.747   4.546   4.000  1.5357  2.4068  1.3352
 3640SOL     OW22552   4.693   2.119   4.870 -0.9610 -0.3440  0.8906
 3640SOL    HW122553   0.045   2.098   4.899 -0.6270 -0.7057 -0.4040
 3640SOL    HW222554   4.719   2.174   4.796 -2.4013 -1.0828 -0.1739
 3641SOL     OW22555   4.033   0.114   3.947 -0.2481 -0.3565 -0.6968
 3641SOL    HW122556   4.077   0.096   3.864  3.2958  0.0024  1.1006
 3641SOL    HW222557   4.102   0.091   4.010 -0.6337  1.2140  0.3007
 3642SOL     OW22558   4.502   3.496  17.653  0.0310  0.3511  0.3800
 3642SOL    HW122559   4.485   3.556  17.726  0.3822 -0.5554  1.2056
 3642SOL    HW222560   4.460   3.540  17.580 -1.2489  0.4249  1.1552
 3643SOL     OW22561   4.016   1.099   6.947 -0.1097 -0.1831 -0.0815
 3643SOL    HW122562   3.925   1.123   6.963  0.0947  0.5749 -0.0606
 3643SOL    HW222563   4.045   1.151   6.872  0.4557 -0.0616  0.2201
 3644SOL     OW22564   1.421   0.171   8.553  0.1945  0.4717 -0.1705
 3644SOL    HW122565   1.418   0.084   8.513 -1.3925  0.0017  0.9628
 3644SOL    HW222566   1.331   0.201   8.551  0.4237  1.2160  0.7434
 3645SOL     OW22567   2.946   2.540   7.264  0.3946  0.4065  0.0820
 3645SOL    HW122568   2.888   2.539   7.340  0.3803 -0.3086  0.0595
 3645SOL    HW222569   2.926   2.626   7.225  0.2912 -0.2729 -1.3844
 3646SOL     OW22570   2.660   2.864  13.867 -0.0960 -0.0321 -0.1365
 3646SOL    HW122571   2.571   2.888  13.839 -0.9710 -1.9427  0.9600
 3646SOL    HW222572   2.649   2.769  13.865 -0.5488  0.0254 -0.3220
 3647SOL     OW22573   1.231   4.515   3.796 -0.4993 -0.6658 -0.4915
 3647SOL    HW122574   1.298   4.581   3.812 -3.1073  2.0533 -0.8161
 3647SOL    HW222575   1.178   4.524   3.875  0.1917 -0.4427 -0.0562
 3648SOL     OW22576   2.920   3.594   6.175 -0.3607 -0.0514  0.2899
 3648SOL    HW122577   3.014   3.602   6.158 -0.4669  1.2475  0.3233
 3648SOL    HW222578   2.927   3.511   6.223 -4.6107  0.0773  1.1237
 3649SOL     OW22579   3.076   0.083   3.922 -0.1664 -0.0624 -0.0777
 3649SOL    HW122580   3.099   0.105   4.012 -3.3038 -0.5286  0.8288
 3649SOL    HW222581   3.015   0.153   3.899 -1.0599 -0.5429  0.8502
 3650SOL     OW22582   1.079   2.755  12.127 -0.2563  0.1847  0.2821
 3650SOL    HW122583   1.085   2.680  12.068 -0.0501  0.2232  0.2532
 3650SOL    HW222584   1.076   2.827  12.064 -2.8188 -0.2853 -0.1080
 3651SOL     OW22585   2.360   2.614   3.190  0.7189 -0.2523  0.1834
 3651SOL    HW122586   2.425   2.661   3.241  0.4480  0.0335  0.2659
 3651SOL    HW222587   2.391   2.622   3.100 -0.7802 -1.1766 -0.4252
 3652SOL     OW22588   0.060   2.340   5.737  0.1906  0.7739  0.1512
 3652SOL    HW122589   4.736   2.336   5.810 -0.5422  0.2173 -0.4853
 3652SOL    HW222590   0.129   2.394   5.775  0.8678 -0.3055  0.4422
 3653SOL     OW22591   4.099   2.528   5.955  0.1310 -0.3595 -0.4796
 3653SOL    HW122592   4.116   2.594   6.023  0.7413 -0.2168 -0.7738
 3653SOL    HW222593   4.083   2.577   5.874 -1.8629 -1.5594 -0.8323
 3654SOL     OW22594   4.008   1.787  13.722 -0.3506  0.0379  0.0820
 3654SOL    HW122595   3.949   1.834  13.781  1.7812  1.7289  0.8768
 3654SOL    HW222596   3.954   1.775  13.644 -1.5314  3.2460  0.4124
 3655SOL     OW22597   3.391   3.713   6.328 -0.2683 -0.2232 -0.0422
 3655SOL    HW122598   3.333   3.700   6.403  2.4601  1.2510  2.3351
 3655SOL    HW222599   3.414   3.623   6.305  0.2945 -0.5859  1.8681
 3656SOL     OW22600   3.809   2.716   5.723  0.4248  0.1694  0.7384
 3656SOL    HW122601   3.863   2.691   5.648 -0.8216 -1.4434  0.3787
 3656SOL    HW222602   3.888   2.731   5.774  0.9944  1.0567 -0.3850
 3657SOL     OW22603   1.676   0.728   2.485 -0.2238 -0.2127 -0.1317
 3657SOL    HW122604   1.765   0.719   2.517 -0.2508 -0.8630 -0.2353
 3657SOL    HW222605   1.618   0.751   2.558  2.6195 -1.8599  2.6295
 3658SOL     OW22606   2.649   0.530   1.120 -0.0261  0.0582  0.0673
 3658SOL    HW122607   2.699   0.470   1.064  1.8199  2.3402 -0.7387
 3658SOL    HW222608   2.596   0.468   1.171 -2.6753  0.8122 -1.7920
 3659SOL     OW22609   4.363   2.753   4.756 -0.1893 -0.9510  0.3431
 3659SOL    HW122610   4.268   2.745   4.760 -0.2027 -1.4815 -1.0727
 3659SOL    HW222611   4.392   2.705   4.678  0.2900  0.6673 -0.4776
 3660SOL     OW22612   1.080   3.285   6.916 -0.1977 -0.3002 -0.3059
 3660SOL    HW122613   1.058   3.310   7.006 -1.1440 -2.0677 -0.0324
 3660SOL    HW222614   1.082   3.372   6.876  2.1328 -0.5496 -0.7014
 3661SOL     OW22615   1.570   2.456  13.932 -0.4217  0.2097 -0.4037
 3661SOL    HW122616   1.647   2.510  13.948 -0.4204 -0.0511  0.4549
 3661SOL    HW222617   1.549   2.488  13.844 -0.3907  0.4694 -0.3182
 3662SOL     OW22618   3.181   3.543   6.153  0.2524 -0.0427  0.1396
 3662SOL    HW122619   3.228   3.620   6.119  0.3640 -0.3431 -0.3908
 3662SOL    HW222620   3.223   3.469   6.109 -0.6761 -0.1826 -0.5099
 3663SOL     OW22621   4.158   4.434   2.079 -0.1793 -0.4895  0.0682
 3663SOL    HW122622   4.129   4.353   2.036  1.1828 -0.2483 -1.3304
 3663SOL    HW222623   4.227   4.470   2.023 -0.0730  1.2151  1.3137
 3664SOL     OW22624   1.883   3.182   5.478 -0.2738  0.0189 -0.2702
 3664SOL    HW122625   1.799   3.211   5.441 -1.4885 -1.5964  1.2596
 3664SOL    HW222626   1.924   3.133   5.407 -1.2314 -1.5698  0.2692
 3665SOL     OW22627   0.528   4.387  10.242 -0.0465  0.3141  0.3848
 3665SOL    HW122628   0.560   4.471  10.210 -2.8518  0.3007 -2.5002
 3665SOL    HW222629   0.610   4.356  10.279  0.3601  0.6442 -0.2399
 3666SOL     OW22630   1.022   0.072  10.528  0.4377  0.7661 -0.8597
 3666SOL    HW122631   1.000   0.044  10.617 -0.8082  3.8313 -0.2221
 3666SOL    HW222632   1.112   0.041  10.514  0.5027  0.1092  0.9499
 3667SOL     OW22633   2.569   3.331  16.036 -0.2077 -0.0731 -0.1514
 3667SOL    HW122634   2.534   3.275  16.105  2.3515  1.1558  2.1528
 3667SOL    HW222635   2.592   3.414  16.079  0.1063  0.4195 -1.2655
 3668SOL     OW22636   0.156   4.057  15.826 -0.1525 -0.0508  0.0532
 3668SOL    HW122637   0.131   4.113  15.900 -0.3927 -0.2680  0.1389
 3668SOL    HW222638   0.070   4.019  15.806 -0.5054 -0.4219  2.2406
 3669SOL     OW22639   2.632   0.684   8.855  0.0601  0.5570 -0.3924
 3669SOL    HW122640   2.723   0.659   8.865 -0.4181 -1.1605 -0.3553
 3669SOL    HW222641   2.592   0.602   8.827  1.0718 -0.9860  2.6801
 3670SOL     OW22642   3.088   2.293  14.313  0.2095 -0.2876  0.0015
 3670SOL    HW122643   3.160   2.314  14.255 -0.8962 -0.2793 -1.3732
 3670SOL    HW222644   3.070   2.380  14.350  1.1699  0.4144 -1.2122
 3671SOL     OW22645   2.163   2.603   4.965 -0.0481  0.0245  0.0388
 3671SOL    HW122646   2.111   2.604   5.045 -1.6908 -2.0651 -0.9882
 3671SOL    HW222647   2.234   2.544   4.991 -0.4051 -1.5524 -2.6385
 3672SOL     OW22648   2.039   0.925   3.593 -0.1220  0.3324 -0.9465
 3672SOL    HW122649   2.064   1.013   3.623 -1.2010  0.3759 -0.1582
 3672SOL    HW222650   2.038   0.930   3.497  1.3377 -1.8995 -1.0666
 3673SOL     OW22651   3.722   2.619  15.334 -0.4761  0.1655 -0.0284
 3673SOL    HW122652   3.817   2.607  15.337 -0.5027  0.2607  1.2015
 3673SOL    HW222653   3.712   2.713  15.322  0.2010  0.4115  1.2946
 3674SOL     OW22654   1.515   4.474   9.728 -0.4663 -0.1951 -0.1482
 3674SOL    HW122655   1.547   4.438   9.810 -1.3564  0.5288  0.5173
 3674SOL    HW222656   1.476   4.389   9.706  0.3332 -0.6612  0.2468
 3675SOL     OW22657   3.802   1.179   4.376 -0.1373 -0.0193 -0.1644
 3675SOL    HW122658   3.809   1.089   4.344  0.0999  0.0362 -0.2689
 3675SOL    HW222659   3.889   1.184   4.416  0.1192 -0.8720 -0.5956
 3676SOL     OW22660   1.802   1.745   2.842 -0.2140  0.2203 -0.1493
 3676SOL    HW122661   1.773   1.659   2.812 -1.9500  0.9140 -0.4589
 3676SOL    HW222662   1.720   1.794   2.842  1.2405  2.6803  0.5215
 3677SOL     OW22663   3.088   2.029  12.016  0.4575 -0.9306  0.2765
 3677SOL    HW122664   3.036   1.954  12.044 -3.1239  1.5736  0.2303
 3677SOL    HW222665   3.072   2.085  12.091 -2.3449 -1.7790  0.2787
 3678SOL     OW22666   0.018   0.373   9.180 -0.6931  0.0051  0.5386
 3678SOL    HW122667   0.070   0.293   9.191  0.5496  0.6591 -0.6830
 3678SOL    HW222668   0.084   0.439   9.160  0.7177 -0.8615  2.2734
 3679SOL     OW22669   2.372   1.353  11.607 -0.1620 -0.1530 -0.5959
 3679SOL    HW122670   2.300   1.415  11.605  1.6830  2.0296  0.4000
 3679SOL    HW222671   2.341   1.308  11.528  0.9401  0.5427 -1.4196
 3680SOL     OW22672   0.171   3.527   5.315 -0.1107 -0.3721  0.1691
 3680SOL    HW122673   0.089   3.497   5.275  0.4317 -2.2047  0.4749
 3680SOL    HW222674   0.173   3.621   5.296  1.1381 -0.3692  0.3396
 3681SOL     OW22675   1.514   2.997   3.201  0.3066  0.0436  0.2098
 3681SOL    HW122676   1.470   2.971   3.119  1.4157  0.8114 -0.6303
 3681SOL    HW222677   1.436   3.016   3.253  0.6910  1.6325  0.1980
 3682SOL     OW22678   4.460   2.873  14.240 -0.5477  0.2279 -0.4395
 3682SOL    HW122679   4.410   2.917  14.309 -2.3194 -1.0527 -0.8938
 3682SOL    HW222680   4.479   2.790  14.285  0.1910  1.3569  1.3252
 3683SOL     OW22681   3.690   4.728  14.760  0.0089 -0.3693  0.1253
 3683SOL    HW122682   3.760   4.687  14.811  1.0710  1.1966 -0.0816
 3683SOL    HW222683   3.624   4.659  14.758 -1.3397  0.9723 -0.7913
 3684SOL     OW22684   3.440   2.243   9.356  0.3657 -0.1017 -0.0302
 3684SOL    HW122685   3.367   2.300   9.332  1.1609  0.9684  0.0937
 3684SOL    HW222686   3.514   2.292   9.320  1.1398 -0.9252  0.4323
 3685SOL     OW22687   4.530   1.378  16.918 -0.3280 -0.1347 -0.2228
 3685SOL    HW122688   4.456   1.396  16.860 -2.2373  0.6404  2.4649
 3685SOL    HW222689   4.584   1.326  16.859  1.2104  1.0471  0.1279
 3686SOL     OW22690   0.290   0.661   6.020  0.0072 -0.0790 -0.3821
 3686SOL    HW122691   0.340   0.626   5.946  1.6436  0.7276  0.3486
 3686SOL    HW222692   0.310   0.754   6.010  3.0302 -0.8136 -1.1814
 3687SOL     OW22693   2.641   1.653  10.848 -0.0776 -0.6010 -0.4212
 3687SOL    HW122694   2.698   1.607  10.910 -0.9358 -2.3038 -0.8706
 3687SOL    HW222695   2.572   1.586  10.847 -0.6992  0.0575 -1.4873
 3688SOL     OW22696   3.734   1.557   0.711 -0.5369 -0.0386  0.0282
 3688SOL    HW122697   3.698   1.539   0.624 -0.7844  0.9616 -0.0766
 3688SOL    HW222698   3.656   1.551   0.767 -1.0333 -1.6314 -0.8165
 3689SOL     OW22699   1.057   2.399   7.760 -0.1700 -0.4829  0.1666
 3689SOL    HW122700   1.115   2.328   7.733  0.1165 -1.0253  2.1930
 3689SOL    HW222701   1.088   2.475   7.711  1.2687  0.0173  1.8613
 3690SOL     OW22702   3.136   0.411   1.298 -0.2637  0.6265 -0.5585
 3690SOL    HW122703   3.043   0.425   1.280 -0.9703 -0.1930  2.3129
 3690SOL    HW222704   3.172   0.463   1.227  1.1843 -0.6964 -0.7810
 3691SOL     OW22705   2.637   2.112  17.198  0.3581 -0.2203  0.0891
 3691SOL    HW122706   2.561   2.144  17.149 -0.4670 -0.9324  0.9197
 3691SOL    HW222707   2.604   2.036  17.246 -0.6204 -1.3055 -2.2689
 3692SOL     OW22708   2.176   2.199   8.707  0.2769  0.5341 -0.0825
 3692SOL    HW122709   2.116   2.164   8.641 -1.2461 -0.3122  1.7359
 3692SOL    HW222710   2.194   2.289   8.682  0.3470  1.4142  3.1636
 3693SOL     OW22711   1.692   3.978   6.568  0.0758 -0.7673  0.5430
 3693SOL    HW122712   1.697   3.884   6.551  1.0338 -0.6778  0.3270
 3693SOL    HW222713   1.715   3.985   6.660  1.9851 -4.1885  0.3016
 3694SOL     OW22714   4.710   2.674   8.981 -0.3639 -0.1038  0.2446
 3694SOL    HW122715   0.037   2.635   9.041 -0.3294 -0.7213 -0.1869
 3694SOL    HW222716   4.629   2.641   9.021 -0.7201  1.9076  1.1519
 3695SOL     OW22717   4.320   0.488   4.826 -0.2235 -0.1875  0.1678
 3695SOL    HW122718   4.307   0.577   4.860  4.6476  0.8970 -0.8287
 3695SOL    HW222719   4.234   0.446   4.827 -1.6229  2.6975  0.8614
 3696SOL     OW22720   1.468   4.262  13.206 -0.1726 -0.0985  0.0548
 3696SOL    HW122721   1.415   4.199  13.157  0.3864 -1.0385  0.6456
 3696SOL    HW222722   1.443   4.343  13.162  0.8323  0.1783  0.0064
 3697SOL     OW22723   0.388   0.957  12.016 -0.3540 -0.0405  0.0870
 3697SOL    HW122724   0.375   0.951  11.921  0.4991 -1.6183  0.0762
 3697SOL    HW222725   0.313   1.017  12.026 -1.0479 -0.9467  0.3591
 3698SOL     OW22726   2.724   0.087  11.212  0.6246  0.1510  0.4999
 3698SOL    HW122727   2.781   0.062  11.285 -2.5982 -1.2429  2.5381
 3698SOL    HW222728   2.665   0.012  11.221 -0.4295  1.0584  1.1459
 3699SOL     OW22729   0.191   2.732   9.860 -0.6714  0.4003 -0.1023
 3699SOL    HW122730   0.136   2.664   9.822  1.1763 -0.6217 -0.9278
 3699SOL    HW222731   0.194   2.797   9.790  2.6829 -1.3963 -1.6610
 3700SOL     OW22732   3.730   3.990   9.461 -0.1731  0.1656 -0.0123
 3700SOL    HW122733   3.782   3.972   9.383  1.2061  0.5405  0.8404
 3700SOL    HW222734   3.761   4.077   9.485 -1.4257  0.6050  0.0407
 3701SOL     OW22735   3.335   0.617   9.484  0.7140 -0.8590  0.2824
 3701SOL    HW122736   3.243   0.613   9.509  0.1407 -1.2620 -1.8458
 3701SOL    HW222737   3.344   0.705   9.449 -1.7610 -0.9830 -0.6437
 3702SOL     OW22738   0.500   3.593   2.882  0.2981 -0.5690 -0.1778
 3702SOL    HW122739   0.452   3.516   2.853 -0.4725 -0.3685  0.5600
 3702SOL    HW222740   0.590   3.567   2.901  0.5079  0.5778  0.4231
 3703SOL     OW22741   1.638   3.051   0.870  0.0977  0.2696  0.3651
 3703SOL    HW122742   1.731   3.063   0.852 -0.3266  1.3796 -1.1151
 3703SOL    HW222743   1.643   3.047   0.966 -0.5001 -2.8231  0.2715
 3704SOL     OW22744   3.421   3.263   5.716 -0.1458  0.2035 -0.6581
 3704SOL    HW122745   3.491   3.302   5.768  0.4672 -1.4815 -0.2164
 3704SOL    HW222746   3.391   3.196   5.778 -2.2296  1.2143 -0.5771
 3705SOL     OW22747   3.058   0.248   1.667 -0.1171 -0.4522  0.5269
 3705SOL    HW122748   3.002   0.295   1.729  1.8557 -1.0041  2.7545
 3705SOL    HW222749   3.144   0.277   1.696  0.4060 -1.1247 -0.3515
 3706SOL     OW22750   2.825   1.414   9.769  0.1748 -0.1653 -0.0347
 3706SOL    HW122751   2.881   1.470   9.715 -1.6431  0.1213 -1.6333
 3706SOL    HW222752   2.866   1.328   9.761  2.0395  0.8103 -0.8969
 3707SOL     OW22753   0.631   3.957   5.359 -0.0329  0.2288  0.5141
 3707SOL    HW122754   0.685   3.963   5.438 -1.3763 -1.8231  1.5755
 3707SOL    HW222755   0.577   4.035   5.345  3.3247  2.3187 -0.7942
 3708SOL     OW22756   2.929   3.169  14.920 -0.2958  0.1034  0.0664
 3708SOL    HW122757   2.891   3.186  14.834 -0.2900 -0.0654  0.0300
 3708SOL    HW222758   2.867   3.101  14.945  0.7087  0.0017  2.2877
 3709SOL     OW22759   2.585   0.286   5.621 -0.3274  0.0307  0.3525
 3709SOL    HW122760   2.625   0.305   5.707 -1.2433  0.9502  0.5754
 3709SOL    HW222761   2.584   0.378   5.594 -1.9227 -0.3448 -0.8113
 3710SOL     OW22762   4.020   2.762   9.363  0.4086  0.0513 -0.4745
 3710SOL    HW122763   4.080   2.761   9.437  1.5498  2.1306 -1.3751
 3710SOL    HW222764   4.069   2.762   9.280 -0.1217 -1.1793 -0.7952
 3711SOL     OW22765   4.290   1.386  16.195 -0.3209 -0.2190 -0.2848
 3711SOL    HW122766   4.378   1.385  16.159  0.2939 -0.6863  1.2086
 3711SOL    HW222767   4.245   1.433  16.125  0.6924 -2.1819 -2.2427
 3712SOL     OW22768   2.477   0.377   3.405  0.0527 -0.3915 -0.0206
 3712SOL    HW122769   2.565   0.411   3.421 -0.1637 -0.9985  2.5610
 3712SOL    HW222770   2.430   0.460   3.398 -1.3874 -1.2095  0.0412
 3713SOL     OW22771   0.546   4.660   9.407  0.2533  0.2273 -0.1249
 3713SOL    HW122772   0.556   0.000   9.351 -2.0064 -0.9409 -2.1633
 3713SOL    HW222773   0.633   4.638   9.441 -0.5159  1.2785  2.5216
 3714SOL     OW22774   2.444   1.669   7.623 -0.3052  0.0661  0.2607
 3714SOL    HW122775   2.420   1.577   7.635 -0.0802 -0.4687 -3.2592
 3714SOL    HW222776   2.398   1.699   7.544 -1.2894 -1.2873  0.3138
 3715SOL     OW22777   0.206   1.222   6.087 -0.0904 -0.6194  0.2245
 3715SOL    HW122778   0.300   1.217   6.102  0.2400 -1.0657 -1.9180
 3715SOL    HW222779   0.170   1.134   6.096 -0.1546 -0.7037 -0.8415
 3716SOL     OW22780   2.171   0.140   6.067 -0.0533 -0.1389 -0.0502
 3716SOL    HW122781   2.220   0.066   6.102  1.3662  1.9050  2.2994
 3716SOL    HW222782   2.211   0.145   5.980 -2.1451  0.6491 -0.9736
 3717SOL     OW22783   3.159   3.036  13.549  0.1076 -0.0736 -0.5940
 3717SOL    HW122784   3.200   3.065  13.630  1.7895  1.2500 -1.9101
 3717SOL    HW222785   3.192   3.103  13.489  2.5611 -0.1848  0.6319
 3718SOL     OW22786   1.307   3.184   2.212 -0.1438 -0.4806 -0.1880
 3718SOL    HW122787   1.316   3.269   2.169 -2.3573 -0.6067 -0.8655
 3718SOL    HW222788   1.242   3.142   2.157 -0.1700  0.3882 -0.8241
 3719SOL     OW22789   2.705   2.181  10.824 -0.5257  0.3153  0.0103
 3719SOL    HW122790   2.665   2.103  10.786  0.4115 -1.0744  1.8731
 3719SOL    HW222791   2.792   2.147  10.845 -0.9162  0.1926  1.4568
 3720SOL     OW22792   2.503   3.735  16.794  0.1518  0.0791 -0.3686
 3720SOL    HW122793   2.571   3.672  16.771 -0.2659 -0.3714 -0.3741
 3720SOL    HW222794   2.524   3.744  16.887 -1.7185 -1.8687  0.2437
 3721SOL     OW22795   1.162   4.091   1.805  1.1187  0.1086  0.2361
 3721SOL    HW122796   1.101   4.074   1.877  0.2736  1.9487 -0.0394
 3721SOL    HW222797   1.144   4.011   1.755  2.3645  0.0463 -0.1267
 3722SOL     OW22798   2.354   1.455  13.737 -0.2596  0.0293  0.4622
 3722SOL    HW122799   2.395   1.468  13.822  3.0000  1.9278 -1.3916
 3722SOL    HW222800   2.279   1.515  13.734 -0.2984 -0.1466 -2.0369
 3723SOL     OW22801   1.304   2.838  15.507 -0.0868  0.2498 -0.2423
 3723SOL    HW122802   1.283   2.838  15.600  1.2724 -2.7991  0.0615
 3723SOL    HW222803   1.399   2.826  15.512 -0.3949 -1.1055  2.3867
 3724SOL     OW22804   2.467   4.357   4.356  0.3250 -0.0643 -0.7249
 3724SOL    HW122805   2.481   4.269   4.321 -0.6610 -0.9659  1.1543
 3724SOL    HW222806   2.377   4.373   4.325 -0.4976 -1.7251  0.8306
 3725SOL     OW22807   2.547   1.744   7.197  0.0902  0.5001 -0.1996
 3725SOL    HW122808   2.550   1.660   7.150 -2.5190 -0.3229  1.0982
 3725SOL    HW222809   2.630   1.739   7.245 -0.6545  0.3691  1.0616
 3726SOL     OW22810   4.037   3.825   6.694 -0.2788  0.1627 -0.1215
 3726SOL    HW122811   3.980   3.834   6.617 -2.4109 -0.8674  1.3630
 3726SOL    HW222812   4.116   3.839   6.641 -0.7128  0.0200 -0.8057
 3727SOL     OW22813   1.199   4.472   4.301  0.3040  0.0018  0.5371
 3727SOL    HW122814   1.208   4.559   4.261  0.7761 -0.7022 -0.8778
 3727SOL    HW222815   1.182   4.497   4.392  1.6971  1.0029  0.5292
 3728SOL     OW22816   2.674   1.789  11.304 -0.0432 -0.2291 -0.1656
 3728SOL    HW122817   2.594   1.797  11.356  0.7912 -0.2136  1.1146
 3728SOL    HW222818   2.650   1.718  11.244 -3.2360  0.6577  0.0911
 3729SOL     OW22819   0.242   4.607  15.524 -0.2052 -0.5151  0.0508
 3729SOL    HW122820   0.264   4.621  15.432  0.2223  0.7494  0.3477
 3729SOL    HW222821   0.179   4.537  15.509 -4.2500  2.7984  1.7066
 3730SOL     OW22822   2.319   2.425   5.863 -0.2815  0.4949  0.5065
 3730SOL    HW122823   2.402   2.425   5.815  1.0598  1.8957  2.8248
 3730SOL    HW222824   2.332   2.345   5.913 -0.5600 -0.6676 -1.3064
 3731SOL     OW22825   3.727   2.825   9.371  0.0501  0.1074 -1.1342
 3731SOL    HW122826   3.820   2.844   9.364  0.2375 -0.6256 -0.5767
 3731SOL    HW222827   3.730   2.747   9.316 -1.1606 -0.5524 -0.2753
 3732SOL     OW22828   3.843   2.007   7.892  0.9070  0.6548 -0.1246
 3732SOL    HW122829   3.889   2.082   7.929 -2.1293  1.4449  2.0748
 3732SOL    HW222830   3.861   1.940   7.957 -1.2597  1.0488  0.8822
 3733SOL     OW22831   2.648   2.782   9.068 -0.5857 -0.0099  0.4066
 3733SOL    HW122832   2.657   2.746   9.156 -0.8967 -0.3108  0.3145
 3733SOL    HW222833   2.557   2.761   9.049  0.3740 -1.5649 -2.4643
 3734SOL     OW22834   4.250   3.893   6.532 -0.0796  0.0126  0.5086
 3734SOL    HW122835   4.250   3.988   6.525 -0.0643 -0.1596 -1.9520
 3734SOL    HW222836   4.179   3.876   6.470  0.6475  0.2504 -0.3962
 3735SOL     OW22837   4.624   0.420   2.156 -0.2845 -0.3693 -0.8933
 3735SOL    HW122838   4.676   0.344   2.180  1.0187  0.8017  0.0425
 3735SOL    HW222839   4.674   0.469   2.090 -0.8555  0.8735 -0.4092
 3736SOL     OW22840   3.685   0.830  12.168  0.5972 -0.2244 -0.2787
 3736SOL    HW122841   3.599   0.808  12.133 -0.3014  0.4078  1.5066
 3736SOL    HW222842   3.736   0.790  12.098 -0.3917 -0.0995 -1.0773
 3737SOL     OW22843   2.458   1.648  17.612  0.0119  0.3150  0.4598
 3737SOL    HW122844   2.546   1.684  17.605  1.1734 -2.4411  1.1946
 3737SOL    HW222845   2.441   1.666  17.705 -0.3614  0.3294  0.3913
 3738SOL     OW22846   2.873   2.479   3.889  0.6885 -0.1000  0.3015
 3738SOL    HW122847   2.797   2.534   3.874  1.8920  1.9850  1.9029
 3738SOL    HW222848   2.910   2.470   3.801  2.0455  0.5112  0.8084
 3739SOL     OW22849   1.841   2.605   9.776  0.1083 -0.4392  0.3366
 3739SOL    HW122850   1.828   2.569   9.864  1.3767 -1.1313  0.2478
 3739SOL    HW222851   1.752   2.604   9.742  1.2855 -1.8520 -2.6870
 3740SOL     OW22852   1.163   2.768   1.667  0.4160 -0.9124 -0.3362
 3740SOL    HW122853   1.208   2.852   1.674 -0.3699 -0.5545  0.4294
 3740SOL    HW222854   1.073   2.799   1.658 -0.4131 -3.0601  0.3956
 3741SOL     OW22855   2.257   0.075  17.674  0.2283 -0.5695  0.2084
 3741SOL    HW122856   2.208   0.084   0.009 -1.9902 -0.0245 -1.1916
 3741SOL    HW222857   2.214   0.140  17.619 -0.0833 -0.2053  0.8866
 3742SOL     OW22858   0.955   4.243   2.196 -0.3414  0.6500 -0.0210
 3742SOL    HW122859   1.021   4.233   2.127 -0.8985 -1.1756 -0.2867
 3742SOL    HW222860   0.887   4.187   2.158 -0.7557  2.0991 -1.4245
 3743SOL     OW22861   2.528   1.847   2.902 -0.1443 -0.0064  1.0580
 3743SOL    HW122862   2.473   1.908   2.951 -0.8857  0.1330  0.0497
 3743SOL    HW222863   2.474   1.768   2.894 -0.3443  0.0363  2.0087
 3744SOL     OW22864   1.236   4.483   3.005  0.4246  0.5296  0.2307
 3744SOL    HW122865   1.291   4.548   2.960  0.6041 -1.7886 -2.9158
 3744SOL    HW222866   1.304   4.439   3.056 -0.2189  1.1112  1.5663
 3745SOL     OW22867   2.619   4.311  11.494 -0.0831 -0.0928  0.9081
 3745SOL    HW122868   2.540   4.263  11.471  0.3783 -1.3512  1.9852
 3745SOL    HW222869   2.657   4.314  11.406 -0.2127 -0.1525  0.8495
 3746SOL     OW22870   4.632   3.152  15.335  0.0755 -0.5960  0.4021
 3746SOL    HW122871   4.690   3.082  15.305  2.5367  1.2255  0.8428
 3746SOL    HW222872   4.555   3.099  15.353 -0.3048  0.1941  1.1054
 3747SOL     OW22873   1.989   2.011  16.687  0.1121  0.2680 -0.1255
 3747SOL    HW122874   1.926   1.944  16.712 -0.5474  1.2287  0.8216
 3747SOL    HW222875   1.984   2.063  16.768 -4.7692  0.9579 -0.9082
 3748SOL     OW22876   4.246   4.664   3.840 -0.3421  0.0083 -0.5347
 3748SOL    HW122877   4.312   4.595   3.825  0.2564  0.3079  0.7318
 3748SOL    HW222878   4.239   4.661   3.935 -1.0430 -0.7703 -0.6133
 3749SOL     OW22879   3.058   1.896   6.850  0.5043  0.2334 -0.1991
 3749SOL    HW122880   2.975   1.857   6.875 -0.3516  1.8345 -0.5492
 3749SOL    HW222881   3.050   1.980   6.895  1.0579  0.5349 -0.6591
 3750SOL     OW22882   2.626   0.863   2.552  0.2808  0.2320 -0.1096
 3750SOL    HW122883   2.557   0.805   2.585  0.2170 -0.3737 -1.3004
 3750SOL    HW222884   2.681   0.798   2.508 -1.0244 -1.0634  0.1489
 3751SOL     OW22885   1.967   0.596   3.399  0.3811 -0.0789  0.1786
 3751SOL    HW122886   1.949   0.690   3.409 -0.9416 -0.1885 -1.1132
 3751SOL    HW222887   2.060   0.596   3.420 -0.0101 -0.5065  1.9697
 3752SOL     OW22888   2.415   0.713   4.181 -1.1854  0.1843 -0.1115
 3752SOL    HW122889   2.349   0.643   4.181 -0.5432 -0.4259  1.4981
 3752SOL    HW222890   2.462   0.680   4.257 -1.1862  1.7974  0.5862
 3753SOL     OW22891   3.824   0.305   9.221 -0.6243  0.0553 -0.2155
 3753SOL    HW122892   3.919   0.300   9.207 -0.9045 -1.2769 -1.6295
 3753SOL    HW222893   3.783   0.328   9.138 -2.3448  1.2374  0.9634
 3754SOL     OW22894   3.660   2.084   4.690 -0.2551  0.0611  0.6899
 3754SOL    HW122895   3.579   2.080   4.638  0.1161  2.3740 -0.0449
 3754SOL    HW222896   3.629   2.045   4.772 -1.9605  2.7505  1.3257
 3755SOL     OW22897   1.590   3.905   7.420 -0.4002  0.3413  0.1321
 3755SOL    HW122898   1.613   3.842   7.352 -1.4221  2.3713 -2.1059
 3755SOL    HW222899   1.599   3.853   7.500 -2.1929  0.9263  0.7205
 3756SOL     OW22900   4.733   4.188  17.300  0.0728 -0.1762  0.7916
 3756SOL    HW122901   0.074   4.213  17.349  0.5014 -3.0688  1.5530
 3756SOL    HW222902   0.020   4.103  17.263  1.0184  0.1112  0.7459
 3757SOL     OW22903   2.655   3.974   5.657 -0.3675 -0.0796  0.3672
 3757SOL    HW122904   2.672   4.017   5.741 -2.1043  0.0026  0.6832
 3757SOL    HW222905   2.648   3.880   5.668 -1.8297  0.0309  0.4699
 3758SOL     OW22906   1.900   3.976   5.421  0.0273 -0.2584 -0.9934
 3758SOL    HW122907   1.938   4.037   5.357  0.6403  0.2159 -0.1827
 3758SOL    HW222908   1.970   3.969   5.487  0.7798 -1.7193 -1.9542
 3759SOL     OW22909   2.813   2.124   9.273  0.4021 -0.0974  0.2585
 3759SOL    HW122910   2.837   2.083   9.190 -0.0178 -2.1188  1.1155
 3759SOL    HW222911   2.737   2.073   9.302  0.0842  0.2018 -0.0631
 3760SOL     OW22912   0.409   3.429  11.193  0.0365  0.2435 -0.6717
 3760SOL    HW122913   0.454   3.462  11.115 -0.0125  2.3709  0.2065
 3760SOL    HW222914   0.416   3.504  11.252 -0.1828 -0.0527 -0.2705
 3761SOL     OW22915   1.701   1.660   8.657 -0.0947 -0.2612  0.3338
 3761SOL    HW122916   1.746   1.644   8.574  0.7487 -2.3705  1.1878
 3761SOL    HW222917   1.755   1.733   8.685 -0.1945 -0.7662  1.8454
 3762SOL     OW22918   4.570   0.913   8.900 -0.2219 -0.4661 -0.4756
 3762SOL    HW122919   4.628   0.975   8.856  2.4822  0.3420  4.2528
 3762SOL    HW222920   4.591   0.943   8.989 -0.0599  0.7357 -0.9201
 3763SOL     OW22921   2.833   4.120   6.972  0.2794 -0.3177  0.3071
 3763SOL    HW122922   2.810   4.030   6.946  1.4752 -0.9690  1.5065
 3763SOL    HW222923   2.741   4.144   6.983  0.5811  0.9195  0.0483
 3764SOL     OW22924   1.559   4.184   4.074  1.0235  0.1467 -0.0701
 3764SOL    HW122925   1.523   4.236   4.145 -0.4270  0.1371 -0.7923
 3764SOL    HW222926   1.506   4.216   4.001  1.9357  1.6876 -0.0412
 3765SOL     OW22927   2.384   0.587  15.327 -0.1217  0.1372  0.0155
 3765SOL    HW122928   2.475   0.565  15.348  0.4183  0.9519 -1.5389
 3765SOL    HW222929   2.348   0.501  15.304 -0.3004  0.1294  0.3309
 3766SOL     OW22930   0.000   3.713  10.635  0.6302  0.3532 -0.2618
 3766SOL    HW122931   0.062   3.778  10.669  0.7494 -0.1915  0.5572
 3766SOL    HW222932   4.672   3.779  10.610 -0.1205 -1.7868 -3.9376
 3767SOL     OW22933   3.015   1.558   6.788  0.3768 -0.4352 -0.0067
 3767SOL    HW122934   2.995   1.629   6.727  2.3405  2.7860  3.0626
 3767SOL    HW222935   3.068   1.504   6.730  0.5778 -2.6323  2.2107
 3768SOL     OW22936   1.641   0.235   5.761 -0.6035  0.2133 -0.4707
 3768SOL    HW122937   1.646   0.330   5.755  0.7119  0.1051 -0.9019
 3768SOL    HW222938   1.716   0.212   5.814  0.0440 -1.0283 -1.9306
 3769SOL     OW22939   0.835   2.116   6.769  0.9174 -0.1494 -0.3862
 3769SOL    HW122940   0.897   2.054   6.807 -0.9081 -0.5580  1.9480
 3769SOL    HW222941   0.823   2.172   6.846  2.1375  1.2454 -1.2070
 3770SOL     OW22942   2.086   1.550   5.285 -0.0651 -0.1600 -0.1001
 3770SOL    HW122943   2.044   1.487   5.228 -0.2087 -2.3538  2.4197
 3770SOL    HW222944   2.054   1.637   5.263 -0.1392 -0.2361 -0.2855
 3771SOL     OW22945   2.730   0.211   3.661  0.6240  0.0301  0.1512
 3771SOL    HW122946   2.734   0.300   3.627 -2.5094  0.1658  0.1622
 3771SOL    HW222947   2.766   0.162   3.587  3.0958  1.8453  0.1358
 3772SOL     OW22948   0.215   2.182   8.951  0.0670 -0.0497  0.1862
 3772SOL    HW122949   0.288   2.243   8.946  1.1052 -1.3883 -0.9419
 3772SOL    HW222950   0.265   2.105   8.924  0.0412  0.4015 -1.1702
 3773SOL     OW22951   2.333   2.020   6.695  0.2836  0.3525  0.7170
 3773SOL    HW122952   2.284   2.095   6.727  0.1516  0.6794 -0.2360
 3773SOL    HW222953   2.403   2.014   6.760 -1.1387  1.3296  2.3354
 3774SOL     OW22954   4.015   3.109   8.016 -0.3363 -0.2642 -0.2334
 3774SOL    HW122955   3.973   3.190   7.988  0.3584 -0.0527 -0.6883
 3774SOL    HW222956   4.069   3.133   8.091 -1.0046  0.4041  0.0279
 3775SOL     OW22957   2.197   2.107   6.079 -0.8568  0.1191 -0.5066
 3775SOL    HW122958   2.124   2.081   6.022 -1.7495  0.9159  0.2739
 3775SOL    HW222959   2.165   2.079   6.165  1.9857  0.3710  0.6195
 3776SOL     OW22960   1.752   0.279  16.934 -0.1639  0.9884 -0.0582
 3776SOL    HW122961   1.808   0.332  16.877 -0.9507  0.0917 -1.6754
 3776SOL    HW222962   1.741   0.196  16.887 -1.3840  1.0139  0.1965
 3777SOL     OW22963   2.709   0.628   7.103 -0.1785 -0.5349 -0.5897
 3777SOL    HW122964   2.716   0.533   7.107 -0.9001 -0.4822  1.6543
 3777SOL    HW222965   2.637   0.638   7.165 -1.2650 -1.4782 -1.7127
 3778SOL     OW22966   1.352   4.176   0.163  0.1428  0.1719 -0.1289
 3778SOL    HW122967   1.257   4.181   0.167  0.2686  2.4882 -0.0776
 3778SOL    HW222968   1.365   4.082   0.176 -0.7637 -0.1438 -1.4981
 3779SOL     OW22969   0.302   3.498   3.533  0.0194  0.2145  0.3784
 3779SOL    HW122970   0.317   3.591   3.550  1.3927  0.2019 -0.7404
 3779SOL    HW222971   0.331   3.496   3.442  0.9018 -2.6217  0.7015
 3780SOL     OW22972   2.678   3.532   0.281 -0.4746 -0.3098  0.0112
 3780SOL    HW122973   2.588   3.518   0.308 -0.6898 -0.9384 -1.0426
 3780SOL    HW222974   2.668   3.620   0.245 -0.7022 -1.8458 -3.6760
 3781SOL     OW22975   4.658   0.664  10.503 -0.5318  0.1958  0.0794
 3781SOL    HW122976   4.681   0.700  10.589 -0.1320 -0.4163  0.2356
 3781SOL    HW222977   0.008   0.679  10.466 -0.5206  0.0413  0.0417
 3782SOL     OW22978   4.034   3.604   1.845 -0.6925  0.2341  0.1047
 3782SOL    HW122979   4.075   3.631   1.763  0.2483 -1.6352 -0.0451
 3782SOL    HW222980   4.029   3.509   1.834  1.1216  0.3222 -1.4333
 3783SOL     OW22981   0.285   2.907   6.224  0.1718  0.2441  0.6185
 3783SOL    HW122982   0.243   2.926   6.140 -1.6069  1.0100  1.6839
 3783SOL    HW222983   0.371   2.876   6.194  0.8361  1.0326  1.7318
 3784SOL     OW22984   2.895   2.782   6.012 -0.0407  0.1355  0.4963
 3784SOL    HW122985   2.933   2.696   6.029 -2.2860 -1.3845 -2.2939
 3784SOL    HW222986   2.868   2.770   5.921  1.8983 -1.9429  0.2056
 3785SOL     OW22987   4.551   0.267   2.531  0.5833 -0.1053 -0.2884
 3785SOL    HW122988   4.514   0.355   2.534 -0.3750 -0.5517  1.0690
 3785SOL    HW222989   4.481   0.221   2.486  0.1365  0.2401  0.0531
 3786SOL     OW22990   2.022   3.805   2.725 -0.1679 -0.0408  0.3428
 3786SOL    HW122991   2.076   3.776   2.652 -2.0219 -1.0811 -0.6338
 3786SOL    HW222992   2.051   3.738   2.787 -0.9315 -1.1438 -0.4792
 3787SOL     OW22993   0.157   0.676   8.220  0.0379  0.2268  1.0291
 3787SOL    HW122994   0.157   0.771   8.232 -0.8730  0.5047 -1.1472
 3787SOL    HW222995   0.181   0.684   8.128  0.2185  0.3509  1.0885
 3788SOL     OW22996   2.779   1.358   7.167 -0.3993  0.0678 -0.1839
 3788SOL    HW122997   2.713   1.355   7.097  1.4084 -3.6920 -1.7207
 3788SOL    HW222998   2.841   1.418   7.126  0.1615 -0.1682  0.3283
 3789SOL     OW22999   4.596   2.738   6.478  0.0149  0.3989 -0.3027
 3789SOL    HW123000   4.563   2.649   6.490  0.4038  0.4972  1.5744
 3789SOL    HW223001   4.611   2.772   6.566  0.2052  0.9812 -0.5605
 3790SOL     OW23002   2.116   0.603   1.639 -0.5483 -0.0857 -0.4536
 3790SOL    HW123003   2.048   0.668   1.622  0.5733  0.8528 -1.3636
 3790SOL    HW223004   2.053   0.531   1.644  0.8182 -1.2220  0.5969
 3791SOL     OW23005   0.909   1.027   6.393 -0.1036 -0.1635  0.4282
 3791SOL    HW123006   0.873   1.110   6.423  1.2635  0.4631  0.3178
 3791SOL    HW223007   0.844   0.958   6.412 -0.6614  0.3664  0.4366
 3792SOL     OW23008   0.160   4.720   9.775 -0.5724  0.3462 -0.4383
 3792SOL    HW123009   0.251   0.002   9.752  0.3059 -1.8364  1.1549
 3792SOL    HW223010   0.114   0.028   9.704 -0.5973 -0.8973 -1.2181
 3793SOL     OW23011   0.426   2.831  11.553 -0.8981  0.0742 -0.3952
 3793SOL    HW123012   0.419   2.882  11.473  2.6581  0.5632 -0.3709
 3793SOL    HW223013   0.345   2.781  11.565 -0.4607 -0.2352  1.3261
 3794SOL     OW23014   1.363   0.854   3.228  0.8611  0.0816 -1.0309
 3794SOL    HW123015   1.388   0.780   3.284  1.9940  2.4867  1.6435
 3794SOL    HW223016   1.269   0.865   3.241  0.8617 -1.3925  0.2343
 3795SOL     OW23017   0.513   3.256   2.000 -0.0951 -0.0505 -0.2901
 3795SOL    HW123018   0.509   3.285   2.091 -2.1593  1.1670 -0.7805
 3795SOL    HW223019   0.512   3.338   1.950 -0.3710  0.2947  0.2888
 3796SOL     OW23020   0.097   2.104  10.919 -0.1021  0.1142  0.1382
 3796SOL    HW123021   0.073   2.195  10.905 -1.5841  0.0211  2.0698
 3796SOL    HW223022   0.050   2.091  11.002 -0.2600  0.8398  0.1595
 3797SOL     OW23023   0.636   4.147   3.702  0.2176 -0.0081  0.2265
 3797SOL    HW123024   0.642   4.222   3.643  2.6584  0.1177  0.6592
 3797SOL    HW223025   0.625   4.067   3.651  0.6858  0.9603 -1.3769
 3798SOL     OW23026   4.155   4.000  16.374 -0.3575 -0.4635 -0.3257
 3798SOL    HW123027   4.209   3.935  16.418 -1.3539 -0.5435  0.7626
 3798SOL    HW223028   4.072   3.978  16.415 -0.8307  0.8420 -0.5837
 3799SOL     OW23029   0.654   1.263   9.781  0.0782  0.4991  0.7210
 3799SOL    HW123030   0.705   1.334   9.821  1.5340 -1.0626  1.6165
 3799SOL    HW223031   0.726   1.216   9.738 -0.0253  1.0055 -0.0219
 3800SOL     OW23032   4.049   3.189   5.566  0.2465 -0.1666  0.0136
 3800SOL    HW123033   4.007   3.139   5.636  0.7642  0.5663  0.8405
 3800SOL    HW223034   3.994   3.188   5.488 -0.3962  0.9084  0.4606
 3801SOL     OW23035   1.886   0.654   0.525 -0.1119 -0.1887  0.0633
 3801SOL    HW123036   1.815   0.716   0.539  0.8316  1.3562 -2.0812
 3801SOL    HW223037   1.945   0.708   0.473  1.7656 -2.0389  0.2465
 3802SOL     OW23038   0.804   3.636   0.617  0.5324  0.0205  0.3278
 3802SOL    HW123039   0.875   3.630   0.553 -0.1772 -0.0013 -0.4656
 3802SOL    HW223040   0.737   3.570   0.598 -0.8906  0.9250  2.2087
 3803SOL     OW23041   0.911   1.340  15.014  0.3136 -0.1300 -0.2770
 3803SOL    HW123042   0.892   1.337  15.108  2.1908 -1.0704  0.0601
 3803SOL    HW223043   0.837   1.386  14.975  0.0578 -1.0563 -0.8743
 3804SOL     OW23044   3.084   1.444  14.369 -1.2438  0.0451  0.2731
 3804SOL    HW123045   3.112   1.523  14.323  3.1966 -2.0038 -0.4952
 3804SOL    HW223046   3.101   1.379  14.301 -1.1947  0.6428 -0.2832
 3805SOL     OW23047   3.730   2.170  15.685  0.0909  0.5564  0.6641
 3805SOL    HW123048   3.710   2.101  15.622 -1.5920 -0.7440  2.6383
 3805SOL    HW223049   3.755   2.238  15.622  3.3315 -1.7069 -0.4458
 3806SOL     OW23050   1.634   4.666   8.570 -0.6320  0.1155  0.1332
 3806SOL    HW123051   1.551   4.659   8.524 -1.2112 -0.3978  1.2579
 3806SOL    HW223052   1.603   4.734   8.630 -0.0935 -0.2402  0.8250
 3807SOL     OW23053   4.643   3.864  12.233  0.1054 -0.5741 -0.0787
 3807SOL    HW123054   4.717   3.898  12.284 -1.0405  0.3273  0.9549
 3807SOL    HW223055   4.584   3.847  12.306  1.1872 -1.0062  0.7043
 3808SOL     OW23056   1.669   1.955   3.956  0.9606 -0.3767 -0.4655
 3808SOL    HW123057   1.627   2.028   3.910  0.1673 -1.4572 -1.4322
 3808SOL    HW223058   1.617   1.878   3.936  1.0500 -0.7172  0.6287
 3809SOL     OW23059   3.822   0.673   7.328 -0.3479 -0.5808 -0.7982
 3809SOL    HW123060   3.840   0.767   7.319 -0.5761 -0.1954  2.5852
 3809SOL    HW223061   3.760   0.676   7.401 -1.0588  0.5502 -1.4450
 3810SOL     OW23062   2.685   0.849   9.914 -0.0353  0.9449  0.1127
 3810SOL    HW123063   2.774   0.863   9.882  1.2143 -0.8324  2.7402
 3810SOL    HW223064   2.670   0.921   9.976  1.7805  0.4571  1.1475
 3811SOL     OW23065   2.858   1.996   2.534 -0.4890 -0.0323  0.0477
 3811SOL    HW123066   2.805   1.917   2.527  0.2172 -0.4431 -0.7131
 3811SOL    HW223067   2.794   2.056   2.497  0.9165  1.7849  0.5627
 3812SOL     OW23068   3.311   3.245   1.672  0.0240 -0.4140  0.6792
 3812SOL    HW123069   3.387   3.191   1.652  3.0405  3.4859  1.6917
 3812SOL    HW223070   3.245   3.196   1.622  1.2032 -1.0316 -0.2625
 3813SOL     OW23071   0.848   3.442   3.759  0.0259 -0.1603 -0.0837
 3813SOL    HW123072   0.764   3.482   3.780  0.9200 -0.1225  3.5709
 3813SOL    HW223073   0.889   3.522   3.728 -1.3915  0.2548 -0.8819
 3814SOL     OW23074   2.488   2.801   3.570  0.2539 -0.4471  0.1709
 3814SOL    HW123075   2.395   2.822   3.585  0.4621 -1.2950  2.7326
 3814SOL    HW223076   2.528   2.848   3.644  0.8020  1.1777 -1.1549
 3815SOL     OW23077   3.696   2.220   5.146  0.2225 -0.2390 -0.7536
 3815SOL    HW123078   3.634   2.291   5.128  1.1803  1.0108  0.8510
 3815SOL    HW223079   3.744   2.249   5.223 -0.6050  0.4217 -0.4879
 3816SOL     OW23080   2.014   0.427   2.018  0.2908  0.1383 -0.4137
 3816SOL    HW123081   2.095   0.400   1.975 -0.8668  1.9042 -3.6487
 3816SOL    HW223082   1.963   0.450   1.940 -1.6276 -1.5042  0.3430
 3817SOL     OW23083   4.094   3.419   8.957  0.1745 -0.2661  0.1873
 3817SOL    HW123084   4.032   3.467   8.902  0.3995 -1.3274 -1.0034
 3817SOL    HW223085   4.175   3.470   8.961  0.5741 -1.0285  1.8547
 3818SOL     OW23086   1.548   1.614   2.433  0.5261  0.0730  0.6993
 3818SOL    HW123087   1.530   1.585   2.344 -1.1131  0.2346  0.9811
 3818SOL    HW223088   1.458   1.626   2.464  1.1656 -0.1626  2.6487
 3819SOL     OW23089   4.242   0.792   6.901 -0.2365  0.3767 -0.0030
 3819SOL    HW123090   4.224   0.759   6.813 -0.8629 -0.8109  0.5827
 3819SOL    HW223091   4.337   0.781   6.900 -0.4565 -1.5140  1.0443
 3820SOL     OW23092   2.490   4.527   7.507  0.3176  0.0122  0.5864
 3820SOL    HW123093   2.569   4.552   7.554  2.6989 -2.0842 -2.2716
 3820SOL    HW223094   2.528   4.500   7.423 -1.4911  2.5419 -1.0556
 3821SOL     OW23095   0.344   4.256   5.111  0.1136 -0.1472  0.3825
 3821SOL    HW123096   0.299   4.178   5.080 -0.6096  0.7544 -0.8460
 3821SOL    HW223097   0.396   4.230   5.187  1.1338  1.1513  0.1220
 3822SOL     OW23098   0.400   4.524   4.991  0.5335  0.0765  0.5604
 3822SOL    HW123099   0.494   4.529   5.003  0.8351 -2.1304 -0.7619
 3822SOL    HW223100   0.380   4.430   4.992  0.3386  0.1215  0.9754
 3823SOL     OW23101   0.620   2.979   4.477 -0.3890 -0.1412 -0.5796
 3823SOL    HW123102   0.688   2.979   4.410  0.2248 -0.2186  0.0421
 3823SOL    HW223103   0.554   2.928   4.431  0.7680 -1.4928 -0.7222
 3824SOL     OW23104   2.913   3.940  17.363 -1.1262  0.7306  0.3811
 3824SOL    HW123105   2.855   3.864  17.372 -0.5050  0.3666  1.2670
 3824SOL    HW223106   2.901   3.949  17.268 -2.3566  1.0749  0.5678
 3825SOL     OW23107   0.314   3.869   4.358  0.2584  0.8499 -0.1789
 3825SOL    HW123108   0.344   3.907   4.276  0.2256 -1.7784 -1.4186
 3825SOL    HW223109   0.376   3.797   4.349 -0.1349  0.4333  0.4316
 3826SOL     OW23110   2.298   4.116  14.124  0.6933 -0.1905  0.3679
 3826SOL    HW123111   2.261   4.042  14.172 -1.1412 -1.1135 -2.4848
 3826SOL    HW223112   2.293   4.075  14.038  1.6981  1.5860 -0.5357
 3827SOL     OW23113   2.701   1.317   4.747 -0.7786  0.3384  0.6010
 3827SOL    HW123114   2.698   1.389   4.683  0.1843 -0.3598 -0.2311
 3827SOL    HW223115   2.753   1.363   4.813  1.5164 -0.3754 -0.6798
 3828SOL     OW23116   2.972   4.450   1.886  0.6704  0.1823 -0.2231
 3828SOL    HW123117   2.948   4.374   1.833 -0.2804  1.0041 -0.9709
 3828SOL    HW223118   3.038   4.403   1.938  0.8351  2.4869  1.6357
 3829SOL     OW23119   0.722   4.368   5.809  0.2302  0.4493  0.0758
 3829SOL    HW123120   0.798   4.426   5.817 -0.7640  1.7132  0.3807
 3829SOL    HW223121   0.738   4.303   5.878 -1.6396 -0.1010 -0.0301
 3830SOL     OW23122   4.435   0.765   2.679 -0.2648  0.4498  0.0224
 3830SOL    HW123123   4.383   0.815   2.615 -0.2740  1.7016  0.9917
 3830SOL    HW223124   4.432   0.677   2.642  1.8741  0.7621 -0.8944
 3831SOL     OW23125   1.126   0.419   2.843  0.2952  0.1863 -0.3522
 3831SOL    HW123126   1.041   0.375   2.843 -0.7799  2.2820 -1.1533
 3831SOL    HW223127   1.130   0.455   2.932 -1.3505 -2.7485  0.9096
 3832SOL     OW23128   0.875   1.167  17.328  0.0246  0.4803 -0.1157
 3832SOL    HW123129   0.802   1.228  17.338  0.2343  1.1539 -2.5795
 3832SOL    HW223130   0.947   1.229  17.340  0.1500  0.1763  0.7039
 3833SOL     OW23131   2.809   0.637   4.872  0.2827 -0.4351  0.2911
 3833SOL    HW123132   2.725   0.592   4.862 -0.1699  0.3939  0.3117
 3833SOL    HW223133   2.817   0.674   4.784 -0.7344  0.5640  0.6056
 3834SOL     OW23134   1.593   1.577  11.398  0.0024 -0.1483 -0.1522
 3834SOL    HW123135   1.580   1.508  11.463 -3.1472  1.0984  0.5015
 3834SOL    HW223136   1.555   1.552  11.314  0.3796 -2.0716  0.2412
 3835SOL     OW23137   4.158   4.594   9.038 -0.3690  0.3617  0.7742
 3835SOL    HW123138   4.113   4.514   9.012  1.2287 -0.9830  2.2047
 3835SOL    HW223139   4.083   4.653   9.050  0.5989  2.2407 -2.3819
 3836SOL     OW23140   4.063   3.179   8.464 -0.2410  0.1193  0.3669
 3836SOL    HW123141   3.989   3.190   8.523 -1.0135  2.2145 -0.9901
 3836SOL    HW223142   4.054   3.088   8.438  1.4695  0.0131  0.1440
 3837SOL     OW23143   2.709   1.973   3.406 -0.0619 -0.0139 -0.2526
 3837SOL    HW123144   2.651   1.979   3.331  0.3613 -0.4283 -0.6185
 3837SOL    HW223145   2.664   1.911   3.463  0.6169 -0.8455 -0.6181
 3838SOL     OW23146   3.835   3.449   1.615  0.3816 -0.1898 -0.3746
 3838SOL    HW123147   3.802   3.480   1.699 -0.3567  1.7838 -1.4022
 3838SOL    HW223148   3.777   3.375   1.600 -0.4050  0.1734  0.8808
 3839SOL     OW23149   4.425   4.001  12.851  0.3643  0.1108 -0.0106
 3839SOL    HW123150   4.418   3.992  12.946 -1.5026  0.9543 -0.0574
 3839SOL    HW223151   4.333   3.989  12.828  0.6777 -2.0443 -0.1171
 3840SOL     OW23152   0.134   4.630  16.123 -0.2137  0.5010  0.5167
 3840SOL    HW123153   0.064   4.565  16.115  0.8506 -0.7642  1.4104
 3840SOL    HW223154   0.088   4.704  16.083 -1.2976 -1.5557 -2.0597
 3841SOL     OW23155   3.976   0.021   8.521 -0.3300 -0.4085  0.2368
 3841SOL    HW123156   4.004   0.096   8.574 -1.2060 -0.2255  0.4479
 3841SOL    HW223157   3.896   4.732   8.566  1.3625 -0.6609  3.0901
 3842SOL     OW23158   1.821   4.644   3.572 -0.1741  0.3505  0.0409
 3842SOL    HW123159   1.900   4.608   3.533 -1.1736 -2.1473  0.3757
 3842SOL    HW223160   1.771   4.676   3.496  2.0346 -1.7404 -2.2820
 3843SOL     OW23161   4.511   3.815  15.961  0.1461  0.0886 -0.0304
 3843SOL    HW123162   4.598   3.817  16.001 -0.3788  0.5263  1.0882
 3843SOL    HW223163   4.510   3.720  15.963  1.3632  0.1342  2.9856
 3844SOL     OW23164   0.542   4.199   7.898  0.2901  0.1839  0.2419
 3844SOL    HW123165   0.576   4.147   7.971  0.4414  0.4881  0.3917
 3844SOL    HW223166   0.624   4.216   7.852 -0.0214  1.5594  0.1902
 3845SOL     OW23167   2.447   0.929   6.418 -0.0655 -1.0009  0.3727
 3845SOL    HW123168   2.381   0.988   6.454  0.9079  0.8662 -0.9485
 3845SOL    HW223169   2.423   0.932   6.326  1.3776 -0.8580  0.0078
 3846SOL     OW23170   4.676   4.089  13.043  0.0387 -0.2277  0.1323
 3846SOL    HW123171   4.600   4.145  13.028  1.2238  1.2103 -0.5002
 3846SOL    HW223172   0.013   4.140  13.009  0.8022 -1.3570  0.1160
 3847SOL     OW23173   1.051   4.502   5.395 -0.2866  0.4814 -0.1192
 3847SOL    HW123174   1.046   4.586   5.350  1.0925  1.5200  1.6252
 3847SOL    HW223175   1.117   4.519   5.463 -0.8513  0.4687  0.4329
 3848SOL     OW23176   3.878   2.544   2.977 -0.1798 -0.2956 -0.0786
 3848SOL    HW123177   3.875   2.589   2.892  1.5493  1.9930  1.0568
 3848SOL    HW223178   3.842   2.610   3.036  0.8230 -0.5159  0.7704
 3849SOL     OW23179   0.279   1.361   3.508 -0.7504 -0.2864 -0.2103
 3849SOL    HW123180   0.239   1.441   3.474 -0.2945  0.1726  0.3443
 3849SOL    HW223181   0.318   1.387   3.591  2.4439 -1.1828 -1.4178
 3850SOL     OW23182   1.714   2.801   7.348 -0.3891  0.7464  0.0209
 3850SOL    HW123183   1.668   2.875   7.388  1.5530  1.2469  1.3811
 3850SOL    HW223184   1.687   2.733   7.410 -1.3070  0.3477 -0.8170
 3851SOL     OW23185   3.055   4.613  16.019  0.5045 -0.6884  0.1677
 3851SOL    HW123186   2.964   4.604  16.047  0.2926  2.8793  0.7237
 3851SOL    HW223187   3.094   4.644  16.100  1.1295 -2.0774  0.3970
 3852SOL     OW23188   2.934   4.085   3.872 -0.2857 -0.5046  0.4548
 3852SOL    HW123189   2.895   4.130   3.947 -1.0931 -0.0707 -0.2256
 3852SOL    HW223190   2.988   4.016   3.910  0.3306 -1.6886 -2.5405
 3853SOL     OW23191   3.721   1.773  15.859 -0.0563 -1.0251 -0.3498
 3853SOL    HW123192   3.758   1.855  15.827 -0.5837 -1.7126 -2.7761
 3853SOL    HW223193   3.639   1.778  15.810  0.8293  0.0504 -1.7536
 3854SOL     OW23194   0.193   4.348   8.152  0.0412  0.6877 -0.2497
 3854SOL    HW123195   0.145   4.427   8.175 -0.7894  0.0743  0.1012
 3854SOL    HW223196   0.245   4.326   8.230 -0.6870  0.3957  0.1464
 3855SOL     OW23197   1.281   1.950   2.414  0.3705 -0.5963  0.7062
 3855SOL    HW123198   1.352   1.964   2.351  0.1802 -1.6685  0.2633
 3855SOL    HW223199   1.220   1.884   2.383 -1.0467  1.2559 -0.4636
 3856SOL     OW23200   3.149   1.479   3.316  0.0167 -0.0853 -0.5329
 3856SOL    HW123201   3.096   1.513   3.243  1.8385  0.4025 -1.6393
 3856SOL    HW223202   3.197   1.557   3.342  0.8167 -1.2035  1.3415
 3857SOL     OW23203   1.560   0.925   6.955  0.9436 -0.1636  0.3529
 3857SOL    HW123204   1.623   0.985   6.916 -1.4872  0.6238 -2.3439
 3857SOL    HW223205   1.590   0.905   7.044 -2.3217 -0.0998  1.4788
 3858SOL     OW23206   1.189   1.251   6.023  0.5867 -0.0891 -0.0389
 3858SOL    HW123207   1.280   1.256   6.053 -0.0075  0.5415  1.6511
 3858SOL    HW223208   1.205   1.247   5.929 -2.2637 -1.5196 -0.4658
 3859SOL     OW23209   2.812   4.453   7.995 -0.7145 -0.4217 -0.5026
 3859SOL    HW123210   2.882   4.519   7.989  0.7205 -2.0005 -1.0292
 3859SOL    HW223211   2.740   4.515   7.983  0.7783  1.4179  0.0028
 3860SOL     OW23212   1.362   1.587  14.995  0.0372 -0.0599  0.1724
 3860SOL    HW123213   1.332   1.534  14.921 -0.9483  1.6958 -0.6642
 3860SOL    HW223214   1.318   1.545  15.069 -3.7634  2.5773 -0.6254
 3861SOL     OW23215   0.320   0.554  15.534  0.2081  0.1670  0.0589
 3861SOL    HW123216   0.318   0.606  15.614 -3.1960 -1.5385  1.0631
 3861SOL    HW223217   0.353   0.469  15.563 -0.3007 -0.2782 -0.6627
 3862SOL     OW23218   3.848   2.096   7.280 -0.7563  0.3883  0.2433
 3862SOL    HW123219   3.765   2.119   7.322 -0.5768  0.9284  0.3059
 3862SOL    HW223220   3.900   2.127   7.355 -1.2686  0.7122  0.4634
 3863SOL     OW23221   4.126   2.001  13.088 -0.6507 -0.9778 -0.6730
 3863SOL    HW123222   4.041   1.964  13.113 -1.1439  0.5506 -0.1055
 3863SOL    HW223223   4.143   2.065  13.158  2.1040 -2.8236  0.3457
 3864SOL     OW23224   4.504   4.076  14.561 -0.2332  0.0922  0.2084
 3864SOL    HW123225   4.415   4.047  14.582  0.4044 -1.9503  0.0559
 3864SOL    HW223226   4.548   3.996  14.535 -0.3586  0.7971 -2.1274
 3865SOL     OW23227   0.797   3.322   6.553  0.6203  0.3140  0.3479
 3865SOL    HW123228   0.702   3.335   6.563  0.1452 -2.1182 -1.1384
 3865SOL    HW223229   0.824   3.290   6.638  3.0670  3.7037  0.8479
 3866SOL     OW23230   1.147   3.911   3.966 -0.2535 -0.8172 -0.1692
 3866SOL    HW123231   1.150   3.904   3.870  1.5138 -1.2571 -0.0795
 3866SOL    HW223232   1.064   3.953   3.990 -0.9260 -2.4383  0.3038
 3867SOL     OW23233   0.118   2.879   3.553 -0.2058 -0.4435 -0.2492
 3867SOL    HW123234   0.134   2.785   3.568  0.3317 -0.0357  1.7219
 3867SOL    HW223235   0.024   2.885   3.566 -0.3689  0.3758 -1.8567
 3868SOL     OW23236   1.114   4.265   3.687 -0.1064 -0.2425  0.6528
 3868SOL    HW123237   1.147   4.349   3.718 -0.7385  0.4105 -0.4337
 3868SOL    HW223238   1.033   4.248   3.735 -0.1630  1.0551  1.0229
 3869SOL     OW23239   1.215   3.428   3.941 -0.4941  0.4738 -0.4479
 3869SOL    HW123240   1.255   3.390   3.863  1.4060  1.7449 -0.0696
 3869SOL    HW223241   1.214   3.356   4.004  2.1780 -0.6900 -1.7169
 3870SOL     OW23242   1.321   1.588  14.093 -0.2344 -0.0527  0.4412
 3870SOL    HW123243   1.305   1.606  14.001  0.1359  0.5315  0.4983
 3870SOL    HW223244   1.244   1.629  14.133  0.1377  1.1596 -0.1157
 3871SOL     OW23245   2.629   1.391   7.965 -0.4850 -0.5440  0.1721
 3871SOL    HW123246   2.641   1.452   7.892  1.1474 -0.6977  0.3172
 3871SOL    HW223247   2.534   1.382   7.969 -0.5423 -0.3131 -0.7232
 3872SOL     OW23248   3.487   3.765  15.615  0.1709 -0.0067 -0.3835
 3872SOL    HW123249   3.399   3.803  15.624 -0.4056 -1.5284  0.3688
 3872SOL    HW223250   3.529   3.832  15.560  1.6673 -1.2303 -0.7209
 3873SOL     OW23251   2.499   0.167   2.851  0.2832  0.5177  0.4523
 3873SOL    HW123252   2.493   0.137   2.941  1.3535  0.6559  0.5628
 3873SOL    HW223253   2.410   0.183   2.819  1.4757  2.7227 -1.7778
 3874SOL     OW23254   3.181   1.879   8.953 -0.5784  0.6723  0.0372
 3874SOL    HW123255   3.233   1.832   9.019 -3.1603 -0.9566  0.9320
 3874SOL    HW223256   3.099   1.890   9.002 -0.0669  0.7078  0.8821
 3875SOL     OW23257   1.209   3.611   2.982 -0.4847  0.2906 -0.6386
 3875SOL    HW123258   1.227   3.566   2.899 -2.9735  0.4991 -1.2985
 3875SOL    HW223259   1.225   3.701   2.953  2.5575  0.0983  0.4178
 3876SOL     OW23260   2.664   1.502   4.533  0.7194 -0.3486  0.4279
 3876SOL    HW123261   2.688   1.422   4.485  2.5586  0.1297  0.5461
 3876SOL    HW223262   2.729   1.553   4.485  1.1637 -1.4848 -0.1831
 3877SOL     OW23263   2.819   0.455   8.895 -0.4531 -0.2783 -0.2630
 3877SOL    HW123264   2.838   0.513   8.821  0.8380 -2.8054 -1.8739
 3877SOL    HW223265   2.870   0.380   8.866  2.9828  0.7914  2.9817
 3878SOL     OW23266   1.837   0.748   3.699 -0.1724  0.4263  0.0373
 3878SOL    HW123267   1.906   0.796   3.654 -0.8547 -0.3247 -1.7958
 3878SOL    HW223268   1.866   0.657   3.688 -0.9876 -0.2505  3.3887
 3879SOL     OW23269   0.021   0.798   4.973 -0.2057 -0.0800  0.3634
 3879SOL    HW123270   4.736   0.803   4.880 -0.4067 -1.6593  0.3394
 3879SOL    HW223271   0.078   0.721   4.970  0.4500  0.3757  1.1147
 3880SOL     OW23272   0.653   0.268   4.578 -0.7289 -0.1248 -0.0475
 3880SOL    HW123273   0.566   0.233   4.595 -0.5341 -1.0399 -0.9280
 3880SOL    HW223274   0.624   0.354   4.547  0.5622  0.1541 -0.4570
 3881SOL     OW23275   2.095   1.573   5.842 -0.3762  0.1361  0.3592
 3881SOL    HW123276   2.171   1.557   5.785  0.0731  1.3606  0.6246
 3881SOL    HW223277   2.032   1.509   5.809 -2.0469  1.2773  1.3305
 3882SOL     OW23278   1.970   2.232   6.828 -0.2641 -0.1985 -0.2840
 3882SOL    HW123279   2.052   2.235   6.779 -0.0855 -0.8248 -0.0260
 3882SOL    HW223280   1.951   2.321   6.858  0.2946  0.3269 -1.4873
 3883SOL     OW23281   0.602   2.583   0.719  0.4411  0.1009 -0.4475
 3883SOL    HW123282   0.530   2.645   0.710 -0.0545 -0.3048  0.7537
 3883SOL    HW223283   0.603   2.541   0.633 -0.0619  0.0600 -0.4356
 3884SOL     OW23284   4.711   0.807   7.191  0.1851  0.5501 -0.3697
 3884SOL    HW123285   0.032   0.864   7.140 -0.9864  0.2999 -1.9766
 3884SOL    HW223286   4.629   0.856   7.178 -0.0542 -0.5914 -3.1507
 3885SOL     OW23287   2.621   0.328   5.292  0.2071  0.8414 -0.5190
 3885SOL    HW123288   2.554   0.396   5.291  0.2629  0.8745 -1.5815
 3885SOL    HW223289   2.620   0.291   5.204  0.5828  0.6070 -0.4274
 3886SOL     OW23290   1.484   2.936  12.493  0.0766 -0.2588  0.4080
 3886SOL    HW123291   1.479   3.017  12.544 -0.4542 -0.4677  0.6878
 3886SOL    HW223292   1.523   2.885  12.563  1.2369 -1.4431 -1.0984
 3887SOL     OW23293   4.554   2.532   3.694  0.2929  0.4136 -0.3271
 3887SOL    HW123294   4.513   2.518   3.609 -0.4536 -0.3373  0.1521
 3887SOL    HW223295   4.640   2.561   3.664 -0.4427  1.4510 -1.4286
 3888SOL     OW23296   2.049   4.436  15.471  0.0551 -1.0182 -0.2157
 3888SOL    HW123297   1.984   4.387  15.521  0.1607  1.0495  1.9555
 3888SOL    HW223298   2.095   4.357  15.442  0.8663 -0.7160  0.2402
 3889SOL     OW23299   1.387   0.914  14.607 -0.1164 -0.1933  0.1157
 3889SOL    HW123300   1.446   0.894  14.680  1.7374 -0.8070 -1.5258
 3889SOL    HW223301   1.451   0.914  14.535  1.7021  0.0687  1.7410
 3890SOL     OW23302   1.691   0.718  15.638  0.1866  0.0854 -0.1948
 3890SOL    HW123303   1.673   0.742  15.547  0.8643  1.0682 -0.0660
 3890SOL    HW223304   1.649   0.793  15.681 -1.9668 -1.0177 -0.3604
 3891SOL     OW23305   1.468   1.511  15.990  0.2968  0.3705 -0.7709
 3891SOL    HW123306   1.465   1.606  16.003  3.1192 -0.0694  3.2092
 3891SOL    HW223307   1.552   1.505  15.944  0.6432  1.8905 -0.3379
 3892SOL     OW23308   3.549   2.323  11.048  0.5370  0.7061  0.1606
 3892SOL    HW123309   3.642   2.307  11.066  0.2940 -0.9905 -0.0235
 3892SOL    HW223310   3.511   2.339  11.134  0.4799 -2.3192  0.6962
 3893SOL     OW23311   4.244   2.443   3.672  0.5294  0.0803  0.5471
 3893SOL    HW123312   4.155   2.447   3.635  1.6552  1.7130 -1.9576
 3893SOL    HW223313   4.288   2.488   3.600  2.2390  1.4357  2.4486
 3894SOL     OW23314   2.032   1.929   2.782  0.2994  0.3104  0.4116
 3894SOL    HW123315   1.988   2.013   2.767  0.5892 -0.0223 -2.2189
 3894SOL    HW223316   1.957   1.870   2.784 -0.7138  1.6102  0.7714
 3895SOL     OW23317   1.872   3.205   6.383 -0.0083 -0.0620 -0.0219
 3895SOL    HW123318   1.911   3.290   6.404 -1.2691  0.1214  1.5843
 3895SOL    HW223319   1.913   3.145   6.446  0.0842 -0.9360 -0.9246
 3896SOL     OW23320   3.574   3.365   5.392 -0.0641  0.1432  0.3361
 3896SOL    HW123321   3.552   3.441   5.445 -0.1340  0.8134 -0.6563
 3896SOL    HW223322   3.630   3.402   5.324  0.7942 -0.9298  0.4564
 3897SOL     OW23323   1.802   1.338   1.825  0.0915  0.4928 -0.4486
 3897SOL    HW123324   1.816   1.244   1.831  1.0354  0.7412  1.3612
 3897SOL    HW223325   1.882   1.373   1.785  0.5362  0.1404  0.1256
 3898SOL     OW23326   2.768   2.585   8.317  0.3880 -0.0264 -0.1651
 3898SOL    HW123327   2.808   2.504   8.351 -0.7049 -0.6661 -0.4045
 3898SOL    HW223328   2.683   2.586   8.362  1.0485  1.4128  1.0387
 3899SOL     OW23329   2.450   2.667   7.911 -0.0596 -0.3956  0.4758
 3899SOL    HW123330   2.455   2.589   7.856 -0.5721  0.3924 -0.6929
 3899SOL    HW223331   2.530   2.666   7.963  2.4671 -1.5472 -3.4745
 3900SOL     OW23332   0.281   4.147   2.045  0.0118  0.1019 -0.0768
 3900SOL    HW123333   0.285   4.230   2.092 -0.7426  1.0266 -1.6383
 3900SOL    HW223334   0.263   4.177   1.956 -1.6663 -0.0914  0.2003
 3901SOL     OW23335   0.196   3.759  15.867  0.5710 -0.5157  0.1351
 3901SOL    HW123336   0.172   3.794  15.781 -3.6942 -0.0746  1.5283
 3901SOL    HW223337   0.291   3.767  15.864  0.6733 -1.5716  0.9063
 3902SOL     OW23338   0.067   4.527  16.661  0.1129  0.7722 -0.2558
 3902SOL    HW123339   4.710   4.511  16.667 -0.4297  2.7314 -3.3014
 3902SOL    HW223340   0.093   4.482  16.741 -2.6736  1.0184  0.8061
 3903SOL     OW23341   1.379   1.590   7.868 -0.0291 -0.0859  0.6046
 3903SOL    HW123342   1.474   1.593   7.869  0.0880 -3.2397 -0.6566
 3903SOL    HW223343   1.363   1.681   7.894  1.5689  0.7270 -1.2197
 3904SOL     OW23344   0.558   2.825   2.664 -0.2544  0.0286 -0.0192
 3904SOL    HW123345   0.497   2.784   2.603 -0.9211  0.8867  0.0717
 3904SOL    HW223346   0.510   2.901   2.699 -2.1413 -0.8663 -0.6902
 3905SOL     OW23347   2.401   0.945   6.168 -0.0820 -0.3558  0.4695
 3905SOL    HW123348   2.449   0.867   6.139 -1.6982 -1.2602  0.2532
 3905SOL    HW223349   2.440   1.008   6.107  2.5122 -0.7954  1.6619
 3906SOL     OW23350   2.381   3.322   6.770 -0.5371 -0.1324  0.1339
 3906SOL    HW123351   2.467   3.360   6.753 -0.6233 -0.0833 -0.2021
 3906SOL    HW223352   2.314   3.389   6.753  1.1008  1.4327 -0.1060
 3907SOL     OW23353   1.248   3.680   3.759  0.2579  0.2994  0.3010
 3907SOL    HW123354   1.277   3.603   3.809  1.3629  0.3258 -0.2884
 3907SOL    HW223355   1.157   3.664   3.735  0.3289  0.3620 -0.0003
 3908SOL     OW23356   4.525   4.305   4.941  0.4745 -0.1886 -1.2572
 3908SOL    HW123357   4.571   4.377   4.897 -0.5737  2.3544  1.8076
 3908SOL    HW223358   4.602   4.253   4.966  0.2085 -0.5011 -1.0858
 3909SOL     OW23359   3.602   0.501  12.592  0.4925  0.3880 -0.2902
 3909SOL    HW123360   3.652   0.554  12.529  0.0024  0.8299 -0.3078
 3909SOL    HW223361   3.586   0.427  12.534  0.3478 -0.6843  1.1343
 3910SOL     OW23362   2.802   1.103   6.341  0.0348 -0.4546  0.0528
 3910SOL    HW123363   2.763   1.070   6.422  0.2561  3.6709  1.8047
 3910SOL    HW223364   2.721   1.136   6.302  0.0756 -0.7193 -0.2614
 3911SOL     OW23365   3.051   3.515  15.071  0.5713  0.5821 -0.0287
 3911SOL    HW123366   3.060   3.436  15.017 -2.1888 -0.8392  1.6306
 3911SOL    HW223367   2.978   3.493  15.128  0.3612  3.3574  0.7396
 3912SOL     OW23368   4.330   4.316   6.102  0.5196  0.1431 -0.1860
 3912SOL    HW123369   4.373   4.295   6.019  0.4371 -1.7980  0.2657
 3912SOL    HW223370   4.269   4.243   6.115  0.7540  0.0245  0.2716
 3913SOL     OW23371   3.018   0.996   4.099 -0.5523  0.1543 -0.0267
 3913SOL    HW123372   3.048   1.081   4.132 -0.7344 -0.4359  1.6480
 3913SOL    HW223373   2.924   0.992   4.080 -0.1772 -0.8722 -1.6981
 3914SOL     OW23374   3.238   1.903   4.379  0.0428  0.3082 -0.2012
 3914SOL    HW123375   3.199   1.952   4.452  0.6091  1.5477 -0.7431
 3914SOL    HW223376   3.171   1.907   4.310 -0.6490 -0.2840  0.4276
 3915SOL     OW23377   2.336   3.537  10.977  0.3759 -0.1310 -0.9462
 3915SOL    HW123378   2.397   3.472  11.012  0.2315  0.0977 -0.2824
 3915SOL    HW223379   2.390   3.612  10.953 -0.8067  0.4490 -1.7812
 3916SOL     OW23380   4.212   1.147  16.077  0.7190  0.7597 -0.7741
 3916SOL    HW123381   4.226   1.234  16.115 -0.3571  1.5091 -2.1027
 3916SOL    HW223382   4.213   1.172  15.985 -0.8567  5.2373  0.4451
 3917SOL     OW23383   1.191   2.176   2.821  0.0274 -0.3913  0.4802
 3917SOL    HW123384   1.223   2.194   2.732  0.3811  0.6692  0.8267
 3917SOL    HW223385   1.218   2.251   2.873  1.1077  0.9912 -2.0369
 3918SOL     OW23386   0.497   3.664   2.013  0.1990 -0.0513  0.1155
 3918SOL    HW123387   0.458   3.635   2.095 -1.1841 -1.8797 -1.1720
 3918SOL    HW223388   0.490   3.759   2.019  1.1841 -0.0451  1.0448
 3919SOL     OW23389   3.391   0.308   8.484  0.3329 -0.3968 -0.2314
 3919SOL    HW123390   3.438   0.392   8.480  1.9224 -1.3562 -1.8098
 3919SOL    HW223391   3.334   0.321   8.559 -0.3604  1.0268 -1.0002
 3920SOL     OW23392   3.123   3.880   2.281  0.7453 -0.2068 -0.5238
 3920SOL    HW123393   3.181   3.859   2.354  1.3263  0.1315 -0.8926
 3920SOL    HW223394   3.050   3.923   2.327  1.3538 -1.6494  1.7992
 3921SOL     OW23395   4.700   3.301   7.699  0.1110 -0.0397  0.1871
 3921SOL    HW123396   0.017   3.231   7.661  0.8702  0.2523  0.7318
 3921SOL    HW223397   0.030   3.355   7.740 -1.8153  2.8467 -0.5123
 3922SOL     OW23398   3.107   3.021   6.649  0.3921 -0.8411 -0.3279
 3922SOL    HW123399   3.153   3.063   6.576  0.6388 -0.3306  0.1274
 3922SOL    HW223400   3.075   3.095   6.700  0.6698 -0.9422 -0.0087
 3923SOL     OW23401   3.957   4.498   6.359  0.7041 -0.0027  0.1507
 3923SOL    HW123402   4.027   4.561   6.342  0.2431  0.7412  1.0574
 3923SOL    HW223403   3.989   4.420   6.313 -0.6780 -0.6618  0.2975
 3924SOL     OW23404   0.510   1.210   8.253  0.4541  0.0474 -0.3468
 3924SOL    HW123405   0.427   1.230   8.208  0.5725 -2.0801 -1.5239
 3924SOL    HW223406   0.482   1.125   8.286 -0.4925  0.2599 -0.6030
 3925SOL     OW23407   4.142   4.721   7.730 -0.2893  0.1345 -0.1533
 3925SOL    HW123408   4.067   4.669   7.702  3.2608 -3.9957 -1.9330
 3925SOL    HW223409   4.203   4.679   7.669 -0.1209  0.5672 -0.2826
 3926SOL     OW23410   3.905   1.893   3.262 -0.5353 -0.3552 -0.6159
 3926SOL    HW123411   3.905   1.805   3.299  0.9398  0.2376  0.7934
 3926SOL    HW223412   3.819   1.913   3.225  0.2241  3.0467 -0.5546
 3927SOL     OW23413   3.709   0.813   4.434 -0.1475  0.4920  0.0068
 3927SOL    HW123414   3.748   0.738   4.478  1.3554  0.7769 -0.8392
 3927SOL    HW223415   3.786   0.843   4.385  0.2143  1.8360  1.3820
 3928SOL     OW23416   3.832   0.720  13.387  0.2199 -0.2629 -0.7818
 3928SOL    HW123417   3.881   0.799  13.366 -0.2362  0.5417  1.1788
 3928SOL    HW223418   3.893   0.646  13.388  0.7494  0.1796  0.0431
 3929SOL     OW23419   3.530   2.668   8.013  0.2754 -0.2656  0.1330
 3929SOL    HW123420   3.519   2.711   8.098  0.0124 -3.8850  1.9370
 3929SOL    HW223421   3.463   2.706   7.956 -0.9396  0.2471  1.9090
 3930SOL     OW23422   3.884   4.128   2.102 -0.0733  0.2209 -0.2869
 3930SOL    HW123423   3.975   4.124   2.071  0.1452  3.1455 -0.0468
 3930SOL    HW223424   3.835   4.151   2.024 -0.0910 -2.9474 -1.1946
 3931SOL     OW23425   3.962   2.048  10.495 -0.0941  0.2868 -0.7427
 3931SOL    HW123426   3.918   1.974  10.452  1.0580 -0.4359 -0.6654
 3931SOL    HW223427   3.978   2.102  10.418 -0.5609  0.5802 -0.6329
 3932SOL     OW23428   2.119   1.770   4.320 -0.6131 -0.0374 -0.0472
 3932SOL    HW123429   2.127   1.726   4.405  0.1048  0.6684  0.2476
 3932SOL    HW223430   2.058   1.714   4.272  0.5278 -1.4070  0.0764
 3933SOL     OW23431   3.531   3.443  10.212 -0.0675  0.2989  0.0144
 3933SOL    HW123432   3.616   3.406  10.233 -0.7976 -1.3521  0.0532
 3933SOL    HW223433   3.488   3.447  10.297  1.1982  0.1036  0.6648
 3934SOL     OW23434   4.467   2.997   5.337  0.2492  0.3606 -0.2832
 3934SOL    HW123435   4.544   3.051   5.353  0.7079  0.2551 -2.2062
 3934SOL    HW223436   4.393   3.052   5.312 -0.3121 -1.0393 -1.6558
 3935SOL     OW23437   0.084   1.115  11.593  0.1923  0.1138  0.3239
 3935SOL    HW123438   0.048   1.137  11.679 -0.2246 -2.2177  0.7512
 3935SOL    HW223439   0.103   1.198  11.550 -3.3753  0.6490 -0.1700
 3936SOL     OW23440   3.082   4.265   7.902  0.0031  0.0837 -0.7057
 3936SOL    HW123441   3.046   4.351   7.923 -2.6461 -1.5194  1.4794
 3936SOL    HW223442   3.171   4.296   7.887 -0.4554  2.0670  0.6725
 3937SOL     OW23443   1.194   1.131  14.598 -0.3085  0.2527  0.0399
 3937SOL    HW123444   1.252   1.055  14.598 -0.6945 -0.0486 -1.5846
 3937SOL    HW223445   1.195   1.166  14.508  1.0221 -0.5652 -0.2660
 3938SOL     OW23446   1.684   1.064   7.198  0.1839  0.0670  0.0704
 3938SOL    HW123447   1.603   1.059   7.249  0.1856  0.2847  0.0962
 3938SOL    HW223448   1.729   0.985   7.227  1.4988  0.7623 -0.0694
 3939SOL     OW23449   1.817   2.352   9.448 -0.0009  0.3350  0.1664
 3939SOL    HW123450   1.825   2.257   9.454  1.0217  0.5291  1.8179
 3939SOL    HW223451   1.722   2.364   9.452 -0.6151 -3.3767 -2.9258
 3940SOL     OW23452   1.222   0.301   1.655 -0.5469  0.2556 -0.0295
 3940SOL    HW123453   1.190   0.377   1.705  1.1251  0.7043  0.3444
 3940SOL    HW223454   1.316   0.295   1.673 -0.5726  0.9819  0.3264
 3941SOL     OW23455   3.211   1.013   7.121  0.0526  0.3527  0.1914
 3941SOL    HW123456   3.251   1.100   7.118  0.8273  0.0287  0.9017
 3941SOL    HW223457   3.121   1.039   7.140  0.2004  0.6066  0.5612
 3942SOL     OW23458   0.911   2.778  15.598  0.0187  0.0775  0.1513
 3942SOL    HW123459   0.873   2.773  15.510 -0.1254  0.0463  0.2165
 3942SOL    HW223460   0.935   2.870  15.615 -1.0516 -0.3563  3.9412
 3943SOL     OW23461   0.004   3.506   6.045  0.5929 -0.1161  0.7909
 3943SOL    HW123462   0.024   3.579   5.986  2.2414  0.0920  1.5949
 3943SOL    HW223463   0.078   3.447   6.028  0.3944 -0.3436  0.7284
 3944SOL     OW23464   0.515   1.189   0.063  0.1131 -0.4293 -0.1404
 3944SOL    HW123465   0.592   1.230   0.102 -2.8051  2.9321  2.0976
 3944SOL    HW223466   0.447   1.236   0.111 -0.4207 -1.8147  0.4569
 3945SOL     OW23467   2.657   1.005   6.021 -0.0545  0.0090 -0.3012
 3945SOL    HW123468   2.722   0.962   5.965  0.6881 -1.2651  1.5032
 3945SOL    HW223469   2.709   1.081   6.046  2.9268 -2.4507  1.0207
 3946SOL     OW23470   2.820   2.598   2.539 -0.0415  0.4480  0.1218
 3946SOL    HW123471   2.784   2.588   2.628 -0.0750  0.8897  0.1570
 3946SOL    HW223472   2.882   2.525   2.543 -0.2124  0.2228 -1.3234
 3947SOL     OW23473   4.549   2.174   4.256 -0.3203 -0.0132 -0.6133
 3947SOL    HW123474   4.632   2.218   4.270 -0.9711  0.8253  0.5897
 3947SOL    HW223475   4.574   2.093   4.211  2.3206  0.1137  0.6267
 3948SOL     OW23476   4.303   2.131   1.022  0.0527  0.2250  0.4889
 3948SOL    HW123477   4.382   2.114   1.073 -0.6160 -0.7428  1.2125
 3948SOL    HW223478   4.309   2.223   0.999 -1.7448  0.3315  0.4579
 3949SOL     OW23479   3.664   4.263   9.786  0.3512 -0.1888  0.2926
 3949SOL    HW123480   3.689   4.319   9.859  0.8678  0.5000 -0.4028
 3949SOL    HW223481   3.611   4.195   9.827  1.5538 -0.7237  0.9619
 3950SOL     OW23482   4.639   3.966   6.516  0.2312  0.1363  0.1901
 3950SOL    HW123483   4.572   4.029   6.490  1.2451 -0.1399 -3.1032
 3950SOL    HW223484   4.686   3.958   6.433  1.8249 -0.4347  1.1408
 3951SOL     OW23485   3.316   2.291  11.758 -0.1216  0.1427 -0.2679
 3951SOL    HW123486   3.322   2.197  11.777 -1.2292  0.0391 -0.3963
 3951SOL    HW223487   3.297   2.301  11.665  1.1890 -1.5334 -0.7175
 3952SOL     OW23488   4.192   4.427   5.788 -0.0941 -0.5958  0.1419
 3952SOL    HW123489   4.136   4.361   5.829 -0.1077  0.2273  1.4544
 3952SOL    HW223490   4.135   4.504   5.787 -0.6585 -1.0359 -1.6460
 3953SOL     OW23491   1.372   0.697   8.466  0.0761 -0.1065  0.2053
 3953SOL    HW123492   1.392   0.603   8.468  1.4843  0.1810 -0.4596
 3953SOL    HW223493   1.349   0.709   8.374 -1.4510 -1.8956  0.3594
 3954SOL     OW23494   1.977   1.388   5.108  0.0776 -0.1897 -0.4876
 3954SOL    HW123495   2.002   1.302   5.075  2.4376  0.5225 -0.5600
 3954SOL    HW223496   1.883   1.373   5.121  0.0192  0.9985  0.5299
 3955SOL     OW23497   2.187   0.053  12.431  0.1173  0.3331  0.2599
 3955SOL    HW123498   2.109   0.102  12.456 -0.7792 -3.3052  4.4868
 3955SOL    HW223499   2.228   0.112  12.367  0.9166 -0.3647  0.1335
 3956SOL     OW23500   4.550   4.023  12.586  0.0721  0.0957  0.4817
 3956SOL    HW123501   4.510   3.993  12.668 -2.2930  1.0725 -0.3111
 3956SOL    HW223502   4.478   4.079  12.556  0.7906  0.9347  0.3194
 3957SOL     OW23503   4.409   3.343  13.272 -0.3288 -0.4101  0.7132
 3957SOL    HW123504   4.411   3.251  13.245 -0.1691  0.1349 -1.0981
 3957SOL    HW223505   4.320   3.359  13.302 -1.2874 -1.5322 -1.5334
 3958SOL     OW23506   0.950   2.352  17.507  0.4948 -0.2346 -0.0516
 3958SOL    HW123507   0.930   2.425  17.448 -1.0505  0.1165  0.9138
 3958SOL    HW223508   0.884   2.356  17.576  0.0122 -0.7420 -0.4770
 3959SOL     OW23509   1.310   2.431   7.244 -0.0913  0.1769  0.5002
 3959SOL    HW123510   1.405   2.424   7.244  0.0172  1.4201 -0.6900
 3959SOL    HW223511   1.289   2.485   7.167  2.5078 -1.6587 -1.4901
 3960SOL     OW23512   3.911   3.047   8.761 -0.1453 -0.3042 -0.2579
 3960SOL    HW123513   3.872   3.119   8.712 -1.1324 -0.3609  0.4392
 3960SOL    HW223514   3.995   3.079   8.793 -1.5114  0.5598  2.4618
 3961SOL     OW23515   3.230   2.618   9.023  0.6624 -0.8430  0.1972
 3961SOL    HW123516   3.200   2.690   9.079  0.1096 -1.0223  0.1262
 3961SOL    HW223517   3.285   2.658   8.955 -1.9221 -4.2955 -3.9164
 3962SOL     OW23518   1.394   0.779   3.573  0.3076  0.0878  0.0537
 3962SOL    HW123519   1.304   0.769   3.606  0.5382  0.6637  0.8639
 3962SOL    HW223520   1.447   0.775   3.653  2.1527  2.4121 -1.0686
 3963SOL     OW23521   2.347   3.537   2.604 -0.4382  0.2437  0.3964
 3963SOL    HW123522   2.401   3.540   2.683 -0.6807 -0.9639  0.6099
 3963SOL    HW223523   2.262   3.526   2.645 -1.9510  2.6693 -2.0552
 3964SOL     OW23524   3.544   1.620  12.588 -0.1015 -0.0298 -0.1168
 3964SOL    HW123525   3.482   1.548  12.574  0.3937 -0.1179 -1.8012
 3964SOL    HW223526   3.590   1.616  12.504  0.1637 -0.3890  0.0457
 3965SOL     OW23527   0.087   1.987   5.888  0.8168  0.1059 -0.0483
 3965SOL    HW123528   0.032   2.058   5.923 -1.5406 -0.9765 -1.5574
 3965SOL    HW223529   0.164   2.006   5.941  0.1785 -1.3780  1.4123
 3966SOL     OW23530   2.417   0.218   2.543  0.0936  0.0154 -0.2547
 3966SOL    HW123531   2.494   0.201   2.598 -0.7447 -0.0536  0.8885
 3966SOL    HW223532   2.459   0.213   2.457 -2.5316  1.0137 -1.5994
 3967SOL     OW23533   0.629   1.695   4.200 -0.3213  0.2875  0.3018
 3967SOL    HW123534   0.643   1.707   4.294  1.7840 -1.1507  0.1787
 3967SOL    HW223535   0.534   1.711   4.196 -0.6009 -1.9631 -1.9739
 3968SOL     OW23536   0.130   2.057   0.700 -0.1878  0.0097 -0.9461
 3968SOL    HW123537   0.112   1.985   0.639  1.7268 -0.5516 -0.8568
 3968SOL    HW223538   0.044   2.080   0.734  0.1003 -2.0841  1.2118
 3969SOL     OW23539   0.472   1.163   6.138 -0.4784 -0.1169 -0.3321
 3969SOL    HW123540   0.480   1.192   6.229  1.3362  4.0729 -1.7887
 3969SOL    HW223541   0.496   1.071   6.146 -0.1685 -0.0945 -1.0405
 3970SOL     OW23542   0.007   2.403   5.403  0.2102 -0.1424 -0.6510
 3970SOL    HW123543   4.658   2.391   5.363 -0.0688  1.5059 -0.5633
 3970SOL    HW223544   4.736   2.394   5.498  3.3957  0.3318 -0.3493
 3971SOL     OW23545   4.411   0.940   2.044 -0.3759 -0.3608  0.1802
 3971SOL    HW123546   4.430   0.846   2.042  1.2767 -0.0064 -0.8769
 3971SOL    HW223547   4.361   0.946   1.963  0.9258 -3.7652 -0.8818
 3972SOL     OW23548   2.211   2.745   4.214  0.2359 -0.3135  0.2201
 3972SOL    HW123549   2.183   2.827   4.173  0.9417 -0.2955 -0.2279
 3972SOL    HW223550   2.122   2.721   4.242 -0.0433  1.4537  0.8961
 3973SOL     OW23551   2.637   4.157   7.262  0.0067 -0.1056 -0.2974
 3973SOL    HW123552   2.713   4.152   7.320 -0.4813  2.8754  0.5656
 3973SOL    HW223553   2.562   4.138   7.318  1.3159  0.1859  1.5607
 3974SOL     OW23554   4.454   2.662   5.298 -0.0832 -0.3058 -0.3673
 3974SOL    HW123555   4.458   2.588   5.359 -0.0027 -0.2566 -0.3135
 3974SOL    HW223556   4.526   2.717   5.328  0.4675 -0.9560 -0.5053
 3975SOL     OW23557   1.923   0.212  17.350  0.2644 -0.1538  0.2862
 3975SOL    HW123558   1.855   0.148  17.371  0.4476  0.2383  2.0566
 3975SOL    HW223559   1.880   0.297  17.337  1.1215  0.3722  0.9155
 3976SOL     OW23560   3.286   2.861   8.283  0.3231 -0.5153  0.1876
 3976SOL    HW123561   3.249   2.888   8.200  1.1022  0.1629  0.0687
 3976SOL    HW223562   3.376   2.855   8.253  0.1691 -0.9260 -0.2013
 3977SOL     OW23563   0.624   4.554   8.140 -0.1735  0.4674 -0.4859
 3977SOL    HW123564   0.717   4.538   8.157 -0.2643  0.8866  0.3986
 3977SOL    HW223565   0.622   4.550   8.044 -2.8078 -0.0836 -0.3870
 3978SOL     OW23566   2.589   2.761   6.669 -0.0703 -0.1046  0.2292
 3978SOL    HW123567   2.512   2.798   6.626  1.2605  1.7130 -0.6187
 3978SOL    HW223568   2.609   2.706   6.594 -0.1798 -0.6116  0.5715
 3979SOL     OW23569   4.189   1.881   9.973 -0.3090  0.0950  0.0050
 3979SOL    HW123570   4.162   1.832  10.050 -1.9728 -0.2344 -0.7929
 3979SOL    HW223571   4.285   1.877   9.977 -0.3204  0.9777  1.2175
 3980SOL     OW23572   2.612   1.647  15.292 -0.1333 -0.0713  0.2550
 3980SOL    HW123573   2.614   1.732  15.335 -0.4830 -0.7009  1.4956
 3980SOL    HW223574   2.627   1.676  15.202 -0.7054  1.9873  0.8150
 3981SOL     OW23575   0.044   4.396  15.460  0.4140 -0.0137  0.1370
 3981SOL    HW123576   0.011   4.322  15.511 -0.0499  0.6541  0.8121
 3981SOL    HW223577   4.716   4.412  15.392  1.1214  1.0099 -0.3008
 3982SOL     OW23578   4.072   3.483   9.876  0.3068  0.3403 -0.1744
 3982SOL    HW123579   4.058   3.439   9.960  3.4105  1.4348  0.9049
 3982SOL    HW223580   3.984   3.516   9.856 -0.3408 -1.3455 -0.0987
 3983SOL     OW23581   1.417   0.590   3.354  1.0757 -0.2540  0.4321
 3983SOL    HW123582   1.512   0.578   3.343  1.1011  1.8891 -1.4910
 3983SOL    HW223583   1.412   0.617   3.446 -2.3304  0.3661  0.0415
 3984SOL     OW23584   3.268   3.852   4.205  0.2226 -0.1734 -0.1677
 3984SOL    HW123585   3.220   3.926   4.244  0.5390 -0.5626  0.9752
 3984SOL    HW223586   3.294   3.885   4.119  2.6026 -1.3816  0.0817
 3985SOL     OW23587   3.311   3.405   3.986  0.2272  0.5052  0.6238
 3985SOL    HW123588   3.360   3.402   4.068  2.5052  2.2417 -0.6731
 3985SOL    HW223589   3.273   3.317   3.992 -1.8654  1.3180 -0.4202
 3986SOL     OW23590   1.836   0.927   0.982 -0.2596 -0.5503  0.1180
 3986SOL    HW123591   1.822   0.851   0.924  0.3252 -1.5464  1.2656
 3986SOL    HW223592   1.930   0.929   1.002  0.6492 -0.5594 -4.1306
 3987SOL     OW23593   1.768   4.308  13.215 -0.7783  0.0462  0.5500
 3987SOL    HW123594   1.672   4.308  13.212 -0.7596  4.3967 -0.8830
 3987SOL    HW223595   1.796   4.345  13.131 -0.4782 -0.7315  0.3086
 3988SOL     OW23596   3.120   4.015   7.758 -0.2548 -0.4301 -1.0768
 3988SOL    HW123597   3.070   4.085   7.800  0.9496 -0.5157  0.5336
 3988SOL    HW223598   3.209   4.028   7.791 -0.1260  0.1824 -1.6664
 3989SOL     OW23599   3.924   3.251   7.711 -0.4121  0.8092 -0.1995
 3989SOL    HW123600   4.015   3.281   7.715 -0.3919  0.5844  1.0582
 3989SOL    HW223601   3.921   3.176   7.652  4.5471  0.3697  0.0593
 3990SOL     OW23602   3.901   1.543   8.156 -0.0669  0.3470  0.2311
 3990SOL    HW123603   3.847   1.581   8.225  0.9639  1.1247  0.6159
 3990SOL    HW223604   3.843   1.476   8.120 -0.5614  1.0696 -0.3102
 3991SOL     OW23605   1.264   0.745   4.004  0.4369  0.5130 -0.1281
 3991SOL    HW123606   1.186   0.740   4.060  1.1668  0.8483  0.9256
 3991SOL    HW223607   1.228   0.795   3.930  2.8821  1.2321 -0.8322
 3992SOL     OW23608   3.421   2.932   6.209  0.0402 -0.0949  0.5719
 3992SOL    HW123609   3.376   2.848   6.220  1.1831 -0.8514 -0.5522
 3992SOL    HW223610   3.360   3.000   6.240 -2.2777 -2.0838  0.4111
 3993SOL     OW23611   2.415   4.554   2.097 -0.4685 -0.3854 -0.0960
 3993SOL    HW123612   2.370   4.522   2.175  0.3197 -3.9613 -1.1342
 3993SOL    HW223613   2.502   4.566   2.134 -1.2407  2.7772  0.6726
 3994SOL     OW23614   0.270   4.350   7.080  0.2617  0.1522  0.0410
 3994SOL    HW123615   0.204   4.415   7.055  0.5288 -0.1028 -1.3433
 3994SOL    HW223616   0.341   4.363   7.016  0.9207 -1.8256  0.3776
 3995SOL     OW23617   4.043   1.657   0.583 -0.6300  0.1423 -0.3075
 3995SOL    HW123618   4.049   1.704   0.667 -1.7871 -2.0932  1.0368
 3995SOL    HW223619   4.137   1.647   0.569 -0.3817  0.5706  1.0144
 3996SOL     OW23620   1.453   0.539   7.451 -0.2132  0.0462 -0.0571
 3996SOL    HW123621   1.412   0.560   7.536  3.7577  0.9535  1.6260
 3996SOL    HW223622   1.411   0.453   7.444 -1.2984  0.7562 -2.0943
 3997SOL     OW23623   3.395   2.232   4.984 -0.1385 -0.2798  0.0825
 3997SOL    HW123624   3.441   2.312   5.008 -1.9189  0.8831 -0.3755
 3997SOL    HW223625   3.394   2.189   5.069 -1.0865 -0.2460  0.0865
 3998SOL     OW23626   4.118   4.264   9.931 -0.1949  0.4125  0.3685
 3998SOL    HW123627   4.070   4.224   9.859  0.0705  1.1788 -0.2259
 3998SOL    HW223628   4.128   4.352   9.894 -0.2084  0.3434  0.2010
 3999SOL     OW23629   2.561   1.806   8.115  0.3259  0.2660 -0.1885
 3999SOL    HW123630   2.498   1.771   8.052  1.8124 -1.3992 -0.7450
 3999SOL    HW223631   2.515   1.777   8.194  1.0180  0.5509  0.3122
 4000SOL     OW23632   1.497   3.930   6.838  0.2425 -0.3547 -0.2531
 4000SOL    HW123633   1.426   3.910   6.776  0.9976  2.0243 -1.8867
 4000SOL    HW223634   1.522   3.838   6.850 -1.9477 -1.0966 -1.3951
 4001SOL     OW23635   1.235   3.775  14.479 -0.0697  0.6399  0.7917
 4001SOL    HW123636   1.231   3.727  14.562  0.1384 -1.1507 -0.2187
 4001SOL    HW223637   1.321   3.763  14.439 -0.8975 -2.3356 -0.0789
 4002SOL     OW23638   3.430   1.672  17.193  0.2094 -0.5293  0.1080
 4002SOL    HW123639   3.497   1.727  17.235 -2.4521  2.0326  1.0066
 4002SOL    HW223640   3.436   1.597  17.253  3.9752  0.7316  1.3063
 4003SOL     OW23641   4.642   1.205   7.138 -0.2257 -0.7106  0.8839
 4003SOL    HW123642   4.574   1.147   7.103  0.7388 -1.1794 -0.2449
 4003SOL    HW223643   4.631   1.180   7.230  0.7333 -3.2436  0.3151
 4004SOL     OW23644   1.842   4.590   3.261 -0.5983  0.8608  0.7782
 4004SOL    HW123645   1.895   4.668   3.245  0.9222 -0.7911 -2.0890
 4004SOL    HW223646   1.761   4.602   3.211  0.2418 -1.1168 -1.0390
 4005SOL     OW23647   4.477   3.057  13.269 -0.2960  0.2193 -0.4034
 4005SOL    HW123648   4.446   3.067  13.359 -1.2384  1.4148 -0.8631
 4005SOL    HW223649   4.419   2.992  13.229  0.3211  0.0706 -1.0593
 4006SOL     OW23650   4.451   3.112   6.111  0.3166 -0.2838 -0.6261
 4006SOL    HW123651   4.487   3.141   6.027 -0.6937 -1.8875 -1.6176
 4006SOL    HW223652   4.518   3.149   6.168 -0.9864  0.6928  0.2626
 4007SOL     OW23653   2.837   1.339   8.143 -0.0336 -0.9351 -0.4578
 4007SOL    HW123654   2.766   1.364   8.085 -1.8195 -2.9549  0.8652
 4007SOL    HW223655   2.833   1.246   8.163 -0.9618 -0.6765  0.6029
 4008SOL     OW23656   4.318   2.171  14.420 -0.0280 -0.2110  0.5929
 4008SOL    HW123657   4.263   2.210  14.352  2.7308 -0.7861 -1.9726
 4008SOL    HW223658   4.401   2.216  14.401 -0.6090 -0.6184 -3.0531
 4009SOL     OW23659   3.749   2.256  12.155  0.0069  0.1446 -0.3481
 4009SOL    HW123660   3.802   2.284  12.081 -1.0753  0.4710 -1.0070
 4009SOL    HW223661   3.818   2.269  12.220 -1.1448 -2.6687  1.4714
 4010SOL     OW23662   3.082   2.471   4.966  0.0999  0.0791 -0.1889
 4010SOL    HW123663   3.147   2.508   5.025 -1.9690  1.1321  1.4156
 4010SOL    HW223664   3.059   2.391   5.014  0.3611  0.9318  1.3305
 4011SOL     OW23665   0.757   0.929   6.720 -0.0064  0.6575 -0.1431
 4011SOL    HW123666   0.782   1.007   6.770 -2.2577  0.6319  1.0002
 4011SOL    HW223667   0.808   0.861   6.763 -0.4125 -0.5781 -1.5991
 4012SOL     OW23668   2.905   0.240  14.887  0.1782 -0.0696 -0.5882
 4012SOL    HW123669   2.908   0.253  14.792 -0.5540 -1.5488 -0.8081
 4012SOL    HW223670   2.980   0.294  14.914  0.1016  0.1031 -0.7230
 4013SOL     OW23671   0.336   2.261   4.341 -0.1995  0.3313 -0.1042
 4013SOL    HW123672   0.370   2.324   4.278 -0.8660  0.9047  0.1126
 4013SOL    HW223673   0.353   2.316   4.417 -1.5615  0.3230  0.1956
 4014SOL     OW23674   2.539   4.112  17.685  0.0819  0.0327  0.0448
 4014SOL    HW123675   2.452   4.103  17.646 -0.4357 -1.3393  1.4932
 4014SOL    HW223676   2.585   4.037  17.648  0.8026  0.0034  0.9799
 4015SOL     OW23677   2.041   4.577   1.761  0.1128  0.2789 -0.0157
 4015SOL    HW123678   2.003   4.612   1.681  2.3627  0.3376 -1.0737
 4015SOL    HW223679   2.133   4.561   1.736 -0.1065  0.7161 -1.1255
 4016SOL     OW23680   1.627   3.824  11.295 -0.0822  0.4727  0.0280
 4016SOL    HW123681   1.675   3.812  11.377 -1.5728  2.2682  1.1537
 4016SOL    HW223682   1.672   3.900  11.258  0.1789  1.6329  2.7384
 4017SOL     OW23683   2.969   2.850   5.046  0.9020 -0.2525  0.9052
 4017SOL    HW123684   3.040   2.844   5.110  0.2977  2.1054  1.7781
 4017SOL    HW223685   2.914   2.783   5.087 -0.3291  1.1958  1.5899
 4018SOL     OW23686   1.499   3.143  17.343  0.4933 -0.2448  0.2574
 4018SOL    HW123687   1.486   3.056  17.306 -0.7290  0.1607 -0.2683
 4018SOL    HW223688   1.469   3.129  17.433 -0.6162 -2.1964 -0.4263
 4019SOL     OW23689   1.831   0.796   7.685  0.4425 -0.5018  0.1795
 4019SOL    HW123690   1.767   0.858   7.721  0.4063 -0.1521 -0.4862
 4019SOL    HW223691   1.913   0.826   7.724  2.0858 -0.0288 -3.6543
 4020SOL     OW23692   1.457   1.740   7.206 -0.5080 -0.9504 -0.6943
 4020SOL    HW123693   1.398   1.719   7.133 -0.5576  0.5868 -1.1173
 4020SOL    HW223694   1.421   1.690   7.278  0.3541  1.5481  1.4961
 4021SOL     OW23695   1.797   1.255   6.052  0.0245 -0.5961  0.2585
 4021SOL    HW123696   1.748   1.329   6.015 -1.5739 -1.1818  1.1961
 4021SOL    HW223697   1.827   1.296   6.133 -0.6096 -2.8869  1.6334
 4022SOL     OW23698   0.320   1.674   7.791  0.2363  0.1348 -0.4092
 4022SOL    HW123699   0.413   1.650   7.788  0.2615  0.1633  0.2702
 4022SOL    HW223700   0.301   1.666   7.697 -2.1728  0.0127  0.0997
 4023SOL     OW23701   1.228   2.636   8.587 -0.3244  0.0503  0.4998
 4023SOL    HW123702   1.214   2.703   8.521  1.1979  0.5814  0.7245
 4023SOL    HW223703   1.140   2.598   8.595  0.5071 -1.9649  0.2154
 4024SOL     OW23704   2.780   4.009  15.913 -0.2393 -0.3918 -0.0441
 4024SOL    HW123705   2.779   3.997  15.818 -1.0159  1.1505 -0.2401
 4024SOL    HW223706   2.733   3.930  15.940  0.0821 -0.8349 -0.7818
 4025SOL     OW23707   2.880   1.096  10.092  0.2434 -0.2060  0.2130
 4025SOL    HW123708   2.908   1.184  10.068 -4.0594  0.6691 -1.6342
 4025SOL    HW223709   2.944   1.072  10.158 -0.1062 -3.1295 -0.4936
 4026SOL     OW23710   2.073   3.962   8.961 -0.1355  0.0762  0.2530
 4026SOL    HW123711   2.143   3.993   9.019 -0.3018  0.2439  0.3665
 4026SOL    HW223712   2.113   3.969   8.875  2.0817 -2.1480  1.1340
 4027SOL     OW23713   0.970   0.212   4.028 -0.8086 -0.1341 -0.0734
 4027SOL    HW123714   0.974   0.134   4.083  0.9043 -1.4744 -2.0884
 4027SOL    HW223715   0.919   0.275   4.078 -1.4845 -0.4090 -0.4240
 4028SOL     OW23716   0.177   2.387   2.204  0.0072  0.4322  0.0366
 4028SOL    HW123717   0.245   2.398   2.270  1.3402 -0.8595 -1.1272
 4028SOL    HW223718   0.104   2.440   2.236  1.4945  2.4923  0.0747
 4029SOL     OW23719   4.080   2.327   0.894 -0.5686  0.1523  0.2559
 4029SOL    HW123720   4.107   2.317   0.986  1.0448  0.2871 -0.2068
 4029SOL    HW223721   4.097   2.416   0.865  2.2179 -0.5465 -0.2261
 4030SOL     OW23722   3.128   3.450   2.071 -0.0296  0.0807  0.5231
 4030SOL    HW123723   3.181   3.516   2.115 -1.5417  1.4102  0.3273
 4030SOL    HW223724   3.077   3.512   2.019  1.1893  1.0806  0.5225
 4031SOL     OW23725   0.940   4.283   1.728 -0.1124 -0.4070  0.1875
 4031SOL    HW123726   0.962   4.333   1.806 -1.0620 -1.8582  1.3803
 4031SOL    HW223727   1.021   4.233   1.722  0.5798  0.6749  0.6206
 4032SOL     OW23728   2.932   4.256  15.900  0.5590  0.8233 -0.3244
 4032SOL    HW123729   2.907   4.342  15.935  2.8885  1.4644 -0.2671
 4032SOL    HW223730   2.866   4.191  15.925  1.0960 -0.0360 -1.1179
 4033SOL     OW23731   2.012   3.003   3.451  0.0929 -0.1646  0.5011
 4033SOL    HW123732   2.027   3.085   3.403 -2.3176 -0.0911 -0.1246
 4033SOL    HW223733   1.984   2.954   3.373 -1.7327  0.1204  0.9932
 4034SOL     OW23734   0.264   4.208  17.393 -0.3815 -0.3739 -0.1494
 4034SOL    HW123735   0.314   4.262  17.454 -3.1583  2.9443 -0.8134
 4034SOL    HW223736   0.321   4.200  17.317 -3.6160 -0.1518 -2.5892
 4035SOL     OW23737   0.160   1.859   0.379  0.0000 -0.2424  0.2191
 4035SOL    HW123738   0.196   1.931   0.326 -2.0343  0.2293 -0.5191
 4035SOL    HW223739   0.240   1.833   0.425  0.5796  2.3985  0.6688
 4036SOL     OW23740   0.081   2.096   2.195  0.2873  0.7959  0.0851
 4036SOL    HW123741   0.057   2.164   2.258 -2.5430  0.5479 -0.7130
 4036SOL    HW223742   0.003   2.070   2.146  0.9423  0.1030 -0.5800
 4037SOL     OW23743   2.978   3.956   3.345 -0.7104 -0.1776  0.3767
 4037SOL    HW123744   3.068   3.950   3.378 -0.1700  0.7823 -0.9202
 4037SOL    HW223745   2.966   4.051   3.358 -0.3332  0.1485 -1.7406
 4038SOL     OW23746   2.617   0.011  16.679  0.0712  0.2784 -0.4010
 4038SOL    HW123747   2.615   4.729  16.773 -0.1570 -0.8317 -0.6336
 4038SOL    HW223748   2.596   0.104  16.682  2.1879  0.7438  0.2222
 4039SOL     OW23749   4.033   3.904  16.140 -0.5356 -0.4384  0.2785
 4039SOL    HW123750   4.060   3.817  16.111 -2.1360 -0.3387 -1.5387
 4039SOL    HW223751   4.108   3.930  16.194  1.5662 -0.8892 -2.4087
 4040SOL     OW23752   1.650   2.103   2.445 -0.8684  0.2113 -0.0582
 4040SOL    HW123753   1.652   2.009   2.430  1.2063  0.1728  0.4355
 4040SOL    HW223754   1.653   2.129   2.353  1.2888 -0.8786 -0.3037
 4041SOL     OW23755   2.661   0.352  14.974 -0.1470 -0.3708 -0.0404
 4041SOL    HW123756   2.619   0.391  14.897 -0.8849  0.4154  0.7627
 4041SOL    HW223757   2.742   0.324  14.931  0.2881  0.0554  0.5084
 4042SOL     OW23758   1.258   0.716   6.243 -0.1079 -0.2638  0.3574
 4042SOL    HW123759   1.210   0.635   6.225 -0.2137  0.5160 -2.9226
 4042SOL    HW223760   1.188   0.780   6.253  0.6418  0.4156  1.1645
 4043SOL     OW23761   0.526   0.850   1.976  0.1444  0.1334  0.3230
 4043SOL    HW123762   0.505   0.934   1.935  0.6553  0.5179  0.8446
 4043SOL    HW223763   0.485   0.796   1.908  0.5319  1.9222 -1.3288
 4044SOL     OW23764   4.363   4.589  16.576 -0.3927 -0.1010 -0.1790
 4044SOL    HW123765   4.391   4.677  16.553 -0.5564 -0.1427 -0.5402
 4044SOL    HW223766   4.334   4.562  16.488 -1.2490 -0.8871  0.3411
 4045SOL     OW23767   2.642   0.978   7.082 -0.0758  0.1876 -0.4805
 4045SOL    HW123768   2.690   1.058   7.061  0.2724 -0.8517 -3.5213
 4045SOL    HW223769   2.587   1.005   7.156  0.8907  0.9889 -0.0494
 4046SOL     OW23770   0.471   1.473   7.430 -0.3343  0.2803 -0.3628
 4046SOL    HW123771   0.444   1.564   7.418  1.0913  0.6707 -0.6510
 4046SOL    HW223772   0.566   1.477   7.423 -0.2651 -0.4698  0.1031
 4047SOL     OW23773   1.010   1.770   4.724  0.7554 -0.8515 -0.3476
 4047SOL    HW123774   1.080   1.712   4.693 -0.2161 -2.5462  0.6199
 4047SOL    HW223775   1.015   1.845   4.665  1.2692  0.8849  1.9086
 4048SOL     OW23776   0.693   3.649  10.692  0.6198 -0.2482 -0.0773
 4048SOL    HW123777   0.615   3.692  10.657  1.3481  0.7643 -0.4410
 4048SOL    HW223778   0.757   3.691  10.634  0.7601  0.0112  0.2620
 4049SOL     OW23779   1.583   2.034   6.008  0.4993  0.1362  0.4625
 4049SOL    HW123780   1.530   2.105   5.973 -1.1073 -1.0410  0.4661
 4049SOL    HW223781   1.525   1.957   6.008  1.8286 -0.8644  0.9707
 4050SOL     OW23782   0.461   3.591   4.510  0.5983 -1.0166 -0.0760
 4050SOL    HW123783   0.469   3.496   4.518 -1.2101 -1.2650 -1.4036
 4050SOL    HW223784   0.396   3.613   4.577  2.3468  1.2076  0.8965
 4051SOL     OW23785   3.485   2.012  17.046  0.1589 -0.5047  0.4035
 4051SOL    HW123786   3.487   2.052  16.959  0.4480 -1.6965 -0.1486
 4051SOL    HW223787   3.579   1.991  17.052  0.8048  1.7926 -2.0394
 4052SOL     OW23788   4.164   1.163   8.810 -0.0509  0.5804  0.2415
 4052SOL    HW123789   4.211   1.087   8.775  1.4333  2.3314 -1.5510
 4052SOL    HW223790   4.233   1.190   8.871  2.7162 -0.8863 -2.2760
 4053SOL     OW23791   2.564   0.114  13.764 -0.1711  0.0266 -0.0786
 4053SOL    HW123792   2.635   0.137  13.703 -0.2995  1.2451  0.2282
 4053SOL    HW223793   2.531   0.195  13.803 -0.5182 -0.3752  0.4604
 4054SOL     OW23794   4.046   4.299   6.666  0.1437 -0.4764  0.2596
 4054SOL    HW123795   4.101   4.296   6.744  0.5459  0.9408  0.0238
 4054SOL    HW223796   3.966   4.339   6.700  0.1632 -1.8114  1.8849
 4055SOL     OW23797   3.586   3.000  10.078 -0.0751  0.1117  0.4351
 4055SOL    HW123798   3.669   3.048  10.078 -0.2119  0.3177  2.8161
 4055SOL    HW223799   3.565   3.009   9.984  0.3795  0.4872  0.3695
 4056SOL     OW23800   0.142   3.403  12.694 -0.3649 -0.2842  0.0677
 4056SOL    HW123801   0.051   3.403  12.725 -0.4508 -1.4923 -0.1998
 4056SOL    HW223802   0.168   3.341  12.761 -1.0894 -2.0423 -1.2592
 4057SOL     OW23803   4.524   2.319  13.194  0.2326  0.1738 -1.2995
 4057SOL    HW123804   4.619   2.313  13.202 -0.0021 -1.9832 -0.0308
 4057SOL    HW223805   4.495   2.249  13.253 -0.8757  1.4734 -0.2926
 4058SOL     OW23806   3.958   2.415  13.449 -0.4226  0.2731  0.2673
 4058SOL    HW123807   3.940   2.469  13.372  2.2827 -0.3377 -0.8160
 4058SOL    HW223808   4.008   2.475  13.503  1.9676 -1.5928  0.1724
 4059SOL     OW23809   1.355   0.974  12.677 -0.2767 -0.5339  0.0907
 4059SOL    HW123810   1.442   0.935  12.675  0.1929  0.6155 -2.6655
 4059SOL    HW223811   1.307   0.926  12.609 -0.7081  0.3623 -0.2345
 4060SOL     OW23812   3.361   1.242   7.492 -0.2852 -1.0492  0.0811
 4060SOL    HW123813   3.343   1.260   7.400  0.2189 -3.0057 -0.4060
 4060SOL    HW223814   3.396   1.153   7.480  0.5089 -1.0708  2.4224
 4061SOL     OW23815   1.049   2.950   3.974 -0.3053 -0.4799  0.2894
 4061SOL    HW123816   1.128   2.912   3.936  0.0425  0.4362  0.0859
 4061SOL    HW223817   0.997   2.969   3.896 -0.2887  1.9926  0.8785
 4062SOL     OW23818   2.353   3.439   4.857  0.0547  0.0503 -0.0956
 4062SOL    HW123819   2.395   3.485   4.930 -0.0398 -0.5641  0.3441
 4062SOL    HW223820   2.277   3.495   4.841 -0.7405 -1.1681 -0.5826
 4063SOL     OW23821   2.852   3.421  10.078 -0.4247 -0.4123 -0.0902
 4063SOL    HW123822   2.878   3.511  10.058 -0.8021  0.0696  1.6251
 4063SOL    HW223823   2.820   3.430  10.168 -0.9135  0.5031 -0.3556
 4064SOL     OW23824   1.631   3.214   6.539  0.1920 -0.4082  0.0318
 4064SOL    HW123825   1.722   3.183   6.536  0.6874  0.7526  3.6309
 4064SOL    HW223826   1.594   3.183   6.456  0.8514  0.7270 -0.6975
 4065SOL     OW23827   3.586   1.571  12.853  0.5598 -0.3871 -0.1163
 4065SOL    HW123828   3.587   1.475  12.851 -1.8332 -0.3946 -0.7850
 4065SOL    HW223829   3.596   1.584  12.759 -2.2788  2.8874  0.0775
 4066SOL     OW23830   4.405   3.816  12.367 -0.1491  0.0679 -0.2552
 4066SOL    HW123831   4.317   3.854  12.370 -0.6577 -0.9894 -1.5902
 4066SOL    HW223832   4.404   3.758  12.443 -1.5571 -0.5629 -0.7503
 4067SOL     OW23833   0.836   3.447   3.172  0.4207  0.6441 -0.2001
 4067SOL    HW123834   0.821   3.352   3.169 -1.0831  0.7974  2.5310
 4067SOL    HW223835   0.930   3.462   3.178  0.5308  0.7630 -2.3479
 4068SOL     OW23836   0.749   2.473   9.312  0.1508  0.1286  0.3457
 4068SOL    HW123837   0.784   2.522   9.237 -1.5424 -1.1933 -1.3391
 4068SOL    HW223838   0.663   2.513   9.327  0.7251  1.2942  0.5530
 4069SOL     OW23839   4.475   3.043  11.749  0.0988  0.5234  0.2284
 4069SOL    HW123840   4.485   3.042  11.653  2.1386 -0.9690  0.4730
 4069SOL    HW223841   4.416   2.968  11.752 -0.9437  1.2998 -0.6923
 4070SOL     OW23842   3.696   0.388   2.540  0.1579  0.1342  0.0660
 4070SOL    HW123843   3.671   0.470   2.497 -1.4976 -0.4061 -0.0126
 4070SOL    HW223844   3.632   0.397   2.611  1.0145 -1.4619  1.0242
 4071SOL     OW23845   1.615   4.072   5.593 -0.0767  0.0665  0.3050
 4071SOL    HW123846   1.703   4.092   5.624  0.8162 -1.4486 -1.2851
 4071SOL    HW223847   1.640   4.013   5.522 -1.6561  0.0300 -0.2136
 4072SOL     OW23848   3.016   4.584  15.030 -1.0824  0.0453  0.2299
 4072SOL    HW123849   2.947   4.649  15.039 -0.2129  0.9088  0.6738
 4072SOL    HW223850   3.044   4.611  14.943  2.1487 -1.7661  0.6996
 4073SOL     OW23851   3.125   3.962  14.289  0.7584 -0.5157  0.3303
 4073SOL    HW123852   3.114   3.973  14.384  2.8403 -1.6253  0.7044
 4073SOL    HW223853   3.218   3.938  14.278  1.2937  0.3295  2.9920
 4074SOL     OW23854   3.106   4.065   8.130  0.4347 -0.3156 -0.2425
 4074SOL    HW123855   3.121   4.116   8.050  0.0811  1.4140  0.7948
 4074SOL    HW223856   3.018   4.099   8.144  0.0268 -0.1057 -3.3359
 4075SOL     OW23857   1.482   4.371   7.940  0.0126 -0.0185  0.0953
 4075SOL    HW123858   1.538   4.424   7.883  1.7739 -0.7164  1.2007
 4075SOL    HW223859   1.503   4.282   7.913 -0.6417 -0.3925  0.8142
 4076SOL     OW23860   0.794   0.172   2.248 -0.6465 -0.2996  0.1055
 4076SOL    HW123861   0.758   0.136   2.329 -1.0743  1.8053  0.8536
 4076SOL    HW223862   0.779   0.265   2.262  0.8380 -0.2875  1.4893
 4077SOL     OW23863   3.191   0.036  15.325  0.6243  0.1288 -0.1515
 4077SOL    HW123864   3.115   0.072  15.279  0.1814 -0.6369 -0.0205
 4077SOL    HW223865   3.263   0.089  15.293  1.3559 -0.3991  0.6206
 4078SOL     OW23866   0.567   2.925  11.132  0.2192 -0.8453 -0.1661
 4078SOL    HW123867   0.498   2.924  11.066  0.2353  2.7230 -0.2537
 4078SOL    HW223868   0.524   2.906  11.216  2.0198  0.7595  1.1268
 4079SOL     OW23869   4.328   2.256   8.217 -0.0309  0.4786 -0.1291
 4079SOL    HW123870   4.330   2.340   8.170  0.9870 -0.3244 -1.5365
 4079SOL    HW223871   4.266   2.278   8.286  0.0622  3.4953 -1.0080
 4080SOL     OW23872   2.776   2.317  15.064 -0.1778  0.1086  0.3207
 4080SOL    HW123873   2.837   2.274  15.004  0.1309  2.0867 -0.8056
 4080SOL    HW223874   2.692   2.308  15.020  0.3801  2.1427 -1.2194
 4081SOL     OW23875   2.441   1.490   7.082 -0.1219 -0.2958  0.2432
 4081SOL    HW123876   2.487   1.424   7.029  0.7986  0.3843  0.2039
 4081SOL    HW223877   2.377   1.432   7.124 -2.4826  1.6771 -0.6640
 4082SOL     OW23878   2.789   0.147  17.551  0.6985 -0.0188 -0.2510
 4082SOL    HW123879   2.805   0.216  17.485 -1.3524  1.2924  0.6292
 4082SOL    HW223880   2.738   0.090  17.493 -0.5941  1.4390 -0.5524
 4083SOL     OW23881   0.277   3.094  17.142  0.1629 -0.1369  0.6944
 4083SOL    HW123882   0.304   3.168  17.197 -3.5999  0.2537  1.9886
 4083SOL    HW223883   0.332   3.100  17.063 -1.6673 -0.1612 -0.5728
 4084SOL     OW23884   1.577   0.340   0.409 -0.2173  0.2566  0.0601
 4084SOL    HW123885   1.647   0.309   0.352 -0.4977 -0.1144 -0.0873
 4084SOL    HW223886   1.498   0.354   0.357  1.3254  4.8383 -1.0024
 4085SOL     OW23887   1.762   4.098   5.881  0.1717  0.5141  0.1127
 4085SOL    HW123888   1.796   4.013   5.853 -1.0725 -0.9222  2.9807
 4085SOL    HW223889   1.847   4.141   5.892  0.7047 -0.4545 -0.2721
 4086SOL     OW23890   4.331   3.750   2.942 -0.2566  0.1936  0.3151
 4086SOL    HW123891   4.393   3.785   2.878 -1.4202 -0.0479 -0.9424
 4086SOL    HW223892   4.265   3.814   2.915 -0.3663 -0.3511 -0.7031
 4087SOL     OW23893   4.299   1.891  12.804 -0.2780  0.3313  0.0379
 4087SOL    HW123894   4.275   1.983  12.817  0.1925  0.3690  0.6674
 4087SOL    HW223895   4.307   1.863  12.895  2.3463  0.5529 -0.1241
 4088SOL     OW23896   3.020   2.895   4.393 -0.4384 -0.1938 -0.9423
 4088SOL    HW123897   3.089   2.914   4.456  0.0148 -1.1143 -1.1616
 4088SOL    HW223898   2.947   2.884   4.454  0.2373 -2.5218 -0.5389
 4089SOL     OW23899   0.561   2.715  11.797  0.0323 -0.2112  0.3183
 4089SOL    HW123900   0.609   2.647  11.751 -3.7599 -1.1322 -2.2338
 4089SOL    HW223901   0.479   2.667  11.806 -1.6432  3.0083  2.5001
 4090SOL     OW23902   4.350   0.001   9.419 -0.5603  0.1222  0.3190
 4090SOL    HW123903   4.312   0.077   9.463 -2.1058 -0.7823  0.5684
 4090SOL    HW223904   4.405   0.049   9.358 -1.9813  0.5280 -0.6317
 4091SOL     OW23905   0.867   1.125   9.664  0.0099 -0.3870 -0.0064
 4091SOL    HW123906   0.859   1.076   9.582  0.1719 -0.6998  0.1632
 4091SOL    HW223907   0.952   1.099   9.699 -0.6051 -0.1911  1.6395
 4092SOL     OW23908   0.909   0.244   6.062  0.6756  0.0385 -0.6440
 4092SOL    HW123909   0.860   0.241   6.144  2.7600  0.6589  0.6316
 4092SOL    HW223910   0.968   0.168   6.068 -0.2072 -0.4214  1.9563
 4093SOL     OW23911   2.400   3.830   8.789  0.3973 -0.2121  0.0629
 4093SOL    HW123912   2.491   3.816   8.815  0.3081  0.0057  0.4902
 4093SOL    HW223913   2.369   3.871   8.870 -0.4617 -1.7401  0.5129
 4094SOL     OW23914   2.098   0.520   9.149  0.0980  0.1211  0.7182
 4094SOL    HW123915   2.186   0.555   9.167 -0.7810  1.9373  1.5081
 4094SOL    HW223916   2.127   0.429   9.145  0.9861  0.3915  0.8968
 4095SOL     OW23917   1.825   4.215   9.861 -0.0463  0.0428  0.0529
 4095SOL    HW123918   1.827   4.291   9.804  1.1397  0.0186  0.0513
 4095SOL    HW223919   1.761   4.155   9.823  1.6723 -2.4170  1.0008
 4096SOL     OW23920   3.594   0.535   3.228  0.7621 -0.0382 -0.3030
 4096SOL    HW123921   3.643   0.494   3.299 -0.8942  0.8524  1.3405
 4096SOL    HW223922   3.652   0.593   3.180 -0.6923  1.4697 -0.2168
 4097SOL     OW23923   3.421   1.309  12.627  0.6238 -0.5549  0.3317
 4097SOL    HW123924   3.454   1.278  12.712 -2.1267 -1.3303  1.1351
 4097SOL    HW223925   3.488   1.261  12.578  0.0203 -3.1988  2.0684
 4098SOL     OW23926   4.589   2.279   0.979  0.2512  0.1437 -0.4907
 4098SOL    HW123927   4.597   2.234   0.895  1.1683 -0.0669 -0.2937
 4098SOL    HW223928   4.562   2.370   0.967  0.2312  0.0359 -1.2740
 4099SOL     OW23929   0.567   0.881  17.108  0.0704  0.7450  0.1395
 4099SOL    HW123930   0.657   0.849  17.104  0.2117  1.2310 -0.6658
 4099SOL    HW223931   0.563   0.937  17.030 -2.6901  0.4133  0.0518
 4100SOL     OW23932   0.895   3.769   1.695 -0.0339 -0.0054 -0.1682
 4100SOL    HW123933   0.830   3.732   1.754 -0.1278  1.5137  0.6952
 4100SOL    HW223934   0.878   3.730   1.609  1.4228  3.0470 -1.8370
 4101SOL     OW23935   0.616   0.308   6.126  0.8705 -0.4963  0.1438
 4101SOL    HW123936   0.659   0.255   6.059 -0.0262 -2.1868  0.8976
 4101SOL    HW223937   0.679   0.308   6.198 -1.5025  1.7062  2.2428
 4102SOL     OW23938   1.200   2.132   5.433 -0.1285  0.0163  0.3877
 4102SOL    HW123939   1.129   2.189   5.463  1.3015  1.7534  0.4563
 4102SOL    HW223940   1.164   2.095   5.352 -0.3643  0.4919  0.2744
 4103SOL     OW23941   3.586   1.424   2.420  0.6817  0.3608 -0.3084
 4103SOL    HW123942   3.525   1.495   2.399 -1.1225 -1.3104 -0.7477
 4103SOL    HW223943   3.650   1.470   2.473  1.6936 -2.7454  1.1569
 4104SOL     OW23944   3.886   0.166  14.722  0.1492 -0.5127 -0.1818
 4104SOL    HW123945   3.843   0.082  14.740  0.5813 -0.5321  0.7527
 4104SOL    HW223946   3.908   0.196  14.810 -2.2973  0.6727  0.0445
 4105SOL     OW23947   2.747   1.515   8.341  0.1991 -0.6516  0.4277
 4105SOL    HW123948   2.788   1.479   8.262  2.1687  2.3485  0.1039
 4105SOL    HW223949   2.747   1.441   8.402  1.1397 -0.5650  0.5273
 4106SOL     OW23950   2.169   0.602   6.163 -0.1116  0.1246 -0.1366
 4106SOL    HW123951   2.163   0.697   6.158 -0.7584  0.0045 -1.6956
 4106SOL    HW223952   2.184   0.584   6.255  1.3317 -1.5592 -0.6949
 4107SOL     OW23953   3.962   4.158   8.050  0.0504 -0.1846 -0.1950
 4107SOL    HW123954   4.011   4.105   7.987  0.3259  0.2178 -0.3210
 4107SOL    HW223955   4.005   4.143   8.134 -0.9833  2.0644  0.7428
 4108SOL     OW23956   1.496   0.843   0.810 -0.0427  0.1568 -0.0234
 4108SOL    HW123957   1.445   0.892   0.874 -0.3227 -2.4304  1.7289
 4108SOL    HW223958   1.556   0.801   0.870  0.9559  1.8144  0.1253
 4109SOL     OW23959   1.556   4.539   2.419  0.0446  0.7181 -0.2515
 4109SOL    HW123960   1.611   4.461   2.421 -0.9758 -0.0099 -0.6784
 4109SOL    HW223961   1.504   4.535   2.500 -3.5839  0.8235 -2.5436
 4110SOL     OW23962   0.549   2.957  17.295  0.3699 -0.0111  0.0902
 4110SOL    HW123963   0.464   2.955  17.338  0.2196  1.4375 -0.1371
 4110SOL    HW223964   0.540   3.047  17.265 -0.9484 -0.4567 -0.8345
 4111SOL     OW23965   1.485   1.782   5.977 -0.2355  0.1313 -0.2403
 4111SOL    HW123966   1.472   1.687   5.971  2.4686 -0.0921 -2.3415
 4111SOL    HW223967   1.399   1.803   6.013 -0.8724  0.3525 -1.9078
 4112SOL     OW23968   1.571   2.141   4.950 -0.9690 -0.3289  0.0654
 4112SOL    HW123969   1.610   2.095   5.024  0.7763  0.2524 -0.4875
 4112SOL    HW223970   1.626   2.219   4.950 -0.7435 -0.4941  0.7803
 4113SOL     OW23971   3.268   1.867   3.968 -0.3643  0.5899  0.5502
 4113SOL    HW123972   3.324   1.884   4.043  1.0151 -0.9018 -0.1299
 4113SOL    HW223973   3.273   1.947   3.916  0.6470  1.4332  1.9462
 4114SOL     OW23974   1.809   1.272  14.338 -1.0056 -0.5263  0.3350
 4114SOL    HW123975   1.835   1.262  14.246  0.5650  1.7738  0.5475
 4114SOL    HW223976   1.783   1.364  14.342 -1.0754 -0.5085 -0.4711
 4115SOL     OW23977   0.132   0.146  13.853 -0.7346 -0.5620  0.1338
 4115SOL    HW123978   0.219   0.179  13.829 -1.1241  1.8439  1.9921
 4115SOL    HW223979   0.074   0.169  13.781  2.8206 -0.0647 -2.5938
 4116SOL     OW23980   4.335   0.977   1.776 -0.0851 -0.1972  0.3725
 4116SOL    HW123981   4.356   0.894   1.733  1.2559 -1.3576  3.2501
 4116SOL    HW223982   4.239   0.976   1.784  0.0961 -1.3594  2.6707
 4117SOL     OW23983   2.908   4.537   3.200  0.3539  0.0613 -0.3323
 4117SOL    HW123984   2.950   4.455   3.228  0.1196  0.3946  0.9864
 4117SOL    HW223985   2.977   4.602   3.212  0.2228  0.1803 -0.2365
 4118SOL     OW23986   2.938   1.394   2.825  0.1109  0.0171 -0.2181
 4118SOL    HW123987   2.845   1.417   2.825  0.5489  1.7900 -2.3275
 4118SOL    HW223988   2.970   1.435   2.744  0.5784  1.4225  0.6721
 4119SOL     OW23989   0.386   3.662  16.844 -0.2859  0.0371  0.3707
 4119SOL    HW123990   0.335   3.581  16.850 -0.5712  0.0979 -1.3725
 4119SOL    HW223991   0.411   3.667  16.752  1.6699 -0.0314  0.8820
 4120SOL     OW23992   3.374   2.526  16.301 -0.4147 -0.1134 -0.0670
 4120SOL    HW123993   3.309   2.591  16.329  1.2715  1.1138  0.9749
 4120SOL    HW223994   3.368   2.554  16.209  0.9365 -0.7483 -0.3357
 4121SOL     OW23995   2.527   3.440  13.250 -0.0416 -0.2127  0.2818
 4121SOL    HW123996   2.549   3.519  13.199  0.0431  0.1813  0.9269
 4121SOL    HW223997   2.606   3.422  13.300  1.7727  1.5609 -1.9043
 4122SOL     OW23998   0.365   1.008  11.447  0.1961  0.1855  0.1898
 4122SOL    HW123999   0.306   1.084  11.444  0.4641  0.3974  0.2484
 4122SOL    HW224000   0.387   1.013  11.540 -0.1498 -0.6292  0.3151
 4123SOL     OW24001   0.349   3.612  11.407  0.4319  0.1402  0.2519
 4123SOL    HW124002   0.362   3.596  11.501 -3.1359  0.2336  0.7627
 4123SOL    HW224003   0.254   3.600  11.411  0.2650  1.5589  0.3350
 4124SOL     OW24004   1.466   3.390   5.925 -0.8736 -0.3016  0.4812
 4124SOL    HW124005   1.501   3.465   5.973  0.5462 -0.6667  0.0059
 4124SOL    HW224006   1.432   3.424   5.842 -2.5652  1.4692  1.8739
 4125SOL     OW24007   3.079   3.035  14.161  0.2242 -0.2175  0.1640
 4125SOL    HW124008   3.074   3.058  14.068  0.1206 -3.4259 -0.6048
 4125SOL    HW224009   3.027   3.109  14.194  0.0979 -0.3873  0.3476
 4126SOL     OW24010   1.777   2.421  13.059  0.0249  0.4100  0.1264
 4126SOL    HW124011   1.867   2.387  13.054 -0.3484 -0.6687  0.9126
 4126SOL    HW224012   1.723   2.360  13.009  2.0165  0.4553 -2.0933
 4127SOL     OW24013   0.294   4.458   5.599 -0.0751 -0.1932  0.0659
 4127SOL    HW124014   0.242   4.538   5.611 -0.4421 -0.4290  0.0580
 4127SOL    HW224015   0.366   4.490   5.545 -0.1262  1.7935  1.1777
 4128SOL     OW24016   4.493   2.003   6.184  0.7750 -0.4326 -0.1333
 4128SOL    HW124017   4.524   2.025   6.271  0.9208  0.5608 -0.4340
 4128SOL    HW224018   4.526   2.074   6.128 -2.6416  0.9360 -0.4065
 4129SOL     OW24019   1.435   2.638  14.958 -0.5614 -0.2250  0.9968
 4129SOL    HW124020   1.353   2.686  14.969  0.6861  2.3544 -1.0114
 4129SOL    HW224021   1.399   2.555  14.928 -0.4029  0.0441  0.0571
 4130SOL     OW24022   2.987   0.003   2.678  0.4208 -0.3965 -0.2985
 4130SOL    HW124023   3.035   4.737   2.760 -0.3916 -0.8315  0.1570
 4130SOL    HW224024   2.902   4.707   2.705 -0.2560 -0.8555 -2.9413
 4131SOL     OW24025   4.311   2.981   3.002 -0.4540 -0.2266  0.5410
 4131SOL    HW124026   4.319   2.894   3.041 -3.1571  0.0331  1.7109
 4131SOL    HW224027   4.301   3.031   3.084  2.6122 -0.3484  0.9942
 4132SOL     OW24028   1.230   3.844  16.155  0.1771  0.0728  0.0694
 4132SOL    HW124029   1.309   3.843  16.100 -2.3567 -0.8772 -3.5158
 4132SOL    HW224030   1.219   3.938  16.168 -0.7927  0.1553 -1.4492
 4133SOL     OW24031   4.239   2.748   8.403 -0.0874 -0.2547  0.1447
 4133SOL    HW124032   4.288   2.666   8.402  0.2161 -0.0903  1.9399
 4133SOL    HW224033   4.227   2.752   8.308  0.2447  0.3228  0.1340
 4134SOL     OW24034   2.017   2.592   4.435  0.1465  0.5830 -0.4077
 4134SOL    HW124035   2.065   2.566   4.514 -2.2836 -2.8669 -0.0859
 4134SOL    HW224036   1.964   2.657   4.482 -1.8637 -0.4053 -1.3304
 4135SOL     OW24037   0.464   3.878  15.650 -0.0266 -0.1047 -0.4118
 4135SOL    HW124038   0.507   3.817  15.589  0.0547  1.1077 -1.5636
 4135SOL    HW224039   0.454   3.954  15.593 -2.8259  1.0086  1.6052
 4136SOL     OW24040   2.280   4.521   3.760  0.1796 -0.2728  0.6965
 4136SOL    HW124041   2.367   4.557   3.743 -0.2703 -0.2975 -1.6759
 4136SOL    HW224042   2.229   4.534   3.680 -0.1140 -1.8390  0.6157
 4137SOL     OW24043   1.618   2.381  16.361 -0.2300 -0.1321 -0.4342
 4137SOL    HW124044   1.633   2.473  16.383  0.7225 -0.3055 -0.3431
 4137SOL    HW224045   1.681   2.335  16.416  0.2284  0.5875 -0.3541
 4138SOL     OW24046   2.535   4.490   5.990  0.6750 -0.2081  0.2230
 4138SOL    HW124047   2.532   4.420   5.925  1.4215 -2.6141  2.7624
 4138SOL    HW224048   2.592   4.457   6.060  0.1368  1.4039  1.4362
 4139SOL     OW24049   0.978   2.957  17.016 -0.5455  0.3841  0.4829
 4139SOL    HW124050   1.022   3.027  16.967  1.0337 -0.2648  0.9658
 4139SOL    HW224051   1.042   2.956  17.087 -0.1138  1.2000  0.1067
 4140SOL     OW24052   0.848   1.580   5.762 -0.3874  0.1983  0.4016
 4140SOL    HW124053   0.768   1.629   5.743 -0.1301  0.6330  0.4353
 4140SOL    HW224054   0.907   1.637   5.811 -1.3251  0.9655  0.6432
 4141SOL     OW24055   3.643   2.134   4.045 -0.2481  0.1005 -0.4079
 4141SOL    HW124056   3.600   2.189   3.980  0.8441  1.2537 -0.1548
 4141SOL    HW224057   3.612   2.163   4.130 -1.3029 -0.1302 -0.7034
 4142SOL     OW24058   3.666   1.010   7.246  0.1078 -0.1763  0.4893
 4142SOL    HW124059   3.632   1.016   7.336 -2.8260 -2.2038 -0.4744
 4142SOL    HW224060   3.733   1.079   7.248  1.3806 -1.4314  0.7015
 4143SOL     OW24061   0.413   3.825   6.020 -0.3042  0.1044 -0.3453
 4143SOL    HW124062   0.434   3.815   6.113  0.6336 -2.4639 -0.8221
 4143SOL    HW224063   0.391   3.734   5.999 -2.3386  0.9284 -1.6553
 4144SOL     OW24064   2.637   2.237   3.503  0.1276  0.2750 -0.0165
 4144SOL    HW124065   2.653   2.144   3.518 -0.7226  0.0480 -0.4862
 4144SOL    HW224066   2.560   2.246   3.558 -0.0744 -0.8557 -0.1145
 4145SOL     OW24067   2.535   0.854   8.242  0.3196 -0.0748 -0.1697
 4145SOL    HW124068   2.564   0.779   8.191  2.6103  0.5002  0.2660
 4145SOL    HW224069   2.602   0.866   8.309 -0.1599 -1.4949  0.5757
 4146SOL     OW24070   1.661   1.861   7.743 -0.2255 -0.1714 -0.0550
 4146SOL    HW124071   1.697   1.774   7.760  0.9239  0.3902  0.3885
 4146SOL    HW224072   1.597   1.851   7.673 -0.5052  0.3698  0.1275
 4147SOL     OW24073   1.621   1.043   3.910 -0.3920 -0.2089 -0.2611
 4147SOL    HW124074   1.692   1.082   3.859 -0.5472 -1.6010 -1.5540
 4147SOL    HW224075   1.599   1.112   3.973  2.0742  2.3429 -2.1928
 4148SOL     OW24076   0.485   3.615  10.997 -0.4557 -0.1188  0.0721
 4148SOL    HW124077   0.446   3.625  10.910  1.4599 -0.8764 -0.8586
 4148SOL    HW224078   0.486   3.704  11.033 -1.5661 -0.4962  1.0628
 4149SOL     OW24079   0.860   4.063  11.557 -0.1219  0.3308  0.5950
 4149SOL    HW124080   0.837   4.099  11.643 -1.9769  2.0556 -0.6115
 4149SOL    HW224081   0.849   3.970  11.574  1.5646 -0.2216 -1.4741
 4150SOL     OW24082   1.409   3.576   9.071  0.7451 -0.0853  0.5006
 4150SOL    HW124083   1.329   3.623   9.095  1.7343  1.6923  0.3434
 4150SOL    HW224084   1.484   3.635   9.069  1.2649 -0.7218  1.1866
 4151SOL     OW24085   4.460   1.779  15.311  0.5405 -0.1997 -0.2317
 4151SOL    HW124086   4.451   1.703  15.253 -1.5590 -0.7804  0.8492
 4151SOL    HW224087   4.420   1.744  15.391  0.1217  1.6044  0.3428
 4152SOL     OW24088   3.286   3.623   8.170 -0.2513 -0.0691 -0.1277
 4152SOL    HW124089   3.290   3.718   8.157  0.3642  0.1788  1.8309
 4152SOL    HW224090   3.350   3.602   8.239 -0.4673 -0.8584 -0.1731
 4153SOL     OW24091   4.066   3.456   4.406 -0.0826 -0.2301 -0.0459
 4153SOL    HW124092   3.993   3.516   4.416  0.1469 -0.0935  0.8085
 4153SOL    HW224093   4.115   3.489   4.331  0.1557 -1.4841 -0.4484
 4154SOL     OW24094   4.244   1.330   0.650  0.0431 -0.2892 -0.7057
 4154SOL    HW124095   4.325   1.285   0.673 -0.4088 -0.8161 -0.1599
 4154SOL    HW224096   4.258   1.406   0.705  0.4068  0.4028 -1.7447
 4155SOL     OW24097   2.340   0.391   7.256 -0.8675  0.0101 -0.0626
 4155SOL    HW124098   2.263   0.414   7.203 -1.8343  1.7365  2.1251
 4155SOL    HW224099   2.308   0.366   7.343 -0.9795 -0.8695 -0.3546
 4156SOL     OW24100   3.833   0.725   9.089 -0.3878 -0.4364 -0.2368
 4156SOL    HW124101   3.750   0.771   9.083  0.7318  2.0705  3.4946
 4156SOL    HW224102   3.851   0.736   9.182  2.1217  0.4901 -0.8362
 4157SOL     OW24103   3.953   2.035   9.777 -0.0425 -0.4511 -0.3340
 4157SOL    HW124104   3.885   1.969   9.766 -2.2671  1.7023  0.5734
 4157SOL    HW224105   3.995   2.027   9.691 -2.7118  1.0612 -1.8043
 4158SOL     OW24106   3.324   4.075  17.654 -0.1280 -0.2757 -0.1759
 4158SOL    HW124107   3.328   4.011  17.725 -3.7239 -0.2033  0.0598
 4158SOL    HW224108   3.241   4.055  17.611 -0.6421 -0.6088  0.9572
 4159SOL     OW24109   1.417   0.554  15.378  0.1854  0.2740  0.7620
 4159SOL    HW124110   1.487   0.619  15.391  0.7420  0.0842 -1.3334
 4159SOL    HW224111   1.450   0.472  15.415 -0.4624 -1.4421 -2.4949
 4160SOL     OW24112   2.364   2.717  12.444 -0.3713 -0.5786 -0.3306
 4160SOL    HW124113   2.335   2.795  12.492  1.9614  1.2073 -1.8549
 4160SOL    HW224114   2.441   2.703  12.499 -1.3116  1.0360  1.4099
 4161SOL     OW24115   0.802   2.583   1.392 -0.4052 -0.5215 -0.7211
 4161SOL    HW124116   0.743   2.581   1.317  0.8133 -2.5519 -1.6356
 4161SOL    HW224117   0.740   2.595   1.464  0.3607  0.7145 -0.2714
 4162SOL     OW24118   0.273   2.268   5.503  0.6939  0.1375  0.1731
 4162SOL    HW124119   0.345   2.215   5.537 -0.5368 -1.5040  0.1945
 4162SOL    HW224120   0.195   2.226   5.538  1.3149 -0.0386  1.3511
 4163SOL     OW24121   0.215   0.797   7.490  0.3902  0.1590 -0.8168
 4163SOL    HW124122   0.187   0.710   7.519  0.1812  0.1340 -1.0987
 4163SOL    HW224123   0.135   0.848   7.506  0.2539  0.4288 -2.4209
 4164SOL     OW24124   3.697   3.302   8.950 -0.0197 -0.4052 -0.7042
 4164SOL    HW124125   3.696   3.236   9.019  1.4375  0.4460  0.1442
 4164SOL    HW224126   3.782   3.290   8.908 -0.5882 -1.5778 -1.5210
 4165SOL     OW24127   2.266   2.292   5.292  0.1856  0.2103  0.1764
 4165SOL    HW124128   2.266   2.339   5.375  0.9770 -0.8314  0.7656
 4165SOL    HW224129   2.184   2.244   5.299 -0.7657  1.4608 -2.0228
 4166SOL     OW24130   2.341   3.505  16.852 -0.0418  0.5563 -0.2428
 4166SOL    HW124131   2.270   3.557  16.890 -1.4211 -0.4117 -1.5409
 4166SOL    HW224132   2.404   3.570  16.820  0.3508  1.2417  1.8850
 4167SOL     OW24133   2.213   3.842   9.788  0.1705  0.0063  0.2027
 4167SOL    HW124134   2.148   3.825   9.720  1.3744 -1.1552 -0.6660
 4167SOL    HW224135   2.244   3.756   9.818 -0.7012  0.2674  1.8764
 4168SOL     OW24136   0.110   3.879   9.002 -0.5191 -0.2701  0.4289
 4168SOL    HW124137   0.113   3.953   9.064 -1.3404  2.1089 -2.3577
 4168SOL    HW224138   0.176   3.821   9.040 -0.0777 -1.4217 -2.0922
 4169SOL     OW24139   4.246   3.054  11.043 -0.4715 -0.0916  0.3728
 4169SOL    HW124140   4.259   3.038  10.949 -2.3255  0.8110 -0.0312
 4169SOL    HW224141   4.293   3.133  11.067 -0.2270 -0.4550  1.0902
 4170SOL     OW24142   2.761   4.730   0.216 -0.0784  0.1029 -0.5456
 4170SOL    HW124143   2.761   0.080   0.176  0.0140  0.7609  0.8898
 4170SOL    HW224144   2.703   4.689   0.152 -0.1790  0.1205 -0.4654
 4171SOL     OW24145   2.908   3.008   1.896 -0.2354 -0.0115  0.1375
 4171SOL    HW124146   2.813   2.990   1.896 -0.4336  1.0461  0.1659
 4171SOL    HW224147   2.945   2.938   1.949  0.1722 -1.1665 -1.6727
 4172SOL     OW24148   4.604   4.387   7.024 -0.0879  0.2891 -1.1438
 4172SOL    HW124149   4.547   4.411   7.097  0.3377  1.3388 -1.1453
 4172SOL    HW224150   4.559   4.434   6.953 -0.8859 -0.7320 -1.3050
 4173SOL     OW24151   2.263   3.993   8.414  0.1782  0.0678  0.2649
 4173SOL    HW124152   2.292   4.016   8.326  0.8476  1.1990  0.7744
 4173SOL    HW224153   2.315   3.914   8.426  0.4496  0.3543  0.9824
 4174SOL     OW24154   4.398   1.356   3.960 -0.2897 -0.3907 -0.3146
 4174SOL    HW124155   4.309   1.336   3.991  0.7121  0.7138  3.3080
 4174SOL    HW224156   4.396   1.449   3.982  0.1107  0.0356 -2.0843
 4175SOL     OW24157   0.463   1.013   6.659 -0.3458  0.3642 -0.3686
 4175SOL    HW124158   0.441   0.934   6.610  2.3929 -0.9849  0.6039
 4175SOL    HW224159   0.557   1.004   6.674 -0.1336  1.7397 -0.7952
 4176SOL     OW24160   0.469   0.325   1.763 -0.4512 -0.3629  0.3061
 4176SOL    HW124161   0.552   0.371   1.754 -0.7236 -0.0200 -0.4639
 4176SOL    HW224162   0.497   0.238   1.735 -1.4270 -1.0500  1.4428
 4177SOL     OW24163   4.256   0.917   8.696 -0.1470 -1.1827 -0.2176
 4177SOL    HW124164   4.308   0.860   8.754  0.4686 -0.0274  0.3684
 4177SOL    HW224165   4.201   0.847   8.661  0.4976 -1.0306 -1.5589
 4178SOL     OW24166   1.957   1.214   4.736 -0.3378  0.0942 -0.1827
 4178SOL    HW124167   1.923   1.258   4.658  0.0088  1.9040  0.6729
 4178SOL    HW224168   2.017   1.286   4.756  0.7281 -1.3256  1.7689
 4179SOL     OW24169   4.048   3.044  16.251  0.0050  0.0640  0.5436
 4179SOL    HW124170   4.002   2.976  16.202  2.0997 -1.8318  1.2022
 4179SOL    HW224171   4.066   3.099  16.174  0.2090 -0.4818  0.1936
 4180SOL     OW24172   3.027   1.666   2.773  0.1409  0.2383 -0.2747
 4180SOL    HW124173   3.112   1.687   2.811 -0.6786  2.0284  0.5778
 4180SOL    HW224174   2.959   1.722   2.811 -0.6986  0.3735 -1.9723
 4181SOL     OW24175   0.869   3.412   2.010  0.0458 -0.6619  0.4006
 4181SOL    HW124176   0.842   3.376   2.094 -0.2922 -0.2824  0.4564
 4181SOL    HW224177   0.815   3.491   2.004  1.5103  0.2747 -0.5090
 4182SOL     OW24178   1.909   1.296   4.492  0.2153  0.4890 -0.0354
 4182SOL    HW124179   1.873   1.335   4.412  1.5184  1.0318 -0.3613
 4182SOL    HW224180   1.981   1.244   4.458 -0.7149 -1.0216  0.2977
 4183SOL     OW24181   4.208   4.463   0.459 -0.5771 -0.3606  0.5236
 4183SOL    HW124182   4.290   4.511   0.446 -0.6008 -0.3102  0.5560
 4183SOL    HW224183   4.174   4.491   0.545 -0.2618 -1.0103  0.8607
 4184SOL     OW24184   4.620   4.564   4.829 -0.3745  0.1678  0.1648
 4184SOL    HW124185   4.693   4.626   4.820 -1.8242  1.7941 -0.4627
 4184SOL    HW224186   4.565   4.620   4.884  1.6432  1.0709  1.2505
 4185SOL     OW24187   0.972   2.307   5.492  0.2111 -0.1900  0.2444
 4185SOL    HW124188   0.982   2.382   5.434 -1.3155 -0.9916 -1.0462
 4185SOL    HW224189   0.956   2.351   5.575 -0.4994 -0.1528  0.0881
 4186SOL     OW24190   1.931   2.319  11.065 -0.1757 -0.0477  0.3200
 4186SOL    HW124191   1.902   2.245  11.119  1.1878 -1.1058 -0.3858
 4186SOL    HW224192   2.019   2.328  11.103 -0.3154 -0.3979  0.7419
 4187SOL     OW24193   1.795   1.178   2.956 -0.3365 -0.1158  0.4351
 4187SOL    HW124194   1.708   1.176   2.918  0.0654 -0.5348 -0.4837
 4187SOL    HW224195   1.780   1.240   3.027 -2.7578 -2.2260  1.7780
 4188SOL     OW24196   1.806   3.760   4.449  0.3524 -0.0150 -0.5412
 4188SOL    HW124197   1.866   3.787   4.519  2.3609 -1.4972 -1.7072
 4188SOL    HW224198   1.813   3.833   4.387 -1.6673  0.3578 -0.3351
 4189SOL     OW24199   2.675   0.637   8.416 -0.6340 -0.2320  0.4699
 4189SOL    HW124200   2.582   0.616   8.413 -0.9362  1.1198  0.3673
 4189SOL    HW224201   2.692   0.588   8.336 -1.6573 -0.3384  0.3257
 4190SOL     OW24202   2.730   0.788   6.254  0.5141  0.4471  0.0641
 4190SOL    HW124203   2.755   0.854   6.189 -0.1325  1.5520  0.9542
 4190SOL    HW224204   2.785   0.812   6.328  0.0141 -0.3985  0.7070
 4191SOL     OW24205   1.790   0.978   6.128 -0.1071 -0.3368 -0.1607
 4191SOL    HW124206   1.793   1.065   6.088  0.5613  1.0236  2.8643
 4191SOL    HW224207   1.724   0.978   6.197  0.1762 -1.0943  0.1150
 4192SOL     OW24208   4.054   0.218   5.077  0.1496 -0.9867 -0.0458
 4192SOL    HW124209   3.978   0.160   5.070 -0.0578 -0.7818  0.5284
 4192SOL    HW224210   4.063   0.223   5.172  1.4377  2.0278 -0.3426
 4193SOL     OW24211   2.421   2.836   5.099 -0.4555 -0.1592  0.4742
 4193SOL    HW124212   2.420   2.907   5.034 -1.8758  1.0053  1.7683
 4193SOL    HW224213   2.423   2.759   5.043 -1.5135  0.1013  0.0837
 4194SOL     OW24214   2.289   1.965   2.980 -0.0437 -0.5725  0.3868
 4194SOL    HW124215   2.230   1.916   3.037 -1.5236 -1.8981 -2.2870
 4194SOL    HW224216   2.249   2.051   2.992 -1.4380 -1.1720 -0.0318
 4195SOL     OW24217   1.011   1.779   5.864 -0.7298 -0.3083 -0.3097
 4195SOL    HW124218   0.973   1.860   5.898 -1.8835 -0.7579 -0.5233
 4195SOL    HW224219   1.099   1.809   5.842 -2.2546  2.4535 -2.6282
 4196SOL     OW24220   4.225   0.646   5.267 -0.0015  0.3077  0.2827
 4196SOL    HW124221   4.270   0.719   5.310 -1.4056 -0.3660  2.9425
 4196SOL    HW224222   4.182   0.612   5.346 -0.1994 -2.7059 -1.1374
 4197SOL     OW24223   0.531   3.213   9.328  0.3948 -0.5130 -0.0319
 4197SOL    HW124224   0.617   3.178   9.351 -0.2271 -1.8171  0.2873
 4197SOL    HW224225   0.498   3.144   9.270 -1.2974 -1.7860  2.4516
 4198SOL     OW24226   0.421   1.416   9.045 -0.9700 -0.7399  0.3396
 4198SOL    HW124227   0.391   1.474   9.115 -0.6148  1.5155 -1.3554
 4198SOL    HW224228   0.350   1.415   8.980  0.4157 -0.2384 -1.1905
 4199SOL     OW24229   3.501   3.581   5.541 -0.1707 -1.2764  0.3625
 4199SOL    HW124230   3.430   3.521   5.567 -0.6091 -1.1717 -0.5836
 4199SOL    HW224231   3.503   3.640   5.616  1.5044 -1.4090  0.4219
 4200SOL     OW24232   2.654   0.752   1.555 -0.2776 -0.9097  0.5582
 4200SOL    HW124233   2.625   0.843   1.547  2.3158  0.0092  1.3721
 4200SOL    HW224234   2.574   0.703   1.575 -0.5156 -0.0371  1.7393
 4201SOL     OW24235   4.276   0.306   7.635  0.3929  0.3209  0.4054
 4201SOL    HW124236   4.197   0.350   7.603  0.6441 -0.9968 -2.0973
 4201SOL    HW224237   4.293   0.349   7.718  1.2617 -1.1797  0.9987
 4202SOL     OW24238   1.670   3.731   9.069 -0.0276 -0.1506  0.4301
 4202SOL    HW124239   1.699   3.678   8.994 -2.4832  0.0435 -0.6508
 4202SOL    HW224240   1.720   3.702   9.145  1.0659 -0.0175 -0.2373
 4203SOL     OW24241   2.478   2.139   5.218 -0.3232 -0.5167 -0.2777
 4203SOL    HW124242   2.453   2.120   5.128  0.0255 -1.7927 -0.1095
 4203SOL    HW224243   2.396   2.167   5.259 -1.0323 -1.1905 -1.2522
 4204SOL     OW24244   3.991   1.803   3.831  0.4657 -0.5046 -0.1114
 4204SOL    HW124245   4.083   1.788   3.854  0.1474  0.2778  1.5970
 4204SOL    HW224246   3.965   1.881   3.880 -0.2834  0.2121 -1.6552
 4205SOL     OW24247   3.265   4.267  15.758 -0.6035 -0.0238 -0.2585
 4205SOL    HW124248   3.240   4.359  15.765  0.3366  0.1814  0.4247
 4205SOL    HW224249   3.346   4.263  15.809 -1.0383 -0.5580  0.3711
 4206SOL     OW24250   2.154   3.801   6.024 -0.3839 -0.0274 -0.1622
 4206SOL    HW124251   2.173   3.717   6.066  2.4578  1.1947  1.0753
 4206SOL    HW224252   2.162   3.859   6.100 -0.9484 -0.1943  0.0230
 4207SOL     OW24253   3.938   2.238  16.091 -0.0113  0.2859  0.1772
 4207SOL    HW124254   3.887   2.161  16.118  3.3793 -1.4165  1.6870
 4207SOL    HW224255   3.917   2.298  16.163 -0.7793  2.4535 -1.8640
 4208SOL     OW24256   0.214   1.798  15.163 -0.0191 -0.2465 -0.5297
 4208SOL    HW124257   0.120   1.800  15.181 -0.2316 -1.8592 -1.5547
 4208SOL    HW224258   0.235   1.881  15.120  0.1929  0.7677  1.4976
 4209SOL     OW24259   2.370   1.283  10.991  0.5528  0.3427  0.3997
 4209SOL    HW124260   2.280   1.294  10.963  0.3539  2.1088  1.7805
 4209SOL    HW224261   2.419   1.312  10.914 -1.4050 -2.3131 -1.8554
 4210SOL     OW24262   1.903   4.209   8.349  0.0803 -0.3617  0.0771
 4210SOL    HW124263   1.955   4.132   8.324  0.6332  0.3777 -0.9899
 4210SOL    HW224264   1.972   4.272   8.368 -0.0149  0.1930 -1.4782
 4211SOL     OW24265   1.641   2.141   8.554 -0.2727  0.3592  0.1509
 4211SOL    HW124266   1.578   2.213   8.546  0.7595  1.1481 -1.1060
 4211SOL    HW224267   1.597   2.091   8.622  0.7125  0.3701  0.7980
 4212SOL     OW24268   0.752   2.758   3.996 -0.0224  0.0950 -0.6762
 4212SOL    HW124269   0.822   2.693   4.002  0.1540  0.3809  0.2637
 4212SOL    HW224270   0.805   2.833   3.967 -0.8815  0.0368 -2.3807
 4213SOL     OW24271   0.324   4.360  17.040 -0.4243 -0.0134 -0.1023
 4213SOL    HW124272   0.291   4.419  17.107  0.6188  0.7127 -0.2190
 4213SOL    HW224273   0.355   4.419  16.971 -1.1440 -1.0556 -1.3040
 4214SOL     OW24274   2.526   0.520   2.206  0.1099  0.3205  0.1163
 4214SOL    HW124275   2.492   0.586   2.147 -0.1403 -0.4773 -0.6362
 4214SOL    HW224276   2.450   0.467   2.230  0.8037 -0.1112  1.3528
 4215SOL     OW24277   0.932   2.420   0.836 -0.1605  0.2828  0.5427
 4215SOL    HW124278   0.932   2.384   0.924  2.0153  1.1015  0.8588
 4215SOL    HW224279   0.929   2.347   0.774  1.4548  0.4053  0.3396
 4216SOL     OW24280   4.117   3.081   9.108  0.6902  0.0178 -0.5069
 4216SOL    HW124281   4.098   3.082   9.014  0.7201 -0.8173 -0.5217
 4216SOL    HW224282   4.145   2.990   9.104  0.9334  0.1383 -1.6247
 4217SOL     OW24283   0.209   1.849  13.770 -0.5083  0.3119 -0.0208
 4217SOL    HW124284   0.128   1.811  13.806  0.5017  0.2334  2.1758
 4217SOL    HW224285   0.211   1.807  13.684 -0.0374 -1.5931  0.9164
 4218SOL     OW24286   4.435   1.202   2.076  0.3793  0.0593 -0.3031
 4218SOL    HW124287   4.365   1.225   2.138 -0.0055 -0.4911 -0.5358
 4218SOL    HW224288   4.432   1.107   2.090  1.7080  0.0372 -0.1307
 4219SOL     OW24289   0.996   2.175   3.235 -0.1196 -0.3972 -0.4767
 4219SOL    HW124290   0.932   2.223   3.184 -2.6597 -0.0863  2.9764
 4219SOL    HW224291   1.035   2.116   3.170 -0.0391 -0.6632 -0.1905
 4220SOL     OW24292   0.182   3.288   5.510 -0.0157  0.1701  0.2692
 4220SOL    HW124293   0.109   3.343   5.480 -1.3075 -0.6105  1.9947
 4220SOL    HW224294   0.227   3.261   5.430 -2.2403 -1.6020 -0.3965
 4221SOL     OW24295   0.491   3.749   3.104  0.3306  0.6171  0.4168
 4221SOL    HW124296   0.482   3.699   3.023 -0.1604 -1.3721  1.6951
 4221SOL    HW224297   0.507   3.838   3.073 -0.9931  1.1783  1.3230
 4222SOL     OW24298   3.221   0.929  17.128 -0.7876 -0.0606 -0.2633
 4222SOL    HW124299   3.313   0.950  17.140 -1.0483 -0.9732  3.4395
 4222SOL    HW224300   3.192   0.986  17.057  1.2673 -0.9109 -1.7721
 4223SOL     OW24301   0.403   4.489   6.872 -0.3831  0.1601 -0.3111
 4223SOL    HW124302   0.391   4.426   6.801  0.3787  0.8205 -1.0380
 4223SOL    HW224303   0.379   4.568   6.823 -2.2872  1.3527  2.5929
 4224SOL     OW24304   2.813   2.866  16.622  0.1230 -0.1254  0.3181
 4224SOL    HW124305   2.809   2.943  16.566  1.3938  0.6119  1.2394
 4224SOL    HW224306   2.807   2.795  16.558 -1.2707  1.5355 -1.3789
 4225SOL     OW24307   0.671   2.849   3.082  0.3651 -0.6512  0.3493
 4225SOL    HW124308   0.652   2.771   3.030 -0.5334 -1.4697  1.9161
 4225SOL    HW224309   0.739   2.889   3.028 -0.0729 -0.6997 -0.2353
 4226SOL     OW24310   2.425   1.397   7.678  0.5748  0.0235 -0.5040
 4226SOL    HW124311   2.363   1.348   7.624 -0.3727  1.6833 -0.8978
 4226SOL    HW224312   2.490   1.329   7.694 -0.0046 -0.8513 -1.8450
 4227SOL     OW24313   2.701   0.496   3.534  0.1037 -0.1022 -0.0589
 4227SOL    HW124314   2.785   0.511   3.490  0.6556  2.5553  1.9103
 4227SOL    HW224315   2.667   0.585   3.543 -2.4075 -1.1359  0.4483
 4228SOL     OW24316   1.286   4.259   8.297 -0.2430  0.3059 -0.4710
 4228SOL    HW124317   1.287   4.282   8.390  1.0636  0.8463 -0.6171
 4228SOL    HW224318   1.340   4.329   8.260  1.0327 -0.6160 -0.3780
 4229SOL     OW24319   2.169   2.612  11.249  0.5843  0.2662  0.0353
 4229SOL    HW124320   2.111   2.682  11.219  1.5798  0.6928 -0.9070
 4229SOL    HW224321   2.255   2.652  11.237  0.9895 -0.5668  0.1671
 4230SOL     OW24322   1.609   1.752   6.422  0.5442  0.0353  0.2334
 4230SOL    HW124323   1.661   1.727   6.346  1.4990  1.0941  0.5206
 4230SOL    HW224324   1.596   1.847   6.411 -2.5059 -0.6049 -1.6645
 4231SOL     OW24325   0.867   0.803   2.578  0.4818 -0.2561 -0.2347
 4231SOL    HW124326   0.883   0.762   2.663  1.3098 -2.2053 -1.3261
 4231SOL    HW224327   0.897   0.733   2.520 -2.4255 -2.5728  1.0384
 4232SOL     OW24328   3.250   2.357   9.050  0.1311 -0.6114  0.4871
 4232SOL    HW124329   3.259   2.377   9.143 -1.2816  0.5865  0.3580
 4232SOL    HW224330   3.233   2.445   9.017  2.9393 -0.5750 -0.8537
 4233SOL     OW24331   3.924   1.561   7.741  0.5818  0.0084 -0.1764
 4233SOL    HW124332   3.979   1.504   7.687  2.4706  1.7222 -0.0765
 4233SOL    HW224333   3.848   1.503   7.735  0.1193  0.6328 -0.2919
 4234SOL     OW24334   2.041   4.706   7.091  0.2010  0.2414 -0.1016
 4234SOL    HW124335   1.965   0.010   7.047  0.3924 -0.7938 -1.4148
 4234SOL    HW224336   2.013   4.619   7.119 -0.9131  0.4100 -0.6808
 4235SOL     OW24337   3.557   1.508   4.193 -0.3227 -0.3118  0.7369
 4235SOL    HW124338   3.567   1.419   4.229  1.2390 -0.9438 -1.2736
 4235SOL    HW224339   3.493   1.549   4.252 -0.6325  0.6248 -0.2660
 4236SOL     OW24340   4.026   0.032  15.836  0.2841 -0.0272  0.4043
 4236SOL    HW124341   3.980   4.686  15.829  2.8029 -1.2958 -0.7608
 4236SOL    HW224342   3.983   0.071  15.913 -0.3325  0.6170 -0.2712
 4237SOL     OW24343   2.053   1.455   4.818  0.0529  0.4910 -0.1866
 4237SOL    HW124344   1.992   1.526   4.839  0.4551  0.3383  1.5214
 4237SOL    HW224345   2.131   1.483   4.866 -0.5218  0.2577  0.8650
 4238SOL     OW24346   2.677   1.716  10.447  0.3765 -0.1865 -1.0028
 4238SOL    HW124347   2.736   1.738  10.375 -1.1331 -1.0760 -2.5100
 4238SOL    HW224348   2.744   1.732  10.514  0.9954 -0.5083 -1.5451
 4239SOL     OW24349   3.341   3.955   0.370  0.0505  0.6434 -0.0039
 4239SOL    HW124350   3.282   4.030   0.360 -1.1403 -0.1664  1.0542
 4239SOL    HW224351   3.364   3.947   0.277 -0.9533 -0.6721 -0.1308
 4240SOL     OW24352   0.773   1.088   2.518 -0.4787  0.1659  0.0988
 4240SOL    HW124353   0.779   0.994   2.531 -1.4860  0.3498  1.7538
 4240SOL    HW224354   0.775   1.096   2.422  0.8672 -0.0428  0.1095
 4241SOL     OW24355   2.262   4.608  15.615 -0.6175 -0.8506 -0.0807
 4241SOL    HW124356   2.249   4.555  15.537 -0.5310 -0.4535 -0.3641
 4241SOL    HW224357   2.176   4.616  15.657 -0.5166 -0.8376  0.1270
 4242SOL     OW24358   1.948   2.625   8.073 -0.1693  1.2532 -0.8020
 4242SOL    HW124359   1.861   2.654   8.047 -2.4567 -1.8404  3.4501
 4242SOL    HW224360   1.982   2.712   8.092 -0.0531  0.8713  0.7079
 4243SOL     OW24361   1.661   4.465  10.257  0.0708  0.3867  0.0831
 4243SOL    HW124362   1.718   4.410  10.310 -0.3136 -1.0428 -0.9533
 4243SOL    HW224363   1.721   4.500  10.191 -1.5253  1.8795 -0.5777
 4244SOL     OW24364   0.110   3.347   9.104  0.7498 -0.3545  0.0223
 4244SOL    HW124365   0.199   3.322   9.078  0.3814 -0.9805 -0.6198
 4244SOL    HW224366   0.077   3.401   9.031 -1.9583  0.4995  1.8784
 4245SOL     OW24367   1.223   1.926   5.837 -0.0570  0.1264 -0.1180
 4245SOL    HW124368   1.243   1.945   5.928 -1.8044  0.3383  0.2232
 4245SOL    HW224369   1.219   2.015   5.802  1.2476  0.8231  1.5142
 4246SOL     OW24370   4.116   1.343   3.217  0.6651  0.1299 -0.2545
 4246SOL    HW124371   4.204   1.306   3.229 -0.2931 -2.0453 -0.0983
 4246SOL    HW224372   4.109   1.385   3.303 -1.8326 -0.8778  0.0362
 4247SOL     OW24373   2.809   3.058   7.548  0.0499 -0.2067  0.1293
 4247SOL    HW124374   2.885   3.114   7.564 -2.5130  2.8808  1.4055
 4247SOL    HW224375   2.756   3.124   7.505  0.1616 -0.6237 -0.6540
 4248SOL     OW24376   0.733   2.201   1.236 -0.0300 -0.3805  0.3246
 4248SOL    HW124377   0.673   2.171   1.167 -1.7518  0.2742  1.5206
 4248SOL    HW224378   0.745   2.116   1.279  3.1257  0.2311  0.6276
 4249SOL     OW24379   1.560   0.818   3.788 -0.0843  0.4063  0.6829
 4249SOL    HW124380   1.650   0.785   3.792 -0.5696 -1.0630 -0.4976
 4249SOL    HW224381   1.575   0.892   3.847 -0.7092  0.6434  0.5438
 4250SOL     OW24382   3.347   0.619   3.261 -0.2118  0.0452  0.2111
 4250SOL    HW124383   3.426   0.565   3.264 -0.4630 -0.4108 -1.3595
 4250SOL    HW224384   3.386   0.698   3.297 -1.4430 -0.1931  2.0780
 4251SOL     OW24385   1.925   3.835   0.002  0.5020 -0.3755  0.6611
 4251SOL    HW124386   1.919   3.909   0.062 -0.5679  3.4580 -4.2073
 4251SOL    HW224387   1.832   3.821  17.730  0.4022  1.0199  0.1508
 4252SOL     OW24388   2.344   3.528   6.996 -0.1731 -0.3711  0.6090
 4252SOL    HW124389   2.351   3.448   7.048  0.7924 -0.7654 -0.1302
 4252SOL    HW224390   2.436   3.547   6.981 -0.7021  1.5266 -0.3400
 4253SOL     OW24391   1.750   0.131   9.282 -0.4300 -0.3444 -0.4334
 4253SOL    HW124392   1.712   0.218   9.299 -0.6308 -0.4452 -0.3664
 4253SOL    HW224393   1.814   0.122   9.353  0.1214 -2.2706 -1.1763
 4254SOL     OW24394   1.170   1.633  13.871 -0.2916 -0.5005  0.5405
 4254SOL    HW124395   1.099   1.587  13.826  0.8316  0.1208 -1.8850
 4254SOL    HW224396   1.137   1.655  13.958  0.3422 -0.2455  0.7227
 4255SOL     OW24397   0.143   1.597   2.472 -0.2856  0.1275 -0.1242
 4255SOL    HW124398   0.146   1.685   2.434 -0.2604 -0.1053 -0.6550
 4255SOL    HW224399   0.236   1.578   2.483  0.3225  2.2217 -1.7003
 4256SOL     OW24400   4.398   3.230   9.375  0.2070  0.4187  0.5216
 4256SOL    HW124401   4.471   3.291   9.376  0.4144  0.1674  1.4730
 4256SOL    HW224402   4.370   3.243   9.285  0.1000 -2.2580  0.1821
 4257SOL     OW24403   1.748   2.614  13.678 -0.0135 -0.8315  0.5668
 4257SOL    HW124404   1.809   2.592  13.749 -1.1001 -0.5404  1.5875
 4257SOL    HW224405   1.701   2.690  13.712  0.7818 -0.3727  0.6470
 4258SOL     OW24406   2.375   2.751   2.354 -0.0029 -0.2088  0.5452
 4258SOL    HW124407   2.321   2.718   2.426  1.8449  0.0857  2.0560
 4258SOL    HW224408   2.461   2.711   2.363 -0.1889 -0.7845 -0.2408
 4259SOL     OW24409   1.075   1.727   9.243 -0.4660 -0.1570 -0.0946
 4259SOL    HW124410   1.121   1.647   9.220 -0.1492 -0.4878  1.7191
 4259SOL    HW224411   1.103   1.744   9.333 -1.3511  1.5343 -0.1442
 4260SOL     OW24412   0.199   0.020   4.659  0.0609 -0.3816  0.0017
 4260SOL    HW124413   0.180   4.667   4.632 -1.0812  0.0058 -0.5129
 4260SOL    HW224414   0.136   0.028   4.731  0.3366  1.2318  0.0624
 4261SOL     OW24415   3.108   2.107   7.215  0.1676 -0.4227 -0.1251
 4261SOL    HW124416   3.073   2.060   7.290 -0.4083 -2.6099 -1.7555
 4261SOL    HW224417   3.099   2.197   7.247  0.1236  0.0223 -1.3959
 4262SOL     OW24418   1.359   1.902   3.368  0.2633  0.0755 -0.6856
 4262SOL    HW124419   1.296   1.848   3.322  0.5675 -0.1070 -0.8900
 4262SOL    HW224420   1.319   1.987   3.348 -0.9308 -0.3300 -0.0295
 4263SOL     OW24421   2.695   4.341   5.098 -0.6910 -0.0818 -0.3753
 4263SOL    HW124422   2.653   4.307   5.019  2.1700 -2.2928 -0.9466
 4263SOL    HW224423   2.684   4.436   5.092 -0.7390 -0.1395 -1.1926
 4264SOL     OW24424   1.021   2.927   8.782 -0.1806 -0.0949 -0.5687
 4264SOL    HW124425   0.981   2.996   8.730  1.9079  0.6896 -1.1384
 4264SOL    HW224426   1.110   2.914   8.748  0.8657  0.6866  1.8578
 4265SOL     OW24427   3.745   4.655   8.638  0.2599 -0.1729 -0.2860
 4265SOL    HW124428   3.670   4.714   8.635 -0.2867 -0.9185 -1.3348
 4265SOL    HW224429   3.741   4.600   8.559  1.7856 -0.1058 -0.4194
 4266SOL     OW24430   4.078   3.737  14.966 -0.4558 -0.0997 -0.1644
 4266SOL    HW124431   4.041   3.822  14.991  0.8259  0.3902  0.0625
 4266SOL    HW224432   4.006   3.705  14.913 -0.8654  1.1122 -0.3561
 4267SOL     OW24433   0.421   0.277   8.516 -0.6161  0.0055 -0.2887
 4267SOL    HW124434   0.448   0.338   8.586  1.7669 -1.9028  0.4534
 4267SOL    HW224435   0.479   0.204   8.537 -0.7089 -0.0225 -0.1317
 4268SOL     OW24436   0.073   1.459  15.792 -0.3251 -0.2997 -0.1791
 4268SOL    HW124437   0.101   1.545  15.824 -1.3269  0.4568 -1.3114
 4268SOL    HW224438   4.730   1.448  15.843 -0.3447 -2.3543 -0.6702
 4269SOL     OW24439   1.470   3.439   2.429 -0.0408  0.4716  0.4547
 4269SOL    HW124440   1.397   3.496   2.403 -1.0658 -0.9415  0.2123
 4269SOL    HW224441   1.533   3.493   2.475  0.1251 -2.1875  3.3316
 4270SOL     OW24442   2.008   2.277  17.242  0.1275 -0.4652  0.4539
 4270SOL    HW124443   2.034   2.197  17.197 -0.3866 -0.2547 -0.2180
 4270SOL    HW224444   2.094   2.307  17.271  0.0014  1.0849 -0.8231
 4271SOL     OW24445   0.994   3.016   9.341  0.4008 -0.4815  0.4867
 4271SOL    HW124446   0.975   2.980   9.254 -0.7241  0.6575  0.2645
 4271SOL    HW224447   1.083   2.985   9.356 -0.4105 -3.6381 -1.2102
 4272SOL     OW24448   2.056   3.554   6.962  0.2737 -0.0583 -0.2956
 4272SOL    HW124449   2.031   3.473   7.008 -1.0865  0.7993  0.4664
 4272SOL    HW224450   2.150   3.536   6.954  0.6480  2.3094 -1.0805
 4273SOL     OW24451   3.167   4.296  17.270  0.3932  0.1415  0.1899
 4273SOL    HW124452   3.155   4.202  17.256  0.4175  0.0764  0.6140
 4273SOL    HW224453   3.082   4.325  17.302  0.7979  1.3939  0.1451
 4274SOL     OW24454   3.062   3.560  12.383 -0.0839  0.3089 -0.2380
 4274SOL    HW124455   3.077   3.514  12.466  0.5940  1.7846  0.4554
 4274SOL    HW224456   2.984   3.510  12.361 -1.6775  1.5635  2.5887
 4275SOL     OW24457   0.937   3.746  10.827 -0.1323  0.1000  0.4377
 4275SOL    HW124458   0.924   3.658  10.863 -2.1653  0.0282 -0.5047
 4275SOL    HW224459   0.850   3.785  10.821 -0.3883 -1.0047 -2.9402
 4276SOL     OW24460   1.367   1.339   2.166 -0.0527  0.1828  0.0792
 4276SOL    HW124461   1.319   1.346   2.249  0.2314 -1.0654  0.3605
 4276SOL    HW224462   1.326   1.258   2.134 -1.6535  0.2423  1.9616
 4277SOL     OW24463   2.499   4.086   6.441 -0.1159  0.4349 -0.1765
 4277SOL    HW124464   2.526   4.081   6.532 -1.6139  1.3142  0.3214
 4277SOL    HW224465   2.407   4.060   6.444 -0.7353  2.9210  2.2817
 4278SOL     OW24466   0.367   2.841   3.336 -0.4189  0.0203  0.0617
 4278SOL    HW124467   0.378   2.769   3.398  1.1451 -2.0321 -2.5796
 4278SOL    HW224468   0.344   2.911   3.396 -0.7754  0.5702 -0.7180
 4279SOL     OW24469   3.923   3.702  10.400  0.6152 -0.4232 -0.1233
 4279SOL    HW124470   3.894   3.781  10.446  0.4811 -1.6282  1.8818
 4279SOL    HW224471   4.003   3.674  10.443  0.7926  0.6296  0.2344
 4280SOL     OW24472   3.786   1.367   6.549 -0.0956 -0.1287  0.0678
 4280SOL    HW124473   3.831   1.320   6.619 -1.5303 -1.5667  0.0171
 4280SOL    HW224474   3.776   1.452   6.594  0.7145  0.0507 -0.0962
 4281SOL     OW24475   0.384   1.318   4.166 -0.2786  0.6131 -0.0403
 4281SOL    HW124476   0.475   1.339   4.144  0.1445 -2.0390 -0.8173
 4281SOL    HW224477   0.370   1.241   4.112 -1.0644  1.9051 -1.6841
 4282SOL     OW24478   3.987   4.547   1.479  0.2059 -0.3300 -0.1725
 4282SOL    HW124479   3.941   4.599   1.545  1.1732 -0.2876  0.4701
 4282SOL    HW224480   3.990   4.466   1.529 -0.7834  1.7681  3.3126
 4283SOL     OW24481   0.369   1.768   0.585  0.1711 -0.3731 -0.0328
 4283SOL    HW124482   0.453   1.810   0.605 -0.6139 -0.0113  2.4797
 4283SOL    HW224483   0.348   1.711   0.659  1.4365 -0.8722 -0.0651
 4284SOL     OW24484   1.167   4.044   9.106 -0.6053 -0.9057 -0.0750
 4284SOL    HW124485   1.189   3.982   9.036  0.6819  1.8177 -2.0751
 4284SOL    HW224486   1.250   4.084   9.131  0.7937 -1.1965 -4.2097
 4285SOL     OW24487   3.915   4.515   0.936  0.0571 -0.3852 -0.1483
 4285SOL    HW124488   3.926   4.495   1.029 -1.1825  0.4565  0.1802
 4285SOL    HW224489   3.847   4.582   0.938  1.0406  0.5864  0.2813
 4286SOL     OW24490   1.204   4.097   9.491  0.3928 -0.4887  0.0641
 4286SOL    HW124491   1.125   4.149   9.479  0.9453  0.3838  0.1701
 4286SOL    HW224492   1.201   4.028   9.425  1.2600  0.6906 -1.2030
 4287SOL     OW24493   4.097   4.034  10.139 -0.5930 -0.4950  0.3153
 4287SOL    HW124494   4.074   4.108  10.084 -1.6480 -1.5422 -0.6575
 4287SOL    HW224495   4.041   4.052  10.215  1.0805  1.3458  1.1147
 4288SOL     OW24496   0.097   2.470   9.505 -0.5007 -0.0478 -0.6649
 4288SOL    HW124497   0.039   2.399   9.478  0.5038 -1.0638 -0.1592
 4288SOL    HW224498   0.079   2.460   9.598  0.2460  2.1891 -0.2734
 4289SOL     OW24499   1.580   1.940   8.409 -0.7378  0.3316  0.2466
 4289SOL    HW124500   1.559   1.879   8.480 -0.1639 -0.8610 -0.5970
 4289SOL    HW224501   1.609   2.017   8.459  1.2161 -0.0307 -0.3333
 4290SOL     OW24502   4.507   2.263   8.651 -0.4102  0.1426  0.2599
 4290SOL    HW124503   4.572   2.324   8.686  1.5220 -0.7784 -1.8304
 4290SOL    HW224504   4.434   2.292   8.707  1.1619  1.4183  1.6753
 4291SOL     OW24505   2.046   3.265   3.358  0.3911 -0.2521  0.1107
 4291SOL    HW124506   1.991   3.334   3.397  0.0268 -0.3854 -0.1617
 4291SOL    HW224507   2.072   3.292   3.270  0.8798  2.2112  1.0105
 4292SOL     OW24508   0.693   4.299   5.150  0.0717  0.8719  0.2700
 4292SOL    HW124509   0.686   4.380   5.099 -1.5933 -0.6230 -1.8906
 4292SOL    HW224510   0.701   4.229   5.085  1.5825  0.9173  0.4047
 4293SOL     OW24511   3.700   1.649   5.443  0.0644 -0.1937  0.7753
 4293SOL    HW124512   3.632   1.618   5.504  1.0850 -0.7294  1.6423
 4293SOL    HW224513   3.699   1.744   5.454  0.2573 -0.2238  1.0682
 4294SOL     OW24514   4.489   3.948   5.774  0.2240 -0.1389  0.2266
 4294SOL    HW124515   4.512   4.039   5.794  1.1008 -0.0921 -1.0229
 4294SOL    HW224516   4.441   3.957   5.692 -0.6651 -1.6646  0.5701
 4295SOL     OW24517   3.868   3.457   4.819  0.1218 -0.1955  0.1164
 4295SOL    HW124518   3.927   3.527   4.847 -1.0641  0.8513 -0.0208
 4295SOL    HW224519   3.836   3.416   4.899 -2.6683  3.7674  1.0173
 4296SOL     OW24520   2.711   3.115   3.355  0.9851  0.1429  0.0229
 4296SOL    HW124521   2.779   3.047   3.361  1.6842  0.7677 -0.8632
 4296SOL    HW224522   2.707   3.142   3.447 -3.0442  1.2164 -0.4757
 4297SOL     OW24523   3.041   3.043   2.396  0.1648  0.4130 -0.3193
 4297SOL    HW124524   3.077   3.131   2.394 -1.2936  1.0407  1.8366
 4297SOL    HW224525   3.110   2.995   2.442  1.7072  0.3142 -2.7351
 4298SOL     OW24526   0.085   4.199   0.821  0.3304  0.4901  0.1305
 4298SOL    HW124527   0.135   4.280   0.809 -1.4540  1.3144 -1.6378
 4298SOL    HW224528   0.141   4.122   0.830  0.1001  0.4448  1.1151
 4299SOL     OW24529   3.330   2.891  16.112  0.3218 -0.6416 -0.3764
 4299SOL    HW124530   3.324   2.797  16.095  0.6357 -0.3632 -2.0963
 4299SOL    HW224531   3.304   2.927  16.027 -0.0898 -0.1281 -0.0334
 4300SOL     OW24532   0.656   2.150   0.398  0.3110 -0.1456  0.4018
 4300SOL    HW124533   0.737   2.155   0.347  0.2758 -2.4418  0.1234
 4300SOL    HW224534   0.668   2.223   0.458 -1.9354  0.3503  0.2453
 4301SOL     OW24535   1.109   1.364   6.251  0.2641  0.3116 -0.3432
 4301SOL    HW124536   1.156   1.314   6.184 -0.4176  0.1386 -0.6946
 4301SOL    HW224537   1.071   1.426   6.188 -1.0415  0.7708  0.9089
 4302SOL     OW24538   1.931   2.179   2.742 -0.3714 -0.1441 -0.1704
 4302SOL    HW124539   1.847   2.212   2.776  1.4533  2.9880  1.3109
 4302SOL    HW224540   1.904   2.167   2.651 -1.0862  0.1307 -0.0003
 4303SOL     OW24541   2.799   3.871   8.224 -0.0335  0.0437 -0.3684
 4303SOL    HW124542   2.792   3.966   8.233  1.0523  0.2683 -1.7060
 4303SOL    HW224543   2.825   3.862   8.132  0.4978 -2.5491  0.0131
 4304SOL     OW24544   3.273   3.706  12.311 -0.4734 -0.5462  0.0963
 4304SOL    HW124545   3.252   3.783  12.365 -0.3628 -0.4657  0.0225
 4304SOL    HW224546   3.207   3.639  12.333  0.7018 -1.6111  0.3753
 4305SOL     OW24547   4.654   0.329   8.911 -0.3014  0.0325 -0.3045
 4305SOL    HW124548   4.567   0.360   8.936 -0.9242 -1.1807 -0.9874
 4305SOL    HW224549   4.697   0.337   8.996 -1.0394  0.1534  0.0556
 4306SOL     OW24550   1.584   4.588   7.224 -0.0666 -0.0426 -0.1926
 4306SOL    HW124551   1.632   4.638   7.290 -1.5062  0.9316  0.0904
 4306SOL    HW224552   1.588   4.501   7.265 -3.4952  0.3658  0.9437
 4307SOL     OW24553   4.001   1.415  13.656  0.3900  0.7502 -0.0618
 4307SOL    HW124554   3.905   1.411  13.651  0.4471  1.7102 -1.9651
 4307SOL    HW224555   4.020   1.418  13.563  0.3818  2.6252 -0.0061
 4308SOL     OW24556   1.319   0.940  10.796 -0.4212 -0.0834  0.1454
 4308SOL    HW124557   1.361   0.969  10.877 -1.2966 -0.8423  0.8780
 4308SOL    HW224558   1.392   0.956  10.736 -2.0503  1.4059 -1.4338
 4309SOL     OW24559   1.959   3.270   7.728  0.4850  0.1034  0.0448
 4309SOL    HW124560   1.943   3.217   7.650  0.4442  1.3478 -0.7982
 4309SOL    HW224561   2.013   3.206   7.774  1.3051  0.0318 -1.0236
 4310SOL     OW24562   0.717   3.189   3.764  0.2798  0.4954 -0.1752
 4310SOL    HW124563   0.773   3.266   3.749 -0.6123  1.1330 -0.2673
 4310SOL    HW224564   0.653   3.203   3.695  1.7981 -0.8095 -1.8199
 4311SOL     OW24565   1.397   1.952   5.397  0.1125 -0.3117 -0.1646
 4311SOL    HW124566   1.313   1.997   5.398  0.4445  0.3488 -1.5149
 4311SOL    HW224567   1.456   2.018   5.433  1.2124 -0.0430 -2.4346
 4312SOL     OW24568   2.460   4.050   0.431 -0.2907 -0.0665 -0.2320
 4312SOL    HW124569   2.455   4.050   0.527 -3.6484 -2.3511 -0.3880
 4312SOL    HW224570   2.554   4.060   0.419 -0.4969  1.9334 -0.2006
 4313SOL     OW24571   0.861   0.287   3.776 -0.1250 -0.0563  0.4780
 4313SOL    HW124572   0.858   0.283   3.871 -3.3647 -0.7574  0.3390
 4313SOL    HW224573   0.778   0.331   3.759  1.1444  1.1601 -2.5791
 4314SOL     OW24574   3.276   1.609   7.511 -0.1815  0.6187  0.0804
 4314SOL    HW124575   3.357   1.562   7.531 -1.6232 -1.5647  0.7636
 4314SOL    HW224576   3.228   1.592   7.592 -0.5182 -0.2810 -0.3166
 4315SOL     OW24577   1.835   2.452  16.555  0.4535  0.4070  0.1865
 4315SOL    HW124578   1.923   2.481  16.530  1.0383 -1.1685  0.4162
 4315SOL    HW224579   1.828   2.517  16.625 -2.1944  0.0328  0.2900
 4316SOL     OW24580   0.950   1.726   3.074 -0.0770  0.1887  0.2014
 4316SOL    HW124581   0.991   1.683   2.999  0.7693 -1.8422  1.8390
 4316SOL    HW224582   0.867   1.680   3.087  0.3911 -0.9490 -0.8059
 4317SOL     OW24583   1.654   1.618   9.871  0.2706 -0.3933 -0.3748
 4317SOL    HW124584   1.711   1.660   9.807  0.4356  0.5519  0.3913
 4317SOL    HW224585   1.690   1.656   9.951  2.7734 -0.8037 -1.3040
 4318SOL     OW24586   1.071   0.029   4.201  0.1596  0.3912  0.3384
 4318SOL    HW124587   1.103   0.098   4.260 -0.5072  2.1712 -1.3812
 4318SOL    HW224588   1.138   0.026   4.133  0.5240 -1.0899  0.7657
 4319SOL     OW24589   3.942   4.354   7.562  0.5813  0.1561  0.3322
 4319SOL    HW124590   3.926   4.400   7.644 -2.5207 -0.4573  0.0976
 4319SOL    HW224591   3.855   4.347   7.521  1.6541 -0.1687 -1.8990
 4320SOL     OW24592   1.846   3.637   4.926 -0.2733 -0.2870 -0.1150
 4320SOL    HW124593   1.767   3.691   4.936  1.8105  3.0162 -1.2640
 4320SOL    HW224594   1.907   3.707   4.902  0.2173 -0.2458  1.2465
 4321SOL     OW24595   0.568   1.881   7.628 -0.2619  0.1097  0.0324
 4321SOL    HW124596   0.563   1.792   7.594  0.2287  0.3317 -0.6273
 4321SOL    HW224597   0.599   1.859   7.715 -2.0060  0.6073  0.7838
 4322SOL     OW24598   3.577   3.277   6.932 -0.4918  0.1458 -0.2382
 4322SOL    HW124599   3.625   3.340   6.879 -1.9930  1.2977 -0.2476
 4322SOL    HW224600   3.578   3.316   7.019  2.9089 -2.7775  1.0219
 4323SOL     OW24601   4.164   0.615   3.482 -0.4320 -0.4605 -0.7399
 4323SOL    HW124602   4.178   0.565   3.402 -0.0996 -0.7845 -0.4775
 4323SOL    HW224603   4.095   0.561   3.519 -0.7725  0.9342  0.7059
 4324SOL     OW24604   1.799   3.670   2.418  0.3313 -0.3115  0.2691
 4324SOL    HW124605   1.831   3.583   2.443  2.3734  0.5286  0.6222
 4324SOL    HW224606   1.774   3.657   2.326 -1.3052  0.5543  0.5969
 4325SOL     OW24607   1.793   4.531   8.882 -0.3406  0.2645  0.1672
 4325SOL    HW124608   1.753   4.465   8.827  0.0780 -0.1734  0.3906
 4325SOL    HW224609   1.743   4.509   8.961  1.7571  2.2997  2.0910
 4326SOL     OW24610   3.189   3.329   6.440 -0.0171  0.2364  0.4489
 4326SOL    HW124611   3.100   3.357   6.420  1.1243  3.0359 -0.7310
 4326SOL    HW224612   3.241   3.390   6.387  1.7561 -0.1898  1.7013
 4327SOL     OW24613   1.609   4.332   7.324  0.1881 -0.2245 -0.1965
 4327SOL    HW124614   1.664   4.320   7.402 -2.6977 -2.0398  1.5691
 4327SOL    HW224615   1.675   4.304   7.260 -1.1403  0.2547 -1.7575
 4328SOL     OW24616   3.287   2.365   3.967  0.7744  0.5231 -0.1089
 4328SOL    HW124617   3.268   2.389   4.058 -1.0085 -0.8548 -0.1095
 4328SOL    HW224618   3.213   2.307   3.947 -0.0075  1.8840 -1.0836
 4329SOL     OW24619   2.133   2.809   6.482  0.2809  0.4079  0.0706
 4329SOL    HW124620   2.091   2.753   6.548 -0.9944 -0.2071 -1.2690
 4329SOL    HW224621   2.057   2.862   6.458 -0.6906 -0.6469  0.7883
 4330SOL     OW24622   3.366   4.477   2.843  0.1600 -0.2340 -0.0663
 4330SOL    HW124623   3.318   4.548   2.886 -0.5289 -1.9034  1.9110
 4330SOL    HW224624   3.356   4.408   2.908  3.7002 -0.3762  0.3433
 4331SOL     OW24625   1.636   2.685   5.309  0.1343 -0.2558  0.4087
 4331SOL    HW124626   1.577   2.746   5.353 -1.8327 -0.3110 -2.1903
 4331SOL    HW224627   1.691   2.668   5.385  0.0851 -0.6811  0.3474
 4332SOL     OW24628   1.492   1.440   7.059 -0.5113  0.3555  0.0250
 4332SOL    HW124629   1.402   1.408   7.063  0.2629 -1.9758 -1.3497
 4332SOL    HW224630   1.480   1.533   7.077 -2.4171 -0.0740  0.9970
 4333SOL     OW24631   1.767   3.857   9.872  0.6056  0.4453 -0.5293
 4333SOL    HW124632   1.705   3.819   9.810  1.9701 -0.8861 -1.0553
 4333SOL    HW224633   1.718   3.920   9.926  0.2190  0.0078 -0.3684
 4334SOL     OW24634   2.501   4.401  10.469  0.3197 -0.7717 -0.1673
 4334SOL    HW124635   2.423   4.444  10.504 -0.3035 -1.6848 -0.4353
 4334SOL    HW224636   2.467   4.327  10.420  2.0829 -1.1229 -0.8490
 4335SOL     OW24637   4.729   2.876   6.279 -0.1174  0.0829 -0.0155
 4335SOL    HW124638   4.665   2.841   6.340  0.3880  0.0027  0.4702
 4335SOL    HW224639   0.047   2.798   6.274 -1.0877 -0.6618  1.0226
 4336SOL     OW24640   4.644   2.559   0.476 -0.4565 -0.5393 -0.9917
 4336SOL    HW124641   4.718   2.556   0.537 -1.6072 -1.6253  0.3433
 4336SOL    HW224642   4.659   2.484   0.419  0.5171 -0.8087 -0.3919
 4337SOL     OW24643   1.485   1.671   1.664  0.0324  0.5025 -0.2244
 4337SOL    HW124644   1.483   1.577   1.650 -1.5575  0.4419  0.3482
 4337SOL    HW224645   1.405   1.696   1.618  1.9027  2.0779 -2.6354
 4338SOL     OW24646   3.688   3.680  13.174  0.5783  0.1095 -0.6797
 4338SOL    HW124647   3.638   3.637  13.105 -1.9459 -1.8683  2.3768
 4338SOL    HW224648   3.667   3.772  13.165  3.0359  0.9074  1.6892
 4339SOL     OW24649   2.877   4.704   0.788 -0.2923 -0.6746 -0.2753
 4339SOL    HW124650   2.818   4.661   0.726  0.8974 -2.5791 -0.0777
 4339SOL    HW224651   2.833   4.725   0.870 -1.4519 -1.1305 -0.7772
 4340SOL     OW24652   3.660   3.006   6.890  0.5199  1.0133 -0.3749
 4340SOL    HW124653   3.747   2.999   6.930  0.7838  0.5179 -1.0274
 4340SOL    HW224654   3.621   3.087   6.922 -3.7301 -0.6958 -1.2810
 4341SOL     OW24655   4.608   0.142   3.522 -0.1564  0.3252 -0.2356
 4341SOL    HW124656   4.652   0.073   3.573  0.3524  2.1712  1.8414
 4341SOL    HW224657   4.635   0.221   3.570  0.1303 -0.1576  0.4138
 4342SOL     OW24658   1.561   0.243   2.191  0.3896  0.5171 -0.1934
 4342SOL    HW124659   1.652   0.244   2.160  1.4665 -2.9476  2.7851
 4342SOL    HW224660   1.552   0.148   2.203  1.3900  0.5390  0.7822
 4343SOL     OW24661   1.168   3.362   8.297  0.0467  0.2459  0.4181
 4343SOL    HW124662   1.094   3.422   8.297 -1.3796 -1.5049  0.1445
 4343SOL    HW224663   1.138   3.305   8.368 -0.0222  0.2052  0.3566
 4344SOL     OW24664   2.345   4.701  14.779 -0.1358 -0.4347 -0.0094
 4344SOL    HW124665   2.331   4.621  14.728 -1.2385 -0.1784 -0.1241
 4344SOL    HW224666   2.281   0.024  14.741  0.7751  1.4047  1.3631
 4345SOL     OW24667   2.327   0.034  15.909  0.4627 -0.0596 -0.2594
 4345SOL    HW124668   2.252   4.715  15.886 -0.0440  1.4009 -2.2170
 4345SOL    HW224669   2.292   0.118  15.879 -3.3695 -1.3151  0.6730
 4346SOL     OW24670   1.210   3.485   8.531 -0.3051 -0.1227  0.0297
 4346SOL    HW124671   1.285   3.425   8.525 -0.7383 -0.6238 -0.3976
 4346SOL    HW224672   1.182   3.487   8.440  3.5764  2.0565 -1.1135
 4347SOL     OW24673   3.320   2.123   5.236 -0.1002 -0.0958  0.7307
 4347SOL    HW124674   3.254   2.105   5.304 -0.1306 -1.1842  0.4151
 4347SOL    HW224675   3.383   2.172   5.288 -0.0971 -0.9810  1.5776
 4348SOL     OW24676   0.716   3.770  16.622 -0.4563  0.2479 -0.4646
 4348SOL    HW124677   0.810   3.787  16.618 -0.1391 -1.1259  1.4386
 4348SOL    HW224678   0.721   3.685  16.580  0.8132  1.1381 -2.1111
 4349SOL     OW24679   0.782   4.566  15.826 -0.0808  0.1668 -0.2242
 4349SOL    HW124680   0.833   4.615  15.762  2.5338 -3.3976 -0.8279
 4349SOL    HW224681   0.853   4.538  15.883 -2.8206 -2.4342  1.9664
 4350SOL     OW24682   2.349   1.100   1.423  0.1726 -0.4950 -0.0042
 4350SOL    HW124683   2.354   1.178   1.479 -0.4315 -2.0032  2.1572
 4350SOL    HW224684   2.281   1.057   1.475  0.5681 -0.3186  0.6673
 4351SOL     OW24685   4.163   4.471   8.561  0.6330 -0.0041 -0.5439
 4351SOL    HW124686   4.151   4.560   8.595 -1.1926 -0.6659  0.5486
 4351SOL    HW224687   4.182   4.489   8.469  0.2895  0.3019 -0.5573
 4352SOL     OW24688   3.297   4.729   9.038 -0.4945 -0.0075  0.4131
 4352SOL    HW124689   3.256   4.720   9.124  0.2254 -1.9989  0.5378
 4352SOL    HW224690   3.381   4.685   9.054  0.4415  1.4311 -0.4627
 4353SOL     OW24691   0.880   2.644   9.585 -0.2977 -0.5409  0.1793
 4353SOL    HW124692   0.919   2.728   9.608 -0.5967 -0.3549  0.0098
 4353SOL    HW224693   0.873   2.612   9.675 -2.0071 -1.7948 -0.4048
 4354SOL     OW24694   2.696   1.929   1.893 -0.1527  0.3667 -0.7765
 4354SOL    HW124695   2.728   1.945   1.982  0.3376  0.1590 -0.9136
 4354SOL    HW224696   2.753   1.856   1.870 -0.0751  0.4327 -0.7955
 4355SOL     OW24697   0.024   1.263  14.452 -0.0071  0.3773 -0.0106
 4355SOL    HW124698   0.018   1.343  14.400 -0.0377  1.1604  1.2177
 4355SOL    HW224699   4.685   1.214  14.421 -1.9024  2.2179  1.7516
 4356SOL     OW24700   0.739   4.409   3.208 -0.3421  0.6263  0.8522
 4356SOL    HW124701   0.834   4.409   3.198 -0.5751  0.0492 -1.4252
 4356SOL    HW224702   0.702   4.345   3.146  1.8275 -1.0680  1.3021
 4357SOL     OW24703   2.667   4.145   2.315  0.4989  0.0587 -0.2961
 4357SOL    HW124704   2.615   4.161   2.237 -0.1624 -1.4911 -0.1750
 4357SOL    HW224705   2.689   4.054   2.296 -0.4399 -0.9995  3.5105
 4358SOL     OW24706   3.580   2.599   3.442  0.6668  0.3714  0.3006
 4358SOL    HW124707   3.511   2.572   3.382  0.4803 -0.8848  1.0681
 4358SOL    HW224708   3.552   2.561   3.526  0.2606 -1.4117 -0.6501
 4359SOL     OW24709   3.518   3.068   2.511 -0.5458  0.5331  0.7532
 4359SOL    HW124710   3.460   3.010   2.461 -0.1434 -0.0843  1.0011
 4359SOL    HW224711   3.464   3.143   2.486 -0.2443  1.0832  1.7503
 4360SOL     OW24712   2.801   1.826   6.952  0.2137 -0.0087 -0.3188
 4360SOL    HW124713   2.752   1.903   6.980  0.6801 -0.0362  0.5741
 4360SOL    HW224714   2.727   1.769   6.930  0.1107  0.5254 -1.3626
 4361SOL     OW24715   0.110   2.069  15.189 -0.4294 -0.6884  0.3099
 4361SOL    HW124716   0.162   2.148  15.195  0.1740 -1.1424  1.0562
 4361SOL    HW224717   0.019   2.091  15.166 -0.6186 -1.5570  0.1881
 4362SOL     OW24718   1.898   3.626   6.413  0.2340  0.3616  0.0910
 4362SOL    HW124719   1.976   3.572   6.429  1.1474  1.8475  0.6348
 4362SOL    HW224720   1.837   3.582   6.472  1.2544 -0.1944  0.7462
 4363SOL     OW24721   0.201   3.788   7.913 -0.3693 -0.0957  0.1572
 4363SOL    HW124722   0.245   3.786   7.998  0.5369  2.8182 -0.2598
 4363SOL    HW224723   0.271   3.829   7.863  0.7619  0.7653  2.4575
 4364SOL     OW24724   4.103   2.047  14.549  0.3660  0.1624  0.3093
 4364SOL    HW124725   4.122   1.956  14.530 -0.3524 -0.0214  0.4575
 4364SOL    HW224726   4.178   2.095  14.514  0.3084  0.6921  0.9077
 4365SOL     OW24727   1.666   2.143  15.462  0.3811  0.4094  0.0222
 4365SOL    HW124728   1.579   2.177  15.484  0.6401 -0.3065  2.1991
 4365SOL    HW224729   1.714   2.160  15.544 -2.0449  1.0594  1.3060
 4366SOL     OW24730   0.007   2.940   9.011 -0.1183 -0.0412  0.1281
 4366SOL    HW124731   0.081   2.944   8.949 -1.7643  1.1984 -1.7440
 4366SOL    HW224732   0.014   2.845   9.022  0.8548 -0.1201 -1.1947
 4367SOL     OW24733   3.875   3.014   3.158  0.0126 -0.2394  0.0342
 4367SOL    HW124734   3.925   3.067   3.220  0.1107 -0.3554  0.0560
 4367SOL    HW224735   3.796   3.065   3.143 -0.3092 -0.6362  0.3645
 4368SOL     OW24736   1.472   0.568   5.440 -0.1293  0.1374  0.0590
 4368SOL    HW124737   1.488   0.477   5.465 -3.9090 -0.1274  1.6223
 4368SOL    HW224738   1.376   0.566   5.439 -0.1343  0.9162 -0.7844
 4369SOL     OW24739   2.015   1.696   6.546  0.3267  0.6026 -0.3715
 4369SOL    HW124740   2.059   1.750   6.481  0.3941 -0.0062 -0.8337
 4369SOL    HW224741   2.084   1.653   6.596  0.8896  0.5192 -1.2300
 4370SOL     OW24742   3.809   2.639  16.178  0.0426 -0.4205 -0.1271
 4370SOL    HW124743   3.758   2.618  16.256  0.1415 -2.5120 -0.6335
 4370SOL    HW224744   3.797   2.567  16.116  2.1729  0.1052 -1.1633
 4371SOL     OW24745   2.306   0.833   3.239  0.1653 -0.4878 -0.3069
 4371SOL    HW124746   2.325   0.914   3.287  1.7945 -1.2121  0.2837
 4371SOL    HW224747   2.389   0.789   3.221  0.0390 -0.1562 -1.6989
 4372SOL     OW24748   3.049   1.406   3.562  0.7301  0.2739  0.1152
 4372SOL    HW124749   3.069   1.417   3.469  1.7618 -3.3945 -0.1259
 4372SOL    HW224750   2.977   1.468   3.568  0.0226 -0.4180 -1.2173
 4373SOL     OW24751   0.353   0.879   7.018  0.6106  0.6215  0.2927
 4373SOL    HW124752   0.330   0.786   7.019 -1.7965  1.2493  3.2014
 4373SOL    HW224753   0.283   0.924   7.065 -1.6302 -1.5781 -0.9873
 4374SOL     OW24754   1.973   2.779   2.711 -0.2347 -0.0724  0.0915
 4374SOL    HW124755   2.056   2.827   2.711 -1.0919  1.4174  1.2183
 4374SOL    HW224756   1.975   2.746   2.801  1.8483  2.0958  0.8606
 4375SOL     OW24757   1.258   4.098   7.776  0.1388  0.1782 -0.1040
 4375SOL    HW124758   1.202   4.026   7.805 -0.6803  1.4975  1.5817
 4375SOL    HW224759   1.282   4.074   7.687 -0.1679 -0.4606 -0.0216
 4376SOL     OW24760   0.632   4.158   0.544 -0.6118  0.4586 -0.2784
 4376SOL    HW124761   0.647   4.071   0.583  2.2527  0.9127 -0.3933
 4376SOL    HW224762   0.539   4.168   0.562 -0.4228  0.5054  0.6779
 4377SOL     OW24763   3.847   3.434   6.884 -0.0475 -0.0373  0.2651
 4377SOL    HW124764   3.904   3.509   6.901 -1.0512  0.2967  2.1516
 4377SOL    HW224765   3.863   3.377   6.959  0.1119 -0.0462  0.2247
 4378SOL     OW24766   0.076   0.950   8.193  0.9828 -0.1784 -0.4449
 4378SOL    HW124767   4.732   1.001   8.196  1.0162 -0.1853  0.5004
 4378SOL    HW224768   0.144   1.017   8.201  2.0319 -1.2499 -0.3574
 4379SOL     OW24769   2.452   0.346   0.253  0.7565  0.1958  0.4730
 4379SOL    HW124770   2.427   0.254   0.245  0.7854  0.2543 -0.2915
 4379SOL    HW224771   2.474   0.374   0.164  1.4686  1.6211  1.0926
 4380SOL     OW24772   0.405   4.214   4.532 -0.0323 -0.5440  0.0004
 4380SOL    HW124773   0.399   4.216   4.627 -0.9898  3.1946 -0.1519
 4380SOL    HW224774   0.464   4.138   4.531 -0.4284 -0.8462 -0.4968
 4381SOL     OW24775   1.938   2.812   7.800  0.2554 -0.1256  0.1749
 4381SOL    HW124776   1.844   2.824   7.806  0.1852 -0.6478  0.1863
 4381SOL    HW224777   1.940   2.716   7.810  0.8535  0.0773  2.1395
 4382SOL     OW24778   2.572   3.745   7.366 -0.0450 -0.4283 -0.1843
 4382SOL    HW124779   2.488   3.734   7.409 -0.2149  0.6268 -0.2394
 4382SOL    HW224780   2.546   3.788   7.285  0.8215  0.3371 -0.0597
 4383SOL     OW24781   0.186   3.123   4.450 -0.1024  0.9030 -0.3698
 4383SOL    HW124782   0.176   3.143   4.543  0.2239 -2.4078  0.3519
 4383SOL    HW224783   0.249   3.189   4.420  0.4173 -0.3626 -2.0573
 4384SOL     OW24784   3.537   2.467  12.645  0.2724 -0.6193 -0.2955
 4384SOL    HW124785   3.535   2.371  12.642 -1.4178 -0.6367  2.0476
 4384SOL    HW224786   3.507   2.491  12.732 -1.2829 -0.0371 -0.9976
 4385SOL     OW24787   0.609   0.784   4.920 -0.4826 -0.5799 -0.0890
 4385SOL    HW124788   0.551   0.860   4.926  1.5651  1.0625 -1.5928
 4385SOL    HW224789   0.669   0.809   4.850 -1.6964  1.8244 -0.2664
 4386SOL     OW24790   3.833   1.130  12.786 -0.0289  0.1687  0.3609
 4386SOL    HW124791   3.922   1.156  12.765 -0.0521  0.1172  0.2053
 4386SOL    HW224792   3.844   1.135  12.881  1.7136  1.6077  0.0863
 4387SOL     OW24793   4.515   3.974   6.189  0.1881 -0.7669  0.5031
 4387SOL    HW124794   4.560   3.894   6.162  0.4479 -0.1286 -0.9632
 4387SOL    HW224795   4.529   4.025   6.109  0.3803  0.6303  1.4367
 4388SOL     OW24796   4.285   4.505  16.334  0.2383 -0.5672  0.3565
 4388SOL    HW124797   4.313   4.414  16.328 -0.0924 -0.4928 -2.4371
 4388SOL    HW224798   4.278   4.535  16.243  1.6574 -1.9212 -0.2176
 4389SOL     OW24799   1.371   3.003   4.636  0.3154  0.0721 -0.1005
 4389SOL    HW124800   1.345   2.976   4.725 -1.2748  0.0460 -0.5683
 4389SOL    HW224801   1.438   2.936   4.626  0.1745  0.1611 -1.5935
 4390SOL     OW24802   4.406   0.048  11.378  0.4053 -0.4833 -0.0263
 4390SOL    HW124803   4.346   0.122  11.374  0.4347 -0.5433 -1.9930
 4390SOL    HW224804   4.447   0.067  11.462  1.1132 -1.2943 -0.1811
 4391SOL     OW24805   3.634   0.909  17.358  0.0369  0.0798 -0.1837
 4391SOL    HW124806   3.699   0.856  17.404  3.1631  0.4316 -4.2320
 4391SOL    HW224807   3.689   0.948  17.291 -0.5478  1.0176 -0.1179
 4392SOL     OW24808   2.846   2.242   8.849 -0.0037  0.6502  0.4305
 4392SOL    HW124809   2.896   2.278   8.776 -1.8310  0.8005 -0.7388
 4392SOL    HW224810   2.831   2.314   8.910 -0.4726  1.8872 -1.1438
 4393SOL     OW24811   3.946   0.303   8.896 -0.5851  0.2991 -0.2966
 4393SOL    HW124812   3.855   0.317   8.923 -0.2366  1.2696  0.3841
 4393SOL    HW224813   3.963   0.397   8.889 -0.8274  0.1657 -2.5817
 4394SOL     OW24814   3.996   2.785   5.090 -0.1086  0.0154  0.4952
 4394SOL    HW124815   3.983   2.840   5.014 -1.1106  0.7121  1.1686
 4394SOL    HW224816   3.984   2.701   5.046 -1.6823  0.5651 -0.1181
 4395SOL     OW24817   3.582   4.033  10.223  0.5148  0.4379 -0.1625
 4395SOL    HW124818   3.589   3.940  10.248  0.4484  1.3044  3.1758
 4395SOL    HW224819   3.491   4.052  10.244  0.0428  0.9521 -2.8078
 4396SOL     OW24820   0.273   1.706  13.404  0.2965  0.2406  0.0490
 4396SOL    HW124821   0.192   1.720  13.454  0.3632 -0.3883  0.3313
 4396SOL    HW224822   0.326   1.646  13.456 -0.3658  1.0353  1.6425
 4397SOL     OW24823   2.826   4.466  17.696 -0.6163  0.7883 -0.4284
 4397SOL    HW124824   2.899   4.498   0.002  0.3032  0.0930 -1.2846
 4397SOL    HW224825   2.751   4.496  17.746  0.6600  1.5055  1.0525
 4398SOL     OW24826   0.052   1.341  12.840 -0.0499  0.4203 -0.3055
 4398SOL    HW124827   0.144   1.353  12.813 -0.3262 -0.5255 -1.6924
 4398SOL    HW224828   0.060   1.246  12.846  1.5923  0.5422 -0.3551
 4399SOL     OW24829   2.451   2.705  12.064  0.2029 -0.2150  0.3802
 4399SOL    HW124830   2.500   2.691  12.145  1.5886 -0.7185 -0.5262
 4399SOL    HW224831   2.430   2.615  12.037 -2.4034  0.4997  0.0866
 4400SOL     OW24832   1.195   1.614  13.055  0.0114  0.7047 -0.3850
 4400SOL    HW124833   1.140   1.686  13.024  0.1126  0.6918 -0.5983
 4400SOL    HW224834   1.284   1.633  13.023  0.4468 -1.2670 -0.3307
 4401SOL     OW24835   3.552   0.076  10.129 -0.4237  0.5892  0.2556
 4401SOL    HW124836   3.620   0.143  10.138  0.7387 -0.6479  0.7403
 4401SOL    HW224837   3.551   0.043  10.039  0.6937 -0.3633  0.5944
 4402SOL     OW24838   2.745   1.881   5.135  0.1048  0.1091 -0.3573
 4402SOL    HW124839   2.735   1.790   5.161  0.6326  0.0820 -0.2587
 4402SOL    HW224840   2.650   1.884   5.144  0.2043 -2.4750  1.4044
 4403SOL     OW24841   3.510   3.849   3.209 -0.3149  0.4764  0.4245
 4403SOL    HW124842   3.441   3.791   3.178  1.1406 -0.1083 -1.7551
 4403SOL    HW224843   3.462   3.929   3.229 -1.7276 -0.2865  0.0479
 4404SOL     OW24844   0.413   3.553   5.992  0.3861 -0.0300  0.2573
 4404SOL    HW124845   0.339   3.513   5.946  0.2709 -0.8944  1.2061
 4404SOL    HW224846   0.411   3.519   6.081  0.5712 -2.4550 -0.6761
 4405SOL     OW24847   0.839   0.692   6.860  0.4104 -0.4549 -0.0824
 4405SOL    HW124848   0.895   0.642   6.919 -0.6146 -0.3171  0.9939
 4405SOL    HW224849   0.815   0.628   6.793  1.1516 -1.8440  0.9665
 4406SOL     OW24850   0.204   0.583   2.521 -0.2069 -0.0619 -0.1065
 4406SOL    HW124851   0.126   0.574   2.576  0.5507  2.4563  1.3810
 4406SOL    HW224852   0.202   0.500   2.473  0.2800  0.7587 -1.5503
 4407SOL     OW24853   3.441   4.544   1.396 -0.3974 -0.1204 -0.3567
 4407SOL    HW124854   3.371   4.561   1.459 -1.7925  2.0804 -2.4964
 4407SOL    HW224855   3.414   4.470   1.343  0.8521  0.3727 -1.7159
 4408SOL     OW24856   4.690   0.395   5.482 -0.0682  0.4232 -0.1320
 4408SOL    HW124857   4.712   0.303   5.494  0.3053  0.0969 -3.4620
 4408SOL    HW224858   4.656   0.393   5.393  2.4417  0.3921 -1.0969
 4409SOL     OW24859   3.322   4.397   4.710  0.3289  0.1151  0.1121
 4409SOL    HW124860   3.291   4.340   4.639 -0.4271  2.2025 -1.2440
 4409SOL    HW224861   3.342   4.476   4.659  0.8315  0.0663  0.2318
 4410SOL     OW24862   1.435   2.849   7.251 -0.3242  0.1993  0.0053
 4410SOL    HW124863   1.518   2.849   7.297 -1.0074  1.6528  1.2409
 4410SOL    HW224864   1.387   2.912   7.305 -0.5206  0.1061 -0.0606
 4411SOL     OW24865   0.835   2.104   7.677  0.6443  0.5334 -0.4779
 4411SOL    HW124866   0.811   2.109   7.770 -1.8115  0.2921 -1.1011
 4411SOL    HW224867   0.765   2.157   7.637 -0.4315 -0.7776 -0.3259
 4412SOL     OW24868   1.590   1.212   9.332 -0.1378 -0.3997 -0.4036
 4412SOL    HW124869   1.620   1.172   9.250 -1.4297  0.4311 -1.2847
 4412SOL    HW224870   1.642   1.162   9.394 -3.1341 -0.6337  1.9017
 4413SOL     OW24871   4.715   2.939   2.286  0.1084  0.2534  0.2578
 4413SOL    HW124872   0.054   2.900   2.242 -0.3201 -0.1217 -0.1619
 4413SOL    HW224873   0.016   2.976   2.365 -0.3279  1.0852  0.0794
 4414SOL     OW24874   2.404   3.793   8.522  0.1968 -1.1618 -0.0489
 4414SOL    HW124875   2.495   3.800   8.496 -0.0358 -2.1413 -1.1024
 4414SOL    HW224876   2.402   3.788   8.618  1.9293 -1.2817 -0.0298
 4415SOL     OW24877   1.863   3.024  11.492  0.0642  0.1969  0.0753
 4415SOL    HW124878   1.806   2.956  11.528  0.6029  0.0089  0.5734
 4415SOL    HW224879   1.806   3.050  11.420 -1.7248 -1.1601  0.9948
 4416SOL     OW24880   1.220   3.711   7.664 -0.3682  0.5185  0.3103
 4416SOL    HW124881   1.214   3.683   7.755 -0.0793 -1.6328 -0.3468
 4416SOL    HW224882   1.291   3.655   7.634 -2.4245 -0.9453 -1.7897
 4417SOL     OW24883   0.981   1.643  12.169  0.3574  0.1092 -0.1563
 4417SOL    HW124884   0.929   1.667  12.092  0.5795  0.0569 -0.3215
 4417SOL    HW224885   1.017   1.728  12.194 -0.4461  1.5870 -4.0858
 4418SOL     OW24886   1.399   0.839  17.034 -0.4041 -0.1358 -0.0003
 4418SOL    HW124887   1.411   0.753  17.074  0.7125  0.0381  0.0612
 4418SOL    HW224888   1.314   0.866  17.068 -0.1039  0.4974  0.2603
 4419SOL     OW24889   2.983   0.225   3.039  0.3402 -0.4672 -0.1376
 4419SOL    HW124890   3.066   0.249   3.080  0.8433  0.3173 -1.6254
 4419SOL    HW224891   3.003   0.244   2.947 -0.2041 -0.7000 -0.3011
 4420SOL     OW24892   0.099   1.334  10.688  0.4315 -0.0365  0.4183
 4420SOL    HW124893   0.163   1.281  10.735  2.2950  0.4012 -1.6260
 4420SOL    HW224894   0.023   1.315  10.742 -0.5568 -1.2514 -1.4292
 4421SOL     OW24895   3.648   2.268   6.254 -0.0608 -0.0524 -0.1164
 4421SOL    HW124896   3.662   2.363   6.253 -2.0197  0.2185 -2.4053
 4421SOL    HW224897   3.630   2.256   6.161  0.3740 -2.2618  0.0984
 4422SOL     OW24898   0.861   0.102   1.969  0.0475 -0.2590  0.2831
 4422SOL    HW124899   0.849   0.175   1.907 -1.0526 -0.7938 -0.1421
 4422SOL    HW224900   0.823   0.138   2.049  0.4087  1.4500 -0.3185
 4423SOL     OW24901   2.450   3.558   5.750 -0.0163 -0.2405  0.0765
 4423SOL    HW124902   2.405   3.534   5.669  1.0177 -1.6739 -0.0889
 4423SOL    HW224903   2.522   3.609   5.713 -1.5312 -0.2597 -2.9663
 4424SOL     OW24904   4.220   3.725   7.227  0.5707 -0.2708  0.0068
 4424SOL    HW124905   4.212   3.631   7.208  2.1453 -0.3838 -0.0766
 4424SOL    HW224906   4.285   3.739   7.296  1.3411 -0.8809 -0.6021
 4425SOL     OW24907   2.515   4.496   1.651  0.7037 -0.0890  0.9011
 4425SOL    HW124908   2.479   4.454   1.573 -0.3797  0.8055  0.9048
 4425SOL    HW224909   2.515   4.440   1.728 -1.4715 -0.1494  0.8664
 4426SOL     OW24910   4.672   1.980   3.366 -0.1343 -0.2680 -0.0084
 4426SOL    HW124911   4.659   2.075   3.357  1.2064 -0.0348  0.5258
 4426SOL    HW224912   4.609   1.942   3.305  0.2337  1.0353 -1.1926
 4427SOL     OW24913   0.404   1.360  16.051 -0.4675  0.0288 -0.2766
 4427SOL    HW124914   0.489   1.379  16.011 -1.6945  0.5505 -2.6222
 4427SOL    HW224915   0.402   1.435  16.110  1.1865  1.2766 -1.8028
 4428SOL     OW24916   0.033   1.121   3.154 -0.4955 -0.2927 -0.0854
 4428SOL    HW124917   0.033   1.131   3.059 -1.8431  1.7624  0.1380
 4428SOL    HW224918   0.032   1.212   3.184  0.6948 -0.3128  0.0439
 4429SOL     OW24919   2.408   4.549   5.137  0.5487 -0.0312  0.0853
 4429SOL    HW124920   2.500   4.554   5.110  0.9267 -2.9339  0.7888
 4429SOL    HW224921   2.373   4.629   5.098  0.7468 -0.7010 -1.4782
 4430SOL     OW24922   2.069   1.807   3.869  0.1510 -0.8044  0.5596
 4430SOL    HW124923   2.008   1.746   3.909 -1.2999 -0.8183 -1.6576
 4430SOL    HW224924   2.038   1.895   3.890  1.0457 -0.2881 -0.2729
 4431SOL     OW24925   2.194   0.292   7.520  0.4015  0.7427 -0.4985
 4431SOL    HW124926   2.242   0.220   7.561  0.8462  0.4517 -1.5202
 4431SOL    HW224927   2.147   0.251   7.448 -2.0876 -2.2838  2.8820
 4432SOL     OW24928   0.838   2.738  11.922 -0.2048 -0.0944  0.6819
 4432SOL    HW124929   0.747   2.716  11.903 -0.5826  3.8066 -1.9752
 4432SOL    HW224930   0.832   2.811  11.984 -2.3324  1.2510 -1.1074
 4433SOL     OW24931   3.674   4.471   4.634  0.6540  0.1272  0.2535
 4433SOL    HW124932   3.768   4.486   4.623  0.5160  1.4365  0.8567
 4433SOL    HW224933   3.670   4.381   4.601 -1.1623 -0.0789  1.0671
 4434SOL     OW24934   3.700   4.185   8.100 -0.6585 -0.0686  0.3548
 4434SOL    HW124935   3.794   4.175   8.087 -1.1549 -0.7781 -2.5804
 4434SOL    HW224936   3.707   4.268   8.147  0.3168  0.0673 -0.0370
 4435SOL     OW24937   4.179   4.264   4.034 -0.3283 -0.1067  0.7825
 4435SOL    HW124938   4.184   4.327   4.105 -0.9160  1.5178 -0.6237
 4435SOL    HW224939   4.106   4.292   3.979  0.4933 -2.2148 -1.4265
 4436SOL     OW24940   0.076   1.611   3.103 -0.0236 -0.0479 -0.5932
 4436SOL    HW124941   0.117   1.564   3.030  1.4310 -0.7314  0.6756
 4436SOL    HW224942   0.035   1.538   3.149  1.6511 -0.9721 -0.5906
 4437SOL     OW24943   4.672   3.479   5.693 -0.3371 -0.4667 -1.1832
 4437SOL    HW124944   0.003   3.539   5.665 -0.4963  0.8027  1.1415
 4437SOL    HW224945   4.597   3.539   5.695 -1.0614 -1.4121  0.7349
 4438SOL     OW24946   3.805   0.777   8.665  0.5186 -0.3005 -0.1351
 4438SOL    HW124947   3.823   0.795   8.572 -1.2855 -0.8109 -0.5836
 4438SOL    HW224948   3.807   0.864   8.704 -0.6403  0.2294 -1.2641
 4439SOL     OW24949   1.574   0.105   4.149 -0.3241 -0.3301  0.5681
 4439SOL    HW124950   1.613   0.123   4.235 -2.1253 -2.8365  1.9034
 4439SOL    HW224951   1.598   0.012   4.143  0.3962  0.0916 -3.2933
 4440SOL     OW24952   4.111   0.919  15.072  0.0390 -0.6652 -0.7278
 4440SOL    HW124953   4.139   0.829  15.090 -0.0973 -0.3331  1.1230
 4440SOL    HW224954   4.024   0.893  15.041  0.7634  0.0789 -3.3546
 4441SOL     OW24955   4.683   3.188   5.290  0.3076  0.1046 -0.1565
 4441SOL    HW124956   4.667   3.262   5.350  0.2742 -0.8823  1.0524
 4441SOL    HW224957   4.644   3.224   5.210  0.3747  1.2147  0.3020
 4442SOL     OW24958   0.002   1.045   2.245  0.0909  0.1527  0.1886
 4442SOL    HW124959   4.722   1.061   2.338 -1.1841  1.7142 -0.3078
 4442SOL    HW224960   4.709   0.957   2.224 -0.8941  0.6172 -0.3421
 4443SOL     OW24961   0.684   2.273  15.608  0.1596  0.5350 -0.1004
 4443SOL    HW124962   0.674   2.181  15.634 -0.4891  0.7232  0.2933
 4443SOL    HW224963   0.642   2.318  15.681  2.4259 -0.3496  1.7455
 4444SOL     OW24964   4.306   4.220  16.351 -0.1226 -0.3821  0.1668
 4444SOL    HW124965   4.256   4.139  16.359 -1.0930  0.2800  0.7002
 4444SOL    HW224966   4.307   4.251  16.441 -1.1227  2.0446 -0.6693
 4445SOL     OW24967   2.419   2.915   9.249 -0.2438 -0.2160 -0.3736
 4445SOL    HW124968   2.476   2.992   9.249  0.9115 -1.0751 -0.5974
 4445SOL    HW224969   2.346   2.931   9.309  0.0367  3.8573 -1.1348
 4446SOL     OW24970   2.569   0.766   1.220 -0.9556 -0.0460 -0.1313
 4446SOL    HW124971   2.639   0.831   1.230 -0.9410  0.1347 -1.3197
 4446SOL    HW224972   2.616   0.690   1.187 -0.4595 -0.6779  2.0466
 4447SOL     OW24973   1.449   4.335   4.271 -0.0775 -0.2362  0.4115
 4447SOL    HW124974   1.358   4.364   4.274 -0.3522 -1.1954  1.3649
 4447SOL    HW224975   1.483   4.394   4.338  0.3807 -0.8741  0.7366
 4448SOL     OW24976   0.348   2.612   9.575 -0.0304  0.4412  0.0365
 4448SOL    HW124977   0.395   2.603   9.658 -2.7555  2.5976  1.8420
 4448SOL    HW224978   0.275   2.550   9.579 -0.2939  0.7271 -0.3139
 4449SOL     OW24979   2.855   3.977   8.586 -0.2297  0.1124  0.3491
 4449SOL    HW124980   2.809   3.905   8.542 -2.6069  2.9460 -1.8179
 4449SOL    HW224981   2.786   4.018   8.637 -0.0580 -1.2435  1.6520
 4450SOL     OW24982   0.414   3.748   6.524  0.0554  0.0422  0.4135
 4450SOL    HW124983   0.364   3.666   6.523 -0.5041  0.3717  1.2758
 4450SOL    HW224984   0.449   3.735   6.612 -1.2735 -0.7419  0.8197
 4451SOL     OW24985   3.312   0.841   9.313 -0.0966 -0.3888  0.3822
 4451SOL    HW124986   3.233   0.868   9.360  0.9506 -0.2117  2.0501
 4451SOL    HW224987   3.273   0.796   9.239  1.6358 -2.5771  0.7757
 4452SOL     OW24988   0.404   1.029   8.998 -0.2599 -0.6748  0.1130
 4452SOL    HW124989   0.487   0.982   9.009 -0.4015 -0.8883  0.2679
 4452SOL    HW224990   0.420   1.089   8.925  0.1943 -0.4344  0.4041
 4453SOL     OW24991   0.882   2.992   2.962  0.3211 -0.4175 -0.2005
 4453SOL    HW124992   0.923   2.992   2.875  1.1745  0.9419  0.2024
 4453SOL    HW224993   0.957   2.962   3.014  0.4656 -1.5030 -1.0328
 4454SOL     OW24994   3.963   2.011   9.231  0.2144 -0.0278  0.2140
 4454SOL    HW124995   3.877   2.027   9.193  0.1876 -1.4345 -0.3188
 4454SOL    HW224996   3.984   1.938   9.174 -1.0143  0.1872 -0.5113
 4455SOL     OW24997   3.625   0.078  10.779 -0.1366  0.7713  0.0634
 4455SOL    HW124998   3.716   0.098  10.801 -0.1848 -1.4545  2.2487
 4455SOL    HW224999   3.648   0.025  10.702 -0.5264  0.0967  0.4139
 4456SOL     OW25000   0.289   1.023   4.313 -0.1198 -0.7022  0.0201
 4456SOL    HW125001   0.313   1.115   4.330 -0.5303 -0.7300  0.7247
 4456SOL    HW225002   0.300   0.987   4.401 -0.5292  0.2259  0.4533
 4457SOL     OW25003   0.898   3.476   7.578 -0.8524 -0.3722 -1.1862
 4457SOL    HW125004   0.847   3.411   7.530 -2.2766 -0.8525  0.9957
 4457SOL    HW225005   0.841   3.497   7.652  0.8619  0.9557 -0.2281
 4458SOL     OW25006   2.974   4.567   5.430 -0.4569  0.1652  0.1388
 4458SOL    HW125007   3.025   4.503   5.480 -0.7766 -0.4543 -0.3227
 4458SOL    HW225008   2.915   4.509   5.381 -1.7107  0.5057  1.2197
 4459SOL     OW25009   1.719   3.474   6.592 -0.4204 -0.2279 -0.1774
 4459SOL    HW125010   1.680   3.386   6.591 -2.4599  0.6884 -0.2128
 4459SOL    HW225011   1.748   3.479   6.683  1.0427 -1.1230 -0.5890
 4460SOL     OW25012   3.056   2.529  10.268 -0.0118  0.2049 -0.3728
 4460SOL    HW125013   3.003   2.493  10.338  0.0418  2.4973  0.8236
 4460SOL    HW225014   3.083   2.612  10.307  1.4637 -1.5036  2.2334
 4461SOL     OW25015   4.232   2.500  15.430  0.3177  0.3148  0.0890
 4461SOL    HW125016   4.296   2.479  15.497 -0.7158 -0.7822  0.7286
 4461SOL    HW225017   4.277   2.453  15.359 -2.0158  0.3717 -1.4237
 4462SOL     OW25018   4.687   3.626   2.725  0.2360  0.0579 -0.1991
 4462SOL    HW125019   0.029   3.580   2.697 -0.8675 -1.8314 -0.1915
 4462SOL    HW225020   4.726   3.707   2.759 -0.8406  0.2536  0.5639
 4463SOL     OW25021   0.384   2.006   7.266  0.1352 -0.0217 -0.1973
 4463SOL    HW125022   0.320   1.971   7.328 -1.4418 -1.0861 -2.3992
 4463SOL    HW225023   0.344   2.081   7.222  0.1241 -0.8071 -1.5377
 4464SOL     OW25024   1.565   0.738  12.728 -0.6088  0.0225 -0.3518
 4464SOL    HW125025   1.642   0.722  12.673  0.2050  2.0774  0.1651
 4464SOL    HW225026   1.607   0.720  12.813  0.9921 -1.9130 -1.5515
 4465SOL     OW25027   1.667   0.800   3.457  0.8612  0.2213  0.4097
 4465SOL    HW125028   1.730   0.784   3.527  0.3270 -1.5242  0.5019
 4465SOL    HW225029   1.591   0.825   3.510 -1.4523 -2.9097 -1.4255
 4466SOL     OW25030   4.620   3.870   2.031  0.3425  0.2147 -0.3474
 4466SOL    HW125031   4.641   3.926   2.106 -0.3178 -0.9634  0.7104
 4466SOL    HW225032   4.706   3.841   2.000 -0.1061 -2.4542  0.9284
 4467SOL     OW25033   4.190   4.160   6.491 -0.2000 -0.2676  0.3109
 4467SOL    HW125034   4.158   4.213   6.564  3.2575  0.5963  1.2033
 4467SOL    HW225035   4.106   4.169   6.445  0.8322 -0.6803 -1.6295
 4468SOL     OW25036   4.305   3.698  15.127  0.5597 -0.5622 -0.1717
 4468SOL    HW125037   4.216   3.695  15.093  0.8843  0.6201 -1.1731
 4468SOL    HW225038   4.302   3.780  15.177 -1.8124 -0.7544 -0.0229
 4469SOL     OW25039   4.272   3.994  14.756 -0.2590 -0.1624  0.0775
 4469SOL    HW125040   4.197   4.052  14.765  1.1228  1.4882  0.8229
 4469SOL    HW225041   4.304   4.005  14.846 -0.9719  3.4143 -0.1122
 4470SOL     OW25042   1.670   2.582  11.403  0.2030 -0.1864 -0.0592
 4470SOL    HW125043   1.683   2.676  11.415  0.0385 -0.1268 -0.3438
 4470SOL    HW225044   1.719   2.575  11.321  0.1236  1.1849 -0.2175
 4471SOL     OW25045   4.052   4.166   9.322 -0.1670  0.3811  0.6241
 4471SOL    HW125046   4.073   4.075   9.343 -0.2426  0.9945  3.3612
 4471SOL    HW225047   4.138   4.199   9.350  0.2149  0.1659 -0.2836
 4472SOL     OW25048   3.455   1.041   3.555  0.2021  0.6128  0.7423
 4472SOL    HW125049   3.491   1.029   3.643 -0.3377 -1.5014  0.6883
 4472SOL    HW225050   3.451   1.135   3.536  0.3578  0.3325 -0.6738
 4473SOL     OW25051   1.251   0.948  12.336  0.0532 -0.0589  0.3288
 4473SOL    HW125052   1.221   0.918  12.422  0.0791 -0.1642  0.3015
 4473SOL    HW225053   1.169   0.955  12.287 -0.8483  0.1920  1.8570
 4474SOL     OW25054   3.478   1.981   2.580 -0.1092  0.3537  0.0198
 4474SOL    HW125055   3.436   1.912   2.529  1.9991  0.0351 -1.2942
 4474SOL    HW225056   3.542   2.005   2.513 -1.3647  0.4762 -1.1432
 4475SOL     OW25057   0.979   2.705   7.095 -0.2720 -0.4150 -0.4185
 4475SOL    HW125058   0.945   2.787   7.058 -0.6041  0.5687  2.0536
 4475SOL    HW225059   1.048   2.736   7.154 -2.2119 -0.9030  2.1398
 4476SOL     OW25060   4.136   4.106  14.497 -0.2060 -0.0981 -0.7742
 4476SOL    HW125061   4.160   4.049  14.570 -1.5433  0.3559  0.0146
 4476SOL    HW225062   4.167   4.055  14.422 -0.0706 -1.0811 -0.0559
 4477SOL     OW25063   3.954   2.086   8.771 -0.8427 -0.2190  0.2123
 4477SOL    HW125064   3.928   2.097   8.679 -1.6724 -2.8644  0.1451
 4477SOL    HW225065   3.922   2.161   8.821 -1.7043  0.6663 -1.6521
 4478SOL     OW25066   1.022   3.259  10.065  0.1069  0.5462  0.1172
 4478SOL    HW125067   1.080   3.329  10.033  0.8233  0.3202  0.9217
 4478SOL    HW225068   1.012   3.277  10.159  0.6108  1.8436 -0.0650
 4479SOL     OW25069   2.748   1.621   4.260 -0.1392 -0.2433 -0.0684
 4479SOL    HW125070   2.774   1.675   4.185 -0.9938  0.2195 -0.0286
 4479SOL    HW225071   2.653   1.630   4.260 -0.2848 -1.9024  1.3177
 4480SOL     OW25072   4.077   2.263  13.246 -0.7741  0.3908 -0.3626
 4480SOL    HW125073   4.160   2.309  13.261 -1.3292  0.7118  1.7545
 4480SOL    HW225074   4.022   2.294  13.319 -1.9030  1.5756 -1.7076
 4481SOL     OW25075   3.451   2.928  10.515  0.4526 -0.1938 -0.5395
 4481SOL    HW125076   3.358   2.947  10.500  0.3648 -0.1076  0.1089
 4481SOL    HW225077   3.446   2.853  10.575  2.9084 -0.9535 -1.3178
 4482SOL     OW25078   1.647   2.087   3.331 -0.0619 -0.0754  0.1698
 4482SOL    HW125079   1.609   2.121   3.250  0.0883  0.4074  0.2969
 4482SOL    HW225080   1.705   2.027   3.286  0.2160 -0.5621  1.1992
 4483SOL     OW25081   3.924   0.873   9.864  0.1916 -0.2783  0.3758
 4483SOL    HW125082   4.009   0.844   9.829 -0.1690  1.8631 -2.3117
 4483SOL    HW225083   3.945   0.874   9.957 -0.0496  1.0891  0.4126
 4484SOL     OW25084   4.188   0.725   8.064  0.0716  0.5028 -0.5416
 4484SOL    HW125085   4.187   0.742   7.970 -2.0971  0.6030 -0.5038
 4484SOL    HW225086   4.270   0.770   8.084  0.5489 -0.4124 -0.4221
 4485SOL     OW25087   3.800   4.719  16.868  0.2868 -0.6794  0.1313
 4485SOL    HW125088   3.764   4.633  16.845  0.6536 -1.2556  1.6746
 4485SOL    HW225089   3.734   0.046  16.843  0.9718  0.2371  0.6650
 4486SOL     OW25090   2.890   4.393   8.627 -0.5044  0.1652  0.2810
 4486SOL    HW125091   2.957   4.324   8.628 -0.8243 -0.1590 -0.2889
 4486SOL    HW225092   2.882   4.405   8.533  1.8693  2.3257  0.3715
 4487SOL     OW25093   1.851   1.892   1.388 -0.4537  0.2422 -0.2616
 4487SOL    HW125094   1.776   1.907   1.446 -0.8539  2.1606 -1.2767
 4487SOL    HW225095   1.852   1.796   1.387 -0.2692  0.2359  0.2088
 4488SOL     OW25096   2.912   3.315   7.081  0.0474 -0.0689 -0.0835
 4488SOL    HW125097   2.978   3.247   7.096  0.1090 -0.5647 -2.6753
 4488SOL    HW225098   2.931   3.380   7.149  1.3731 -1.8560  1.2424
 4489SOL     OW25099   0.759   3.192   3.161 -0.1599 -0.2453  0.1502
 4489SOL    HW125100   0.686   3.148   3.204 -0.0319  0.5946  1.2366
 4489SOL    HW225101   0.778   3.131   3.089  1.2220  2.0248 -1.4248
 4490SOL     OW25102   4.237   4.338   6.857  0.2187 -0.1445 -0.0355
 4490SOL    HW125103   4.231   4.304   6.946 -0.2076 -0.7420 -0.2895
 4490SOL    HW225104   4.270   4.428   6.866 -0.9166  0.2671  0.0665
 4491SOL     OW25105   2.696   0.532  15.399 -0.1584 -0.4220  0.3779
 4491SOL    HW125106   2.701   0.550  15.306 -0.2488  1.9143  0.8326
 4491SOL    HW225107   2.757   0.461  15.420  0.7798  0.4996  0.7743
 4492SOL     OW25108   3.830   0.821   5.604 -0.1569 -0.1328  0.1026
 4492SOL    HW125109   3.770   0.874   5.551 -1.2928  0.0820  1.5936
 4492SOL    HW225110   3.772   0.804   5.678  1.0268  1.3323  1.3514
 4493SOL     OW25111   4.250   0.562   6.441  0.4667  0.3410  0.1346
 4493SOL    HW125112   4.235   0.608   6.523  1.6802 -0.0558  0.5797
 4493SOL    HW225113   4.162   0.530   6.420  0.8601 -1.5351  1.3800
 4494SOL     OW25114   1.767   1.736   5.369  0.5208 -0.1095  0.0329
 4494SOL    HW125115   1.779   1.816   5.421 -3.1145 -1.0144  2.2437
 4494SOL    HW225116   1.707   1.697   5.431  2.0736 -1.3991  0.7178
 4495SOL     OW25117   1.153   0.180  11.759  0.3266 -0.4113 -0.2809
 4495SOL    HW125118   1.118   0.241  11.694  0.5995 -0.1186 -0.1530
 4495SOL    HW225119   1.235   0.160  11.715  0.1639 -1.5022 -0.0709
 4496SOL     OW25120   4.254   0.834  17.701 -0.4372  0.4566  0.4815
 4496SOL    HW125121   4.170   0.835  17.654  1.3087  1.4230 -2.6354
 4496SOL    HW225122   4.305   0.770  17.651 -0.8313 -1.2944  2.3260
 4497SOL     OW25123   3.984   0.533   3.122  0.1378 -0.4622  0.2330
 4497SOL    HW125124   3.924   0.507   3.192 -2.2837 -2.6019 -2.6096
 4497SOL    HW225125   4.073   0.523   3.157  1.1164  2.3858 -1.4523
 4498SOL     OW25126   1.293   1.692   3.121  0.3625  0.3364 -0.6457
 4498SOL    HW125127   1.290   1.622   3.056  1.3572 -2.0546  1.9074
 4498SOL    HW225128   1.210   1.679   3.167  0.7973 -2.0552 -0.5323
 4499SOL     OW25129   0.090   3.164  13.237  0.0959  0.3712 -1.2509
 4499SOL    HW125130   0.176   3.206  13.231  0.4796 -0.8006 -3.8121
 4499SOL    HW225131   0.042   3.240  13.271 -0.7829 -0.2074 -1.2107
 4500SOL     OW25132   0.276   1.571   3.306  0.6125  0.3404  0.2249
 4500SOL    HW125133   0.319   1.542   3.225  0.9463 -0.2399  0.6101
 4500SOL    HW225134   0.343   1.626   3.347 -0.3102  1.0120  0.8345
 4501SOL     OW25135   1.262   0.221   3.939  0.3191 -0.0472 -0.2563
 4501SOL    HW125136   1.256   0.199   3.846  0.3839 -1.3231  0.0383
 4501SOL    HW225137   1.169   0.207   3.958  0.7568  0.3568  2.1480
 4502SOL     OW25138   0.504   1.736   6.761  0.2474  0.3385 -0.3245
 4502SOL    HW125139   0.549   1.820   6.749  1.2061 -0.6604 -3.6653
 4502SOL    HW225140   0.543   1.709   6.844  1.0283 -0.3749 -0.9290
 4503SOL     OW25141   2.503   3.134   9.392  0.4930  0.0438  0.2822
 4503SOL    HW125142   2.537   3.101   9.475  0.8845 -2.2955 -0.8094
 4503SOL    HW225143   2.410   3.139   9.412  0.6186 -1.4651  1.2483
 4504SOL     OW25144   1.797   0.429   4.346  0.1611  0.6117  0.0257
 4504SOL    HW125145   1.889   0.454   4.356  1.2241 -2.6603 -1.5543
 4504SOL    HW225146   1.779   0.477   4.265 -2.3693  1.6894  1.2349
 4505SOL     OW25147   0.479   3.371   5.657  0.4329  0.1771  0.6302
 4505SOL    HW125148   0.572   3.393   5.659  0.8169 -1.2821 -1.9116
 4505SOL    HW225149   0.459   3.393   5.566  0.2993 -3.2283 -0.1585
 4506SOL     OW25150   1.912   2.595   9.514  0.3360  0.4792  0.3434
 4506SOL    HW125151   1.872   2.510   9.496 -0.9713  1.1284  0.1835
 4506SOL    HW225152   1.881   2.609   9.603  0.2693 -0.1160  0.4149
 4507SOL     OW25153   1.414   2.517   5.867 -0.7902  0.1271 -0.5432
 4507SOL    HW125154   1.442   2.574   5.938 -0.4352 -1.0931  0.2945
 4507SOL    HW225155   1.342   2.562   5.823  0.1343 -0.4745 -2.6313
 4508SOL     OW25156   0.546   3.871  16.120 -0.4617 -0.1266  0.7161
 4508SOL    HW125157   0.602   3.798  16.092 -0.5949  0.4401 -1.0813
 4508SOL    HW225158   0.500   3.893  16.039  0.4129  1.6572  0.6917
 4509SOL     OW25159   4.729   2.964   5.929 -0.0869  0.2270 -0.1944
 4509SOL    HW125160   0.031   3.010   6.003 -1.2472  0.7404  0.0997
 4509SOL    HW225161   4.664   3.032   5.908 -0.0562 -0.1150 -1.4179
 4510SOL     OW25162   2.727   3.677   6.349  0.5136  0.4134 -0.2669
 4510SOL    HW125163   2.710   3.771   6.342 -1.1021  0.2671  1.8057
 4510SOL    HW225164   2.806   3.661   6.297  1.1760 -3.4777  1.9087
 4511SOL     OW25165   3.174   2.719  16.328  0.3226  0.0680  0.0682
 4511SOL    HW125166   3.177   2.771  16.248 -0.5553  0.3418  0.2091
 4511SOL    HW225167   3.127   2.784  16.380  1.3654  1.2078 -0.4007
 4512SOL     OW25168   4.621   2.867   4.274 -0.1190 -0.4337  0.5027
 4512SOL    HW125169   4.714   2.865   4.250 -0.1882  0.8279  0.1131
 4512SOL    HW225170   4.627   2.786   4.324  0.2833  0.1196  1.3597
 4513SOL     OW25171   4.725   2.786   3.921 -0.3896  0.4723  0.0078
 4513SOL    HW125172   4.733   2.717   3.987  0.7477  0.6339  0.0513
 4513SOL    HW225173   4.630   2.783   3.913 -0.4135 -0.5928  0.6161
 4514SOL     OW25174   1.023   3.793  16.322  0.4995 -0.5558 -0.9620
 4514SOL    HW125175   1.107   3.822  16.286  1.4493 -0.0132  1.6798
 4514SOL    HW225176   0.959   3.804  16.252 -0.6552  0.0935  0.1894
 4515SOL     OW25177   2.376   1.977  17.738 -0.2969  0.0345  0.3812
 4515SOL    HW125178   2.444   1.923   0.029 -1.1130 -0.1327  1.5999
 4515SOL    HW225179   2.372   1.939  17.650 -0.2941  0.1309  0.3389
 4516SOL     OW25180   2.580   0.464   4.763 -0.0970  0.6486 -0.2906
 4516SOL    HW125181   2.537   0.536   4.718 -0.7836  0.5701  0.2390
 4516SOL    HW225182   2.566   0.397   4.696  0.1905 -0.2390  0.5332
 4517SOL     OW25183   1.250   0.441   7.865  0.5494  0.1770 -0.1472
 4517SOL    HW125184   1.205   0.524   7.882  0.2353  0.0136 -0.1743
 4517SOL    HW225185   1.189   0.388   7.814 -0.4188  0.4274  0.7409
 4518SOL     OW25186   4.358   2.509   8.128 -0.4269 -0.4116 -0.3352
 4518SOL    HW125187   4.319   2.597   8.124  1.7383  0.5890  0.4837
 4518SOL    HW225188   4.424   2.516   8.196 -0.9231 -1.1157  0.2190
 4519SOL     OW25189   0.243   1.334   6.720  0.2727 -0.2564  0.7185
 4519SOL    HW125190   0.234   1.292   6.806 -0.4731  0.0488  0.7843
 4519SOL    HW225191   0.222   1.269   6.653  0.2326 -0.1767  0.6540
 4520SOL     OW25192   4.500   3.969   7.824  0.2048  0.4197  0.3447
 4520SOL    HW125193   4.572   4.027   7.799  0.3311  0.0887 -0.0678
 4520SOL    HW225194   4.444   3.966   7.747 -0.0228 -0.9300  0.5633
 4521SOL     OW25195   3.438   1.684   4.563  0.1771 -0.3066 -0.4230
 4521SOL    HW125196   3.381   1.621   4.518  0.6741 -1.5079  0.6391
 4521SOL    HW225197   3.403   1.689   4.652 -1.4976 -1.9459 -1.0017
 4522SOL     OW25198   1.956   0.402   0.468 -0.6239  0.1627 -0.9067
 4522SOL    HW125199   1.996   0.377   0.552  0.8925 -0.5895 -1.8497
 4522SOL    HW225200   1.915   0.487   0.482 -2.6033 -0.9283 -0.0713
 4523SOL     OW25201   0.259   1.141   6.513  0.5195 -0.0603 -0.1113
 4523SOL    HW125202   0.314   1.102   6.581 -0.3651  1.1353  1.3002
 4523SOL    HW225203   0.331   1.176   6.459  2.1960 -2.6122  0.4378
 4524SOL     OW25204   1.624   3.343  13.105  0.1346  0.3018 -0.1976
 4524SOL    HW125205   1.560   3.406  13.070  1.3027  1.5437 -0.0724
 4524SOL    HW225206   1.667   3.395  13.173  1.2925 -1.1719  0.1769
 4525SOL     OW25207   4.275   0.401  15.177 -0.0534 -0.5083 -0.2897
 4525SOL    HW125208   4.242   0.357  15.255  0.7463  0.1626  0.4259
 4525SOL    HW225209   4.343   0.335  15.161  0.1396 -0.6747  1.2208
 4526SOL     OW25210   4.126   2.021   7.199  0.1985 -0.6269 -0.4701
 4526SOL    HW125211   4.101   2.104   7.239 -2.5110 -1.7668  0.1574
 4526SOL    HW225212   4.061   2.017   7.129  0.6626 -1.5309 -0.8554
 4527SOL     OW25213   4.560   3.273   6.489  0.1386 -0.6131  0.0343
 4527SOL    HW125214   4.569   3.309   6.400 -0.9931 -0.6959 -0.1047
 4527SOL    HW225215   4.465   3.270   6.495  0.0407  2.1461  0.1603
 4528SOL     OW25216   0.002   3.861   2.841  0.2291 -0.2250  0.8276
 4528SOL    HW125217   4.649   3.878   2.866 -0.4377 -3.5879  0.6668
 4528SOL    HW225218   0.025   3.951   2.816  0.8580 -0.6818 -0.2535
 4529SOL     OW25219   4.156   3.396  11.482  0.3712 -0.0750 -0.5364
 4529SOL    HW125220   4.220   3.327  11.463  0.0141 -0.6507  0.3471
 4529SOL    HW225221   4.216   3.468  11.498  2.5686 -1.4398 -2.6427
 4530SOL     OW25222   0.474   3.114   4.089 -0.0781 -0.8207  0.0393
 4530SOL    HW125223   0.510   3.025   4.085 -0.9066 -1.1774  0.4671
 4530SOL    HW225224   0.556   3.160   4.107 -0.6487  1.1697 -2.4205
 4531SOL     OW25225   1.974   1.365   7.659  0.0870  0.2378  0.4160
 4531SOL    HW125226   1.953   1.439   7.603 -1.6305 -0.3580  0.2896
 4531SOL    HW225227   2.067   1.384   7.673  0.2428  0.5072 -1.0561
 4532SOL     OW25228   3.314   3.122   9.674 -0.2910 -0.8080 -0.4481
 4532SOL    HW125229   3.289   3.095   9.586 -3.0699 -1.3134  0.5054
 4532SOL    HW225230   3.225   3.118   9.709 -0.2529 -0.6442 -0.3315
 4533SOL     OW25231   3.749   4.095   2.632  0.1529  0.4290 -0.5074
 4533SOL    HW125232   3.659   4.072   2.655 -0.3137  1.4029 -1.3732
 4533SOL    HW225233   3.771   4.018   2.578 -0.1072  1.1395 -1.6226
 4534SOL     OW25234   3.123   3.984  16.428 -0.0908  0.1256 -0.5418
 4534SOL    HW125235   3.143   4.070  16.466 -0.1208 -0.3228  0.4782
 4534SOL    HW225236   3.202   3.982  16.373  0.0024  3.8023 -0.5919
 4535SOL     OW25237   1.060   2.420  14.798 -0.0795 -0.7324 -0.2536
 4535SOL    HW125238   0.998   2.492  14.804 -1.3390 -1.8397  0.0782
 4535SOL    HW225239   1.076   2.415  14.892  1.1514 -0.8468 -0.4665
 4536SOL     OW25240   2.514   0.028   3.087  0.0084  0.2923 -0.2539
 4536SOL    HW125241   2.606   0.018   3.111 -0.0522 -0.7303 -0.4418
 4536SOL    HW225242   2.501   4.687   3.034  0.1813  0.4170 -0.4792
 4537SOL     OW25243   1.349   0.502  11.409 -0.1201 -0.0259 -0.7167
 4537SOL    HW125244   1.353   0.500  11.313  0.4474  1.6358 -0.7279
 4537SOL    HW225245   1.434   0.535  11.437 -1.1651  0.4694  1.9120
 4538SOL     OW25246   0.888   1.847  13.078 -0.2095  0.2015 -0.1872
 4538SOL    HW125247   0.835   1.885  13.009 -0.6792 -0.7688 -0.3669
 4538SOL    HW225248   0.964   1.822  13.026  2.4055  2.9423  2.3062
 4539SOL     OW25249   0.379   2.934   2.304  0.0006  0.0345  0.0434
 4539SOL    HW125250   0.440   2.927   2.231  1.6039 -0.6456  1.4376
 4539SOL    HW225251   0.391   2.846   2.342 -0.6048  1.4181  3.4654
 4540SOL     OW25252   0.806   0.264   6.953 -0.2612 -0.0202 -0.4190
 4540SOL    HW125253   0.831   0.191   6.897 -0.7092 -0.7894  0.3843
 4540SOL    HW225254   0.871   0.251   7.023 -0.9678 -0.7197  0.1177
 4541SOL     OW25255   2.068   2.532   7.391  0.4581 -0.0332 -0.0191
 4541SOL    HW125256   2.045   2.452   7.438 -3.0478  1.7992  1.3954
 4541SOL    HW225257   2.105   2.580   7.465 -2.3197 -0.4787  1.6433
 4542SOL     OW25258   0.071   0.485   3.028 -0.2937 -1.0518  0.0075
 4542SOL    HW125259   0.019   0.425   3.082 -0.6754 -1.0762 -0.3864
 4542SOL    HW225260   0.159   0.477   3.065 -1.3445 -1.5208  2.4687
 4543SOL     OW25261   3.356   1.501   5.357  0.2861 -0.5224  0.1059
 4543SOL    HW125262   3.375   1.411   5.383 -1.2879 -1.6947 -2.7793
 4543SOL    HW225263   3.445   1.532   5.373 -0.4024  0.4282  2.0645
 4544SOL     OW25264   4.032   2.339   1.610 -0.1317 -0.2819 -0.3923
 4544SOL    HW125265   4.011   2.247   1.621  0.9413 -0.1233  2.8054
 4544SOL    HW225266   3.941   2.367   1.620 -0.4384 -1.9885  1.4269
 4545SOL     OW25267   1.476   1.709   8.531  0.3450  0.0982 -0.7725
 4545SOL    HW125268   1.543   1.683   8.594 -0.0102  1.2888  0.1025
 4545SOL    HW225269   1.467   1.631   8.477  0.5597  0.4649 -1.3400
 4546SOL     OW25270   2.559   2.525  17.192 -0.2624  0.5864 -0.5259
 4546SOL    HW125271   2.584   2.608  17.232 -0.5698  0.8985 -0.9766
 4546SOL    HW225272   2.612   2.468  17.247  0.0894  0.1985 -1.2612
 4547SOL     OW25273   1.796   3.462  16.739  0.1841 -0.4105 -0.0533
 4547SOL    HW125274   1.770   3.370  16.732  0.0246 -0.3397 -0.4258
 4547SOL    HW225275   1.889   3.457  16.716 -0.7400 -3.1301 -3.1694
 4548SOL     OW25276   4.462   2.821   2.554 -0.4411  0.0921  0.2909
 4548SOL    HW125277   4.369   2.819   2.576 -0.5985 -0.2111 -0.3909
 4548SOL    HW225278   4.504   2.862   2.629  1.9279 -4.5473  1.4914
 4549SOL     OW25279   1.208   2.506   2.935  0.0325  0.3018  0.4461
 4549SOL    HW125280   1.154   2.544   3.004  0.8799  0.1164  1.2169
 4549SOL    HW225281   1.179   2.559   2.861 -0.8345 -0.9330 -0.1112
 4550SOL     OW25282   0.523   3.247   6.511  0.0474  0.0536 -0.2250
 4550SOL    HW125283   0.444   3.287   6.549  1.7806  3.2671 -0.0395
 4550SOL    HW225284   0.501   3.159   6.543  1.3563  1.0544  3.4196
 4551SOL     OW25285   0.429   3.011   6.627 -0.3059 -0.3233 -0.2595
 4551SOL    HW125286   0.424   2.941   6.693  0.8104  1.5904  1.8302
 4551SOL    HW225287   0.339   3.004   6.595 -0.3898 -1.3559  0.2092
 4552SOL     OW25288   2.687   3.258   1.897  0.1471 -0.0426  0.2913
 4552SOL    HW125289   2.766   3.212   1.870 -0.3297 -0.7735  0.1222
 4552SOL    HW225290   2.682   3.324   1.827 -2.0572 -1.4010 -0.8582
 4553SOL     OW25291   2.430   2.958  15.034 -0.1532  0.1173 -0.5691
 4553SOL    HW125292   2.403   3.040  15.075  2.3543 -0.0223  1.3937
 4553SOL    HW225293   2.393   2.977  14.949 -1.4493 -0.4192 -0.1266
 4554SOL     OW25294   0.959   4.435   0.555  0.0228  0.1621 -0.2188
 4554SOL    HW125295   0.996   4.522   0.570  0.5768  0.1361 -1.4189
 4554SOL    HW225296   0.930   4.417   0.644 -1.1101 -1.7852 -0.9717
 4555SOL     OW25297   2.568   0.445   3.150  0.3548  0.1495 -0.3345
 4555SOL    HW125298   2.661   0.423   3.154  0.8419  2.7233  2.5840
 4555SOL    HW225299   2.521   0.392   3.214  0.2485  1.8903  1.0273
 4556SOL     OW25300   3.484   1.402   3.568 -0.1273 -0.2540  0.4310
 4556SOL    HW125301   3.421   1.432   3.633 -2.1525 -0.2420 -1.5180
 4556SOL    HW225302   3.421   1.355   3.513  0.0146 -0.3980  0.3916
 4557SOL     OW25303   4.261   0.976  12.734  0.0078 -0.6967 -0.4445
 4557SOL    HW125304   4.249   0.889  12.770 -3.3560  0.4650  1.2500
 4557SOL    HW225305   4.354   0.995  12.745 -0.5132  0.7980  1.4023
 4558SOL     OW25306   0.304   3.052   3.546 -0.8042 -0.4686  0.5717
 4558SOL    HW125307   0.268   3.135   3.578  2.6412  1.0166  0.5290
 4558SOL    HW225308   0.230   2.991   3.549 -1.3189  0.1522  0.3322
 4559SOL     OW25309   3.275   4.468   7.932  0.1411  0.3757  0.2670
 4559SOL    HW125310   3.275   4.561   7.908  0.6643  0.5489  0.9602
 4559SOL    HW225311   3.290   4.473   8.027 -0.6541  1.5732  0.3302
 4560SOL     OW25312   4.021   3.669   6.936 -0.1420 -0.1233  0.5228
 4560SOL    HW125313   3.966   3.703   7.007 -0.8820 -2.5058  1.0960
 4560SOL    HW225314   4.022   3.735   6.866  3.2112  1.1970  1.8202
 4561SOL     OW25315   0.914   3.081   1.798  0.5976 -0.6155 -0.0163
 4561SOL    HW125316   0.890   3.008   1.741  0.1302 -0.9419  0.5882
 4561SOL    HW225317   0.926   3.155   1.739 -0.8436 -1.8588 -1.8459
 4562SOL     OW25318   0.377   3.208   2.967 -0.8802  0.1926 -0.3955
 4562SOL    HW125319   0.392   3.179   3.058 -0.8338 -1.5139 -0.9408
 4562SOL    HW225320   0.282   3.217   2.971 -0.7130  0.7610  2.8642
 4563SOL     OW25321   0.214   3.284   3.683  0.1008  0.4387  0.4150
 4563SOL    HW125322   0.200   3.364   3.632  0.8586  0.6878  0.5969
 4563SOL    HW225323   0.305   3.300   3.708  0.3495  1.4451 -1.1592
 4564SOL     OW25324   2.205   2.587   3.401  0.1642  0.0702  0.0371
 4564SOL    HW125325   2.296   2.574   3.376 -0.3327 -2.3923 -0.4573
 4564SOL    HW225326   2.165   2.578   3.314 -0.8261  0.3500  0.4589
 4565SOL     OW25327   4.248   4.040   7.580 -0.6653 -0.0265  0.4581
 4565SOL    HW125328   4.174   3.996   7.620 -1.2496 -0.9707 -1.6515
 4565SOL    HW225329   4.207   4.124   7.559  1.4143  0.7446 -0.5248
 4566SOL     OW25330   2.924   2.989   9.066  0.0021 -0.2045 -0.7261
 4566SOL    HW125331   2.892   3.029   9.147  1.3629 -0.1993 -0.1843
 4566SOL    HW225332   2.990   2.932   9.104  1.3184  0.4402 -2.0363
 4567SOL     OW25333   4.680   1.538   5.442  0.4260  0.0301 -0.1955
 4567SOL    HW125334   0.003   1.534   5.516  1.4805  1.2214 -0.9895
 4567SOL    HW225335   4.646   1.626   5.459 -2.1323 -0.4390 -2.6467
 4568SOL     OW25336   2.878   1.932   7.801  0.4357  0.3049  0.2079
 4568SOL    HW125337   2.865   1.892   7.887  0.6089 -0.2282 -0.0146
 4568SOL    HW225338   2.970   1.909   7.789  0.0557 -0.2121 -1.7388
 4569SOL     OW25339   0.185   0.092   3.410  0.0715 -0.3153 -0.0770
 4569SOL    HW125340   0.220   0.135   3.332  1.6052 -0.6971  0.4000
 4569SOL    HW225341   0.186   0.160   3.477 -2.2833 -0.7499  0.3900
 4570SOL     OW25342   2.578   1.876  17.299  0.0796 -0.0248 -0.0960
 4570SOL    HW125343   2.653   1.828  17.334  1.3628  1.3633 -0.9438
 4570SOL    HW225344   2.570   1.837  17.212  1.2675 -0.1538 -0.1476
 4571SOL     OW25345   2.736   2.815   5.767 -1.0358  0.9157  0.0898
 4571SOL    HW125346   2.735   2.839   5.675  0.7202  1.0271  0.1032
 4571SOL    HW225347   2.682   2.736   5.761 -1.0623  1.1121 -2.0654
 4572SOL     OW25348   4.460   2.397   2.489  0.1591 -0.0667 -0.1624
 4572SOL    HW125349   4.503   2.459   2.547  1.3588 -0.8462 -0.2329
 4572SOL    HW225350   4.438   2.328   2.552  1.9633  1.7427  2.4181
 4573SOL     OW25351   0.525   3.986  14.837 -0.3427  0.0148  0.2966
 4573SOL    HW125352   0.603   3.987  14.781  0.2915  1.6503  1.2056
 4573SOL    HW225353   0.456   4.004  14.773 -0.8406 -0.4334  0.7111
 4574SOL     OW25354   1.015   1.234   7.690 -0.4445  0.0108 -0.8700
 4574SOL    HW125355   1.065   1.175   7.635  1.1849  1.0369 -0.4827
 4574SOL    HW225356   1.012   1.200   7.780  1.1563 -2.0121 -1.5879
 4575SOL     OW25357   3.795   3.307  11.773 -0.2402  0.2477  0.0584
 4575SOL    HW125358   3.704   3.285  11.791 -1.2558  1.6916 -3.3202
 4575SOL    HW225359   3.845   3.240  11.819 -0.0982  0.0894 -0.3217
 4576SOL     OW25360   4.471   1.217   1.717  0.3702 -0.2119 -0.4696
 4576SOL    HW125361   4.552   1.168   1.702  0.6191 -0.3696  1.3655
 4576SOL    HW225362   4.413   1.148   1.751  0.6102  1.1794  2.8028
 4577SOL     OW25363   0.935   0.492   5.605 -0.3996  0.2258  0.0891
 4577SOL    HW125364   0.906   0.450   5.686 -2.7842 -0.7675 -1.2934
 4577SOL    HW225365   0.853   0.515   5.562 -0.1645 -0.0261 -0.5027
 4578SOL     OW25366   4.565   3.665  16.470 -0.1564 -0.1300 -0.2457
 4578SOL    HW125367   4.622   3.636  16.399 -0.8386 -0.8094 -0.5257
 4578SOL    HW225368   4.633   3.687  16.534  1.1802  0.9380 -2.0266
 4579SOL     OW25369   3.230   1.718   6.161 -0.9816  0.3418  0.6420
 4579SOL    HW125370   3.238   1.737   6.068 -0.8232  1.1895  0.8299
 4579SOL    HW225371   3.154   1.770   6.187  0.2900  2.6064 -0.1745
 4580SOL     OW25372   3.017   4.597   4.483  1.0090 -0.3458  0.3698
 4580SOL    HW125373   3.036   4.590   4.390  0.9057  0.9811  0.2419
 4580SOL    HW225374   3.082   4.662   4.511  0.6714 -0.3127  1.0892
 4581SOL     OW25375   3.756   2.576   6.794 -0.6636 -0.7582  0.2627
 4581SOL    HW125376   3.829   2.638   6.804 -0.6441 -0.5070 -1.4865
 4581SOL    HW225377   3.806   2.498   6.770 -0.4768 -0.8889  1.0532
 4582SOL     OW25378   3.793   3.584   3.487 -0.7586  0.1754 -0.0974
 4582SOL    HW125379   3.733   3.510   3.498 -2.1346  1.0344 -1.8236
 4582SOL    HW225380   3.725   3.650   3.477  0.3546  1.4633  0.7728
 4583SOL     OW25381   2.101   3.843   5.589  0.0132 -0.0638 -0.5638
 4583SOL    HW125382   2.053   3.843   5.672 -0.2914  2.5599 -0.7257
 4583SOL    HW225383   2.194   3.851   5.607 -0.6784  1.7841  2.1297
 4584SOL     OW25384   3.754   3.716   5.228 -0.0668  0.3203  0.2726
 4584SOL    HW125385   3.786   3.799   5.191  2.5090 -0.0141  1.7578
 4584SOL    HW225386   3.746   3.750   5.317  1.8120  0.6739  0.3003
 4585SOL     OW25387   3.718   0.284   1.696 -0.0889  0.8252  0.2772
 4585SOL    HW125388   3.739   0.329   1.778  1.9587  0.7649 -0.2120
 4585SOL    HW225389   3.804   0.291   1.654 -0.3923 -0.0781 -0.5094
 4586SOL     OW25390   2.790   3.891  16.304  0.4412 -0.1295  0.0478
 4586SOL    HW125391   2.871   3.926  16.266  0.2237  0.4678  0.1371
 4586SOL    HW225392   2.773   3.814  16.249  0.4242  1.2685 -1.9094
 4587SOL     OW25393   0.269   4.448   3.793 -0.1939 -0.2251 -0.0859
 4587SOL    HW125394   0.320   4.515   3.839  2.2567 -1.5856 -0.8040
 4587SOL    HW225395   0.233   4.494   3.717  0.3795 -0.1151 -0.2900
 4588SOL     OW25396   0.768   0.300   3.221  0.6530  0.4242 -0.0258
 4588SOL    HW125397   0.774   0.241   3.146  2.7460 -1.1727  1.3904
 4588SOL    HW225398   0.790   0.232   3.285 -1.5716  1.8662  2.2800
 4589SOL     OW25399   3.453   0.453   8.019  0.0371  0.3746 -0.1334
 4589SOL    HW125400   3.406   0.393   8.078 -1.4022  1.5193 -0.1225
 4589SOL    HW225401   3.537   0.428   8.056 -0.6444  1.1131  1.8817
 4590SOL     OW25402   0.165   3.675   5.001  0.0219 -0.0541 -0.4593
 4590SOL    HW125403   0.105   3.604   5.022  1.7368 -1.4695 -0.3528
 4590SOL    HW225404   0.239   3.630   5.042  1.2197 -1.6941 -4.4500
 4591SOL     OW25405   1.378   4.496  10.264  0.1407  0.5387 -0.2051
 4591SOL    HW125406   1.426   4.445  10.330  1.2672  0.8023 -0.8092
 4591SOL    HW225407   1.447   4.541  10.215 -0.1057 -1.2905 -2.2497
 4592SOL     OW25408   3.866   0.957   5.859 -0.0184  0.7246  0.0445
 4592SOL    HW125409   3.913   0.877   5.883  0.7825  1.1040 -0.2671
 4592SOL    HW225410   3.869   0.946   5.764 -2.4277 -0.5788  0.0960
 4593SOL     OW25411   3.845   2.407  12.812 -0.8706  0.2038 -0.2642
 4593SOL    HW125412   3.913   2.398  12.879  0.1766 -0.7749 -1.4654
 4593SOL    HW225413   3.772   2.371  12.863 -0.2653 -1.7049 -0.7521
 4594SOL     OW25414   0.291   3.934  12.305  0.5431 -0.1612 -0.0766
 4594SOL    HW125415   0.332   4.000  12.361 -0.5068  1.2281 -0.9338
 4594SOL    HW225416   0.361   3.914  12.244  0.3097 -1.5172  0.1117
 4595SOL     OW25417   2.709   1.302  15.951  0.0507 -0.3611  0.0853
 4595SOL    HW125418   2.775   1.235  15.933  1.3618  0.4199  1.9079
 4595SOL    HW225419   2.762   1.381  15.940  1.3384 -0.9071  2.2019
 4596SOL     OW25420   4.097   3.498  17.710  0.0990  0.9619 -0.1971
 4596SOL    HW125421   4.135   3.462   0.043 -0.3521  0.9784  0.0256
 4596SOL    HW225422   4.171   3.554  17.685  0.8687 -0.8653 -2.0707
 4597SOL     OW25423   0.522   0.980  10.623  0.5405 -0.1079 -0.5285
 4597SOL    HW125424   0.605   1.013  10.656  0.7717 -0.6681 -0.5513
 4597SOL    HW225425   0.529   0.892  10.659 -1.0495  0.7567  1.8467
 4598SOL     OW25426   3.720   3.852  11.885  0.4223  0.3727 -0.1002
 4598SOL    HW125427   3.808   3.886  11.904  0.7037  0.2171 -1.1338
 4598SOL    HW225428   3.665   3.922  11.921  0.0970 -0.3772  0.8744
 4599SOL     OW25429   3.671   2.949   5.141 -0.0640 -0.1221 -0.2869
 4599SOL    HW125430   3.683   3.027   5.087 -0.4499  0.1873  0.0789
 4599SOL    HW225431   3.674   2.975   5.233  0.4741 -3.0248  0.5205
 4600SOL     OW25432   0.472   1.798   8.413  0.7967 -0.1572 -0.0573
 4600SOL    HW125433   0.477   1.799   8.318  0.3933  0.1848 -0.0743
 4600SOL    HW225434   0.564   1.815   8.435  1.3498 -2.3443 -0.7011
 4601SOL     OW25435   3.374   4.590   5.449 -0.1298  0.0436  0.2490
 4601SOL    HW125436   3.453   4.641   5.433 -0.4457  1.1796  2.3875
 4601SOL    HW225437   3.353   4.561   5.360  0.4160 -1.0613  0.4841
 4602SOL     OW25438   1.883   4.538   9.748 -0.3009  0.4753 -0.0628
 4602SOL    HW125439   1.959   4.522   9.803 -0.1693 -1.1142 -0.7209
 4602SOL    HW225440   1.875   4.633   9.754  1.5267  0.7215 -1.6318
 4603SOL     OW25441   0.149   4.653   3.024 -0.2367 -0.2610  0.2498
 4603SOL    HW125442   0.102   4.629   3.104  1.0696  0.4635  1.2312
 4603SOL    HW225443   0.223   4.705   3.056  0.4659 -0.5764 -0.8780
 4604SOL     OW25444   2.600   4.449   6.875 -0.3025 -0.3535 -0.0458
 4604SOL    HW125445   2.683   4.460   6.828  0.0822  0.1429  0.7461
 4604SOL    HW225446   2.598   4.363   6.917  2.2375 -0.2910  0.1962
 4605SOL     OW25447   4.119   3.289   2.116 -0.0368  0.1041 -0.4421
 4605SOL    HW125448   4.199   3.317   2.071  0.2400  2.5558  1.5802
 4605SOL    HW225449   4.144   3.262   2.204 -0.6821  1.2255  0.0851
 4606SOL     OW25450   1.825   0.274   1.447  0.2344  0.2607  0.5385
 4606SOL    HW125451   1.787   0.361   1.446 -2.5389 -0.9386 -0.3562
 4606SOL    HW225452   1.818   0.255   1.353 -1.6223  1.1329  0.4973
 4607SOL     OW25453   4.396   4.229   9.993 -0.0248  0.1328  0.4450
 4607SOL    HW125454   4.421   4.320  10.008  0.4902 -0.2762  2.0359
 4607SOL    HW225455   4.302   4.233   9.975 -0.0146  0.2310  0.4178
 4608SOL     OW25456   1.157   0.739  10.726  0.1917  0.7040  0.0664
 4608SOL    HW125457   1.113   0.742  10.811  0.5319  0.3415  0.2533
 4608SOL    HW225458   1.234   0.793  10.743  0.6201 -0.1033  0.6823
 4609SOL     OW25459   3.764   2.429  15.999  0.2969  0.5542  0.5775
 4609SOL    HW125460   3.825   2.363  15.966 -1.6358 -0.3435 -1.1445
 4609SOL    HW225461   3.685   2.391  15.961 -0.0196  1.0056  0.7843
 4610SOL     OW25462   2.974   1.425   1.009 -0.2185 -0.1771 -0.7791
 4610SOL    HW125463   3.046   1.372   1.042 -0.5889  0.0569  0.4053
 4610SOL    HW225464   2.963   1.380   0.925 -0.4086  1.0544 -1.4210
 4611SOL     OW25465   1.199   1.930   3.760 -0.0632 -0.3541 -0.2482
 4611SOL    HW125466   1.288   1.901   3.737  0.6339  0.8920  0.9460
 4611SOL    HW225467   1.191   1.864   3.829  1.5433  0.9908  1.2262
 4612SOL     OW25468   4.712   3.523   5.111 -0.7438 -0.0727 -0.3640
 4612SOL    HW125469   4.641   3.467   5.077 -0.2667 -0.3027 -0.9757
 4612SOL    HW225470   4.664   3.573   5.177 -0.0609 -1.2919  1.0739
 4613SOL     OW25471   0.827   0.947   9.257  0.1824  0.5154  0.0344
 4613SOL    HW125472   0.907   0.973   9.211 -0.1966 -0.9468 -1.4483
 4613SOL    HW225473   0.804   1.040   9.260 -0.3055  0.3689  0.6435
 4614SOL     OW25474   3.367   2.977  10.247 -0.2472 -0.2696  0.8945
 4614SOL    HW125475   3.422   2.971  10.325  0.8899  1.2794  0.2085
 4614SOL    HW225476   3.430   3.008  10.182  2.0539 -3.1559  1.7552
 4615SOL     OW25477   2.146   4.511   2.769 -0.1764  0.7604  0.0714
 4615SOL    HW125478   2.234   4.518   2.733  0.1721  0.2491  0.8023
 4615SOL    HW225479   2.118   4.451   2.700  2.4903 -0.0420 -0.3477
 4616SOL     OW25480   3.634   0.244   4.380  0.3605  0.3205  0.0683
 4616SOL    HW125481   3.559   0.300   4.363  0.4745  0.1835 -0.8765
 4616SOL    HW225482   3.582   0.164   4.379 -1.5258  1.5625  0.5552
 4617SOL     OW25483   3.902   0.421   7.895 -0.5580  0.2559  0.2402
 4617SOL    HW125484   3.908   0.420   7.991  2.1530  2.9230  0.0657
 4617SOL    HW225485   3.945   0.336   7.879 -4.0880 -1.4863 -0.0587
 4618SOL     OW25486   2.297   4.085   8.148  0.0782  0.3021 -0.5039
 4618SOL    HW125487   2.270   4.049   8.064 -2.0579  1.0703 -0.1453
 4618SOL    HW225488   2.236   4.156   8.167  0.1136  0.2151 -0.0685
 4619SOL     OW25489   3.466   3.126   6.602  0.4747 -0.2596  0.1485
 4619SOL    HW125490   3.552   3.110   6.564  1.0133  0.6049  1.0111
 4619SOL    HW225491   3.427   3.040   6.614 -1.0186  0.5036  0.8099
 4620SOL     OW25492   0.465   1.630  17.424 -0.0782 -0.0373  0.0874
 4620SOL    HW125493   0.389   1.672  17.385  0.5937  0.9286 -0.1599
 4620SOL    HW225494   0.416   1.566  17.476  2.3228 -1.5542  0.4742
 4621SOL     OW25495   4.140   4.124   2.026  0.3584 -0.4031 -0.2100
 4621SOL    HW125496   4.218   4.070   2.040 -0.1657 -1.0158  0.3311
 4621SOL    HW225497   4.157   4.165   1.941  1.2371  0.1609  0.2323
 4622SOL     OW25498   1.395   3.106   0.767 -0.4374  0.3414  0.3168
 4622SOL    HW125499   1.350   3.075   0.846 -1.4006  1.2544  0.1264
 4622SOL    HW225500   1.488   3.105   0.790 -0.2102  1.4990 -0.5835
 4623SOL     OW25501   0.856   0.074   7.491  0.1463  0.0528 -0.4205
 4623SOL    HW125502   0.785   0.105   7.547  0.1979 -0.5769  0.0010
 4623SOL    HW225503   0.859   0.134   7.417 -0.0412  1.0301  0.3593
 4624SOL     OW25504   2.991   2.400   2.599 -0.4090 -0.4252 -0.6001
 4624SOL    HW125505   2.941   2.339   2.654  0.2640  0.6956  1.2562
 4624SOL    HW225506   3.074   2.352   2.602 -0.5657 -0.6958 -0.5945
 4625SOL     OW25507   1.306   2.268   2.542 -0.0357  0.5532  0.3063
 4625SOL    HW125508   1.361   2.342   2.516  0.2615 -0.9786 -3.3812
 4625SOL    HW225509   1.250   2.245   2.469 -0.2452 -1.4115  1.0999
 4626SOL     OW25510   3.888   1.505   8.538 -0.1310  0.5022  0.5452
 4626SOL    HW125511   3.818   1.540   8.483 -0.5915 -1.4655 -0.1220
 4626SOL    HW225512   3.839   1.438   8.584 -2.6574  2.6625  0.9763
 4627SOL     OW25513   4.554   4.694   7.678 -0.2352 -0.1146  0.0670
 4627SOL    HW125514   4.507   4.624   7.723 -0.2338 -0.9822 -1.2739
 4627SOL    HW225515   4.639   4.679   7.719  0.5811 -0.0941 -1.6020
 4628SOL     OW25516   1.415   1.271   0.024 -0.1798  0.1387 -0.0466
 4628SOL    HW125517   1.485   1.205   0.026  0.5175  0.8261 -1.4901
 4628SOL    HW225518   1.465   1.352   0.039  1.1038 -0.7753  0.6083
 4629SOL     OW25519   2.193   4.364   1.016 -0.2509 -1.1099  0.5996
 4629SOL    HW125520   2.283   4.364   0.982 -0.6228  0.9793 -0.3810
 4629SOL    HW225521   2.184   4.459   1.028 -0.6518 -1.0924  0.1398
 4630SOL     OW25522   3.361   3.656  11.495  0.0821  0.3860  0.1979
 4630SOL    HW125523   3.356   3.750  11.481  2.4213  0.6079  0.8830
 4630SOL    HW225524   3.447   3.646  11.536  0.7177  0.8676 -1.0390
 4631SOL     OW25525   3.668   1.025  10.001  0.6714 -0.5583  0.0929
 4631SOL    HW125526   3.723   1.104   9.996 -0.2820  0.1009 -0.1518
 4631SOL    HW225527   3.736   0.963   9.975  0.4189 -1.0920  0.7221
 4632SOL     OW25528   3.464   4.348   7.229 -0.3914 -0.8327  0.0287
 4632SOL    HW125529   3.418   4.351   7.313 -0.9743 -0.6023 -0.2965
 4632SOL    HW225530   3.441   4.266   7.186  0.5545 -0.8312 -0.4758
 4633SOL     OW25531   1.572   3.912   4.605  0.0617 -0.1036  0.7292
 4633SOL    HW125532   1.619   3.846   4.554  1.2155  0.5013  1.0031
 4633SOL    HW225533   1.490   3.924   4.557 -0.3615  0.7048  1.6637
 4634SOL     OW25534   3.150   0.022   4.793 -0.1725 -0.0123 -0.2669
 4634SOL    HW125535   3.242   0.040   4.774 -0.3857  3.9737  2.4425
 4634SOL    HW225536   3.153   0.003   4.887 -0.8114  4.2170  0.6032
 4635SOL     OW25537   3.330   3.244   2.396  0.0363  0.0487 -0.2374
 4635SOL    HW125538   3.391   3.254   2.323 -1.1999  3.1206 -0.8226
 4635SOL    HW225539   3.242   3.262   2.364 -0.3923 -0.1502  0.8389
 4636SOL     OW25540   3.774   1.823   6.891  0.0096  0.1946 -0.0448
 4636SOL    HW125541   3.817   1.884   6.950  1.0402  0.0657 -0.6631
 4636SOL    HW225542   3.684   1.847   6.914  0.0983  0.9674 -0.5016
 4637SOL     OW25543   0.912   2.672   1.840 -0.4731 -0.5667 -0.0821
 4637SOL    HW125544   0.927   2.592   1.790  1.9484  0.5695 -1.1442
 4637SOL    HW225545   0.879   2.726   1.768  0.2357 -0.7490 -0.5412
 4638SOL     OW25546   1.293   3.772  11.013 -0.3619 -0.3643 -0.3120
 4638SOL    HW125547   1.284   3.763  10.919  2.3203  1.0195 -0.7197
 4638SOL    HW225548   1.338   3.857  11.011  1.2705 -1.2873 -2.3740
 4639SOL     OW25549   3.555   2.413   8.290 -0.3673  0.1513 -0.2627
 4639SOL    HW125550   3.540   2.400   8.196 -3.6770 -1.3410  0.4546
 4639SOL    HW225551   3.472   2.446   8.326 -0.0909  3.4319 -2.6193
 4640SOL     OW25552   2.732   3.455  15.668 -0.5127  0.5137  0.3547
 4640SOL    HW125553   2.694   3.527  15.618 -0.9825  0.1643  0.2095
 4640SOL    HW225554   2.822   3.483  15.686  0.5029 -1.1526 -2.0467
 4641SOL     OW25555   2.009   3.323   7.111 -0.5062 -0.2545  0.2587
 4641SOL    HW125556   1.982   3.232   7.125  1.4192 -0.6039  1.6329
 4641SOL    HW225557   2.031   3.307   7.019 -0.2260 -1.2660  0.5000
 4642SOL     OW25558   4.562   3.378   4.178  0.1740 -0.6599 -0.0877
 4642SOL    HW125559   4.569   3.348   4.268  0.7800 -0.7829 -0.1782
 4642SOL    HW225560   4.520   3.464   4.187  1.1752 -0.2304  0.3982
 4643SOL     OW25561   0.144   4.519  17.407  0.0940 -0.4243 -0.4733
 4643SOL    HW125562   0.202   4.456  17.450  0.4043  0.4550  0.4090
 4643SOL    HW225563   0.067   4.497  17.459  0.9346 -0.8273  0.6016
 4644SOL     OW25564   1.954   4.471   8.616 -0.1848 -0.2305  0.0990
 4644SOL    HW125565   1.917   4.464   8.704  0.9488 -0.4559  0.5650
 4644SOL    HW225566   2.012   4.395   8.620 -0.6026 -0.6178 -1.1168
 4645SOL     OW25567   4.733   1.830   0.599 -0.3252  0.3105 -0.6811
 4645SOL    HW125568   0.044   1.824   0.516  0.3477  1.1337 -0.3565
 4645SOL    HW225569   4.650   1.786   0.581  0.9866 -2.0372 -0.9711
 4646SOL     OW25570   0.253   1.259  15.834 -0.2474  0.3853  0.5553
 4646SOL    HW125571   0.203   1.340  15.834 -3.0239 -1.3159  0.8014
 4646SOL    HW225572   0.307   1.278  15.911  0.7838 -1.2455  0.2407
 4647SOL     OW25573   1.531   1.187   1.850 -0.0815 -0.0214  0.1928
 4647SOL    HW125574   1.497   1.229   1.928  0.9513  1.4203 -0.1399
 4647SOL    HW225575   1.456   1.158   1.798  1.0333 -2.6346  0.0435
 4648SOL     OW25576   4.071   3.779  11.679 -0.2605 -0.4092  0.4282
 4648SOL    HW125577   4.106   3.860  11.716 -0.5258 -0.3806  0.6137
 4648SOL    HW225578   4.049   3.805  11.589  0.0758 -2.8412 -0.3766
 4649SOL     OW25579   0.839   2.599   3.069 -0.3523  0.1741 -0.3404
 4649SOL    HW125580   0.799   2.653   3.138 -1.3959 -0.4368 -0.4564
 4649SOL    HW225581   0.800   2.627   2.986  2.5044 -1.3451 -2.1768
 4650SOL     OW25582   1.212   1.497   9.258 -0.5933  0.5244  0.5121
 4650SOL    HW125583   1.136   1.480   9.314 -1.5411  4.8039  0.4905
 4650SOL    HW225584   1.281   1.478   9.321 -0.1655  2.3162  0.5783
 4651SOL     OW25585   3.349   3.659  10.305  0.2440  0.1953 -0.7622
 4651SOL    HW125586   3.434   3.640  10.264 -0.5645 -2.4548 -1.2002
 4651SOL    HW225587   3.295   3.656  10.226 -1.8973 -1.2156  0.7535
 4652SOL     OW25588   4.490   2.547   5.541  0.2659  0.1307 -0.1364
 4652SOL    HW125589   4.487   2.520   5.632  2.4448 -0.3518 -0.2109
 4652SOL    HW225590   4.550   2.621   5.543 -0.2021  0.4445  2.1058
 4653SOL     OW25591   0.131   3.755   1.924 -0.0490 -0.3071  0.2812
 4653SOL    HW125592   0.170   3.820   1.866 -2.6406 -0.3609 -1.5200
 4653SOL    HW225593   0.199   3.716   1.979 -0.5407 -2.9219 -0.9787
 4654SOL     OW25594   0.925   0.267   2.727 -0.1507 -0.4020  0.4587
 4654SOL    HW125595   0.982   0.190   2.735  2.4506  0.8931 -5.0214
 4654SOL    HW225596   0.900   0.268   2.634 -0.8263 -0.4709  0.6425
 4655SOL     OW25597   2.121   3.549   4.817 -0.0595  0.5504 -0.3322
 4655SOL    HW125598   2.046   3.587   4.863  1.5637  2.9265  0.3409
 4655SOL    HW225599   2.122   3.606   4.740  0.9728  1.1222  0.1115
 4656SOL     OW25600   4.282   0.372  11.709  0.0372  0.7341 -0.3874
 4656SOL    HW125601   4.225   0.327  11.647 -1.2488 -1.0860  2.1200
 4656SOL    HW225602   4.215   0.406  11.769  1.8795  2.4288  0.6929
 4657SOL     OW25603   3.992   1.671   4.395  0.1673  0.5717  0.4844
 4657SOL    HW125604   4.041   1.701   4.471  1.9473  0.0583 -0.4725
 4657SOL    HW225605   3.919   1.621   4.433 -1.6690  1.6727 -1.5845
 4658SOL     OW25606   3.029   0.329   2.787  0.2606  0.0430  0.6537
 4658SOL    HW125607   2.953   0.315   2.730  0.4664  1.2423  0.0748
 4658SOL    HW225608   3.096   0.353   2.723  1.3390 -0.7871  1.4889
 4659SOL     OW25609   2.969   0.490  15.221  0.1074 -0.1132 -0.3688
 4659SOL    HW125610   3.038   0.457  15.162 -1.2981  0.9087 -2.5896
 4659SOL    HW225611   2.970   0.434  15.298  1.8860  0.7739  0.2587
 4660SOL     OW25612   2.573   4.635  14.552 -0.3494 -0.0793  0.6636
 4660SOL    HW125613   2.516   4.653  14.478 -0.3005  2.2451  1.1765
 4660SOL    HW225614   2.568   4.540  14.550  1.1404 -0.2087  2.0953
 4661SOL     OW25615   1.933   4.066   0.139  0.1580  0.3287  0.0867
 4661SOL    HW125616   1.955   4.016   0.218 -2.6143  0.8078  1.1754
 4661SOL    HW225617   1.900   4.143   0.185  1.8306  1.1538 -0.0912
 4662SOL     OW25618   0.231   4.721  14.816 -0.3600  0.2986 -0.0672
 4662SOL    HW125619   0.161   4.677  14.767  0.2726 -2.0481  1.1527
 4662SOL    HW225620   0.259   0.052  14.755 -0.8078  0.1992 -0.3889
 4663SOL     OW25621   4.505   1.463   7.650  0.2083  0.3746 -0.3988
 4663SOL    HW125622   4.456   1.432   7.727  0.7253 -0.8032 -0.5457
 4663SOL    HW225623   4.591   1.479   7.689 -0.1207 -1.3216  1.0474
 4664SOL     OW25624   3.397   2.957   2.928  0.7862  0.2633 -0.4662
 4664SOL    HW125625   3.365   2.906   2.853 -1.7835  0.1713  0.6755
 4664SOL    HW225626   3.490   2.965   2.910  0.6425  0.4070 -1.1481
 4665SOL     OW25627   3.156   0.660   4.319 -0.6008  0.3772 -0.2281
 4665SOL    HW125628   3.251   0.670   4.319 -0.3045 -2.4177 -1.2738
 4665SOL    HW225629   3.136   0.651   4.226 -0.1151 -0.4244 -0.2546
 4666SOL     OW25630   2.609   3.605   6.936  0.6298 -0.1653 -0.0159
 4666SOL    HW125631   2.667   3.610   7.012  0.4570  1.2973  0.0108
 4666SOL    HW225632   2.661   3.546   6.881  0.6474 -1.4931  1.4293
 4667SOL     OW25633   0.176   0.739   7.934 -0.4537  0.2032 -0.4820
 4667SOL    HW125634   0.260   0.709   7.903 -0.2683  2.3922 -2.1035
 4667SOL    HW225635   0.143   0.799   7.867 -0.7031  2.3784  1.5567
 4668SOL     OW25636   3.931   3.631   4.053  0.1500 -0.2178  0.4641
 4668SOL    HW125637   3.972   3.548   4.073 -1.0172 -1.3166 -1.6891
 4668SOL    HW225638   3.992   3.694   4.089  2.2342 -0.8126 -2.0245
 4669SOL     OW25639   0.848   1.428   8.807 -0.0571  0.5078 -0.5784
 4669SOL    HW125640   0.826   1.435   8.900 -2.3889  3.1625 -1.3411
 4669SOL    HW225641   0.909   1.499   8.792  0.3319  0.0319 -1.2534
 4670SOL     OW25642   0.907   4.658   4.646  0.2962  0.0127 -0.1178
 4670SOL    HW125643   0.821   4.633   4.681  1.3756 -0.5339  2.1413
 4670SOL    HW225644   0.896   0.016   4.657 -0.7201  0.1682 -2.4288
 4671SOL     OW25645   1.378   0.650  14.321 -0.0945  0.5347  0.2474
 4671SOL    HW125646   1.392   0.603  14.239  0.7652  0.3017  0.5212
 4671SOL    HW225647   1.449   0.714  14.327  0.1199  0.3010  0.2124
 4672SOL     OW25648   3.320   4.229   9.892  0.3354  0.6278 -0.5692
 4672SOL    HW125649   3.391   4.166   9.905 -2.2319 -2.1754 -0.1274
 4672SOL    HW225650   3.352   4.304   9.941 -1.3543  1.1943 -0.3093
 4673SOL     OW25651   4.366   0.284   5.049  0.2531 -0.2575  0.5709
 4673SOL    HW125652   4.351   0.351   4.983 -0.5099 -0.3797  0.6160
 4673SOL    HW225653   4.320   0.310   5.128  0.2308  1.5466 -0.0283
 4674SOL     OW25654   1.180   3.853   9.340 -0.0009  0.2532 -0.7358
 4674SOL    HW125655   1.247   3.849   9.272 -0.7198  0.2579 -1.4384
 4674SOL    HW225656   1.145   3.764   9.340  0.4252  0.0771  0.6175
 4675SOL     OW25657   1.831   0.149   8.498 -0.6224  0.3904  0.2005
 4675SOL    HW125658   1.786   0.162   8.414 -1.1616 -0.4247  0.3583
 4675SOL    HW225659   1.765   0.104   8.551 -0.0550 -0.4732  0.1839
 4676SOL     OW25660   0.075   2.072   5.637 -0.0006  0.3829  0.4243
 4676SOL    HW125661   0.046   2.151   5.682  0.7888  1.2710 -0.6216
 4676SOL    HW225662   0.112   2.022   5.710 -0.7135 -0.6309  0.0942
 4677SOL     OW25663   2.978   2.131   6.942  0.3714  0.1046 -0.0429
 4677SOL    HW125664   2.999   2.113   7.033 -0.7807 -0.6543  0.0670
 4677SOL    HW225665   2.905   2.192   6.951  1.9808  1.9449  0.4102
 4678SOL     OW25666   4.681   0.383   4.838 -0.2461  0.2429  0.0351
 4678SOL    HW125667   4.712   0.432   4.762 -1.6461  0.3031 -0.5072
 4678SOL    HW225668   0.019   0.390   4.896 -0.6997  0.9094  0.5422
 4679SOL     OW25669   2.130   4.417   6.446 -0.3330 -0.6085  0.3501
 4679SOL    HW125670   2.050   4.369   6.467 -2.7557  2.6093 -1.5208
 4679SOL    HW225671   2.111   4.461   6.363 -1.5372 -0.6139  0.6235
 4680SOL     OW25672   2.504   4.490   3.043  0.3681 -0.4698 -0.2066
 4680SOL    HW125673   2.556   4.423   3.088  0.2029 -0.8879 -0.6442
 4680SOL    HW225674   2.438   4.514   3.108  1.0379  1.4134 -0.2283
 4681SOL     OW25675   4.427   4.242   8.337 -0.4005 -0.1484  0.5002
 4681SOL    HW125676   4.450   4.172   8.275 -0.7088 -0.7987  1.1174
 4681SOL    HW225677   4.510   4.288   8.348 -1.0588  1.6130 -1.9291
 4682SOL     OW25678   4.545   2.738   8.044 -0.2639  0.0035 -0.4477
 4682SOL    HW125679   4.509   2.822   8.072 -2.0699 -1.5964  2.0365
 4682SOL    HW225680   4.575   2.705   8.129 -1.4926 -1.1866 -0.4779
 4683SOL     OW25681   1.815   3.820   1.900  0.1213 -0.4376  0.2903
 4683SOL    HW125682   1.839   3.893   1.955 -4.3486  0.9311  0.4174
 4683SOL    HW225683   1.894   3.768   1.885  1.2870  1.3941  0.1865
 4684SOL     OW25684   0.761   0.085   9.025 -0.2549 -0.5307  1.0189
 4684SOL    HW125685   0.682   0.047   8.986 -0.3384  0.3087  0.3644
 4684SOL    HW225686   0.823   0.063   8.956 -1.9849  0.0282 -0.7058
 4685SOL     OW25687   0.144   1.821   6.861 -0.6967 -0.0614 -0.4471
 4685SOL    HW125688   0.158   1.790   6.771  0.7756  0.4037 -0.3823
 4685SOL    HW225689   0.084   1.893   6.842 -0.7191 -0.2729 -1.2016
 4686SOL     OW25690   1.117   3.516   6.682  0.0394 -0.3475  0.7852
 4686SOL    HW125691   1.072   3.601   6.681 -1.1002 -0.9801 -1.0177
 4686SOL    HW225692   1.078   3.477   6.604 -1.8378  1.6202  0.7347
 4687SOL     OW25693   2.344   3.612   6.162 -0.6520  0.0690 -0.3227
 4687SOL    HW125694   2.396   3.686   6.131 -0.4662  0.0099 -0.1505
 4687SOL    HW225695   2.332   3.553   6.088  0.8396  0.4639 -0.8668
 4688SOL     OW25696   4.021   3.731   1.567  0.0436  0.2071 -0.2202
 4688SOL    HW125697   3.979   3.807   1.606 -0.1254 -0.8732  1.7456
 4688SOL    HW225698   3.952   3.711   1.504 -0.6234 -0.0553  0.5838
 4689SOL     OW25699   2.349   1.065   9.885 -0.4549 -0.4847  0.1517
 4689SOL    HW125700   2.428   1.120   9.888 -0.9147  0.1789 -0.0404
 4689SOL    HW225701   2.372   0.985   9.932  2.2841  0.5214  0.5363
 4690SOL     OW25702   3.639   3.936   7.373  0.8312  0.9741 -0.3395
 4690SOL    HW125703   3.618   3.890   7.292  1.1657 -0.0466  0.1469
 4690SOL    HW225704   3.720   3.981   7.349  3.5326 -3.2932  0.6177
 4691SOL     OW25705   3.887   3.091   9.332 -0.1443  0.5340  0.3077
 4691SOL    HW125706   3.801   3.119   9.302 -0.3620  2.3562  2.6024
 4691SOL    HW225707   3.942   3.153   9.285 -0.3507  0.9320  0.5895
 4692SOL     OW25708   2.566   2.318   8.821 -0.4950 -0.2514  0.1766
 4692SOL    HW125709   2.655   2.283   8.810 -0.0016  1.2369 -0.4797
 4692SOL    HW225710   2.516   2.270   8.756  0.0696 -0.6169  0.0045
 4693SOL     OW25711   2.969   4.161  10.192  0.0310  0.1731 -0.0888
 4693SOL    HW125712   2.886   4.141  10.235  0.4736 -1.8678 -0.1832
 4693SOL    HW225713   3.012   4.081  10.222 -1.0483 -0.0184  0.9405
 4694SOL     OW25714   2.562   4.056   8.191  0.0665 -0.4238  0.0629
 4694SOL    HW125715   2.472   4.052   8.159 -0.4812  3.4330  1.1759
 4694SOL    HW225716   2.612   4.096   8.119  2.1086  0.1328  1.7681
 4695SOL     OW25717   2.606   0.995  11.887 -0.0037  0.4432 -0.7109
 4695SOL    HW125718   2.688   1.044  11.892 -0.5069  1.1610  0.9068
 4695SOL    HW225719   2.562   1.039  11.814 -0.9927  1.3902  0.4303
 4696SOL     OW25720   1.830   3.597   0.701 -0.4725 -0.0552 -0.6612
 4696SOL    HW125721   1.819   3.600   0.796  0.1937  0.3228 -0.5977
 4696SOL    HW225722   1.795   3.510   0.683  2.9034 -1.1897 -1.6394
 4697SOL     OW25723   3.080   2.183   3.959 -0.0773  0.1524  0.4527
 4697SOL    HW125724   3.004   2.212   4.009 -3.0668 -1.7516 -3.0052
 4697SOL    HW225725   3.120   2.114   4.011 -0.9688 -0.5616  0.1853
 4698SOL     OW25726   1.164   4.279   5.880 -0.1129  0.0288 -0.4431
 4698SOL    HW125727   1.129   4.198   5.843  2.4153 -0.6918 -1.2901
 4698SOL    HW225728   1.178   4.246   5.968 -0.7589 -0.3477 -0.4815
 4699SOL     OW25729   3.630   2.350   9.170  0.1303 -0.3132  0.1364
 4699SOL    HW125730   3.663   2.438   9.156 -0.0614  0.0857  2.2954
 4699SOL    HW225731   3.599   2.336   9.080  0.6831 -2.2453  0.2446
 4700SOL     OW25732   0.029   0.048   4.869  0.5132  0.0571 -0.5206
 4700SOL    HW125733   4.690   0.107   4.868  0.4604 -0.0111 -0.4647
 4700SOL    HW225734   0.069   0.064   4.954  0.9586  4.0378 -1.4708
 4701SOL     OW25735   4.475   2.512   5.809 -0.4935  0.4455  0.2271
 4701SOL    HW125736   4.478   2.608   5.812 -0.3597  0.4392  0.2991
 4701SOL    HW225737   4.548   2.494   5.868  0.1738  1.0824 -0.3961
 4702SOL     OW25738   1.941   2.942   8.892  0.2200 -0.6761  0.3715
 4702SOL    HW125739   2.023   2.956   8.940  0.8783 -2.3979 -0.2596
 4702SOL    HW225740   1.963   2.891   8.814  2.7214 -0.1501  0.7068
 4703SOL     OW25741   2.924   1.351   2.185 -0.2912  0.6509  0.2680
 4703SOL    HW125742   2.892   1.352   2.275 -0.5769  0.5642  0.1662
 4703SOL    HW225743   2.966   1.265   2.191 -2.5491 -0.3776  1.2449
 4704SOL     OW25744   3.527   0.431   2.775  0.0443  0.0369  0.1347
 4704SOL    HW125745   3.593   0.495   2.801  2.2457 -1.8502 -0.7942
 4704SOL    HW225746   3.487   0.401   2.856  1.0841  0.7323  0.8985
 4705SOL     OW25747   1.842   1.582   1.323 -0.6701 -0.3015 -0.2223
 4705SOL    HW125748   1.752   1.551   1.314 -0.6967 -0.2760 -0.0452
 4705SOL    HW225749   1.880   1.506   1.367  0.4227  1.2610  1.5490
 4706SOL     OW25750   2.300   2.769   9.657 -0.6961  0.0295  0.4049
 4706SOL    HW125751   2.259   2.695   9.702  1.0976  0.7115  3.2134
 4706SOL    HW225752   2.265   2.771   9.568  0.8798 -0.7175 -0.2491
 4707SOL     OW25753   3.297   3.307   9.209 -0.0783 -0.1243  0.1627
 4707SOL    HW125754   3.229   3.326   9.144 -1.3432  0.0849  1.5312
 4707SOL    HW225755   3.278   3.374   9.275 -0.3515  2.0672 -2.1233
 4708SOL     OW25756   1.595   1.926   4.776  0.4204 -0.5812 -0.1113
 4708SOL    HW125757   1.641   1.945   4.694 -1.0121 -2.2312 -1.2951
 4708SOL    HW225758   1.603   2.013   4.816 -0.0677  0.3191 -1.9443
 4709SOL     OW25759   2.379   4.693   6.877 -0.4309 -0.6020 -0.1421
 4709SOL    HW125760   2.391   4.730   6.790 -0.6223 -1.0092 -0.3453
 4709SOL    HW225761   2.356   4.604   6.850  0.4988 -1.5206  2.0652
 4710SOL     OW25762   0.441   1.730   2.108  0.8882 -0.2617  0.0872
 4710SOL    HW125763   0.382   1.791   2.065 -0.9380 -1.1543  1.3241
 4710SOL    HW225764   0.515   1.736   2.048  0.7023  1.0615 -0.0049
 4711SOL     OW25765   4.656   4.427   9.183  0.1788 -0.2368 -0.4405
 4711SOL    HW125766   4.624   4.338   9.166 -4.6227  1.3254  0.5175
 4711SOL    HW225767   4.580   4.469   9.142 -2.3837 -1.1428  3.4311
 4712SOL     OW25768   3.466   1.389   0.796 -0.8400 -0.1842 -0.4842
 4712SOL    HW125769   3.405   1.324   0.830 -1.1709  0.5907  0.4153
 4712SOL    HW225770   3.524   1.405   0.871 -3.0065  0.3159  1.1104
 4713SOL     OW25771   1.956   0.327   9.599 -0.0757 -0.1439 -0.3596
 4713SOL    HW125772   1.919   0.242   9.577 -1.0266  0.4398 -0.9966
 4713SOL    HW225773   1.892   0.358   9.663  1.0221 -0.8550  1.1042
 4714SOL     OW25774   3.611   0.163   3.187  0.1272 -0.6337 -0.5542
 4714SOL    HW125775   3.557   0.109   3.245  1.1441  0.2596  1.1894
 4714SOL    HW225776   3.673   0.202   3.248  0.9682 -1.7685 -0.6929
 4715SOL     OW25777   2.091   0.360   5.217 -0.0517 -0.3008 -0.2841
 4715SOL    HW125778   2.024   0.428   5.227  0.7638  0.5718 -0.7832
 4715SOL    HW225779   2.169   0.394   5.260 -1.7312  0.0226  2.5001
 4716SOL     OW25780   1.198   2.667  16.456 -0.5540 -0.0326  0.3595
 4716SOL    HW125781   1.203   2.585  16.506  1.4203 -0.1663 -0.0370
 4716SOL    HW225782   1.151   2.725  16.516 -1.7749  0.1201 -0.7357
 4717SOL     OW25783   0.142   3.727  11.734 -0.1721  0.8325 -1.2144
 4717SOL    HW125784   0.058   3.771  11.727  0.4176  1.9355 -1.3984
 4717SOL    HW225785   0.156   3.734  11.829  0.0503  1.2981 -1.2789
 4718SOL     OW25786   0.368   0.087   4.321  0.4735  0.2483  0.2291
 4718SOL    HW125787   0.457   0.088   4.286 -0.1695  1.2440 -1.4257
 4718SOL    HW225788   0.340   0.014   4.266 -0.4014  0.4500  0.4044
 4719SOL     OW25789   3.639   2.173   7.760 -0.1244 -0.7602 -0.1312
 4719SOL    HW125790   3.549   2.167   7.793 -1.0735  2.4994 -2.1456
 4719SOL    HW225791   3.685   2.100   7.801  0.2106 -2.0435 -2.7681
 4720SOL     OW25792   1.908   3.385   2.371  0.3389  0.9537  0.3285
 4720SOL    HW125793   1.976   3.318   2.387 -1.0591  0.0371  2.4842
 4720SOL    HW225794   1.830   3.330   2.366  0.0622  1.2606  1.2765
 4721SOL     OW25795   0.441   2.017   1.416 -0.3420  0.2714  0.0860
 4721SOL    HW125796   0.371   2.070   1.378 -1.5466  0.0815  2.0158
 4721SOL    HW225797   0.455   1.949   1.351 -2.2562  0.4604 -0.5187
 4722SOL     OW25798   3.791   1.025   8.747  0.2543  0.0350 -0.7208
 4722SOL    HW125799   3.810   1.098   8.689 -2.3267  0.1831 -1.3987
 4722SOL    HW225800   3.860   1.037   8.812  0.3226 -1.9484 -0.4299
 4723SOL     OW25801   3.411   4.616   1.852  0.2737 -0.0607  0.6328
 4723SOL    HW125802   3.478   4.684   1.856  0.9669 -0.4983 -3.9423
 4723SOL    HW225803   3.434   4.560   1.926  0.7450 -0.4091  0.2216
 4724SOL     OW25804   0.157   1.086   1.188  0.2292  0.1510  0.2952
 4724SOL    HW125805   0.238   1.115   1.145  1.2732 -2.4789  0.4981
 4724SOL    HW225806   0.195   1.061   1.273  0.6450  1.1208  0.4022
 4725SOL     OW25807   0.473   1.802   3.971 -0.3792  0.1864  0.3783
 4725SOL    HW125808   0.533   1.835   4.038 -0.1214 -0.8776  0.6722
 4725SOL    HW225809   0.472   1.879   3.915 -0.4512  1.5890  2.3063
 4726SOL     OW25810   3.283   0.007   0.152 -0.2580 -0.6274 -0.2062
 4726SOL    HW125811   3.296   0.026   0.059  0.4935 -1.6386 -0.3052
 4726SOL    HW225812   3.195   0.042   0.165  0.4227  0.6892  0.8822
 4727SOL     OW25813   4.576   2.486   4.885  0.1083  0.3293 -0.2195
 4727SOL    HW125814   4.648   2.508   4.826  0.7993 -1.1383  0.0658
 4727SOL    HW225815   4.621   2.521   4.962 -0.4788 -2.6765  1.4987
 4728SOL     OW25816   2.267   1.207   5.618 -0.1181 -0.0218  0.0361
 4728SOL    HW125817   2.202   1.253   5.566  1.1464  0.8608 -0.7694
 4728SOL    HW225818   2.285   1.273   5.685 -0.4634  0.1629 -0.0584
 4729SOL     OW25819   0.054   0.165  16.561 -0.1970 -0.1664  0.4057
 4729SOL    HW125820   0.131   0.122  16.598 -0.1079  0.0511  0.4695
 4729SOL    HW225821   0.100   0.204  16.486 -1.1286  1.6798  0.8030
 4730SOL     OW25822   3.014   0.288   5.816  0.3144 -0.7434 -0.3864
 4730SOL    HW125823   3.006   0.233   5.738  0.4384 -0.2118 -0.7691
 4730SOL    HW225824   2.966   0.363   5.781  0.6525  0.3808  1.5333
 4731SOL     OW25825   4.546   1.162  17.558  0.3118 -0.5262  0.1432
 4731SOL    HW125826   4.609   1.205  17.499 -1.6889 -1.6562 -2.8330
 4731SOL    HW225827   4.526   1.087  17.503 -1.9861  0.0836  0.1766
 4732SOL     OW25828   4.078   4.423   7.981  0.0364 -0.1058  0.2930
 4732SOL    HW125829   4.104   4.480   8.052  1.2509  0.7432 -0.8320
 4732SOL    HW225830   4.044   4.346   8.026  1.5049 -1.2405 -0.5044
 4733SOL     OW25831   1.091   3.699   1.127  0.3146 -0.1891 -0.6774
 4733SOL    HW125832   1.102   3.708   1.033  0.2867  0.3106 -0.6318
 4733SOL    HW225833   1.100   3.784   1.171  2.8456 -0.6788 -0.2449
 4734SOL     OW25834   1.337   3.352  10.323  0.7210  1.0440  0.5199
 4734SOL    HW125835   1.328   3.405  10.243 -2.8219 -0.4534 -0.0729
 4734SOL    HW225836   1.432   3.343  10.332  0.2159 -3.5381  1.2295
 4735SOL     OW25837   4.177   2.175   9.129 -1.0083  1.1614  0.1058
 4735SOL    HW125838   4.109   2.117   9.164  0.6739  0.0807  1.5385
 4735SOL    HW225839   4.142   2.262   9.149 -2.4096  0.4799  0.6529
 4736SOL     OW25840   0.948   0.519   7.033  0.2012  0.1277 -0.3999
 4736SOL    HW125841   0.896   0.513   7.114  0.7972  3.1556  0.2222
 4736SOL    HW225842   0.914   0.439   6.994 -1.1366  1.3241 -1.6800
 4737SOL     OW25843   4.363   0.822   3.475 -0.0595 -0.4295 -0.0168
 4737SOL    HW125844   4.288   0.767   3.496  0.0940 -0.1971  1.1348
 4737SOL    HW225845   4.344   0.839   3.383  0.8103  0.1936 -0.0779
 4738SOL     OW25846   3.925   4.515   7.773 -0.1359  0.1805 -0.2167
 4738SOL    HW125847   3.853   4.571   7.802 -0.5623 -0.4199 -0.1120
 4738SOL    HW225848   3.980   4.499   7.850  0.1805 -0.4262 -0.5659
 4739SOL     OW25849   1.656   4.711   1.085 -0.2473  0.4504  0.0926
 4739SOL    HW125850   1.740   4.665   1.081 -0.4497  0.1418 -0.5376
 4739SOL    HW225851   1.684   0.059   1.119  0.6190  1.0110 -1.9996
 4740SOL     OW25852   1.185   0.665   3.021 -0.8682  0.4329  0.0546
 4740SOL    HW125853   1.274   0.654   2.987 -0.8056 -1.6260  0.8436
 4740SOL    HW225854   1.199   0.693   3.111  0.7421 -0.3538  0.0566
 4741SOL     OW25855   4.511   1.210   7.960  0.1062 -0.0227  0.2821
 4741SOL    HW125856   4.461   1.279   7.917  1.5390 -0.1094 -1.5279
 4741SOL    HW225857   4.452   1.135   7.949 -1.8506  1.5185  0.3425
 4742SOL     OW25858   4.417   1.222   6.435 -0.0138 -0.0770 -0.1783
 4742SOL    HW125859   4.509   1.199   6.451 -0.8917 -1.0323  3.4015
 4742SOL    HW225860   4.381   1.142   6.472  0.9180 -0.7733 -0.7792
 4743SOL     OW25861   2.799   1.613   3.304 -0.1519  0.0061 -0.1319
 4743SOL    HW125862   2.884   1.633   3.265  0.4949 -0.0329  1.2684
 4743SOL    HW225863   2.740   1.626   3.230  0.9314 -0.7753 -1.1290
 4744SOL     OW25864   4.361   0.595  11.513  0.2620 -0.8609  0.2689
 4744SOL    HW125865   4.273   0.577  11.479 -0.4458  0.7317  1.2501
 4744SOL    HW225866   4.370   0.535  11.587  1.2073 -0.9802  0.0577
 4745SOL     OW25867   3.418   1.095   6.667 -0.0506 -0.0524 -0.5213
 4745SOL    HW125868   3.459   1.148   6.736 -1.0520  0.6285 -0.4466
 4745SOL    HW225869   3.421   1.146   6.585 -2.1619  0.0900 -0.5030
 4746SOL     OW25870   0.863   0.579  12.858  0.4209 -0.1163 -0.0082
 4746SOL    HW125871   0.835   0.520  12.788 -1.3240  1.0126 -0.2612
 4746SOL    HW225872   0.949   0.597  12.821  0.8916  0.4336  1.3492
 4747SOL     OW25873   4.215   4.489   4.800  0.3629  0.4611  0.1987
 4747SOL    HW125874   4.233   4.470   4.892 -3.4834 -1.4323  0.5740
 4747SOL    HW225875   4.303   4.500   4.762 -0.5210 -1.4041 -2.4172
 4748SOL     OW25876   4.454   3.429   7.647 -0.3011 -0.4444  0.1491
 4748SOL    HW125877   4.536   3.381   7.659  0.6652  1.2683  0.2763
 4748SOL    HW225878   4.467   3.465   7.559  1.2679  4.1468  2.2889
 4749SOL     OW25879   1.298   3.893   6.675 -0.3783  0.2060 -0.1283
 4749SOL    HW125880   1.227   3.832   6.696 -0.4680  0.5947  0.6838
 4749SOL    HW225881   1.307   3.887   6.580  1.3221 -3.4493  0.2420
 4750SOL     OW25882   4.033   0.833   7.042 -0.6904  0.3896  0.1191
 4750SOL    HW125883   4.115   0.809   7.000 -1.2004 -0.5376 -0.3439
 4750SOL    HW225884   4.016   0.918   7.001 -0.8349  0.6407  0.6963
 4751SOL     OW25885   1.823   0.588  14.337  0.0775 -0.0510 -0.3354
 4751SOL    HW125886   1.843   0.676  14.308  0.6380  0.2897  1.0385
 4751SOL    HW225887   1.795   0.601  14.428 -0.1187 -1.7355 -0.1536
 4752SOL     OW25888   4.502   1.859   0.910  0.2052  0.1182 -0.2243
 4752SOL    HW125889   4.435   1.841   0.976 -1.4287 -2.3227 -2.5890
 4752SOL    HW225890   4.511   1.771   0.875  1.7537 -0.1374  0.7657
 4753SOL     OW25891   2.421   1.813   5.622  0.0661 -0.0777 -0.3331
 4753SOL    HW125892   2.492   1.798   5.559  1.1224 -1.1047  1.0877
 4753SOL    HW225893   2.440   1.760   5.699 -0.0942  0.0643 -0.1971
 4754SOL     OW25894   2.979   1.748   3.960 -0.3634 -0.3849 -0.2791
 4754SOL    HW125895   3.067   1.775   3.933 -0.4210  0.1793  0.1025
 4754SOL    HW225896   2.998   1.656   3.943  0.7943 -0.2528  0.3016
 4755SOL     OW25897   1.064   1.745   9.541 -0.0883 -0.4216  0.6102
 4755SOL    HW125898   1.000   1.790   9.487  0.4517  1.1095  1.2541
 4755SOL    HW225899   1.110   1.814   9.589  1.2108 -0.0127 -1.2425
 4756SOL     OW25900   3.791   1.202   7.558  0.2358  0.0098  0.5930
 4756SOL    HW125901   3.734   1.133   7.591  0.4774  0.5828  2.2250
 4756SOL    HW225902   3.780   1.273   7.622  1.1827  0.3218  0.4045
 4757SOL     OW25903   3.588   3.581   8.770 -0.1344  0.1637 -0.8719
 4757SOL    HW125904   3.541   3.518   8.716 -0.6909 -0.0511 -0.1382
 4757SOL    HW225905   3.590   3.532   8.853  1.4954  2.4901  0.4706
 4758SOL     OW25906   0.421   1.275   7.869  0.4034 -0.4886 -0.4008
 4758SOL    HW125907   0.434   1.364   7.836  0.8919 -0.2434  0.4591
 4758SOL    HW225908   0.491   1.218   7.836  2.5213  2.3838 -0.9204
 4759SOL     OW25909   2.686   0.624   2.413  0.0651  0.0571 -0.2910
 4759SOL    HW125910   2.644   0.602   2.330  0.0843 -2.1170  0.2828
 4759SOL    HW225911   2.755   0.558   2.406  1.2067  1.3249 -1.1954
 4760SOL     OW25912   1.598   0.673   9.382 -0.3461  0.3213 -0.4390
 4760SOL    HW125913   1.688   0.687   9.351  0.0915 -0.4606  0.4816
 4760SOL    HW225914   1.600   0.578   9.373 -0.9273  0.3074 -0.4020
 4761SOL     OW25915   4.067   1.152  13.108  0.5932 -0.0841  0.1215
 4761SOL    HW125916   4.050   1.238  13.069 -0.2793 -0.3750 -0.1484
 4761SOL    HW225917   4.013   1.091  13.057 -0.6725  0.8820  0.2860
 4762SOL     OW25918   1.588   3.055   7.460 -0.0058 -0.2801  0.3971
 4762SOL    HW125919   1.528   3.098   7.399  1.2273 -1.4583 -1.6324
 4762SOL    HW225920   1.586   3.125   7.526 -0.2701  1.3456 -1.3438
 4763SOL     OW25921   1.733   3.237  11.297  0.3841  0.2707 -0.3159
 4763SOL    HW125922   1.812   3.262  11.249  0.9706 -0.4835  0.2640
 4763SOL    HW225923   1.667   3.256  11.231  0.7138 -0.7409 -0.9230
 4764SOL     OW25924   3.730   2.592  12.320  0.4846  0.4035 -0.1442
 4764SOL    HW125925   3.734   2.641  12.238  0.1795  3.1455  1.4722
 4764SOL    HW225926   3.667   2.526  12.291 -0.5478  1.0077  0.7388
 4765SOL     OW25927   3.858   3.661   9.837  0.2861 -1.0163 -0.0568
 4765SOL    HW125928   3.919   3.723   9.797  0.0450 -0.7043  0.0636
 4765SOL    HW225929   3.777   3.695   9.800  0.3756 -0.6600  0.0742
 4766SOL     OW25930   4.094   0.596   1.997  0.3284  0.4975 -0.0381
 4766SOL    HW125931   4.185   0.578   1.976 -0.1507  0.0500 -1.8029
 4766SOL    HW225932   4.064   0.663   1.936 -1.7001  0.3861  0.8359
 4767SOL     OW25933   0.557   4.706  16.886  0.2028 -0.0879  0.0942
 4767SOL    HW125934   0.598   4.703  16.799  3.2472 -1.6707  1.5846
 4767SOL    HW225935   0.486   0.030  16.869  1.4024  1.0837 -0.7997
 4768SOL     OW25936   4.588   3.838   9.520  0.2996  0.8647  0.3135
 4768SOL    HW125937   4.618   3.887   9.597  0.9887  1.6572 -0.4631
 4768SOL    HW225938   4.508   3.887   9.500 -0.0196  0.2220  0.0135
 4769SOL     OW25939   2.883   1.698   1.398  0.4389  0.3346  0.6538
 4769SOL    HW125940   2.825   1.744   1.337  1.1851 -1.6868 -1.5890
 4769SOL    HW225941   2.816   1.654   1.450  1.9170 -1.1940  1.2436
 4770SOL     OW25942   2.243   2.821  16.326 -0.3806 -0.1730 -0.1065
 4770SOL    HW125943   2.178   2.857  16.387  0.6933  2.8082 -0.7045
 4770SOL    HW225944   2.288   2.753  16.375  0.3401  0.0571 -0.4543
 4771SOL     OW25945   0.138   3.248  12.941  0.4287 -0.2011  0.0638
 4771SOL    HW125946   0.068   3.225  13.003  0.8209  0.0155  0.5882
 4771SOL    HW225947   0.208   3.278  12.998 -0.1841  0.8695  0.2549
 4772SOL     OW25948   0.323   2.124   0.913 -0.1135  0.0325 -0.3050
 4772SOL    HW125949   0.234   2.096   0.893  0.0055  0.2747 -1.1629
 4772SOL    HW225950   0.348   2.172   0.834 -0.6476 -1.8043 -1.5846
 4773SOL     OW25951   2.782   1.190   1.667 -0.2180  0.2052 -0.0513
 4773SOL    HW125952   2.744   1.155   1.747  0.7119 -1.2553 -0.2451
 4773SOL    HW225953   2.736   1.146   1.596  1.4433  1.2481 -1.7955
 4774SOL     OW25954   3.924   0.221   9.576  0.0599 -0.2343  0.1916
 4774SOL    HW125955   3.970   0.187   9.500  0.6154  0.3553  0.2533
 4774SOL    HW225956   3.909   0.310   9.542 -4.5998 -1.2941 -0.4296
 4775SOL     OW25957   0.160   2.185  12.470  0.2628  0.2650  0.2653
 4775SOL    HW125958   0.198   2.133  12.399  2.0150 -0.3755  1.6703
 4775SOL    HW225959   0.200   2.133  12.539 -0.5803 -1.4804 -0.5598
 4776SOL     OW25960   1.709   0.756   5.440  0.0239  0.3846 -0.5997
 4776SOL    HW125961   1.746   0.807   5.369  3.7343 -0.2652  0.8535
 4776SOL    HW225962   1.628   0.723   5.400 -0.9585  2.0297  0.0603
 4777SOL     OW25963   4.134   3.067   0.952 -0.0057 -0.1657 -0.7604
 4777SOL    HW125964   4.096   3.030   0.872 -0.8835  0.2869 -0.5593
 4777SOL    HW225965   4.054   3.071   1.003 -0.5981  0.5065 -1.7284
 4778SOL     OW25966   0.843   2.368  15.407 -0.0261 -0.2052  0.0582
 4778SOL    HW125967   0.906   2.301  15.381  2.1080  1.3383  1.3044
 4778SOL    HW225968   0.791   2.346  15.485 -1.6506 -2.1851 -1.5845
 4779SOL     OW25969   1.780   3.559   3.983 -0.0270 -0.2619  0.2596
 4779SOL    HW125970   1.730   3.570   4.064  1.0804  0.1067  0.9012
 4779SOL    HW225971   1.853   3.504   4.012  0.1584  0.0785  0.4466
 4780SOL     OW25972   1.109   3.525  16.325 -0.0261  0.1783 -0.0713
 4780SOL    HW125973   1.103   3.614  16.358 -2.4155 -0.0142  0.0060
 4780SOL    HW225974   1.107   3.549  16.232  0.0136  0.8403  0.1058
 4781SOL     OW25975   1.514   2.593   1.549 -0.4356  0.1069 -0.2480
 4781SOL    HW125976   1.437   2.535   1.545 -0.1645 -0.3076  0.4942
 4781SOL    HW225977   1.485   2.650   1.478 -1.5867  1.1520  1.0665
 4782SOL     OW25978   0.890   4.552   8.188 -0.4207  0.4231 -0.5248
 4782SOL    HW125979   0.951   4.573   8.118 -2.7295  1.8541 -2.0930
 4782SOL    HW225980   0.933   4.473   8.220 -0.9471  0.5987  0.6285
 4783SOL     OW25981   3.479   0.661   3.705  0.4008 -0.2177 -0.3652
 4783SOL    HW125982   3.498   0.594   3.771  0.2844  0.7700  0.6775
 4783SOL    HW225983   3.431   0.721   3.761 -1.5076 -0.7854 -1.3730
 4784SOL     OW25984   2.978   2.110   9.621 -0.0678  0.1977  0.2709
 4784SOL    HW125985   3.037   2.183   9.602  0.6096 -0.7210 -1.2209
 4784SOL    HW225986   2.890   2.143   9.599 -0.4978 -1.8165 -1.0711
 4785SOL     OW25987   2.164   0.444   6.402  0.3962  0.1558 -0.1959
 4785SOL    HW125988   2.199   0.355   6.400  0.0169  0.0196 -0.9704
 4785SOL    HW225989   2.183   0.462   6.494 -0.3599  0.3832 -0.0799
 4786SOL     OW25990   3.056   2.902   6.247 -0.1430  0.5567  0.0546
 4786SOL    HW125991   3.127   2.838   6.250  1.9052  2.8154 -0.1659
 4786SOL    HW225992   2.985   2.847   6.214 -1.2407  1.4478  0.9339
 4787SOL     OW25993   2.279   1.668  10.816  0.2963 -0.3141 -0.2529
 4787SOL    HW125994   2.184   1.679  10.814  0.6060  2.1489 -0.7552
 4787SOL    HW225995   2.301   1.713  10.897  3.6296  0.4620 -1.6056
 4788SOL     OW25996   2.956   4.045   2.431  0.7569 -0.4487  0.0625
 4788SOL    HW125997   2.877   4.071   2.479  1.2185 -0.0637  0.6084
 4788SOL    HW225998   2.980   4.131   2.399  0.0589 -0.0924  0.5010
 4789SOL     OW25999   2.941   4.366   2.972 -0.1419  0.3552 -0.4061
 4789SOL    HW126000   3.010   4.398   2.914  0.7797 -0.6504  0.1383
 4789SOL    HW226001   2.996   4.347   3.048 -0.8521 -0.7511 -0.1555
 4790SOL     OW26002   0.482   1.810  11.942 -0.4029 -0.0621  0.0241
 4790SOL    HW126003   0.450   1.898  11.957 -2.0776 -0.5073 -0.8695
 4790SOL    HW226004   0.574   1.829  11.922 -0.5544  0.9993  0.3520
 4791SOL     OW26005   2.967   2.636   2.010  0.5175 -0.0622 -0.1267
 4791SOL    HW126006   2.875   2.659   2.022  1.2445  1.5020  2.4895
 4791SOL    HW226007   3.015   2.711   2.045 -0.1829  1.2233 -1.9484
 4792SOL     OW26008   0.912   1.322  12.457  0.2054 -0.2093  0.0703
 4792SOL    HW126009   0.849   1.394  12.465 -0.1122 -0.3604 -0.9992
 4792SOL    HW226010   0.861   1.242  12.466  0.7049 -0.3705  1.4007
 4793SOL     OW26011   1.858   2.847   4.587 -0.1990 -0.5242 -0.6094
 4793SOL    HW126012   1.910   2.859   4.666  1.7359  0.1315 -1.9742
 4793SOL    HW226013   1.845   2.937   4.558  3.4359  0.1268 -0.1606
 4794SOL     OW26014   0.797   4.538   6.876 -0.2331 -0.4051  0.2689
 4794SOL    HW126015   0.756   4.529   6.962 -0.4926 -0.6491  0.1179
 4794SOL    HW226016   0.875   4.483   6.883 -0.6136 -1.0472 -0.6635
 4795SOL     OW26017   4.063   4.119   8.319 -0.0858  0.5875 -0.2490
 4795SOL    HW126018   4.121   4.075   8.380 -3.3040 -1.4147  1.3822
 4795SOL    HW226019   3.978   4.132   8.361 -1.5106 -0.0942 -2.9119
 4796SOL     OW26020   0.449   1.927   4.970 -0.1034 -0.7888 -0.0451
 4796SOL    HW126021   0.431   1.881   5.052 -0.1829  0.9652  0.9200
 4796SOL    HW226022   0.379   1.990   4.984  1.7634  1.3931 -0.5273
 4797SOL     OW26023   3.916   0.313   5.722  0.3382  0.1194  0.1570
 4797SOL    HW126024   3.935   0.405   5.706 -3.0435  1.1527  2.2327
 4797SOL    HW226025   3.898   0.275   5.636  0.8476 -0.8296  0.4603
 4798SOL     OW26026   3.015   2.218   6.695 -0.6582  0.6823 -0.1836
 4798SOL    HW126027   3.058   2.159   6.634  1.7105  1.9700  0.2740
 4798SOL    HW226028   3.035   2.174   6.778 -0.2473  1.7232  0.2618
 4799SOL     OW26029   3.144   2.326   7.878  0.0439  0.0088 -0.0154
 4799SOL    HW126030   3.067   2.294   7.925  1.1718 -0.7957  1.3010
 4799SOL    HW226031   3.130   2.420   7.869  2.2445  0.4246  0.8548
 4800SOL     OW26032   3.046   4.315   3.253 -0.3141 -0.2180  0.1509
 4800SOL    HW126033   3.105   4.322   3.327  0.8803 -0.7226 -0.7475
 4800SOL    HW226034   2.968   4.295   3.306 -1.6842  0.8782 -1.4340
 4801SOL     OW26035   0.670   3.756  17.143 -0.0154 -0.2076  0.5148
 4801SOL    HW126036   0.662   3.791  17.054 -0.0488  0.5702  0.8231
 4801SOL    HW226037   0.630   3.820  17.201  1.3811 -1.6866  3.1319
 4802SOL     OW26038   0.036   4.165  16.674 -0.4266 -0.4392  0.2013
 4802SOL    HW126039   0.008   4.091  16.728 -5.2768  0.4994 -0.9906
 4802SOL    HW226040   0.041   4.233  16.741 -0.4366  0.9053 -1.1627
 4803SOL     OW26041   0.380   2.276  10.557  0.5648  0.2877  0.7426
 4803SOL    HW126042   0.440   2.217  10.512 -1.1172 -0.9242  0.0917
 4803SOL    HW226043   0.382   2.348  10.494  0.0699 -0.3992 -0.0636
 4804SOL     OW26044   1.115   2.936   4.546 -0.4483 -0.0533  0.1500
 4804SOL    HW126045   1.094   3.010   4.603 -2.5921  0.0588 -0.7843
 4804SOL    HW226046   1.208   2.930   4.569 -0.6499  0.9289  1.2144
 4805SOL     OW26047   3.444   0.185  13.909  0.0339  0.3336 -0.1189
 4805SOL    HW126048   3.496   0.107  13.924 -1.3136 -0.3676  0.9151
 4805SOL    HW226049   3.360   0.172  13.953  1.9354 -1.8412  2.8542
 4806SOL     OW26050   4.025   0.887  10.111  0.0261  0.1353 -0.5114
 4806SOL    HW126051   4.084   0.859  10.181  0.7095 -0.9042 -1.4895
 4806SOL    HW226052   4.068   0.973  10.108  1.6957 -0.7684 -2.4864
 4807SOL     OW26053   0.022   0.327   3.687  0.0757  0.2578 -0.1006
 4807SOL    HW126054   4.699   0.381   3.738 -1.5764 -1.9931  0.3518
 4807SOL    HW226055   0.048   0.387   3.618  1.2701  1.8400  1.7460
 4808SOL     OW26056   3.985   0.760   2.624 -0.0646  0.1904 -0.0133
 4808SOL    HW126057   3.984   0.665   2.612  0.6954  0.2606 -0.5933
 4808SOL    HW226058   4.074   0.777   2.655 -0.9291  0.9010  2.1259
 4809SOL     OW26059   3.028   3.308   3.495 -0.7320 -0.4865  0.4038
 4809SOL    HW126060   3.056   3.229   3.450  0.6781  0.5570 -0.5558
 4809SOL    HW226061   2.952   3.323   3.438  0.0862  0.2747 -0.4849
 4810SOL     OW26062   4.367   2.150   9.972 -0.0199  0.0563 -0.0770
 4810SOL    HW126063   4.421   2.079  10.007 -1.5835 -0.8371  0.5119
 4810SOL    HW226064   4.289   2.128  10.022 -1.3680 -1.1128 -2.7113
 4811SOL     OW26065   3.000   4.137  13.952 -0.0444  0.1917  0.3537
 4811SOL    HW126066   3.002   4.090  13.868 -0.0511  1.1052 -0.1627
 4811SOL    HW226067   3.069   4.203  13.948 -0.2720  0.5003  1.5141
 4812SOL     OW26068   4.578   1.265   1.381 -0.1709  0.6371 -0.3182
 4812SOL    HW126069   4.610   1.185   1.420 -0.4529 -0.0212 -1.4223
 4812SOL    HW226070   4.649   1.321   1.412  1.1494  0.6250 -3.2774
 4813SOL     OW26071   1.680   0.066   1.949 -0.2819  0.9519 -0.5148
 4813SOL    HW126072   1.763   0.018   1.950 -1.0983 -0.4464  0.1946
 4813SOL    HW226073   1.631   0.024   2.020  0.8152  0.1860 -0.2026
 4814SOL     OW26074   1.457   2.663   9.253 -0.1640 -0.1066 -0.6721
 4814SOL    HW126075   1.378   2.617   9.280  0.4757 -0.8318 -0.0271
 4814SOL    HW226076   1.420   2.732   9.198 -0.5684  0.3977  0.2247
 4815SOL     OW26077   0.986   1.506  13.164  0.2422  0.3265 -0.1047
 4815SOL    HW126078   0.993   1.415  13.135  2.6936 -0.1185  1.9212
 4815SOL    HW226079   1.074   1.539  13.151 -0.1480  1.1721 -0.6087
 4816SOL     OW26080   0.954   2.633   8.343 -0.1690  0.6007 -0.3636
 4816SOL    HW126081   0.910   2.563   8.294 -0.7017  1.0659 -0.5564
 4816SOL    HW226082   0.942   2.709   8.286 -0.9013  0.0101 -0.9936
 4817SOL     OW26083   1.515   0.441   7.894 -0.2290 -0.8710  0.1872
 4817SOL    HW126084   1.535   0.446   7.988  1.5518 -0.4922 -0.2229
 4817SOL    HW226085   1.420   0.450   7.899 -0.3428 -1.8559 -0.2394
 4818SOL     OW26086   1.837   1.073   8.830  0.5490  0.0972 -0.2164
 4818SOL    HW126087   1.836   0.980   8.806  2.9269 -0.1921  0.7590
 4818SOL    HW226088   1.882   1.124   8.763 -0.1374  3.5382  1.9611
 4819SOL     OW26089   0.685   4.733  11.660 -0.1550  0.3552  0.1551
 4819SOL    HW126090   0.613   0.036  11.709 -0.6333 -0.8141  0.4313
 4819SOL    HW226091   0.712   4.653  11.706 -0.7949  0.5035  0.7858
 4820SOL     OW26092   2.024   2.633  10.095  0.6223 -0.7073 -0.0650
 4820SOL    HW126093   1.975   2.573  10.038 -0.4452 -1.1546  1.3361
 4820SOL    HW226094   1.962   2.640  10.167 -0.3089  0.1249 -0.9492
 4821SOL     OW26095   0.192   0.564   4.933  0.2222 -0.6443  0.3233
 4821SOL    HW126096   0.285   0.556   4.913 -0.0331 -1.9075 -0.3657
 4821SOL    HW226097   0.191   0.592   5.024  1.4768  0.0648  0.1245
 4822SOL     OW26098   3.737   4.528  10.484 -0.4052 -0.2716  0.3041
 4822SOL    HW126099   3.694   4.514  10.400  0.2101  0.3625 -0.1116
 4822SOL    HW226100   3.778   4.443  10.501  2.3545  0.8035 -1.1116
 4823SOL     OW26101   4.362   2.292  12.974  0.3249 -0.3845 -0.2406
 4823SOL    HW126102   4.418   2.280  13.051  0.3087  1.4487  0.0508
 4823SOL    HW226103   4.423   2.254  12.910 -0.4137 -0.3551 -0.9630
 4824SOL     OW26104   3.024   2.430   2.183 -0.1447  0.2432 -0.4706
 4824SOL    HW126105   3.019   2.501   2.119  2.7267  1.1226  0.2872
 4824SOL    HW226106   3.058   2.364   2.123  2.7555  3.1239 -2.0242
 4825SOL     OW26107   2.566   1.477  17.247  0.2744  0.6051 -0.0585
 4825SOL    HW126108   2.570   1.388  17.281 -0.7688  0.6709  0.2295
 4825SOL    HW226109   2.592   1.463  17.156  0.1822 -2.5546  0.4278
 4826SOL     OW26110   2.584   3.871   4.140 -0.1496 -0.2240  0.7293
 4826SOL    HW126111   2.526   3.908   4.074 -0.7673 -0.5639  1.0760
 4826SOL    HW226112   2.525   3.818   4.194  0.5838  0.6126  2.3467
 4827SOL     OW26113   1.073   1.694  14.118  0.1716 -0.0741 -0.2658
 4827SOL    HW126114   0.980   1.716  14.117  0.0437 -0.5867  0.7726
 4827SOL    HW226115   1.096   1.738  14.199  0.3760 -1.6339  0.5272
 4828SOL     OW26116   2.585   1.239   9.808 -0.4158  0.4475  0.0595
 4828SOL    HW126117   2.592   1.324   9.764  2.3201  0.4409  0.4541
 4828SOL    HW226118   2.673   1.218   9.840 -0.5242  0.2368  0.2233
 4829SOL     OW26119   2.189   1.530   3.653  0.6134 -0.7745 -0.3272
 4829SOL    HW126120   2.240   1.510   3.732 -1.4249 -0.5277  1.0404
 4829SOL    HW226121   2.222   1.619   3.637  1.8636 -1.2701 -0.4688
 4830SOL     OW26122   0.362   2.895  10.440  0.0665 -0.6905 -0.3520
 4830SOL    HW126123   0.332   2.808  10.414 -2.1680  0.2096 -0.7816
 4830SOL    HW226124   0.321   2.958  10.381  1.3534 -0.3222 -0.8690
 4831SOL     OW26125   1.583   3.879   3.012  0.4500  0.1358  0.2532
 4831SOL    HW126126   1.514   3.889   3.078  0.1211  2.1226 -0.3676
 4831SOL    HW226127   1.572   3.955   2.955 -0.5071 -1.2907 -1.4619
 4832SOL     OW26128   3.365   0.441  12.672  0.3150 -0.1266  0.2002
 4832SOL    HW126129   3.458   0.459  12.662  0.3470 -1.1604 -1.3229
 4832SOL    HW226130   3.366   0.345  12.677 -2.3655 -0.4290 -4.5674
 4833SOL     OW26131   2.320   4.663   0.672  0.2320  0.0043 -0.6367
 4833SOL    HW126132   2.341   4.730   0.607 -0.3711  0.4245 -0.4016
 4833SOL    HW226133   2.247   4.708   0.714 -1.1510 -0.8605 -2.0858
 4834SOL     OW26134   4.506   1.116   5.505 -0.4006 -0.3447  0.5220
 4834SOL    HW126135   4.422   1.077   5.484 -0.1325 -1.1286  0.9076
 4834SOL    HW226136   4.544   1.062   5.575 -2.1800  0.1639  1.8706
 4835SOL     OW26137   4.244   3.535   6.098 -0.4954 -0.3244 -0.0783
 4835SOL    HW126138   4.249   3.584   6.016 -0.5933 -2.2473 -1.2315
 4835SOL    HW226139   4.261   3.445   6.070 -2.6079 -0.5327 -0.6895
 4836SOL     OW26140   0.020   0.631   6.010  0.3269  0.3497 -0.3767
 4836SOL    HW126141   0.115   0.637   5.996  0.5522  0.3744  1.1734
 4836SOL    HW226142   4.725   0.590   5.930 -0.2383 -2.5813  1.3669
 4837SOL     OW26143   3.478   1.074   8.187  0.5980  0.6660 -0.0533
 4837SOL    HW126144   3.550   1.077   8.249  1.3008 -2.7232 -0.6542
 4837SOL    HW226145   3.496   0.996   8.134 -1.5398  0.5431 -0.6263
 4838SOL     OW26146   1.156   1.290  16.210 -0.0471 -0.5346 -0.3705
 4838SOL    HW126147   1.153   1.379  16.175 -1.0833 -0.8852 -1.1692
 4838SOL    HW226148   1.234   1.254  16.169 -1.0605 -1.0626 -1.8347
 4839SOL     OW26149   1.014   4.329  13.806 -0.3745 -0.3105  1.1090
 4839SOL    HW126150   0.944   4.364  13.752  0.6050  0.0472  0.0640
 4839SOL    HW226151   0.969   4.250  13.837 -0.7844 -0.8472 -0.8418
 4840SOL     OW26152   2.395   2.552  13.984  0.7122 -0.7973  0.2016
 4840SOL    HW126153   2.345   2.494  13.927  1.8359 -0.9502 -0.6295
 4840SOL    HW226154   2.473   2.573  13.932  0.1579  1.3353  0.2185
 4841SOL     OW26155   3.385   4.206  14.072 -0.1066 -0.7021 -0.3418
 4841SOL    HW126156   3.302   4.239  14.036  0.7967 -0.0364 -1.8357
 4841SOL    HW226157   3.444   4.231  14.000 -0.6354  1.1159 -0.1461
 4842SOL     OW26158   0.254   2.181   8.344  0.1190  0.3638 -0.4950
 4842SOL    HW126159   0.170   2.170   8.388  0.1937 -2.5495 -1.0765
 4842SOL    HW226160   0.273   2.104   8.290 -1.5734  0.3183 -1.0149
 4843SOL     OW26161   1.146   3.463   7.466 -0.1182  0.5683  0.1618
 4843SOL    HW126162   1.185   3.378   7.487 -0.1192  0.2360 -1.1906
 4843SOL    HW226163   1.053   3.464   7.488 -0.0813  1.1309  0.3057
 4844SOL     OW26164   0.255   3.018   9.401  0.4350  0.0638 -0.0112
 4844SOL    HW126165   0.177   3.043   9.351  0.1415  0.6709  0.7550
 4844SOL    HW226166   0.311   3.004   9.325  1.0408  1.2503  0.2124
 4845SOL     OW26167   2.311   1.687   2.511 -0.2105 -0.0829  0.4784
 4845SOL    HW126168   2.280   1.761   2.459 -1.3722  0.7976  2.4313
 4845SOL    HW226169   2.246   1.686   2.581 -1.5808 -1.0462 -0.8014
 4846SOL     OW26170   2.685   1.077   2.967  0.0966 -0.3386  0.2021
 4846SOL    HW126171   2.675   0.985   2.944  0.2582 -1.0189  2.8929
 4846SOL    HW226172   2.775   1.082   2.998  0.5781 -1.4062 -1.0528
 4847SOL     OW26173   3.098   2.713  12.042 -0.6253  0.6150 -0.1143
 4847SOL    HW126174   3.188   2.707  12.074 -1.0526  1.1989  1.2254
 4847SOL    HW226175   3.115   2.704  11.948 -1.4294 -1.8199 -0.0172
 4848SOL     OW26176   2.840   2.421   3.465  0.0548  0.3585 -0.5874
 4848SOL    HW126177   2.785   2.497   3.484  1.3601  1.0555  0.3681
 4848SOL    HW226178   2.780   2.346   3.473  1.2141 -0.2903  2.2703
 4849SOL     OW26179   1.565   0.462   1.133 -0.3885 -0.2542 -0.0050
 4849SOL    HW126180   1.525   0.535   1.180 -0.9786 -0.4735 -0.1617
 4849SOL    HW226181   1.560   0.487   1.041  0.4853  0.6520  0.2053
 4850SOL     OW26182   2.912   3.692  15.663  0.5753 -0.2348 -0.1072
 4850SOL    HW126183   2.832   3.739  15.640  0.2292 -0.5994  0.3633
 4850SOL    HW226184   2.910   3.705  15.757 -1.2289 -0.5325 -0.1125
 4851SOL     OW26185   3.833   0.889   5.165 -0.3215  0.2122 -0.2570
 4851SOL    HW126186   3.787   0.954   5.113 -1.8024  0.5779  1.5112
 4851SOL    HW226187   3.786   0.903   5.247 -1.7234 -0.3951 -0.9524
 4852SOL     OW26188   4.036   1.170   6.517  0.2906 -0.1440 -0.7214
 4852SOL    HW126189   4.086   1.144   6.594 -3.6759  0.3604  2.0429
 4852SOL    HW226190   4.062   1.262   6.512 -0.8303  0.1757 -0.6062
 4853SOL     OW26191   2.275   4.057   2.960 -0.6762 -0.0808  0.1759
 4853SOL    HW126192   2.274   4.018   3.047  0.8762 -1.9835 -0.6697
 4853SOL    HW226193   2.272   4.152   2.975 -2.6416 -0.0024 -0.6484
 4854SOL     OW26194   3.862   0.253  11.148 -0.0549 -0.3933  0.3119
 4854SOL    HW126195   3.886   0.238  11.239  1.1402 -1.6922 -0.2102
 4854SOL    HW226196   3.792   0.189  11.132  0.7993 -1.0583 -0.7789
 4855SOL     OW26197   4.366   1.457   1.664 -0.0752 -0.3651 -0.2502
 4855SOL    HW126198   4.408   1.373   1.679 -1.5401 -1.2095 -0.8913
 4855SOL    HW226199   4.426   1.528   1.691  1.2766 -1.6584  0.1376
 4856SOL     OW26200   3.080   4.534  14.419  0.2329 -0.0155  0.0724
 4856SOL    HW126201   3.142   4.594  14.460 -0.6529 -0.3889  1.9309
 4856SOL    HW226202   3.050   4.592  14.349 -1.5536  1.1300  1.8087
 4857SOL     OW26203   0.212   0.633  12.696 -0.3707 -0.5332 -0.0724
 4857SOL    HW126204   0.122   0.645  12.665 -0.0755 -1.3215 -1.2509
 4857SOL    HW226205   0.235   0.544  12.669 -1.9718 -1.3783  1.3498
 4858SOL     OW26206   1.358   1.178   1.291 -0.0266  0.5167 -0.1541
 4858SOL    HW126207   1.367   1.232   1.213  0.4827  0.2116 -0.3123
 4858SOL    HW226208   1.434   1.216   1.335 -0.8045  1.3898  0.4254
 4859SOL     OW26209   3.318   4.706  17.614  0.3233 -0.3675 -0.0111
 4859SOL    HW126210   3.269   0.038  17.570  0.3822  1.1138  2.2543
 4859SOL    HW226211   3.345   4.648  17.542  1.4012 -0.6134  0.5818
 4860SOL     OW26212   2.072   3.330  15.205  0.4073 -0.2204  0.1421
 4860SOL    HW126213   1.980   3.348  15.188  0.0558 -1.2023  1.0374
 4860SOL    HW226214   2.110   3.352  15.120  0.6413  0.3665  0.3953
 4861SOL     OW26215   3.057   3.738   2.009 -0.2148 -0.4051  0.0218
 4861SOL    HW126216   2.967   3.729   1.978 -0.8509  0.7312  1.5346
 4861SOL    HW226217   3.042   3.814   2.065 -0.6520 -0.4503 -0.0360
 4862SOL     OW26218   4.619   2.884  12.323  0.4795  0.1142  0.6189
 4862SOL    HW126219   4.683   2.903  12.254  1.7524  1.5683  2.1907
 4862SOL    HW226220   4.653   2.799  12.349 -1.0134 -0.8471 -0.6191
 4863SOL     OW26221   2.146   0.660  10.500 -0.1367  0.0384 -0.0350
 4863SOL    HW126222   2.091   0.732  10.529  0.1141  0.2453 -0.0802
 4863SOL    HW226223   2.226   0.707  10.479 -0.2162 -1.3899 -3.5352
 4864SOL     OW26224   3.747   3.936   3.127 -0.1660  0.0290 -0.3173
 4864SOL    HW126225   3.661   3.898   3.146  0.4952 -1.8191 -1.0696
 4864SOL    HW226226   3.722   4.027   3.146  1.4847  0.4340 -0.1515
 4865SOL     OW26227   0.353   3.693  12.803  0.1034  0.1611 -0.0137
 4865SOL    HW126228   0.414   3.668  12.734 -0.4408  1.1387 -0.8654
 4865SOL    HW226229   0.350   3.786  12.778  1.8330 -0.0096 -0.8244
 4866SOL     OW26230   0.407   2.098   3.482  0.2587  0.6600 -0.6448
 4866SOL    HW126231   0.501   2.078   3.482 -0.1517 -1.3714 -3.0838
 4866SOL    HW226232   0.387   2.015   3.525  0.6562  0.0916 -1.5544
 4867SOL     OW26233   3.269   2.678   0.990 -0.1047 -0.2577 -0.5354
 4867SOL    HW126234   3.295   2.769   0.978 -2.7963  0.6812  0.8328
 4867SOL    HW226235   3.303   2.637   0.911 -0.8044 -1.9336  0.0380
 4868SOL     OW26236   2.875   0.229   1.461  0.1775 -0.0853  0.2462
 4868SOL    HW126237   2.924   0.275   1.529  0.4081 -1.5961  1.1088
 4868SOL    HW226238   2.853   0.292   1.392  1.8718 -0.2733 -0.4746
 4869SOL     OW26239   3.305   1.810   8.711  0.5788  0.0146  0.0551
 4869SOL    HW126240   3.257   1.831   8.792 -1.0046  1.7088 -1.3352
 4869SOL    HW226241   3.249   1.852   8.646 -0.9120 -0.8847  0.7460
 4870SOL     OW26242   0.118   4.515   7.452  0.5524 -0.5089 -0.0860
 4870SOL    HW126243   0.130   4.610   7.453 -2.4429 -0.1350 -0.3207
 4870SOL    HW226244   0.026   4.495   7.437 -0.0511  1.0801  1.5073
 4871SOL     OW26245   0.675   2.300   2.570  0.1682 -0.2467 -0.6043
 4871SOL    HW126246   0.617   2.364   2.612  2.0234 -0.2498  1.9909
 4871SOL    HW226247   0.618   2.223   2.570  0.9586 -0.8442  0.9036
 4872SOL     OW26248   1.422   4.308   0.501 -0.1361 -0.0370  0.2036
 4872SOL    HW126249   1.327   4.303   0.491 -0.3594 -0.2433  2.5660
 4872SOL    HW226250   1.457   4.263   0.424  0.1008  0.6340 -0.0887
 4873SOL     OW26251   2.620   0.714   7.459  0.7669  0.3625  0.7951
 4873SOL    HW126252   2.576   0.665   7.389  0.0116 -0.8372  2.1104
 4873SOL    HW226253   2.705   0.671   7.468  1.0631  0.7511 -0.1843
 4874SOL     OW26254   2.012   0.592   2.594  0.0393  0.0090 -0.2608
 4874SOL    HW126255   2.029   0.686   2.593 -3.2590  0.6158 -0.3173
 4874SOL    HW226256   1.993   0.565   2.505  0.3706 -1.2962  0.0680
 4875SOL     OW26257   2.530   2.812   7.570 -0.0662  0.1364 -0.8285
 4875SOL    HW126258   2.516   2.737   7.512  1.4542  0.4999 -1.6510
 4875SOL    HW226259   2.494   2.882   7.516 -0.2027 -0.6889 -1.8204
 4876SOL     OW26260   2.325   1.358   6.573  0.4984  0.0129 -0.2682
 4876SOL    HW126261   2.373   1.291   6.621 -1.3695 -1.3880 -0.3210
 4876SOL    HW226262   2.275   1.398   6.644  2.4039  0.8339  0.6118
 4877SOL     OW26263   3.657   1.991  11.525  0.1229  0.4313 -0.2687
 4877SOL    HW126264   3.639   1.919  11.585  1.2656  0.0857 -0.3252
 4877SOL    HW226265   3.750   1.969  11.515 -0.1684 -1.5426  1.4259
 4878SOL     OW26266   4.052   0.364  11.912 -0.0599 -0.0619 -0.3393
 4878SOL    HW126267   3.973   0.417  11.909  0.1679  0.3490  1.4013
 4878SOL    HW226268   4.011   0.278  11.920  1.5757 -0.8511 -0.3716
 4879SOL     OW26269   0.026   0.170  15.070 -0.0021 -0.3899  0.1253
 4879SOL    HW126270   0.066   0.252  15.100  1.1078  1.1840 -5.6314
 4879SOL    HW226271   0.100   0.118  15.038  0.4252 -1.4923  2.9252
 4880SOL     OW26272   0.888   4.295   7.808  0.0900  0.2023  0.1972
 4880SOL    HW126273   0.925   4.248   7.733 -2.3557 -2.5203  0.6780
 4880SOL    HW226274   0.939   4.376   7.807 -1.4497  1.1327 -1.0126
 4881SOL     OW26275   0.862   1.540  16.733  0.6783  0.4786 -0.8394
 4881SOL    HW126276   0.859   1.450  16.700 -4.0238 -0.1088  1.2174
 4881SOL    HW226277   0.904   1.589  16.663  0.4608  2.9056  0.7483
 4882SOL     OW26278   0.721   1.304  13.313  0.0875 -0.1002  0.1179
 4882SOL    HW126279   0.777   1.352  13.252 -0.9902  0.3340 -0.5389
 4882SOL    HW226280   0.743   1.212  13.304  1.3259  0.1713  0.3489
 4883SOL     OW26281   1.015   3.377   0.690 -0.2644  0.3368 -0.0392
 4883SOL    HW126282   0.962   3.304   0.721 -1.8612  0.0280 -3.4514
 4883SOL    HW226283   0.949   3.430   0.646 -0.8783  0.9679  1.6524
 4884SOL     OW26284   0.554   0.500   0.184 -0.7958 -0.4298 -0.0340
 4884SOL    HW126285   0.594   0.538   0.262 -1.3908  1.8915 -0.8286
 4884SOL    HW226286   0.622   0.535   0.127 -1.1998  3.3546  1.7782
 4885SOL     OW26287   0.682   0.674   4.621 -0.2920 -0.7341  0.4537
 4885SOL    HW126288   0.587   0.672   4.609 -0.3015 -0.7459  0.5341
 4885SOL    HW226289   0.704   0.767   4.628 -1.9593 -0.6211  3.6313
 4886SOL     OW26290   2.301   1.074   3.416  0.3157 -0.3221 -0.2922
 4886SOL    HW126291   2.365   1.138   3.385  1.7297 -1.4883  0.2626
 4886SOL    HW226292   2.227   1.123   3.380  0.8134 -0.6563 -1.7428
 4887SOL     OW26293   3.629   3.504   3.236  0.3988 -0.4576  0.2868
 4887SOL    HW126294   3.588   3.589   3.218  0.8632 -0.4619 -0.8124
 4887SOL    HW226295   3.708   3.505   3.182  0.7790 -0.4236  0.8416
 4888SOL     OW26296   0.253   1.180   2.004 -0.3365 -0.4648  0.5269
 4888SOL    HW126297   0.249   1.268   1.968 -2.6401 -0.8079 -0.0920
 4888SOL    HW226298   0.339   1.146   1.978 -1.8542 -3.3773 -0.7637
 4889SOL     OW26299   0.814   0.210   8.087  0.4605  0.0967  0.1107
 4889SOL    HW126300   0.747   0.273   8.114 -0.3843  0.0259 -1.8025
 4889SOL    HW226301   0.774   0.138   8.135  2.6911 -2.6174 -2.1253
 4890SOL     OW26302   3.772   2.620   7.908  0.4318  0.2543  0.8205
 4890SOL    HW126303   3.698   2.649   7.961 -1.6175 -0.7523 -1.4733
 4890SOL    HW226304   3.733   2.594   7.824  2.1383  1.3795 -0.3222
 4891SOL     OW26305   4.132   1.345   4.018  0.0996  0.2096  0.3222
 4891SOL    HW126306   4.089   1.399   4.084  0.3919  0.2319  0.4935
 4891SOL    HW226307   4.064   1.355   3.951  1.0193 -0.7184 -0.7611
 4892SOL     OW26308   4.631   2.943   7.654  0.4221  0.4155  0.3168
 4892SOL    HW126309   4.640   2.850   7.675  0.4100  0.1379 -0.8734
 4892SOL    HW226310   4.714   2.987   7.673  1.7598 -1.8791 -0.1978
 4893SOL     OW26311   0.045   1.395   9.345 -0.5906  0.3195  0.0524
 4893SOL    HW126312   0.071   1.478   9.304  1.4803 -0.2079  0.2902
 4893SOL    HW226313   4.691   1.410   9.371 -0.0540 -1.8891  3.1818
 4894SOL     OW26314   1.327   2.985   6.012  0.2140  0.3387 -0.1211
 4894SOL    HW126315   1.286   3.038   5.944  1.3244  0.1042 -0.9597
 4894SOL    HW226316   1.249   2.946   6.052  0.2744 -0.4098 -0.7260
 4895SOL     OW26317   1.665   4.026   5.213  0.0055  0.4277  0.2023
 4895SOL    HW126318   1.584   4.072   5.194 -0.1881 -0.0406 -0.0961
 4895SOL    HW226319   1.712   4.103   5.244  2.2118 -0.8906  0.1113
 4896SOL     OW26320   3.670   1.963   9.521 -0.1657 -0.1153  0.0517
 4896SOL    HW126321   3.585   1.975   9.480 -0.1303  1.8231  0.5209
 4896SOL    HW226322   3.737   2.012   9.473 -1.4516  1.0322 -0.5741
 4897SOL     OW26323   3.414   2.923  15.580  0.4424 -0.1816 -0.2141
 4897SOL    HW126324   3.414   2.894  15.489  0.5831  0.3200 -0.3693
 4897SOL    HW226325   3.470   2.858  15.623 -0.6460 -0.5119  0.7197
 4898SOL     OW26326   4.075   0.896   3.556 -0.2592  0.4772 -0.9617
 4898SOL    HW126327   4.037   0.867   3.473  0.6141 -1.3582 -0.7208
 4898SOL    HW226328   4.131   0.969   3.529  1.2164 -0.5236 -0.5624
 4899SOL     OW26329   1.647   3.542   6.288  0.8592 -0.2215  0.1695
 4899SOL    HW126330   1.729   3.583   6.261  0.4013 -0.6004 -1.7769
 4899SOL    HW226331   1.647   3.546   6.384 -0.7751 -1.0292  0.2027
 4900SOL     OW26332   4.647   3.774  12.804 -0.5386  0.0503  0.2332
 4900SOL    HW126333   4.619   3.836  12.871 -0.7780  1.8491 -1.5184
 4900SOL    HW226334   4.718   3.739  12.858  0.6989  0.1618 -1.3168
 4901SOL     OW26335   2.718   3.944   6.373  0.5890 -0.2063  0.1042
 4901SOL    HW126336   2.636   3.988   6.398 -0.4667 -2.2191  0.1638
 4901SOL    HW226337   2.774   4.014   6.406 -0.4659  0.3822  0.6468
 4902SOL     OW26338   2.417   3.364   2.409  0.0846 -0.4052 -0.3313
 4902SOL    HW126339   2.402   3.440   2.464  0.2265 -0.5925 -0.0327
 4902SOL    HW226340   2.459   3.296   2.463  1.7428  1.9350  1.3263
 4903SOL     OW26341   1.138   1.079   7.487 -0.5329 -0.5994 -0.5839
 4903SOL    HW126342   1.072   1.031   7.438 -0.1793  0.8285 -2.4703
 4903SOL    HW226343   1.215   1.022   7.492 -0.4245 -0.4115 -0.0626
 4904SOL     OW26344   3.592   3.300   4.390  0.1801 -0.6587 -0.3632
 4904SOL    HW126345   3.542   3.244   4.450 -1.1670 -0.9458 -1.7659
 4904SOL    HW226346   3.682   3.268   4.400  0.1881 -0.5607 -0.1243
 4905SOL     OW26347   4.040   3.368   4.048 -0.2286  0.4846  0.3512
 4905SOL    HW126348   4.006   3.306   3.983 -1.9366  1.4826  0.3044
 4905SOL    HW226349   3.992   3.340   4.126  1.7658 -0.5655  1.2039
 4906SOL     OW26350   2.225   3.136   1.815 -0.4199  0.9813  0.4477
 4906SOL    HW126351   2.132   3.118   1.810 -0.1059 -0.3916 -0.2474
 4906SOL    HW226352   2.251   3.094   1.898 -0.9680 -1.5039 -0.6472
 4907SOL     OW26353   1.545   3.800   3.455 -0.0055  0.2851  0.1430
 4907SOL    HW126354   1.493   3.794   3.374  2.3241  0.0430 -1.3470
 4907SOL    HW226355   1.612   3.866   3.434 -0.5457  0.7849 -0.0299
 4908SOL     OW26356   1.603   3.439   1.599  0.5641  0.0678  0.1506
 4908SOL    HW126357   1.673   3.444   1.663  0.2908 -1.0786  0.5461
 4908SOL    HW226358   1.532   3.476   1.652 -0.0801 -0.1743 -0.5279
 4909SOL     OW26359   1.400   1.607  10.558 -0.1375  0.4696  0.5698
 4909SOL    HW126360   1.487   1.601  10.597  0.6124  0.2302 -1.1546
 4909SOL    HW226361   1.362   1.524  10.586  2.1771 -0.7613  0.0447
 4910SOL     OW26362   1.830   4.572   4.864 -0.5676 -0.2271 -0.5831
 4910SOL    HW126363   1.914   4.533   4.889  0.5055  0.5448 -3.0030
 4910SOL    HW226364   1.842   4.667   4.868  1.3289 -0.5857  2.2500
 4911SOL     OW26365   2.827   0.262  17.310  0.2830  0.0418  0.7826
 4911SOL    HW126366   2.829   0.340  17.255 -1.3873  0.0742  0.7636
 4911SOL    HW226367   2.816   0.190  17.249 -1.8361  0.3111  0.8245
 4912SOL     OW26368   3.995   2.836   4.143  0.8537  0.0650  0.3455
 4912SOL    HW126369   4.071   2.890   4.166  0.9646 -0.5185  1.3548
 4912SOL    HW226370   4.010   2.774   4.215  1.2358 -0.1669  0.0639
 4913SOL     OW26371   2.146   1.540  11.629 -0.5581 -0.3425 -0.0389
 4913SOL    HW126372   2.079   1.589  11.582  0.4901  2.0531  0.9178
 4913SOL    HW226373   2.098   1.458  11.642  0.3548 -0.4484  2.8596
 4914SOL     OW26374   1.219   1.526  17.217 -0.0454 -0.7742 -0.3611
 4914SOL    HW126375   1.174   1.563  17.141  0.4816  0.0972 -0.2504
 4914SOL    HW226376   1.303   1.493  17.184 -0.4725  0.5568 -2.8327
 4915SOL     OW26377   0.439   4.536   9.151 -0.5493  0.3192  0.0326
 4915SOL    HW126378   0.379   4.524   9.224 -0.0774  1.0493  0.5390
 4915SOL    HW226379   0.495   4.599   9.196  0.0450 -1.4150  1.7126
 4916SOL     OW26380   2.822   2.221   2.724  0.1836  0.0582  0.6815
 4916SOL    HW126381   2.736   2.212   2.765 -1.2165  2.7566 -1.6152
 4916SOL    HW226382   2.795   2.220   2.632  1.8538 -0.3439  0.1905
 4917SOL     OW26383   3.948   3.584   7.750 -0.6072  0.2690 -0.1585
 4917SOL    HW126384   3.960   3.513   7.813 -0.9444  0.8126  0.5233
 4917SOL    HW226385   3.854   3.597   7.763 -0.3645 -0.7482  2.4526
 4918SOL     OW26386   0.691   4.681   7.872  0.0266 -0.2746  0.0658
 4918SOL    HW126387   0.747   4.606   7.852  0.6512 -0.0145  0.8810
 4918SOL    HW226388   0.704   4.726   7.788  1.9211 -0.8424  0.0739
 4919SOL     OW26389   2.309   2.295  15.019  0.3427 -0.6076  0.3259
 4919SOL    HW126390   2.343   2.310  15.107  2.1775  0.2102 -0.5260
 4919SOL    HW226391   2.261   2.376  14.999  2.1867  0.4153  0.0595
 4920SOL     OW26392   2.260   0.075  13.247 -0.1128  0.0354  0.3216
 4920SOL    HW126393   2.219   4.728  13.266  0.6575 -0.2446  0.7156
 4920SOL    HW226394   2.332   0.043  13.193  0.3869  0.3833  0.7900
 4921SOL     OW26395   1.299   1.700   1.029 -0.0294 -0.3965 -1.2093
 4921SOL    HW126396   1.349   1.771   0.990  1.0450  0.2530  1.4448
 4921SOL    HW226397   1.263   1.645   0.958 -0.2535 -0.9033 -0.7063
 4922SOL     OW26398   2.728   0.006   6.835  0.3639 -0.5367  0.3640
 4922SOL    HW126399   2.762   4.732   6.746 -0.7062  0.7111 -0.2077
 4922SOL    HW226400   2.640   4.710   6.820 -0.5919  0.4069  3.9899
 4923SOL     OW26401   1.478   0.651   2.924 -0.1014  0.4389  0.2624
 4923SOL    HW126402   1.497   0.592   2.851  0.9081  2.5966 -1.2214
 4923SOL    HW226403   1.528   0.596   2.985  1.1159  1.5495  0.2654
 4924SOL     OW26404   3.867   1.650  13.265  0.5517  0.0161  0.1687
 4924SOL    HW126405   3.958   1.656  13.237  0.3746  0.0999 -0.3766
 4924SOL    HW226406   3.826   1.705  13.199  0.7701 -0.7786 -0.6242
 4925SOL     OW26407   3.608   3.599   5.989  0.7449 -0.4898  0.7794
 4925SOL    HW126408   3.601   3.510   5.956 -0.7968  0.1854 -0.7016
 4925SOL    HW226409   3.683   3.604   6.048  0.8679 -0.5112  0.6246
 4926SOL     OW26410   4.585   4.219   0.967  0.5300 -0.1852 -0.4335
 4926SOL    HW126411   4.560   4.146   0.910  0.0929  0.8562 -1.5598
 4926SOL    HW226412   4.619   4.282   0.904  0.5108 -2.6614 -2.9373
 4927SOL     OW26413   3.653   1.166   2.435  0.3199 -0.2145  0.2039
 4927SOL    HW126414   3.651   1.254   2.399 -0.7666  0.7071  2.4940
 4927SOL    HW226415   3.697   1.174   2.520  0.1499  1.6550  0.1186
 4928SOL     OW26416   1.109   1.242   9.431  0.2228  0.2960  0.5186
 4928SOL    HW126417   1.191   1.225   9.385 -0.5315 -0.7087 -0.4668
 4928SOL    HW226418   1.042   1.244   9.362 -0.8274 -2.8623  1.4649
 4929SOL     OW26419   2.397   1.793  14.259  0.0079  0.4403 -0.1175
 4929SOL    HW126420   2.307   1.796  14.227 -0.1969  0.5421  0.4636
 4929SOL    HW226421   2.454   1.802  14.182 -0.0257 -1.1800 -0.3212
 4930SOL     OW26422   1.387   2.319   9.651  0.2322 -0.1281  0.8728
 4930SOL    HW126423   1.312   2.284   9.603  0.1764  0.7773  0.3034
 4930SOL    HW226424   1.358   2.408   9.669 -0.5616 -0.1696 -0.1908
 4931SOL     OW26425   2.883   4.595   5.985 -0.1116  0.3906 -0.1845
 4931SOL    HW126426   2.900   4.501   5.991  0.1042  0.4044 -0.5940
 4931SOL    HW226427   2.808   4.611   6.043  1.4887 -0.0906  2.0202
 4932SOL     OW26428   3.195   4.149   0.283 -0.3842  0.1768 -0.4604
 4932SOL    HW126429   3.134   4.188   0.347  2.8124  0.1925  2.5619
 4932SOL    HW226430   3.141   4.150   0.204 -1.5257  0.7714  0.3251
 4933SOL     OW26431   2.821   3.957   3.630 -0.6188 -0.6087 -0.8626
 4933SOL    HW126432   2.897   3.921   3.585 -1.6849 -3.5788 -0.2243
 4933SOL    HW226433   2.858   4.041   3.660 -1.1584 -0.1602 -1.4681
 4934SOL     OW26434   0.984   2.984   4.886 -0.0426 -0.5864  0.0437
 4934SOL    HW126435   1.001   3.046   4.816  1.0793 -0.5764  0.3191
 4934SOL    HW226436   0.912   2.929   4.857 -1.1489 -0.1045  1.8722
 4935SOL     OW26437   4.453   3.184   3.500 -0.4400 -0.4642  0.2940
 4935SOL    HW126438   4.374   3.136   3.525 -0.2626 -1.0531 -0.3099
 4935SOL    HW226439   4.402   3.263   3.521 -0.2970 -0.4106  0.4409
 4936SOL     OW26440   2.771   4.306  11.261  0.7591 -0.7323 -0.1057
 4936SOL    HW126441   2.708   4.315  11.189  0.1964 -2.9687  0.1057
 4936SOL    HW226442   2.837   4.373  11.244  2.0476 -1.9543 -0.0218
 4937SOL     OW26443   1.654   1.964   4.238 -0.6969  0.6380 -0.0471
 4937SOL    HW126444   1.619   1.957   4.150  0.1460 -1.5992 -0.2222
 4937SOL    HW226445   1.677   1.871   4.244  0.4517  0.9315  0.1148
 4938SOL     OW26446   0.021   4.128   8.156  0.2277  0.7641 -0.0108
 4938SOL    HW126447   0.026   4.139   8.251  0.4623  0.9862 -0.0505
 4938SOL    HW226448   0.073   4.193   8.110  0.6737  1.7662  1.9161
 4939SOL     OW26449   4.431   0.030   2.917  0.4069  0.4834 -0.2765
 4939SOL    HW126450   4.503   0.048   2.976  1.7992  1.2435 -2.2083
 4939SOL    HW226451   4.360   0.057   2.975  0.6560  1.0033 -0.2201
 4940SOL     OW26452   3.822   1.804   0.496  0.4993 -0.2541  0.0459
 4940SOL    HW126453   3.907   1.764   0.476 -1.2247 -2.4967 -2.7491
 4940SOL    HW226454   3.788   1.834   0.412 -3.0248 -1.0864  1.1806
 4941SOL     OW26455   2.919   0.443   6.710  0.1763  0.4506 -0.1718
 4941SOL    HW126456   2.854   0.417   6.775  0.9575  1.2800  0.9341
 4941SOL    HW226457   2.939   0.531   6.742  2.7156  0.3261 -1.3915
 4942SOL     OW26458   1.965   0.691   6.960  0.4914  0.2794 -0.3385
 4942SOL    HW126459   1.920   0.736   6.888  0.3811  1.8911  0.7269
 4942SOL    HW226460   1.904   0.625   6.992 -0.5945  0.7563 -1.4117
 4943SOL     OW26461   3.147   4.357  13.969 -0.0998 -0.0325  0.3671
 4943SOL    HW126462   3.163   4.447  13.941  1.9259 -0.6188 -0.3973
 4943SOL    HW226463   3.112   4.373  14.057  1.0866  1.5106  0.5651
 4944SOL     OW26464   0.369   4.452   0.686 -0.0567  0.3633  0.6678
 4944SOL    HW126465   0.394   4.359   0.692 -0.9232  0.0658 -0.6219
 4944SOL    HW226466   0.329   4.465   0.772 -0.3223  0.7254  0.4898
 4945SOL     OW26467   1.578   3.676   4.184  0.1299  0.0563  0.0077
 4945SOL    HW126468   1.494   3.672   4.138 -0.1295  1.0670  0.3976
 4945SOL    HW226469   1.609   3.758   4.146  0.3507  0.0509  0.1814
 4946SOL     OW26470   2.774   1.541   7.745  0.6177 -0.7375  0.0701
 4946SOL    HW126471   2.862   1.545   7.782  0.5277 -1.9472  0.4146
 4946SOL    HW226472   2.785   1.472   7.679  0.3786  0.9164 -1.6803
 4947SOL     OW26473   1.914   0.112   4.829 -0.6913 -0.4249 -0.3797
 4947SOL    HW126474   1.977   0.108   4.901 -1.6113 -0.2005  0.4433
 4947SOL    HW226475   1.863   0.186   4.861  1.0958  0.6759 -0.0932
 4948SOL     OW26476   0.434   4.058  16.643  0.5317  0.4816 -0.7334
 4948SOL    HW126477   0.462   3.982  16.592 -0.1507 -0.4313  0.2255
 4948SOL    HW226478   0.425   4.017  16.730 -3.1267  1.3285 -0.6880
 4949SOL     OW26479   4.674   4.478  17.584 -0.6614 -0.3768  0.2852
 4949SOL    HW126480   4.675   4.574  17.590 -0.2298 -0.2598 -1.5732
 4949SOL    HW226481   4.698   4.460  17.675 -0.7361  1.2927  0.6311
 4950SOL     OW26482   2.349   4.328   9.229  0.3719 -0.4282  0.2998
 4950SOL    HW126483   2.400   4.276   9.167  0.0508  0.7904 -0.9938
 4950SOL    HW226484   2.260   4.295   9.216 -0.3169  1.2195  0.8076
 4951SOL     OW26485   0.743   2.712   2.845 -0.1117 -0.3334  0.4639
 4951SOL    HW126486   0.810   2.715   2.777 -0.8597 -0.6412 -0.2868
 4951SOL    HW226487   0.662   2.728   2.796 -0.6878 -0.8919  1.2268
 4952SOL     OW26488   4.497   1.452  12.469 -0.3389 -0.6648 -0.0014
 4952SOL    HW126489   4.525   1.478  12.557  3.6285  0.2329 -1.5237
 4952SOL    HW226490   4.428   1.387  12.481 -0.5161 -0.4984 -0.1141
 4953SOL     OW26491   0.093   1.977   4.218  0.1369  0.1044  0.4009
 4953SOL    HW126492   0.045   1.920   4.158 -2.4947  0.9564  1.6704
 4953SOL    HW226493   0.069   1.932   4.299 -0.1141 -0.6061 -0.0705
 4954SOL     OW26494   2.003   3.367   8.367  0.0938 -0.2534 -0.4296
 4954SOL    HW126495   2.050   3.355   8.449  1.6421  2.6666 -0.8597
 4954SOL    HW226496   1.931   3.304   8.372  0.2858 -0.4369 -0.0112
 4955SOL     OW26497   1.291   2.870  12.304  0.4002 -0.7674  0.3069
 4955SOL    HW126498   1.358   2.868  12.373  0.0855 -0.1455  0.6316
 4955SOL    HW226499   1.247   2.785  12.315 -0.4787 -0.4525 -0.8478
 4956SOL     OW26500   0.496   4.224   2.638 -0.4849 -0.4388 -0.2273
 4956SOL    HW126501   0.423   4.275   2.603  0.3869  2.3341  2.1007
 4956SOL    HW226502   0.459   4.169   2.707  1.1992 -2.5357 -0.9895
 4957SOL     OW26503   3.093   2.320  12.049 -0.0943 -0.6534  0.3122
 4957SOL    HW126504   3.084   2.407  12.011 -1.3007 -0.8540  0.1516
 4957SOL    HW226505   3.153   2.280  11.985  0.9546  3.3172 -1.1817
 4958SOL     OW26506   2.380   2.361   6.447  0.1904 -0.8116  0.6360
 4958SOL    HW126507   2.347   2.271   6.438 -0.3299 -0.7322  1.6968
 4958SOL    HW226508   2.374   2.401   6.361  0.3424  1.0489  1.5031
 4959SOL     OW26509   0.770   0.047   1.201  0.3994 -0.7636  0.9029
 4959SOL    HW126510   0.821   0.038   1.281  0.8482 -0.2418  0.6811
 4959SOL    HW226511   0.828   0.085   1.134 -1.6452  0.0573 -0.3954
 4960SOL     OW26512   3.197   0.178  13.288  0.4917 -0.5534 -0.2052
 4960SOL    HW126513   3.116   0.182  13.237 -0.2965 -3.2425  0.8193
 4960SOL    HW226514   3.233   0.089  13.284  0.5259 -0.5064 -0.9341
 4961SOL     OW26515   0.910   2.981   6.359 -0.1677  0.7061  0.2323
 4961SOL    HW126516   0.877   3.066   6.331  0.1906  1.1194  1.0476
 4961SOL    HW226517   0.958   2.965   6.278 -0.2869  1.2677  0.0477
 4962SOL     OW26518   3.005   4.456  11.221  0.8236  0.3916 -0.2057
 4962SOL    HW126519   3.030   4.479  11.131  0.2737 -1.2187 -0.7661
 4962SOL    HW226520   3.020   4.362  11.216 -0.7423  0.0902  0.8499
 4963SOL     OW26521   3.213   3.034  10.517  0.5090 -0.1991  0.3422
 4963SOL    HW126522   3.241   3.125  10.503  0.3521  0.0331  1.5789
 4963SOL    HW226523   3.216   3.044  10.612 -0.3893  0.8124  0.2713
 4964SOL     OW26524   1.552   0.812   8.633 -0.0864 -0.7419  0.0462
 4964SOL    HW126525   1.511   0.799   8.548  1.3560 -1.0445 -0.6007
 4964SOL    HW226526   1.474   0.801   8.688 -0.5854 -1.7283 -0.8642
 4965SOL     OW26527   2.382   4.192  11.448 -0.3992  0.7011 -0.7841
 4965SOL    HW126528   2.320   4.239  11.393  0.9143  3.0759 -0.2394
 4965SOL    HW226529   2.333   4.120  11.487  4.7303 -0.6572  3.1344
 4966SOL     OW26530   4.409   4.673   2.651  0.1140  0.8711 -0.0117
 4966SOL    HW126531   4.341   4.626   2.700 -1.1223  0.0086 -2.5112
 4966SOL    HW226532   4.459   4.704   2.726  0.1799  2.4055 -0.6873
 4967SOL     OW26533   4.194   3.130   1.839 -0.1287 -0.0175 -0.0712
 4967SOL    HW126534   4.238   3.143   1.755  0.6894  0.3886  0.4132
 4967SOL    HW226535   4.233   3.208   1.878  0.1507  0.5149 -1.4296
 4968SOL     OW26536   2.022   2.865   1.954  0.1262  0.7429  0.2178
 4968SOL    HW126537   1.971   2.926   2.007  2.3204  1.7936  1.1281
 4968SOL    HW226538   2.097   2.858   2.012  0.7501 -0.5985 -0.7423
 4969SOL     OW26539   3.427   1.849   5.214  0.4709  0.2265 -0.0660
 4969SOL    HW126540   3.396   1.868   5.303  0.4760  2.5052 -0.5501
 4969SOL    HW226541   3.377   1.915   5.167 -1.0281 -0.1627  0.9754
 4970SOL     OW26542   1.708   1.839   2.404  0.0980 -0.3620  0.1928
 4970SOL    HW126543   1.755   1.794   2.333 -2.5887  0.9783 -2.3939
 4970SOL    HW226544   1.667   1.760   2.440 -2.9579  0.4603 -1.5243
 4971SOL     OW26545   1.075   3.341  15.936  0.0929 -0.1113 -0.0812
 4971SOL    HW126546   1.042   3.348  15.847  1.2884  0.9421 -0.4428
 4971SOL    HW226547   1.095   3.431  15.959 -1.1442 -0.5145  2.5653
 4972SOL     OW26548   2.695   0.009   5.683 -0.2300  0.2893 -0.0491
 4972SOL    HW126549   2.680   0.097   5.650  1.4171 -0.3601 -2.5595
 4972SOL    HW226550   2.631   4.688   5.641 -3.0658  1.0308  3.2440
 4973SOL     OW26551   4.376   3.103   7.263 -1.0130  0.5262 -0.0926
 4973SOL    HW126552   4.414   3.017   7.281 -0.4829  0.6812 -0.4744
 4973SOL    HW226553   4.457   3.154   7.265 -1.3584  1.0911 -0.3458
 4974SOL     OW26554   2.071   3.785   2.237 -0.3178 -0.4905 -0.8493
 4974SOL    HW126555   1.984   3.772   2.199 -1.4445  0.4056  1.4634
 4974SOL    HW226556   2.106   3.701   2.207  2.8478 -0.0230  1.6106
 4975SOL     OW26557   2.033   1.009   4.973 -1.1149 -0.3538 -0.9192
 4975SOL    HW126558   1.975   0.936   4.951  1.3997 -1.5388 -3.6150
 4975SOL    HW226559   2.026   1.056   4.890  0.4099 -0.7011 -1.2497
 4976SOL     OW26560   4.145   2.900   7.906  0.7557  0.1036 -0.1188
 4976SOL    HW126561   4.103   2.974   7.950 -1.0617 -0.6171 -0.6104
 4976SOL    HW226562   4.192   2.949   7.839 -1.6978  2.1170 -0.3970
 4977SOL     OW26563   1.305   2.581   5.075  0.3069 -0.1509  0.1731
 4977SOL    HW126564   1.238   2.597   5.009 -1.0134 -1.5946  1.1413
 4977SOL    HW226565   1.281   2.491   5.098  1.1726 -0.4069  0.0748
 4978SOL     OW26566   4.586   1.840  10.978 -0.4516 -0.3618  0.0498
 4978SOL    HW126567   4.498   1.803  10.968 -0.0188 -0.9855 -1.4659
 4978SOL    HW226568   4.561   1.926  11.010  1.1878 -0.5225  1.7168
 4979SOL     OW26569   4.570   1.832   2.439 -0.7285 -0.3338 -0.2863
 4979SOL    HW126570   4.571   1.783   2.521 -2.2040 -1.2750 -0.8405
 4979SOL    HW226571   4.570   1.924   2.468 -2.5856 -0.2826 -0.4548
 4980SOL     OW26572   2.929   4.508   7.248  0.1974 -0.2350  0.0969
 4980SOL    HW126573   2.942   4.573   7.179 -2.8604 -0.7379 -0.9562
 4980SOL    HW226574   2.995   4.445   7.219 -0.0635 -0.1109 -0.7628
 4981SOL     OW26575   3.131   2.337   1.728 -0.3124  0.5223 -0.1285
 4981SOL    HW126576   3.052   2.286   1.711 -2.2958  2.0196  4.6175
 4981SOL    HW226577   3.122   2.399   1.656  1.5076  2.2962  1.1666
 4982SOL     OW26578   4.206   2.833   9.144  0.3608  0.1916  0.3538
 4982SOL    HW126579   4.290   2.875   9.161  0.4651  0.5502 -1.0236
 4982SOL    HW226580   4.235   2.765   9.084  0.1172 -0.4193  0.9307
 4983SOL     OW26581   1.779   0.636   4.145 -0.0419 -0.2188 -0.5751
 4983SOL    HW126582   1.813   0.693   4.077 -0.3798 -0.0477 -0.6031
 4983SOL    HW226583   1.687   0.618   4.127 -0.1279  1.9137 -2.2955
 4984SOL     OW26584   3.235   3.443  15.567  0.3210 -0.4977 -0.6738
 4984SOL    HW126585   3.268   3.354  15.575  0.7674 -0.1582  1.3857
 4984SOL    HW226586   3.174   3.430  15.494  1.5848  0.6684 -1.9316
 4985SOL     OW26587   2.744   1.154  13.478 -0.4494 -0.2599 -0.3710
 4985SOL    HW126588   2.752   1.240  13.520  0.0818 -0.4442 -0.1004
 4985SOL    HW226589   2.832   1.119  13.467  0.2333  1.0910  0.9334
 4986SOL     OW26590   4.010   2.671   7.752 -0.0069 -0.0356  0.1323
 4986SOL    HW126591   3.928   2.682   7.801  0.9561 -0.4517  1.8644
 4986SOL    HW226592   4.076   2.716   7.805 -1.2936  0.6607  1.1349
 4987SOL     OW26593   0.907   4.586   9.268 -0.7210 -0.1156  0.0711
 4987SOL    HW126594   0.852   4.536   9.207  0.0435  1.9193 -2.2585
 4987SOL    HW226595   0.914   4.668   9.220 -1.0889 -0.4870 -0.6177
 4988SOL     OW26596   0.212   0.112   4.017  0.0612  0.5635  0.3236
 4988SOL    HW126597   0.186   0.192   4.061  1.0286  0.8037  0.4594
 4988SOL    HW226598   0.214   0.044   4.084 -0.6912 -1.1935 -1.4218
 4989SOL     OW26599   0.672   0.719   3.850 -0.9993 -0.1407 -0.8009
 4989SOL    HW126600   0.754   0.672   3.863  0.1776  1.6519 -1.7133
 4989SOL    HW226601   0.650   0.751   3.937  0.8502  1.1447 -0.8019
 4990SOL     OW26602   1.774   1.126   6.515  0.0670  0.1525  0.2971
 4990SOL    HW126603   1.719   1.073   6.458 -1.4464 -0.9279  2.7883
 4990SOL    HW226604   1.728   1.209   6.515  3.6079  2.0983  0.7579
 4991SOL     OW26605   3.126   2.194   2.318  0.6672  0.3585 -0.1026
 4991SOL    HW126606   3.213   2.180   2.282  0.3901  0.4790 -0.8061
 4991SOL    HW226607   3.099   2.281   2.290  0.6113  0.8351  1.4304
 4992SOL     OW26608   4.404   2.226  16.824 -0.1651  1.1681 -0.1109
 4992SOL    HW126609   4.315   2.202  16.848 -0.0403  0.7611 -0.0554
 4992SOL    HW226610   4.390   2.229  16.730 -0.4699  1.0590 -0.0694
 4993SOL     OW26611   1.778   4.419  12.975  0.4210  0.4292 -0.7914
 4993SOL    HW126612   1.701   4.391  12.927  0.3417 -1.3463  0.3527
 4993SOL    HW226613   1.759   4.513  12.976 -4.1964 -0.4880 -3.2718
 4994SOL     OW26614   0.011   1.650   7.428 -0.0483 -0.1436 -0.6160
 4994SOL    HW126615   4.709   1.586   7.368 -1.1469 -0.4985  0.4760
 4994SOL    HW226616   4.678   1.688   7.480  0.0460 -1.4358  0.4623
 4995SOL     OW26617   1.371   4.591  14.159  0.7279 -0.1473 -0.8915
 4995SOL    HW126618   1.355   4.654  14.230 -0.9148  1.0047 -2.3048
 4995SOL    HW226619   1.399   4.652  14.091  0.7218  1.8880  0.9023
 4996SOL     OW26620   1.090   2.403  12.326 -0.2663  0.3054  0.2236
 4996SOL    HW126621   1.151   2.477  12.323  2.1847 -1.6838  1.2632
 4996SOL    HW226622   1.097   2.353  12.245  1.4269  0.6594  0.1447
 4997SOL     OW26623   4.448   0.913   3.713  0.0493  0.0675 -0.4158
 4997SOL    HW126624   4.410   0.904   3.626  0.4509 -1.1913 -0.4579
 4997SOL    HW226625   4.467   1.006   3.704 -0.5954  0.4620  2.1304
 4998SOL     OW26626   4.202   4.023  12.045 -0.2578 -0.0590 -0.5361
 4998SOL    HW126627   4.192   4.009  12.140 -0.1202  0.6010 -0.4233
 4998SOL    HW226628   4.263   3.951  12.029 -1.5929 -1.2559 -0.2610
 4999SOL     OW26629   0.721   1.816  16.817 -0.3095 -0.5235  0.2122
 4999SOL    HW126630   0.805   1.788  16.782 -0.5631 -3.8285  2.2823
 4999SOL    HW226631   0.726   1.772  16.901 -0.9095  0.9215  1.0096
 5000SOL     OW26632   1.086   2.067   2.571 -0.3333 -0.0461  0.1148
 5000SOL    HW126633   1.152   2.020   2.521 -0.2594  0.1801  0.0011
 5000SOL    HW226634   1.031   2.107   2.503  0.0923 -1.4399 -1.0463
 5001SOL     OW26635   1.422   3.605   0.930 -0.7788 -0.0089 -0.1709
 5001SOL    HW126636   1.432   3.628   1.022  1.1749 -2.2042  0.1635
 5001SOL    HW226637   1.329   3.619   0.910 -0.8798  0.5420  0.7020
 5002SOL     OW26638   4.183   4.654   5.335  0.8911  0.3496 -0.3587
 5002SOL    HW126639   4.222   4.584   5.389  0.3175 -0.8137 -1.4490
 5002SOL    HW226640   4.259   4.707   5.311  1.7779 -0.7151  0.0615
 5003SOL     OW26641   4.224   3.810  12.711 -0.1959 -0.0375  0.4646
 5003SOL    HW126642   4.229   3.825  12.805  1.9869  1.1491  0.1691
 5003SOL    HW226643   4.304   3.757  12.703 -1.2917 -1.5992 -0.1461
 5004SOL     OW26644   1.325   1.866   7.841 -0.2759  0.4513  0.0847
 5004SOL    HW126645   1.258   1.928   7.869 -1.3127 -0.0072 -1.4319
 5004SOL    HW226646   1.411   1.905   7.857  0.5226 -1.7366  1.2304
 5005SOL     OW26647   2.414   1.514   0.586 -0.2560  0.3654  0.5485
 5005SOL    HW126648   2.444   1.539   0.498  0.6809  0.3530  0.8593
 5005SOL    HW226649   2.382   1.599   0.616  0.3920 -0.2097  2.8331
 5006SOL     OW26650   4.089   2.484   4.285  0.0660  0.2045 -0.2025
 5006SOL    HW126651   4.150   2.524   4.223 -0.1650  1.0955  0.1534
 5006SOL    HW226652   4.058   2.556   4.340  1.4312  0.8838 -0.3321
 5007SOL     OW26653   3.656   3.613  11.188 -0.1394  0.4797 -0.1940
 5007SOL    HW126654   3.667   3.664  11.268 -1.2988  1.1545 -0.4603
 5007SOL    HW226655   3.749   3.611  11.166  0.0343 -2.4050  0.7124
 5008SOL     OW26656   1.280   3.078   0.467  0.2652  0.5772  0.4264
 5008SOL    HW126657   1.274   3.171   0.489  2.8536  1.1291 -1.1653
 5008SOL    HW226658   1.286   3.050   0.559  2.8300  2.3679  0.8113
 5009SOL     OW26659   1.735   1.246   2.477  0.2670  0.1010  0.1498
 5009SOL    HW126660   1.797   1.177   2.502 -0.4478 -0.1962  1.0865
 5009SOL    HW226661   1.653   1.200   2.493  0.0540  1.5887  3.3429
 5010SOL     OW26662   0.808   1.055   4.379 -0.1576  0.6041 -0.2926
 5010SOL    HW126663   0.746   0.984   4.397 -0.2354  1.0147  1.0507
 5010SOL    HW226664   0.774   1.136   4.418 -0.1498  0.2413  0.4690
 5011SOL     OW26665   3.031   4.583  16.301 -0.8447  0.2049 -0.3211
 5011SOL    HW126666   2.975   4.660  16.290  0.8963  1.7225  1.6552
 5011SOL    HW226667   3.109   4.623  16.337 -2.0812  0.1524  2.3979
 5012SOL     OW26668   4.550   2.305   3.190 -0.8008 -0.2697  0.4944
 5012SOL    HW126669   4.508   2.243   3.130 -2.2917  1.4614 -0.2747
 5012SOL    HW226670   4.474   2.360   3.211 -1.5072 -1.0424 -0.0307
 5013SOL     OW26671   3.486   1.567  17.470 -0.1469 -0.1808  0.6790
 5013SOL    HW126672   3.476   1.659  17.496  1.0136  0.0915  0.1990
 5013SOL    HW226673   3.573   1.539  17.500 -0.1567 -0.8334  0.0963
 5014SOL     OW26674   1.243   3.325   5.065  0.0600  0.0814 -0.1533
 5014SOL    HW126675   1.321   3.279   5.034 -0.2390 -0.8963  0.5342
 5014SOL    HW226676   1.226   3.280   5.148  0.7408 -0.7569 -0.4692
 5015SOL     OW26677   1.754   2.685   5.823  0.1695  0.0545  0.1995
 5015SOL    HW126678   1.784   2.736   5.898  0.2649 -0.4206  0.4798
 5015SOL    HW226679   1.703   2.743   5.766 -2.3306 -2.2707  0.0369
 5016SOL     OW26680   2.215   1.311   9.667  0.3498  0.3168  0.3484
 5016SOL    HW126681   2.299   1.355   9.675  0.2793  0.6228 -0.5311
 5016SOL    HW226682   2.233   1.218   9.653 -1.8059  0.0047 -0.3856
 5017SOL     OW26683   1.660   0.724   8.267 -0.0288 -0.0149  0.0249
 5017SOL    HW126684   1.711   0.803   8.286  1.3553 -0.8173 -0.4015
 5017SOL    HW226685   1.668   0.682   8.353 -0.0322 -2.3925 -1.1474
 5018SOL     OW26686   2.624   0.248  12.978 -0.0061 -0.1073  0.1222
 5018SOL    HW126687   2.718   0.271  12.981 -0.0373  0.1596 -1.0867
 5018SOL    HW226688   2.602   0.230  13.069 -1.3487  1.5907  0.1452
 5019SOL     OW26689   0.729   3.069   2.034 -0.4782 -0.1359  0.1410
 5019SOL    HW126690   0.677   3.150   2.034  0.8536  0.7249 -0.3936
 5019SOL    HW226691   0.796   3.103   1.974 -0.9906 -0.2860 -0.5190
 5020SOL     OW26692   4.735   2.323   3.534 -0.4004  0.1625 -0.2814
 5020SOL    HW126693   4.653   2.273   3.541 -0.5027  0.3191 -0.3777
 5020SOL    HW226694   0.019   2.340   3.626 -0.7305 -2.1830  0.2306
 5021SOL     OW26695   1.958   0.803   0.152  0.1305 -0.0918 -0.2230
 5021SOL    HW126696   2.030   0.824   0.092  0.4526  2.7015  1.1178
 5021SOL    HW226697   1.887   0.850   0.108 -2.2375 -2.8321  0.6824
 5022SOL     OW26698   2.680   0.194  14.642  0.9464 -0.3000 -0.0763
 5022SOL    HW126699   2.638   0.179  14.727  0.9454  0.3160  0.0305
 5022SOL    HW226700   2.650   0.113  14.601 -1.7532 -1.1314  3.5765
 5023SOL     OW26701   2.298   2.830  13.895  0.1734 -0.3264 -0.3872
 5023SOL    HW126702   2.203   2.817  13.895 -0.1129  1.8399  2.5076
 5023SOL    HW226703   2.319   2.743  13.930  0.0536  0.1672  0.8779
 5024SOL     OW26704   1.980   1.664   2.527 -0.3999  0.3649  0.4975
 5024SOL    HW126705   1.899   1.620   2.551  0.7172 -0.8656  2.0056
 5024SOL    HW226706   2.028   1.598   2.476  0.2352  1.3309 -0.1661
 5025SOL     OW26707   0.613   1.645  13.504 -0.1627  0.4191 -0.2388
 5025SOL    HW126708   0.619   1.741  13.500 -0.7124  0.5264  1.7332
 5025SOL    HW226709   0.646   1.627  13.415  0.7264 -1.0762  0.4052
 5026SOL     OW26710   3.540   4.694   6.526 -0.1084  0.1495  0.4186
 5026SOL    HW126711   3.542   4.602   6.553  1.0299 -0.0182 -0.2356
 5026SOL    HW226712   3.447   4.716   6.534  0.0865  1.2763 -0.3446
 5027SOL     OW26713   4.078   3.628   4.902 -0.6486  0.1005 -0.3030
 5027SOL    HW126714   4.087   3.657   4.993  0.9012 -1.4846  0.0544
 5027SOL    HW226715   4.047   3.708   4.860  0.9256  1.5585  1.3230
 5028SOL     OW26716   3.082   1.434  13.198 -0.1068 -0.6890  0.3886
 5028SOL    HW126717   3.158   1.442  13.141 -0.8755 -0.9107 -0.6701
 5028SOL    HW226718   3.113   1.488  13.271  1.0674 -1.5013  0.5012
 5029SOL     OW26719   1.565   4.724   2.228  0.3306  0.1982  0.7734
 5029SOL    HW126720   1.473   4.718   2.253 -1.1300 -1.3383 -5.0353
 5029SOL    HW226721   1.591   4.661   2.296 -0.4613 -0.1957  0.7143
 5030SOL     OW26722   4.007   2.145  10.907  0.5975  0.3556  0.1386
 5030SOL    HW126723   3.974   2.068  10.861  1.5390  0.3640 -0.5719
 5030SOL    HW226724   4.091   2.146  10.860  1.1217 -1.2523  1.0260
 5031SOL     OW26725   0.728   0.809   6.418 -0.2623  0.3768 -0.2772
 5031SOL    HW126726   0.723   0.812   6.514 -0.5971 -1.1302 -0.2413
 5031SOL    HW226727   0.690   0.722   6.410 -1.4586  0.9159 -0.4139
 5032SOL     OW26728   0.217   2.338  14.164 -0.0185  0.4742  0.3640
 5032SOL    HW126729   0.240   2.342  14.257 -0.3256  2.7526  0.3300
 5032SOL    HW226730   0.222   2.243  14.152 -0.2985  0.3428  1.2795
 5033SOL     OW26731   2.518   2.532   8.559  0.2646  0.0882 -0.3624
 5033SOL    HW126732   2.504   2.527   8.654  0.9614 -0.1633 -0.2699
 5033SOL    HW226733   2.583   2.602   8.561 -0.7076  1.0920 -3.8959
 5034SOL     OW26734   1.357   1.193   4.969 -0.2183  0.7767  0.1799
 5034SOL    HW126735   1.280   1.224   4.920  0.3939  2.8567  0.5239
 5034SOL    HW226736   1.345   1.098   4.968 -0.1985  0.7734  0.2971
 5035SOL     OW26737   2.519   4.520   4.622 -0.2411  0.3863 -0.4553
 5035SOL    HW126738   2.610   4.549   4.609 -0.0326  0.1237  0.4934
 5035SOL    HW226739   2.506   4.477   4.537 -1.3917  1.1705 -0.6747
 5036SOL     OW26740   3.371   3.894  13.108 -0.4735  0.2944 -0.0771
 5036SOL    HW126741   3.339   3.901  13.198  1.4967  1.9706  0.5040
 5036SOL    HW226742   3.459   3.928  13.122 -0.4744  1.3046 -2.5800
 5037SOL     OW26743   3.743   4.222   2.330  0.1672 -0.0412  0.1544
 5037SOL    HW126744   3.790   4.199   2.250  1.4648  1.6381  0.4257
 5037SOL    HW226745   3.723   4.133   2.359  0.2477  0.3191  1.3119
 5038SOL     OW26746   4.443   0.492   5.607  0.1108 -0.1036  0.4214
 5038SOL    HW126747   4.526   0.467   5.567  0.7936  1.0431  1.0982
 5038SOL    HW226748   4.417   0.406   5.639  0.0967 -1.0925 -2.2484
 5039SOL     OW26749   4.029   4.315   2.509 -0.1562 -0.1583  0.1789
 5039SOL    HW126750   3.945   4.270   2.511 -0.6682  0.7242 -1.3589
 5039SOL    HW226751   4.088   4.240   2.518 -1.7778 -1.6125 -1.3505
 5040SOL     OW26752   0.679   0.773   2.179  0.5923  0.8985 -0.2770
 5040SOL    HW126753   0.616   0.813   2.118 -0.2048  0.8297  0.4976
 5040SOL    HW226754   0.621   0.758   2.253  1.1846 -0.1733 -0.0293
 5041SOL     OW26755   2.984   3.986   0.675 -0.6413  0.1318  0.0122
 5041SOL    HW126756   3.078   3.977   0.694 -1.1210 -0.5835  2.1169
 5041SOL    HW226757   2.954   3.905   0.717 -2.1649  0.3284 -0.7084
 5042SOL     OW26758   0.065   1.311   5.143  0.0098 -0.6870  0.3412
 5042SOL    HW126759   0.154   1.342   5.155 -0.4269  0.2800  1.0975
 5042SOL    HW226760   0.020   1.395   5.149  1.0088 -0.0455 -1.2553
 5043SOL     OW26761   4.238   2.627   8.670 -0.1358 -0.3851  0.8814
 5043SOL    HW126762   4.228   2.687   8.595  0.4389  1.5121  2.3305
 5043SOL    HW226763   4.238   2.536   8.640 -0.3925 -0.3640  0.8156
 5044SOL     OW26764   1.148   3.817   1.815  0.2293  0.2138  0.5350
 5044SOL    HW126765   1.161   3.743   1.874  0.1817 -0.3584 -0.1761
 5044SOL    HW226766   1.059   3.802   1.784  1.1708  1.9904 -3.0175
 5045SOL     OW26767   1.758   0.479   8.063 -0.5174  0.4850  0.9626
 5045SOL    HW126768   1.737   0.560   8.016  0.8594  1.1837  1.5565
 5045SOL    HW226769   1.837   0.443   8.022 -1.2423 -0.1788  0.1547
 5046SOL     OW26770   2.132   4.688   2.402  0.6036 -0.4569  0.0377
 5046SOL    HW126771   2.148   0.023   2.463  1.1364 -0.0214 -0.6136
 5046SOL    HW226772   2.042   4.701   2.372  0.1463 -1.5442  0.9388
 5047SOL     OW26773   0.365   2.575   4.998  0.4442 -0.0962 -0.2300
 5047SOL    HW126774   0.294   2.636   5.017  0.0869 -1.2158  1.8986
 5047SOL    HW226775   0.424   2.578   5.073  0.8836  0.1208 -0.5813
 5048SOL     OW26776   4.658   0.725   5.549 -0.5202 -0.2830 -0.2802
 5048SOL    HW126777   4.625   0.653   5.603 -1.1413  0.5359  0.4455
 5048SOL    HW226778   0.007   0.698   5.520  0.2112  2.3485 -0.5947
 5049SOL     OW26779   3.682   2.525   6.341  0.6708 -0.3288 -0.4902
 5049SOL    HW126780   3.657   2.595   6.281  0.1897 -0.2797 -0.2280
 5049SOL    HW226781   3.677   2.567   6.427  2.2009 -1.1573  0.0072
 5050SOL     OW26782   0.883   2.068   5.401  0.3800  0.1034 -0.6871
 5050SOL    HW126783   0.835   2.043   5.480  1.5427  0.2452  0.0704
 5050SOL    HW226784   0.899   2.159   5.425 -0.0417  0.0851 -0.3231
 5051SOL     OW26785   0.096   4.423   5.051 -0.5854 -0.4780 -0.5080
 5051SOL    HW126786   0.166   4.380   5.100 -0.7138 -0.1167 -0.0075
 5051SOL    HW226787   0.041   4.348   5.029  1.0055 -2.2598  1.5626
 5052SOL     OW26788   1.210   3.134   5.801  0.2030 -0.8210  0.2812
 5052SOL    HW126789   1.277   3.141   5.733  0.8930  2.7252  1.3565
 5052SOL    HW226790   1.158   3.062   5.765 -1.3801  0.3206  0.3323
 5053SOL     OW26791   1.220   0.465   7.053  0.1760  0.1367 -0.8395
 5053SOL    HW126792   1.136   0.510   7.039 -0.2841 -0.6498 -0.6394
 5053SOL    HW226793   1.261   0.536   7.102 -1.4678  0.6544 -0.1830
 5054SOL     OW26794   4.453   1.462  13.132  0.4429  0.3279 -0.7478
 5054SOL    HW126795   4.413   1.382  13.098  1.4860 -0.7445  0.5530
 5054SOL    HW226796   4.419   1.474  13.220  1.0171 -0.2050 -0.4479
 5055SOL     OW26797   0.904   3.924   9.107 -0.2827  0.4792 -0.2588
 5055SOL    HW126798   0.959   3.983   9.158 -1.7033  1.0578  0.5975
 5055SOL    HW226799   0.851   3.902   9.184  0.6279 -1.3402 -0.1401
 5056SOL     OW26800   3.998   0.438   6.956  0.2697 -0.0145 -0.5337
 5056SOL    HW126801   4.079   0.465   6.913  0.1224  0.7561 -0.3411
 5056SOL    HW226802   4.039   0.423   7.041 -0.8002  0.0662  0.0062
 5057SOL     OW26803   3.219   4.206  10.963  0.5987  0.8031 -0.1396
 5057SOL    HW126804   3.151   4.269  10.987  0.0727  0.5500 -0.9392
 5057SOL    HW226805   3.189   4.124  11.002 -1.1340  0.5844 -1.9428
 5058SOL     OW26806   3.580   2.796  11.746  0.2097  0.4490  0.0747
 5058SOL    HW126807   3.634   2.795  11.825  1.1641  3.3248 -0.5238
 5058SOL    HW226808   3.638   2.824  11.675  0.1700  1.2522  0.3611
 5059SOL     OW26809   1.087   1.284   5.332  0.0507 -0.4312 -0.3863
 5059SOL    HW126810   1.051   1.369   5.357  0.4827 -0.1443 -0.7257
 5059SOL    HW226811   1.023   1.215   5.351  1.9444 -2.1281 -0.0850
 5060SOL     OW26812   1.947   3.338   1.622 -0.0278  0.2846 -0.0274
 5060SOL    HW126813   2.036   3.351   1.589 -0.3616  2.0781 -0.1780
 5060SOL    HW226814   1.948   3.245   1.647 -0.2998 -0.5890 -3.2727
 5061SOL     OW26815   3.603   4.664  16.438 -0.6305  0.0218  0.0832
 5061SOL    HW126816   3.676   4.602  16.428  0.1045  1.1118 -1.2659
 5061SOL    HW226817   3.653   0.008  16.445  1.4442 -1.2116 -0.5970
 5062SOL     OW26818   0.685   3.922   0.674  0.5227 -0.4688 -0.1794
 5062SOL    HW126819   0.687   3.841   0.623 -1.6232 -1.1528  0.8512
 5062SOL    HW226820   0.742   3.906   0.749 -0.7790 -1.3502  0.6128
 5063SOL     OW26821   3.508   4.543   9.118 -0.4710  0.3062  0.6680
 5063SOL    HW126822   3.468   4.500   9.194 -1.4279  0.5991  0.3289
 5063SOL    HW226823   3.585   4.490   9.095 -2.6041 -2.1691 -0.7589
 5064SOL     OW26824   1.664   0.495   3.044  0.4331  0.0861 -0.1532
 5064SOL    HW126825   1.684   0.531   3.131  0.8640 -1.8192  0.5541
 5064SOL    HW226826   1.750   0.485   3.003  0.6013 -1.2977  0.5325
 5065SOL     OW26827   0.966   2.143   6.307  0.2707 -0.0611 -0.5314
 5065SOL    HW126828   0.968   2.194   6.388 -0.6694 -1.3640  0.3078
 5065SOL    HW226829   1.058   2.140   6.281  0.6968 -1.0124  1.0948
 5066SOL     OW26830   3.499   4.076   4.028  0.4496  0.0979  0.3730
 5066SOL    HW126831   3.495   4.170   4.010  1.6404  0.4924  2.1964
 5066SOL    HW226832   3.511   4.045   3.939 -0.3007  2.1698 -0.4540
 5067SOL     OW26833   3.619   4.083   5.127 -0.4728 -0.2967 -0.1760
 5067SOL    HW126834   3.642   4.128   5.046  0.1744  0.2139  0.2888
 5067SOL    HW226835   3.668   4.139   5.188 -1.2212  2.0956 -1.7565
 5068SOL     OW26836   3.152   1.710   0.849  0.0241 -0.2012 -0.1197
 5068SOL    HW126837   3.143   1.644   0.919 -1.3269 -0.2663 -0.3670
 5068SOL    HW226838   3.205   1.784   0.880  0.5463 -0.5055 -0.2807
 5069SOL     OW26839   3.331   2.592   4.680  0.1061 -0.5061 -0.0197
 5069SOL    HW126840   3.243   2.617   4.653  0.1118  0.4559  0.8684
 5069SOL    HW226841   3.310   2.499   4.684 -0.7901 -0.3822 -1.5342
 5070SOL     OW26842   3.858   3.852   3.842  0.7092 -0.0078 -0.3408
 5070SOL    HW126843   3.939   3.895   3.816  0.8276 -0.4091 -0.6392
 5070SOL    HW226844   3.883   3.763   3.867 -0.0177 -0.1670 -0.1619
 5071SOL     OW26845   3.328   3.280   1.946 -0.2135 -0.1774 -0.4679
 5071SOL    HW126846   3.338   3.294   1.852  3.1131 -0.0651 -0.0947
 5071SOL    HW226847   3.283   3.360   1.973  0.6286 -0.3493  1.4821
 5072SOL     OW26848   2.455   1.237  15.954 -0.3079 -0.1086  0.5366
 5072SOL    HW126849   2.550   1.246  15.957 -0.1937 -1.4106  0.8401
 5072SOL    HW226850   2.443   1.294  15.877  1.6906  0.2385  0.5014
 5073SOL     OW26851   4.463   4.169  15.385 -0.7280 -0.1297  0.3239
 5073SOL    HW126852   4.539   4.120  15.417 -1.1005 -1.2828 -0.5541
 5073SOL    HW226853   4.393   4.136  15.442 -0.0350  0.5960  1.5758
 5074SOL     OW26854   0.598   4.508  13.557 -0.0316 -0.4714  0.8227
 5074SOL    HW126855   0.548   4.446  13.505 -0.0699  0.6115 -0.4210
 5074SOL    HW226856   0.530   4.531  13.621  0.1696  1.8638  0.1748
 5075SOL     OW26857   0.346   0.418   3.961 -0.0626  0.4507  0.1009
 5075SOL    HW126858   0.275   0.462   3.914  0.1954  1.6720  0.8750
 5075SOL    HW226859   0.369   0.484   4.026 -0.7723  0.6323  0.1670
 5076SOL     OW26860   3.072   4.231   7.339  0.1053 -0.8155  0.2562
 5076SOL    HW126861   3.152   4.256   7.385  1.0247  0.6569 -2.1719
 5076SOL    HW226862   3.094   4.244   7.247 -1.0015 -0.0114  0.1053
 5077SOL     OW26863   4.468   4.516  12.915  0.0298 -0.7288  0.0682
 5077SOL    HW126864   4.501   4.604  12.896 -1.4990  0.0411  0.9260
 5077SOL    HW226865   4.436   4.541  13.002 -0.9927  1.4768 -0.9430
 5078SOL     OW26866   0.758   1.661   4.744 -0.0889 -0.3475 -0.2466
 5078SOL    HW126867   0.844   1.697   4.723 -1.1826  2.4252  0.0884
 5078SOL    HW226868   0.752   1.578   4.697 -2.7696  0.6179 -1.6011
 5079SOL     OW26869   1.692   4.188   8.828  0.8023 -0.1713  0.0236
 5079SOL    HW126870   1.688   4.260   8.766 -1.2506  1.2849  1.8439
 5079SOL    HW226871   1.739   4.122   8.777  2.3012  0.5151  0.5041
 5080SOL     OW26872   2.638   2.873   2.751 -0.2175  0.5893  0.5959
 5080SOL    HW126873   2.627   2.914   2.665 -0.0809 -2.0488 -0.6691
 5080SOL    HW226874   2.629   2.782   2.725 -1.0557  0.3111  1.8759
 5081SOL     OW26875   1.499   1.781  16.002  0.1390 -0.0749  0.0468
 5081SOL    HW126876   1.503   1.858  16.058 -0.8811  0.2094 -0.2635
 5081SOL    HW226877   1.588   1.776  15.969  0.2327 -0.9523  0.4087
 5082SOL     OW26878   0.268   2.004   2.736 -0.2102 -0.6987 -0.3365
 5082SOL    HW126879   0.327   1.954   2.792  0.8332  0.0423 -0.7780
 5082SOL    HW226880   0.199   2.014   2.802  0.4999  0.1543  0.2825
 5083SOL     OW26881   2.098   3.727   3.168 -0.3919  0.3130 -0.0415
 5083SOL    HW126882   2.102   3.696   3.259  1.5298 -2.2414 -0.9801
 5083SOL    HW226883   2.190   3.749   3.157 -0.4087  1.3313  2.0486
 5084SOL     OW26884   2.740   0.871   5.513 -0.7653 -0.0204 -0.2583
 5084SOL    HW126885   2.685   0.896   5.439 -0.7072 -1.5728 -0.8311
 5084SOL    HW226886   2.794   0.803   5.472  1.5357  1.8089 -0.2914
 5085SOL     OW26887   2.364   4.091   3.397 -0.0911 -0.1547  0.7726
 5085SOL    HW126888   2.358   4.173   3.348 -0.9067 -0.5835  0.1623
 5085SOL    HW226889   2.303   4.108   3.469  0.3620  0.8692  0.9175
 5086SOL     OW26890   4.304   1.741   7.859  0.3268  0.2373 -0.6726
 5086SOL    HW126891   4.212   1.765   7.846  0.1799  0.0556  0.0275
 5086SOL    HW226892   4.314   1.690   7.778  0.4282 -1.1089  0.1790
 5087SOL     OW26893   0.313   3.342   3.963  0.0672 -0.1828 -0.2191
 5087SOL    HW126894   0.257   3.296   4.025 -0.2084  1.1898  0.5257
 5087SOL    HW226895   0.388   3.282   3.958  0.4798  0.1120  2.4607
 5088SOL     OW26896   0.961   0.369   7.930  0.5345  0.1671  0.7710
 5088SOL    HW126897   0.921   0.297   7.978 -3.7208  0.0064 -2.9873
 5088SOL    HW226898   0.883   0.425   7.939 -0.0963 -0.8953  1.9101
 5089SOL     OW26899   0.475   3.847   6.285  0.0819  0.0991 -0.7514
 5089SOL    HW126900   0.449   3.813   6.371 -0.2795 -2.1021 -1.7127
 5089SOL    HW226901   0.570   3.845   6.293 -0.0604 -0.5147  0.7892
 5090SOL     OW26902   2.856   0.827   6.948 -0.2030 -0.1974  0.5127
 5090SOL    HW126903   2.797   0.888   6.992 -2.2188 -1.2619 -0.7651
 5090SOL    HW226904   2.825   0.744   6.984 -1.2094 -0.1108 -0.1877
 5091SOL     OW26905   3.876   1.752   1.194 -0.3768 -0.5737 -0.0438
 5091SOL    HW126906   3.884   1.842   1.161 -1.8161  0.5626  2.6650
 5091SOL    HW226907   3.901   1.698   1.119 -0.1486  0.6233 -0.8402
 5092SOL     OW26908   2.505   4.432   0.281  0.0310 -0.1403 -0.0407
 5092SOL    HW126909   2.477   4.365   0.344 -3.7332  0.2723 -1.3037
 5092SOL    HW226910   2.431   4.430   0.221  0.1592 -1.2322 -0.1669
 5093SOL     OW26911   4.427   2.827   7.343 -0.2307 -0.3080 -0.1674
 5093SOL    HW126912   4.360   2.774   7.385 -0.4424 -1.4349 -1.9339
 5093SOL    HW226913   4.448   2.771   7.268 -1.3689  0.4074 -1.0209
 5094SOL     OW26914   2.990   1.530   7.950  0.0727 -0.3464  0.2296
 5094SOL    HW126915   2.942   1.598   7.998 -1.0851 -1.4739  0.6658
 5094SOL    HW226916   2.971   1.446   7.990 -3.7086 -1.0387 -3.0776
 5095SOL     OW26917   2.498   0.508   8.729 -0.5861  0.3614 -0.0130
 5095SOL    HW126918   2.414   0.462   8.723 -0.3908  0.0394 -0.2687
 5095SOL    HW226919   2.532   0.482   8.644  2.2916 -0.3008  1.3332
 5096SOL     OW26920   3.089   2.921   7.506 -0.0860 -0.1124  0.4739
 5096SOL    HW126921   3.092   2.872   7.424  1.8029 -2.2129  1.7779
 5096SOL    HW226922   3.074   3.006   7.465  2.8086 -0.8631 -2.1126
 5097SOL     OW26923   3.703   3.850   5.464 -0.7178 -0.3793  0.0950
 5097SOL    HW126924   3.668   3.939   5.472  1.8516  0.4478  1.9305
 5097SOL    HW226925   3.697   3.816   5.553 -0.3456  1.3442  0.7895
 5098SOL     OW26926   2.276   4.353   7.214 -0.3712  0.0077 -0.0795
 5098SOL    HW126927   2.354   4.406   7.203 -0.9825  1.0965  0.7819
 5098SOL    HW226928   2.230   4.417   7.268  0.0524  2.0111 -2.1272
 5099SOL     OW26929   2.743   2.961  14.986  0.1792 -0.1406 -0.5296
 5099SOL    HW126930   2.671   3.015  14.951 -1.5970 -2.3881 -0.3506
 5099SOL    HW226931   2.735   2.881  14.935 -1.0227 -0.2083 -0.2440
 5100SOL     OW26932   4.287   2.629   8.953  0.1238  0.0117  0.0589
 5100SOL    HW126933   4.209   2.573   8.959 -0.0063  0.0137 -1.8308
 5100SOL    HW226934   4.284   2.660   8.863  0.9910 -1.6432 -0.5341
 5101SOL     OW26935   3.651   3.345   5.885  0.4859 -0.5393 -0.1769
 5101SOL    HW126936   3.674   3.308   5.970  0.9864 -1.3969 -0.6943
 5101SOL    HW226937   3.739   3.365   5.855  1.5294 -2.6031  1.5261
 5102SOL     OW26938   3.167   1.584   5.681 -0.7707  0.4184  0.0480
 5102SOL    HW126939   3.220   1.535   5.618 -0.3839  1.2092 -0.2429
 5102SOL    HW226940   3.114   1.515   5.721  1.1077 -0.9479  0.1674
 5103SOL     OW26941   2.665   1.399   6.531 -0.5075  0.4075 -0.2369
 5103SOL    HW126942   2.658   1.318   6.480 -0.8689  1.1674 -1.3992
 5103SOL    HW226943   2.713   1.362   6.605  3.0811  0.4067 -2.5575
 5104SOL     OW26944   2.207   0.156  13.930 -0.8098 -0.4259  0.6266
 5104SOL    HW126945   2.194   0.222  13.862  1.1041 -0.3208  0.3621
 5104SOL    HW226946   2.120   0.118  13.939 -1.7347  1.3162 -0.9079
 5105SOL     OW26947   0.488   2.791   4.361  0.0433  0.6447 -0.0544
 5105SOL    HW126948   0.553   2.722   4.352  0.3252  1.1265 -1.7253
 5105SOL    HW226949   0.488   2.814   4.268 -0.9230  1.4714  0.1410
 5106SOL     OW26950   4.216   4.633   2.282  0.6026  0.2297 -0.2351
 5106SOL    HW126951   4.133   4.669   2.251 -0.4212 -1.4073  0.5823
 5106SOL    HW226952   4.217   4.560   2.220 -0.5047 -0.0574  0.0876
 5107SOL     OW26953   2.460   3.147   2.069  0.2932 -0.3615 -0.7682
 5107SOL    HW126954   2.391   3.214   2.063 -0.1579 -0.6919  0.6142
 5107SOL    HW226955   2.478   3.158   1.976 -1.1118 -0.0990 -1.0177
 5108SOL     OW26956   4.372   1.339  14.555 -0.3553  0.1978  0.0049
 5108SOL    HW126957   4.425   1.282  14.499 -1.8364 -0.0993 -1.1046
 5108SOL    HW226958   4.383   1.294  14.638 -2.3073  1.9828  1.2164
 5109SOL     OW26959   2.206   3.778  15.035  0.4794 -0.3769 -0.4711
 5109SOL    HW126960   2.131   3.726  15.066 -0.5023  0.2479 -1.7654
 5109SOL    HW226961   2.165   3.815  14.957 -3.2242 -0.1249  1.5991
 5110SOL     OW26962   1.451   3.971  10.946 -0.0051 -0.4999 -0.4664
 5110SOL    HW126963   1.542   3.979  10.917 -0.1516 -0.2523 -0.8599
 5110SOL    HW226964   1.400   4.033  10.893 -0.1954  1.2183  1.6893
 5111SOL     OW26965   1.122   0.516   4.036  0.2593  0.4437 -0.0846
 5111SOL    HW126966   1.137   0.423   4.055  0.9134  0.2764 -1.3671
 5111SOL    HW226967   1.205   0.543   3.997 -1.0234  1.9157 -1.8008
 5112SOL     OW26968   3.703   1.597   8.396  0.1943  0.0324 -0.3504
 5112SOL    HW126969   3.668   1.683   8.375  1.6468  0.7547  0.1476
 5112SOL    HW226970   3.642   1.544   8.344  1.4481 -0.7028 -1.0743
 5113SOL     OW26971   3.130   4.657  12.361  0.5417 -0.1010  0.3261
 5113SOL    HW126972   3.034   4.666  12.362  0.5765  0.2417  1.3097
 5113SOL    HW226973   3.153   0.011  12.381  1.4094 -0.3586  0.4816
 5114SOL     OW26974   0.342   3.223  13.485  0.3903  0.1566  0.0191
 5114SOL    HW126975   0.311   3.166  13.555  2.4835  1.4383  1.9797
 5114SOL    HW226976   0.331   3.166  13.409 -0.3497  0.2324  0.0681
 5115SOL     OW26977   2.855   2.744  15.413  0.1925  0.5064  0.0974
 5115SOL    HW126978   2.784   2.799  15.380 -0.4874 -1.9539 -2.6481
 5115SOL    HW226979   2.841   2.659  15.369  0.9663 -0.7011  2.2049
 5116SOL     OW26980   0.821   0.904   8.809 -0.0425 -0.1589  0.4549
 5116SOL    HW126981   0.914   0.889   8.823 -0.0770  1.3406  2.4205
 5116SOL    HW226982   0.834   0.957   8.730 -0.1472 -1.4954 -0.4401
 5117SOL     OW26983   0.381   2.863   8.531  0.0050 -0.2501  0.2949
 5117SOL    HW126984   0.472   2.892   8.521  0.1014 -0.8738 -0.7165
 5117SOL    HW226985   0.364   2.832   8.442 -0.5228 -1.4669  0.8252
 5118SOL     OW26986   1.239   0.592   4.797 -0.1101  0.0443 -0.3062
 5118SOL    HW126987   1.301   0.612   4.726  0.6251 -1.6472 -0.1301
 5118SOL    HW226988   1.301   0.557   4.860 -1.4673  1.3524  1.7675
 5119SOL     OW26989   2.968   1.047  16.653  0.1747  0.1721 -0.1391
 5119SOL    HW126990   2.995   1.101  16.578 -0.0425  0.0684 -0.2928
 5119SOL    HW226991   2.888   1.011  16.615  1.4164  0.9177 -3.5266
 5120SOL     OW26992   2.675   4.661  14.236 -0.2986 -0.1763  0.3522
 5120SOL    HW126993   2.632   4.576  14.223  1.2186 -1.0350  0.7857
 5120SOL    HW226994   2.606   4.714  14.197  0.6777  0.6146 -0.3072
 5121SOL     OW26995   4.292   1.505   6.065 -0.1399  0.3385 -0.2756
 5121SOL    HW126996   4.315   1.593   6.033 -0.5601  0.3933 -0.4291
 5121SOL    HW226997   4.368   1.478   6.116  0.2242  1.6493 -0.1260
 5122SOL     OW26998   2.362   2.710   4.619  0.0741  0.2627 -0.1518
 5122SOL    HW126999   2.400   2.709   4.531 -0.1870 -0.5169 -0.2578
 5122SOL    HW227000   2.298   2.639   4.611  1.0581 -0.7270  0.7486
 5123SOL     OW27001   3.972   0.529  12.569  0.2963  0.0913  0.2969
 5123SOL    HW127002   3.959   0.558  12.479 -1.2312 -0.0913  0.4608
 5123SOL    HW227003   3.949   0.607  12.619  0.2245 -0.0655  0.5081
 5124SOL     OW27004   1.478   4.584  13.101  0.7049 -0.1283 -0.0350
 5124SOL    HW127005   1.517   4.584  13.189 -1.5969 -2.2886  0.9967
 5124SOL    HW227006   1.532   4.631  13.038  0.1840 -0.6429 -0.8656
 5125SOL     OW27007   0.381   4.242   6.721 -0.1206 -0.3668 -0.1480
 5125SOL    HW127008   0.404   4.253   6.629  2.4235 -1.2042  0.3831
 5125SOL    HW227009   0.365   4.148   6.721 -0.9310 -0.2278 -0.7584
 5126SOL     OW27010   4.133   0.616  17.459  0.3649 -0.3180 -0.0830
 5126SOL    HW127011   4.071   0.685  17.481 -1.0829 -1.7924  0.5267
 5126SOL    HW227012   4.092   0.577  17.382 -1.4844 -0.4075  0.9269
 5127SOL     OW27013   0.250   1.952   8.154  0.2442 -0.2604 -0.1465
 5127SOL    HW127014   0.282   1.862   8.148 -0.4522 -0.4039 -1.5966
 5127SOL    HW227015   0.168   1.948   8.105 -0.0791  0.0005  0.3739
 5128SOL     OW27016   2.298   3.447   5.939 -0.2164 -0.8064 -0.4129
 5128SOL    HW127017   2.347   3.507   5.883  0.5608  0.8687  2.0382
 5128SOL    HW227018   2.311   3.366   5.889  0.2573  0.0167 -1.6157
 5129SOL     OW27019   0.751   2.271   2.845  0.4066  0.8757  0.2108
 5129SOL    HW127020   0.826   2.235   2.797 -0.2908 -1.5755  0.9683
 5129SOL    HW227021   0.703   2.317   2.776  0.4474  1.3879  0.5240
 5130SOL     OW27022   1.969   3.123   1.785  0.1831  0.5600  0.0743
 5130SOL    HW127023   1.912   3.177   1.839  0.1171 -0.3990  0.9702
 5130SOL    HW227024   1.911   3.046   1.789 -0.8020  1.3363  0.4919
 5131SOL     OW27025   4.205   3.330  12.042  0.3662  0.1646 -0.3010
 5131SOL    HW127026   4.191   3.349  12.134 -0.0137  0.3888 -0.4059
 5131SOL    HW227027   4.300   3.318  12.041  0.0122 -2.5659 -1.9958
 5132SOL     OW27028   2.847   4.151   7.455 -0.0854  0.1716 -0.2047
 5132SOL    HW127029   2.844   4.195   7.540  1.9162 -0.4665  0.1769
 5132SOL    HW227030   2.924   4.189   7.412  0.7110  1.6999  2.5768
 5133SOL     OW27031   0.136   1.046   7.109 -0.4185 -0.0758  0.1651
 5133SOL    HW127032   0.058   1.094   7.137  1.0049  1.1293  2.0151
 5133SOL    HW227033   0.210   1.083   7.156  1.2275 -1.4889 -1.3256
 5134SOL     OW27034   2.309   0.585   0.387 -0.2285 -0.0860  0.7562
 5134SOL    HW127035   2.353   0.545   0.312 -0.2698  1.9071 -0.3312
 5134SOL    HW227036   2.291   0.674   0.355  2.8281 -0.3359 -1.6519
 5135SOL     OW27037   1.936   1.891   1.742  0.5190 -0.1276  0.0040
 5135SOL    HW127038   1.997   1.870   1.671  1.0748 -0.4764  0.5854
 5135SOL    HW227039   1.912   1.803   1.770  1.4836 -0.0881  0.9717
 5136SOL     OW27040   3.805   2.279  14.132 -0.4705 -0.4578  0.0338
 5136SOL    HW127041   3.808   2.316  14.221 -2.9901  1.2067 -0.5830
 5136SOL    HW227042   3.738   2.335  14.095  0.8094  0.8970 -0.2450
 5137SOL     OW27043   0.390   3.639   2.276 -0.2578  0.0918  0.4713
 5137SOL    HW127044   0.338   3.720   2.276  0.1418  0.3495 -0.6613
 5137SOL    HW227045   0.415   3.623   2.367  0.8153 -0.6563  0.0435
 5138SOL     OW27046   1.046   1.141   3.217  0.1337  0.5078 -0.1736
 5138SOL    HW127047   1.109   1.117   3.148 -1.2228 -0.1118 -1.1992
 5138SOL    HW227048   0.976   1.076   3.208  1.3811 -1.1129  1.6676
 5139SOL     OW27049   2.749   0.311  11.059  0.0668 -0.1199  0.2355
 5139SOL    HW127050   2.683   0.286  10.994  1.1208 -1.8762 -0.1644
 5139SOL    HW227051   2.748   0.233  11.113 -0.1756 -1.2254 -1.3732
 5140SOL     OW27052   2.605   3.171  14.853 -0.4229 -1.0886  0.1687
 5140SOL    HW127053   2.600   3.262  14.883 -0.2659 -0.7002 -0.9955
 5140SOL    HW227054   2.513   3.161  14.828 -0.0323 -0.9198 -1.2995
 5141SOL     OW27055   2.642   3.046   9.626 -0.1614 -0.1055 -0.3750
 5141SOL    HW127056   2.552   3.027   9.653 -0.2867  0.3421 -0.4728
 5141SOL    HW227057   2.667   3.110   9.693  2.2149 -0.0108 -1.3486
 5142SOL     OW27058   0.376   2.113  10.796 -0.1596 -0.1671  0.4074
 5142SOL    HW127059   0.298   2.125  10.851  0.2808 -2.7865  1.5622
 5142SOL    HW227060   0.365   2.189  10.738  0.5316 -0.3326  0.0696
 5143SOL     OW27061   2.777   3.680  10.356 -0.2090  0.3089 -0.3338
 5143SOL    HW127062   2.784   3.586  10.341 -2.0414 -0.2380  2.2919
 5143SOL    HW227063   2.703   3.690  10.416  0.8244 -2.3053  1.3699
 5144SOL     OW27064   0.672   3.426   0.531 -0.1249 -0.0756 -0.5138
 5144SOL    HW127065   0.727   3.459   0.460  1.2511 -3.9390 -1.2081
 5144SOL    HW227066   0.690   3.333   0.535 -0.1600 -0.0517  0.1842
 5145SOL     OW27067   1.158   3.967   0.784  0.6368  0.6693 -0.5459
 5145SOL    HW127068   1.232   3.985   0.726  0.2255 -1.0997 -1.6040
 5145SOL    HW227069   1.141   4.060   0.801 -2.5028  0.2398 -1.3986
 5146SOL     OW27070   2.975   3.417   4.654 -0.0960  0.2422 -0.1757
 5146SOL    HW127071   3.054   3.464   4.629 -0.5053  0.8207 -0.3843
 5146SOL    HW227072   2.978   3.432   4.748  3.5805 -1.2559 -0.0625
 5147SOL     OW27073   3.855   0.925   7.681  0.0136 -0.1357  0.3751
 5147SOL    HW127074   3.794   0.980   7.632 -0.7300 -0.4362  0.9558
 5147SOL    HW227075   3.818   0.839   7.661 -2.8917  1.1979  0.0442
 5148SOL     OW27076   1.074   2.648  11.776  0.0992  0.0003 -0.4196
 5148SOL    HW127077   1.000   2.660  11.835  0.6158  0.3061  0.1713
 5148SOL    HW227078   1.147   2.631  11.835 -0.5852  3.6515  1.5076
 5149SOL     OW27079   2.749   0.232   4.917 -0.3996 -0.2151  0.3618
 5149SOL    HW127080   2.700   0.314   4.911 -1.2553 -0.6537  1.3484
 5149SOL    HW227081   2.729   0.193   4.832  1.1894 -0.2884  0.0358
 5150SOL     OW27082   2.417   3.306   9.161  0.0217  0.1886 -0.0970
 5150SOL    HW127083   2.434   3.244   9.233  0.0737  1.8860  1.3393
 5150SOL    HW227084   2.321   3.312   9.164 -0.0377 -0.0725 -1.5559
 5151SOL     OW27085   1.949   2.471  13.845  0.1115 -0.4748  0.1662
 5151SOL    HW127086   1.965   2.384  13.882 -1.1443 -0.2319  1.2794
 5151SOL    HW227087   1.932   2.445  13.754 -0.5091 -0.6859  0.3412
 5152SOL     OW27088   3.618   4.395   6.994  0.0147 -0.0335  0.1727
 5152SOL    HW127089   3.553   4.383   7.064  0.7889  1.0271  1.0886
 5152SOL    HW227090   3.669   4.316   7.008 -2.2027 -1.5038 -0.0715
 5153SOL     OW27091   1.332   3.194  13.477 -0.4111 -0.1884 -0.5196
 5153SOL    HW127092   1.381   3.122  13.517  1.1226  0.9469 -0.3768
 5153SOL    HW227093   1.368   3.271  13.520 -0.2924 -0.5677  0.0572
 5154SOL     OW27094   0.316   4.383   7.901 -0.5377  0.9914 -0.1707
 5154SOL    HW127095   0.376   4.309   7.886 -1.0033  0.6040 -0.0979
 5154SOL    HW227096   0.250   4.349   7.962  2.0647 -0.5236  1.8267
 5155SOL     OW27097   2.816   4.538  15.691  0.0269 -0.4239  0.0224
 5155SOL    HW127098   2.870   4.494  15.626 -0.9357 -0.2251 -0.9148
 5155SOL    HW227099   2.731   4.531  15.647 -0.0975 -1.0776  0.3635
 5156SOL     OW27100   4.145   0.776   7.783 -0.4568  0.2658 -0.4905
 5156SOL    HW127101   4.094   0.711   7.734  1.2305 -0.3173 -1.4662
 5156SOL    HW227102   4.158   0.835   7.709 -2.1915 -0.9436 -1.7573
 5157SOL     OW27103   2.499   4.019  10.507  0.0959 -0.2264 -0.4027
 5157SOL    HW127104   2.423   4.018  10.565  1.3010 -1.3133  1.1491
 5157SOL    HW227105   2.465   4.091  10.454 -2.9641 -2.3938 -1.3681
 5158SOL     OW27106   2.874   0.104  15.281  0.4421  0.0029  0.3605
 5158SOL    HW127107   2.795   0.156  15.280  1.1580  1.0781 -0.0928
 5158SOL    HW227108   2.863   0.067  15.194 -0.2409 -0.2450  0.5580
 5159SOL     OW27109   1.632   1.570  10.727 -0.5699  0.2588 -0.1815
 5159SOL    HW127110   1.662   1.516  10.800  0.6433  3.6135  1.7897
 5159SOL    HW227111   1.710   1.624  10.711 -1.0525  1.0684  0.2229
 5160SOL     OW27112   0.823   1.423  15.253 -0.3796  0.7303 -0.3131
 5160SOL    HW127113   0.729   1.413  15.266 -0.0723 -0.7408  0.8057
 5160SOL    HW227114   0.823   1.516  15.274  1.1584  0.4978  0.7787
 5161SOL     OW27115   3.900   1.290   5.221  0.2136 -0.4723 -0.1152
 5161SOL    HW127116   3.882   1.320   5.310  2.0192  3.0719 -0.9321
 5161SOL    HW227117   3.825   1.238   5.191 -0.1277 -0.0856  0.0686
 5162SOL     OW27118   1.999   0.225   3.513 -0.6400  0.6375  0.0459
 5162SOL    HW127119   2.009   0.194   3.423 -3.6445  0.5118 -0.2408
 5162SOL    HW227120   2.089   0.253   3.531 -0.0883 -1.1947  0.1493
 5163SOL     OW27121   1.972   2.631   2.503 -0.3464 -0.4376  0.4075
 5163SOL    HW127122   1.971   2.666   2.592  1.4793  2.8650 -0.8985
 5163SOL    HW227123   1.879   2.608   2.499 -0.8482  1.5672  0.4701
 5164SOL     OW27124   3.888   2.045   7.002  0.1957 -0.0572  0.2067
 5164SOL    HW127125   3.850   2.056   7.089 -1.7888 -0.4486 -0.6175
 5164SOL    HW227126   3.901   2.134   6.970 -0.6915  1.2453  3.5379
 5165SOL     OW27127   4.097   2.979   2.401 -0.3055  0.0808 -0.8063
 5165SOL    HW127128   4.110   2.884   2.391 -1.2831 -0.3988  2.3442
 5165SOL    HW227129   4.002   2.990   2.400 -0.1426  0.9629 -4.9547
 5166SOL     OW27130   3.775   3.524   5.554  0.2245  0.3232 -0.1230
 5166SOL    HW127131   3.701   3.585   5.562  1.5376  1.8614  0.4240
 5166SOL    HW227132   3.792   3.505   5.647 -1.7482 -1.3835 -0.1203
 5167SOL     OW27133   1.827   3.269   3.782  0.3020  0.3761 -0.0219
 5167SOL    HW127134   1.904   3.265   3.725  0.5634 -0.0028  0.3533
 5167SOL    HW227135   1.870   3.313   3.856 -0.9068  0.7301  0.4644
 5168SOL     OW27136   3.641   3.186  13.921 -0.3526 -0.2522 -0.6806
 5168SOL    HW127137   3.691   3.124  13.868  0.2690 -0.5557  0.2681
 5168SOL    HW227138   3.586   3.122  13.967 -0.3198  0.1602 -0.0798
 5169SOL     OW27139   0.799   1.996   5.660 -0.2200 -0.3374 -0.0285
 5169SOL    HW127140   0.736   1.924   5.669 -2.6813  1.7170 -0.9314
 5169SOL    HW227141   0.844   1.988   5.745  0.1236  1.9217 -0.0095
 5170SOL     OW27142   1.023   1.131   8.828 -0.7664 -0.1518 -0.4130
 5170SOL    HW127143   1.009   1.209   8.882 -0.7240 -0.0634 -0.5289
 5170SOL    HW227144   0.960   1.137   8.756 -0.1802 -0.2856 -0.9394
 5171SOL     OW27145   4.014   0.226   1.226 -0.3045 -0.2795 -0.7502
 5171SOL    HW127146   3.939   0.187   1.181 -0.2160 -0.5447 -0.6691
 5171SOL    HW227147   4.062   0.147   1.252  0.8905 -0.4668 -3.4419
 5172SOL     OW27148   0.113   0.218  11.985  0.1390 -0.3066 -0.2427
 5172SOL    HW127149   0.050   0.247  11.919 -1.3686  1.6201  2.0351
 5172SOL    HW227150   0.194   0.254  11.950  2.1833 -2.7513  1.9565
 5173SOL     OW27151   2.502   2.336   9.709  0.1988  0.5825 -0.1401
 5173SOL    HW127152   2.467   2.402   9.769 -1.5239 -0.0330 -0.4427
 5173SOL    HW227153   2.447   2.347   9.631 -1.3069 -2.0665  0.5359
 5174SOL     OW27154   1.572   1.136  11.209  0.0265 -0.0402  0.0668
 5174SOL    HW127155   1.486   1.152  11.249  0.2989 -0.7716  0.9433
 5174SOL    HW227156   1.624   1.208  11.246 -0.4805 -0.9035  2.5123
 5175SOL     OW27157   1.187   4.165   6.924 -0.2670 -0.5500 -0.1443
 5175SOL    HW127158   1.236   4.085   6.945  1.1524 -0.3277 -2.5447
 5175SOL    HW227159   1.235   4.196   6.847  0.4066 -2.6252 -0.5637
 5176SOL     OW27160   1.417   1.132   3.729 -0.3595  0.1614  0.0868
 5176SOL    HW127161   1.487   1.197   3.735 -0.1204 -0.2054  1.1789
 5176SOL    HW227162   1.446   1.073   3.799 -1.2915 -1.5300 -0.9289
 5177SOL     OW27163   2.276   1.085   2.378  0.0338  0.2518  0.2519
 5177SOL    HW127164   2.365   1.091   2.414  0.9968  0.5223 -2.1496
 5177SOL    HW227165   2.253   0.994   2.397 -1.1227 -0.0504 -2.5681
 5178SOL     OW27166   1.526   2.941   5.086  0.5435  0.0649  0.6218
 5178SOL    HW127167   1.573   2.876   5.137  1.1608 -1.7877 -2.3265
 5178SOL    HW227168   1.487   2.895   5.011  2.5005  1.4789 -1.2509
 5179SOL     OW27169   0.427   3.757   8.363  0.2307  0.6278 -0.0769
 5179SOL    HW127170   0.484   3.828   8.392 -1.6373  0.9577  2.8136
 5179SOL    HW227171   0.399   3.725   8.448 -0.2919  1.1559 -0.0481
 5180SOL     OW27172   4.196   2.221   3.788  0.2070 -0.0602  0.1675
 5180SOL    HW127173   4.224   2.302   3.745 -1.0855  0.1245 -0.3186
 5180SOL    HW227174   4.137   2.182   3.724  0.8811 -0.9004  0.0550
 5181SOL     OW27175   2.480   4.610   9.990  0.4119  0.5718 -0.5913
 5181SOL    HW127176   2.496   4.521   9.959  0.1941  0.1166  0.6092
 5181SOL    HW227177   2.394   4.630   9.955 -0.4571  0.7342  1.6479
 5182SOL     OW27178   4.602   3.037   6.834 -0.5141  0.0274  0.1853
 5182SOL    HW127179   4.512   3.047   6.862  0.0573 -0.6468  2.2522
 5182SOL    HW227180   4.639   3.093   6.901 -0.7404 -0.9453  1.1241
 5183SOL     OW27181   1.111   3.193   6.482 -0.5921 -0.1211 -0.2979
 5183SOL    HW127182   1.182   3.228   6.429 -1.2075 -0.2439 -1.2269
 5183SOL    HW227183   1.032   3.179   6.428 -0.6064  0.2507 -0.3705
 5184SOL     OW27184   4.228   0.473  12.653  0.1385  0.2766 -0.1071
 5184SOL    HW127185   4.247   0.388  12.615 -2.3477 -0.8634  1.1890
 5184SOL    HW227186   4.138   0.484  12.623  0.2552 -1.3435 -1.0031
 5185SOL     OW27187   3.961   0.063   9.100  0.3813 -0.1791 -0.3782
 5185SOL    HW127188   3.877   0.035   9.134 -0.0562  0.5005 -0.8986
 5185SOL    HW227189   3.931   0.114   9.024  0.5038 -1.0426 -1.0151
 5186SOL     OW27190   0.678   3.755   8.548 -0.1347  0.4790  0.5777
 5186SOL    HW127191   0.623   3.789   8.618 -0.1945  3.6011 -0.9877
 5186SOL    HW227192   0.762   3.795   8.571  1.2522 -0.5375 -2.7626
 5187SOL     OW27193   0.375   4.711   0.646 -0.3553 -0.1626  0.2464
 5187SOL    HW127194   0.367   4.616   0.656  0.5245 -0.1640  0.8893
 5187SOL    HW227195   0.455   4.727   0.695 -0.1328 -2.3074  0.5779
 5188SOL     OW27196   2.147   0.315   2.434  0.0957  0.0007  0.3174
 5188SOL    HW127197   2.224   0.272   2.471 -0.8284 -0.7916  1.3160
 5188SOL    HW227198   2.181   0.340   2.348 -1.6795  0.9284 -0.1301
 5189SOL     OW27199   1.465   3.500   7.175  0.3569 -0.2285  0.5645
 5189SOL    HW127200   1.392   3.528   7.119 -0.9282 -1.0159  1.8713
 5189SOL    HW227201   1.423   3.536   7.253  0.5910  0.5208  0.3501
 5190SOL     OW27202   1.090   2.306  12.065  0.3011 -0.1247  0.5711
 5190SOL    HW127203   0.996   2.308  12.045 -0.0605  0.3211  2.3339
 5190SOL    HW227204   1.125   2.242  12.003  1.0759  0.3078  0.5577
 5191SOL     OW27205   3.597   2.716   2.851  0.4830  0.2809 -0.4058
 5191SOL    HW127206   3.573   2.709   2.943  0.7976  0.9943 -0.2749
 5191SOL    HW227207   3.570   2.626   2.831 -0.3234  0.3023  0.6248
 5192SOL     OW27208   1.032   0.434   4.692 -0.5287 -0.2224  0.3923
 5192SOL    HW127209   1.107   0.479   4.730  1.0002 -2.1971 -0.3281
 5192SOL    HW227210   1.031   0.490   4.614  0.4391 -1.1503 -0.2862
 5193SOL     OW27211   3.919   2.319   5.897  0.2214  0.5004 -0.5366
 5193SOL    HW127212   3.985   2.381   5.929 -0.6002  1.2137 -0.2143
 5193SOL    HW227213   3.973   2.244   5.872  1.9572  1.7459 -0.5842
 5194SOL     OW27214   3.842   3.165  12.015  0.1090  0.0593 -0.2633
 5194SOL    HW127215   3.805   3.095  12.068 -0.4798  1.4538  1.1804
 5194SOL    HW227216   3.791   3.242  12.043 -0.5712 -0.0190 -1.2739
 5195SOL     OW27217   0.870   0.349   5.287  0.0466 -0.3314 -0.3991
 5195SOL    HW127218   0.871   0.364   5.382  0.5088  0.6764 -0.5684
 5195SOL    HW227219   0.776   0.336   5.271  0.9353 -3.1215 -3.3756
 5196SOL     OW27220   3.453   0.745  12.067 -0.5130 -0.2499  0.1463
 5196SOL    HW127221   3.359   0.739  12.083 -0.8751  3.2655 -0.5670
 5196SOL    HW227222   3.451   0.705  11.980 -0.2894 -0.2851  0.1554
 5197SOL     OW27223   0.442   3.548   2.544  0.3847 -0.2806  0.1117
 5197SOL    HW127224   0.535   3.559   2.564  0.8922 -3.4010 -0.4474
 5197SOL    HW227225   0.422   3.466   2.589 -0.1430 -0.0946  0.2109
 5198SOL     OW27226   3.547   4.586   1.040  0.0633  0.6890  0.3275
 5198SOL    HW127227   3.552   4.619   1.130 -0.3003 -0.2723  0.6936
 5198SOL    HW227228   3.605   4.648   0.995  0.6793 -0.1682 -0.0658
 5199SOL     OW27229   0.207   4.491   4.789  0.0829 -0.3974 -0.6191
 5199SOL    HW127230   0.134   4.503   4.850  0.2519 -0.6166 -0.3723
 5199SOL    HW227231   0.272   4.553   4.823 -1.5040  0.8263  0.1814
 5200SOL     OW27232   2.326   1.404  12.386 -0.1234 -0.2977 -0.4494
 5200SOL    HW127233   2.231   1.400  12.375  0.0115 -0.0026 -1.6624
 5200SOL    HW227234   2.325   1.366  12.474  2.9161 -0.6079 -0.5530
 5201SOL     OW27235   1.301   0.883   1.379  0.0364  0.1067  0.1101
 5201SOL    HW127236   1.357   0.894   1.456  1.4662  0.4521 -0.9787
 5201SOL    HW227237   1.306   0.968   1.336 -2.2099 -1.1491 -2.6446
 5202SOL     OW27238   4.386   1.037   7.684  0.3853  0.8083 -0.3362
 5202SOL    HW127239   4.300   1.002   7.657  0.1747 -0.0492  1.4161
 5202SOL    HW227240   4.396   1.120   7.638  1.0891 -0.1075 -1.8481
 5203SOL     OW27241   3.729   1.897   7.631  0.2970  0.6710 -0.7595
 5203SOL    HW127242   3.787   1.931   7.698 -0.3826  0.5703 -0.1209
 5203SOL    HW227243   3.718   1.972   7.573  0.7838  2.4459  1.4808
 5204SOL     OW27244   0.451   4.290  11.925  0.1352 -0.2363 -0.1199
 5204SOL    HW127245   0.542   4.310  11.949 -0.3136 -0.1422  1.4835
 5204SOL    HW227246   0.399   4.296  12.005  0.8794 -1.0763  0.4260
 5205SOL     OW27247   1.344   1.098  12.995  0.1670  0.2481  0.7004
 5205SOL    HW127248   1.317   1.154  12.922 -0.1765  0.1009  0.7136
 5205SOL    HW227249   1.417   1.146  13.034 -1.1635  1.6442  1.4779
 5206SOL     OW27250   0.241   0.935  10.271  0.2150  0.1979  0.4683
 5206SOL    HW127251   0.331   0.959  10.292 -0.3645  1.3144  1.7180
 5206SOL    HW227252   0.223   0.987  10.193  0.6697 -0.1588  0.1329
 5207SOL     OW27253   2.701   4.628   7.619 -0.3257 -0.1453  0.0683
 5207SOL    HW127254   2.754   4.606   7.543  1.3038  2.5598  0.4070
 5207SOL    HW227255   2.749   4.706   7.649  0.5737 -0.8489  0.4508
 5208SOL     OW27256   0.383   2.090  12.008  0.0992  0.7807  0.0324
 5208SOL    HW127257   0.333   2.171  12.016 -0.8540  0.1875  0.1455
 5208SOL    HW227258   0.476   2.111  12.011  0.6554 -1.7066  0.5445
 5209SOL     OW27259   3.845   1.465   9.102 -0.1655 -0.6904  0.3049
 5209SOL    HW127260   3.796   1.492   9.025  0.3027 -3.1374 -0.8354
 5209SOL    HW227261   3.844   1.546   9.153 -1.1096  0.4331 -1.5128
 5210SOL     OW27262   3.039   2.852   7.236 -0.1923  0.0776  0.3465
 5210SOL    HW127263   2.947   2.845   7.210 -1.1704  1.6731  3.3923
 5210SOL    HW227264   3.079   2.869   7.151  2.3527 -0.3495  1.4668
 5211SOL     OW27265   2.749   3.695  16.121  0.0088  0.7396 -0.1108
 5211SOL    HW127266   2.724   3.621  16.176  1.5067  0.0960 -0.2976
 5211SOL    HW227267   2.697   3.676  16.044  1.8131 -1.2086 -0.8269
 5212SOL     OW27268   2.849   1.926   3.156  0.1524  0.3734 -0.1209
 5212SOL    HW127269   2.825   1.952   3.245  1.4751  2.1633 -0.2881
 5212SOL    HW227270   2.776   1.958   3.103  0.2409  0.8826  0.0609
 5213SOL     OW27271   0.139   3.738  12.960  0.4764  0.0275  0.1563
 5213SOL    HW127272   0.115   3.665  13.016  0.1274  0.1184  0.1278
 5213SOL    HW227273   0.231   3.724  12.941  0.1722 -0.3824 -1.0288
 5214SOL     OW27274   1.988   3.097   2.967  0.0119 -0.1171 -0.5249
 5214SOL    HW127275   2.077   3.078   2.998  0.0912 -0.0972 -0.7320
 5214SOL    HW227276   1.948   3.017   3.001  0.4471 -0.8644 -1.7694
 5215SOL     OW27277   0.763   2.217   7.002  0.5993  0.5232  0.2353
 5215SOL    HW127278   0.823   2.287   7.028  1.2883 -0.0532  0.2057
 5215SOL    HW227279   0.675   2.253   7.012  0.6956  1.2946 -1.6481
 5216SOL     OW27280   1.305   0.604  12.430 -0.3168  0.2343 -0.0975
 5216SOL    HW127281   1.249   0.623  12.355  1.7091  0.7486 -1.4927
 5216SOL    HW227282   1.365   0.679  12.437  0.3187 -0.3356  0.6001
 5217SOL     OW27283   1.870   3.532   7.568  0.7047  1.0776  0.1462
 5217SOL    HW127284   1.800   3.467   7.571  2.8913 -1.3726 -1.9951
 5217SOL    HW227285   1.895   3.528   7.475  0.8530 -0.5863  0.2655
 5218SOL     OW27286   1.971   3.861   5.853 -0.3329 -0.0465  0.0897
 5218SOL    HW127287   2.034   3.837   5.921 -0.4503  0.2279  0.2998
 5218SOL    HW227288   1.914   3.785   5.860 -0.9413  0.3566 -0.4945
 5219SOL     OW27289   1.756   3.645   8.006 -0.3396 -0.6772 -0.2897
 5219SOL    HW127290   1.827   3.626   7.944  0.0341  2.4426 -0.7772
 5219SOL    HW227291   1.795   3.646   8.094 -2.1939  1.1879  0.5093
 5220SOL     OW27292   0.385   4.178  13.720  0.5473  0.0702 -0.3282
 5220SOL    HW127293   0.393   4.095  13.674 -2.9330  0.1035 -1.0208
 5220SOL    HW227294   0.290   4.190  13.733  0.9978  1.5485  1.5650
 5221SOL     OW27295   0.750   1.791   7.888  0.0234 -0.2621  0.2335
 5221SOL    HW127296   0.793   1.849   7.952  0.9410  0.5081 -1.0782
 5221SOL    HW227297   0.796   1.812   7.807 -1.2092  1.7911  0.0425
 5222SOL     OW27298   2.404   3.275  14.256 -0.5732  0.0797  0.1929
 5222SOL    HW127299   2.494   3.260  14.228 -0.8876  0.3364 -0.9528
 5222SOL    HW227300   2.373   3.322  14.178  2.4075 -0.3434 -1.2607
 5223SOL     OW27301   0.880   2.806  12.300  0.3176  0.1516 -0.2594
 5223SOL    HW127302   0.808   2.823  12.240  0.2702  0.3754 -0.1419
 5223SOL    HW227303   0.953   2.778  12.245  1.0174  0.1395  0.6522
 5224SOL     OW27304   3.815   1.804   0.780 -0.4203 -0.0393  0.3731
 5224SOL    HW127305   3.785   1.716   0.756  1.2636 -0.6149  0.3774
 5224SOL    HW227306   3.811   1.841   0.692 -1.7005 -0.2044  0.3591
 5225SOL     OW27307   1.218   0.931   3.791 -0.0927  0.2712 -0.4128
 5225SOL    HW127308   1.283   0.988   3.749  3.6351 -1.6181  2.7277
 5225SOL    HW227309   1.156   0.993   3.829  1.0793  1.1179  0.1219
 5226SOL     OW27310   3.055   0.170   4.198  0.4904 -0.4664  0.3127
 5226SOL    HW127311   3.091   0.213   4.276  2.2285  0.1662 -0.8299
 5226SOL    HW227312   3.015   0.244   4.153  0.4489 -1.4499 -1.2911
 5227SOL     OW27313   1.054   4.669  11.774 -0.3367 -1.0151  0.4614
 5227SOL    HW127314   1.018   4.661  11.686  2.4418 -2.1758 -0.5963
 5227SOL    HW227315   1.096   0.018  11.765 -1.0835 -0.6069  0.9178
 5228SOL     OW27316   1.520   2.652   6.092  0.3646  0.5922 -0.2562
 5228SOL    HW127317   1.504   2.629   6.184  0.0786  0.9332 -0.2211
 5228SOL    HW227318   1.592   2.715   6.105 -2.0896  3.1377  1.0525
 5229SOL     OW27319   2.495   1.479   5.413  0.5367 -0.1663 -0.4779
 5229SOL    HW127320   2.432   1.423   5.457 -0.7697  1.0179 -0.8543
 5229SOL    HW227321   2.565   1.487   5.477 -0.2709  1.6876  0.1754
 5230SOL     OW27322   1.064   0.287   4.370  0.0530 -0.3954  0.7572
 5230SOL    HW127323   1.064   0.370   4.418  0.5112  0.2997 -0.4380
 5230SOL    HW227324   1.117   0.228   4.425 -0.7285 -1.7288  0.0683
 5231SOL     OW27325   0.520   2.367   3.043  0.0070 -0.3639  0.2330
 5231SOL    HW127326   0.612   2.341   3.040 -0.3851 -1.7913  0.5742
 5231SOL    HW227327   0.483   2.297   3.098  1.3690 -0.9896  0.3501
 5232SOL     OW27328   0.323   1.686   3.669  0.0849 -0.6303 -0.7470
 5232SOL    HW127329   0.368   1.730   3.596  0.5599 -1.0696 -0.7181
 5232SOL    HW227330   0.268   1.759   3.699  1.6981  0.6761 -0.9679
 5233SOL     OW27331   3.795   2.256   8.898  0.4408 -0.2189 -0.1463
 5233SOL    HW127332   3.700   2.263   8.899  0.4709  0.2653 -0.4252
 5233SOL    HW227333   3.821   2.345   8.872 -1.5159  0.7222  1.1358
 5234SOL     OW27334   1.208   3.089  10.403  0.0127 -0.4462 -0.6398
 5234SOL    HW127335   1.280   3.143  10.437 -0.4068  0.2833 -0.9032
 5234SOL    HW227336   1.153   3.160  10.369 -1.7538 -0.6880  1.7231
 5235SOL     OW27337   4.328   0.001  15.904 -0.0193  0.0861 -0.2520
 5235SOL    HW127338   4.310   0.094  15.914 -2.6444 -0.4111 -0.1626
 5235SOL    HW227339   4.332   4.719  15.998 -0.2188 -2.1039 -0.6814
 5236SOL     OW27340   2.835   4.292   7.680  0.0010 -0.2384 -0.4369
 5236SOL    HW127341   2.861   4.264   7.768 -0.6881  0.2673 -0.0704
 5236SOL    HW227342   2.756   4.341   7.705  0.4134 -0.8405  2.0052
 5237SOL     OW27343   0.050   2.601   6.924  0.2109 -0.1078  0.0578
 5237SOL    HW127344   0.097   2.675   6.887  0.6627 -1.0193 -1.1591
 5237SOL    HW227345   0.112   2.529   6.929  1.1034  0.6238 -0.6784
 5238SOL     OW27346   1.490   4.199   6.470  0.1097  0.0453  0.5028
 5238SOL    HW127347   1.503   4.189   6.375 -0.0589 -2.9169  0.7990
 5238SOL    HW227348   1.558   4.138   6.501 -0.6235 -0.5804  0.8658
 5239SOL     OW27349   2.540   0.156   0.677 -0.1451  0.0436  0.4175
 5239SOL    HW127350   2.475   0.173   0.608 -1.8486  0.8122  2.2151
 5239SOL    HW227351   2.594   0.096   0.626 -1.3124 -2.3892  2.0341
 5240SOL     OW27352   4.610   3.340   6.208 -0.2787  0.0573 -0.1246
 5240SOL    HW127353   4.683   3.279   6.218 -0.8125 -0.2180  2.2490
 5240SOL    HW227354   4.657   3.412   6.166 -1.9214  0.5732 -1.0791
 5241SOL     OW27355   0.522   3.162   7.991  0.3669 -0.4279  0.3874
 5241SOL    HW127356   0.522   3.074   7.954  1.8846 -0.2146 -0.0924
 5241SOL    HW227357   0.612   3.190   7.975  0.1873 -0.6203 -0.9637
 5242SOL     OW27358   4.598   4.188  12.032  0.1286  0.1425  0.6230
 5242SOL    HW127359   4.584   4.276  12.067  0.9463 -0.2530  1.9636
 5242SOL    HW227360   4.694   4.185  12.031  0.1300  0.5372 -0.2258
 5243SOL     OW27361   0.651   3.527   6.363 -0.5647 -0.7382 -0.0965
 5243SOL    HW127362   0.569   3.552   6.323  0.2365 -0.4289 -1.5467
 5243SOL    HW227363   0.638   3.437   6.395 -1.1740 -0.8154 -0.5695
 5244SOL     OW27364   4.103   2.260   5.505 -0.4513  0.0308 -0.1180
 5244SOL    HW127365   4.173   2.295   5.560 -1.1758  1.0019  0.1893
 5244SOL    HW227366   4.068   2.199   5.569  0.1314  0.8760  1.0068
 5245SOL     OW27367   0.968   4.209   9.175 -0.1102 -0.5447 -0.2763
 5245SOL    HW127368   0.938   4.227   9.086  2.0249 -0.2664 -0.9369
 5245SOL    HW227369   1.052   4.171   9.148  2.3562  2.8038  2.6470
 5246SOL     OW27370   0.439   0.706   1.763 -0.4536 -0.3983 -0.5278
 5246SOL    HW127371   0.520   0.725   1.716  0.8382  0.1124  1.8901
 5246SOL    HW227372   0.383   0.780   1.742 -2.1560 -1.3667  0.5517
 5247SOL     OW27373   1.158   1.157  13.231 -0.0366 -0.3214 -0.4121
 5247SOL    HW127374   1.219   1.195  13.167 -1.3211  1.1566 -0.7809
 5247SOL    HW227375   1.069   1.168  13.196 -0.9099 -2.9564  0.9935
 5248SOL     OW27376   0.272   1.522   6.530  0.2458 -0.6319  0.3658
 5248SOL    HW127377   0.216   1.532   6.453 -1.1988  0.0704  1.5212
 5248SOL    HW227378   0.232   1.453   6.583  3.2807 -2.0058  0.8343
 5249SOL     OW27379   0.987   3.028  15.631  0.7762 -0.0766  0.2229
 5249SOL    HW127380   1.079   3.007  15.620  0.4545 -1.8994  1.1077
 5249SOL    HW227381   0.993   3.120  15.658  1.3312 -0.1718  0.4083
 5250SOL     OW27382   0.497   0.301  16.909  0.0088 -0.3104  0.3028
 5250SOL    HW127383   0.572   0.262  16.953 -0.3373 -2.3707 -0.9268
 5250SOL    HW227384   0.451   0.331  16.987 -2.9972 -0.5532 -1.3476
 5251SOL     OW27385   2.814   0.358   6.414  0.1582  0.0244  0.3832
 5251SOL    HW127386   2.890   0.393   6.461  0.8696 -1.6943  0.5151
 5251SOL    HW227387   2.762   0.436   6.397  3.1131  2.0479  0.6454
 5252SOL     OW27388   0.847   3.594   1.151  0.3635 -0.6082 -0.4557
 5252SOL    HW127389   0.936   3.628   1.144 -0.3596  1.5397  0.9673
 5252SOL    HW227390   0.823   3.640   1.232 -2.2216 -3.2288  0.2598
 5253SOL     OW27391   2.314   0.444   5.492 -0.5720 -0.4628  0.1258
 5253SOL    HW127392   2.316   0.452   5.587 -2.0152 -1.6792  0.2552
 5253SOL    HW227393   2.366   0.522   5.473 -1.3998  0.6610  2.4702
 5254SOL     OW27394   2.043   2.161   5.174  0.0100 -0.4763  0.4558
 5254SOL    HW127395   1.956   2.197   5.189 -0.0011 -0.8446  1.2784
 5254SOL    HW227396   2.060   2.207   5.092 -2.2295 -0.6423 -0.0979
 5255SOL     OW27397   1.659   2.045   8.097 -0.6899  0.0816  0.1400
 5255SOL    HW127398   1.657   2.039   8.192  1.5965 -1.3565  0.0850
 5255SOL    HW227399   1.691   1.960   8.070  0.2814  0.3465  0.4783
 5256SOL     OW27400   3.069   3.122  15.276 -0.1967  0.6642 -0.4135
 5256SOL    HW127401   3.024   3.061  15.218  1.3642  0.6979 -1.6623
 5256SOL    HW227402   3.047   3.092  15.364  0.2177  0.2032 -0.4633
 5257SOL     OW27403   0.965   2.740   1.159 -0.1529 -0.9118  0.5744
 5257SOL    HW127404   0.878   2.729   1.198 -0.9556  3.8552  0.1909
 5257SOL    HW227405   0.952   2.730   1.065 -0.5604  0.3807  0.4876
 5258SOL     OW27406   4.614   2.425  17.426  0.0634  0.0923  0.2431
 5258SOL    HW127407   4.537   2.482  17.419  0.5041  0.3988 -2.0403
 5258SOL    HW227408   4.673   2.469  17.366  0.6430  0.6267  1.1937
 5259SOL     OW27409   3.558   4.444   7.920  0.1589 -0.2582  0.3849
 5259SOL    HW127410   3.564   4.399   7.835  2.0083 -0.7295  0.7769
 5259SOL    HW227411   3.463   4.433   7.927  0.3836 -1.7527  1.0804
 5260SOL     OW27412   3.236   4.441   8.406  0.4621  0.1976 -0.3643
 5260SOL    HW127413   3.305   4.376   8.419  1.1509  0.4570 -2.7882
 5260SOL    HW227414   3.205   4.474   8.491  1.9799  0.2430  0.1669
 5261SOL     OW27415   0.515   3.486   9.344  0.2830  0.6177  0.4367
 5261SOL    HW127416   0.421   3.496   9.335  0.5403 -0.1084 -2.9747
 5261SOL    HW227417   0.518   3.392   9.328 -0.2678  0.7281 -0.3121
 5262SOL     OW27418   4.417   3.712   4.083  0.9659  0.4566 -0.1478
 5262SOL    HW127419   4.443   3.794   4.126 -1.0247  1.2348 -0.3931
 5262SOL    HW227420   4.464   3.715   4.000 -0.2078 -2.3827 -0.9142
 5263SOL     OW27421   1.348   2.156  17.211 -0.4370 -0.0133  0.3215
 5263SOL    HW127422   1.307   2.090  17.156  1.9587 -0.7581 -0.5692
 5263SOL    HW227423   1.352   2.234  17.155  0.1042 -0.4591 -0.2583
 5264SOL     OW27424   1.278   2.933   8.397  0.3490 -0.1863 -0.3831
 5264SOL    HW127425   1.290   2.937   8.302  0.6293  0.9542 -0.2983
 5264SOL    HW227426   1.216   3.005   8.403  0.3594 -0.3388  1.6845
 5265SOL     OW27427   3.911   0.855   4.229 -0.0572  0.4875 -0.0467
 5265SOL    HW127428   3.952   0.831   4.145 -1.0214  2.1351 -0.9766
 5265SOL    HW227429   3.907   0.950   4.218  2.7102  0.7161  0.7800
 5266SOL     OW27430   3.916   1.519   0.370  0.3650  0.1954 -0.1970
 5266SOL    HW127431   3.958   1.553   0.449  0.2309  1.1954 -0.5562
 5266SOL    HW227432   3.823   1.534   0.385  0.2833  1.5944 -2.0473
 5267SOL     OW27433   4.006   1.863   8.941 -0.2785  0.0822  0.1820
 5267SOL    HW127434   3.944   1.812   8.889 -0.7144 -0.1374  0.9180
 5267SOL    HW227435   3.980   1.950   8.911  0.5343  0.2988  0.1069
 5268SOL     OW27436   0.927   1.237   4.744 -0.1901  0.1864  0.2257
 5268SOL    HW127437   0.874   1.275   4.674  0.8439  0.0077 -0.6518
 5268SOL    HW227438   0.935   1.145   4.717 -0.3656  0.7867 -1.9118
 5269SOL     OW27439   1.162   2.721   7.310  0.6460  1.1590 -0.0497
 5269SOL    HW127440   1.226   2.661   7.348  0.9045  0.7830 -1.0907
 5269SOL    HW227441   1.195   2.810   7.321  1.9453  0.7622 -0.7654
 5270SOL     OW27442   3.389   1.786   3.286  0.3281  0.6059  0.4453
 5270SOL    HW127443   3.430   1.702   3.307 -1.5623 -0.6821 -1.0067
 5270SOL    HW227444   3.303   1.751   3.310  0.6675 -1.4710 -1.3908
 5271SOL     OW27445   0.844   0.554   6.418 -1.0689 -0.1024  0.5830
 5271SOL    HW127446   0.922   0.599   6.451  0.1097 -1.5848 -0.2107
 5271SOL    HW227447   0.830   0.579   6.327 -2.0840 -0.3585  0.6760
 5272SOL     OW27448   1.372   3.350   3.082 -0.5106  0.0580  0.0253
 5272SOL    HW127449   1.371   3.430   3.136  0.0404  0.6146 -0.7932
 5272SOL    HW227450   1.279   3.335   3.064 -0.7468  2.7285 -1.0414
 5273SOL     OW27451   2.775   0.879   3.702 -0.1181 -0.1256 -0.7459
 5273SOL    HW127452   2.818   0.834   3.629 -0.2152  0.2522 -1.0317
 5273SOL    HW227453   2.850   0.884   3.762 -1.6012 -1.2392  1.2160
 5274SOL     OW27454   1.939   0.168   8.098 -0.1709 -0.5163 -0.1521
 5274SOL    HW127455   1.928   0.105   8.027  0.0120 -1.0818  0.3218
 5274SOL    HW227456   1.991   0.112   8.156 -0.9512 -0.0583  0.9829
 5275SOL     OW27457   2.666   2.046   4.436 -0.3738 -0.3452 -0.3984
 5275SOL    HW127458   2.613   2.022   4.512 -0.0066 -1.6756 -0.5658
 5275SOL    HW227459   2.607   2.104   4.388  1.1129  0.8647 -0.7561
 5276SOL     OW27460   0.268   4.649  10.849 -0.1801  0.4510 -0.5765
 5276SOL    HW127461   0.346   4.703  10.857  0.6495 -0.5799 -1.7920
 5276SOL    HW227462   0.288   4.573  10.905  0.9974  0.2633 -1.2540
 5277SOL     OW27463   2.279   1.787   3.678  0.4943  0.2120  0.2050
 5277SOL    HW127464   2.223   1.789   3.755 -0.1438  0.4617 -0.2701
 5277SOL    HW227465   2.221   1.815   3.607  1.7186 -2.1500 -1.7643
 5278SOL     OW27466   4.205   2.186   2.185 -0.3517 -0.4860 -0.1297
 5278SOL    HW127467   4.195   2.278   2.213  2.5315 -0.4302  0.6474
 5278SOL    HW227468   4.174   2.189   2.094 -0.1345  1.0083 -0.1554
 5279SOL     OW27469   2.747   3.413   6.637 -0.2576 -0.0808 -0.5553
 5279SOL    HW127470   2.722   3.322   6.620 -1.3294  0.2290 -0.6320
 5279SOL    HW227471   2.666   3.462   6.633 -0.1446  0.3757  3.1472
 5280SOL     OW27472   2.317   2.338   8.059 -0.3312  0.6859  0.0120
 5280SOL    HW127473   2.262   2.331   7.981 -1.4836  0.2574  0.8551
 5280SOL    HW227474   2.312   2.246   8.083  2.5537 -0.0296 -2.1093
 5281SOL     OW27475   3.609   2.721  12.551  0.3413  0.0506 -0.1060
 5281SOL    HW127476   3.650   2.681  12.474 -0.6831 -2.5975  0.7031
 5281SOL    HW227477   3.576   2.643  12.597  0.4331  0.2333  0.2676
 5282SOL     OW27478   1.185   4.450  17.572  0.0105  0.0825  0.4157
 5282SOL    HW127479   1.158   4.406  17.491  1.2696 -0.4559  0.2888
 5282SOL    HW227480   1.276   4.420  17.568 -0.5427 -1.5068 -0.7331
 5283SOL     OW27481   0.388   4.161   0.663 -0.1216  0.0783  0.7912
 5283SOL    HW127482   0.325   4.132   0.598 -1.5555 -0.7773  2.5738
 5283SOL    HW227483   0.361   4.109   0.739 -1.2707  0.5418  0.6921
 5284SOL     OW27484   0.507   4.461   4.283  0.7058  0.5230 -0.3178
 5284SOL    HW127485   0.524   4.481   4.191 -0.3112 -2.1622 -1.0555
 5284SOL    HW227486   0.552   4.377   4.285  0.6911  0.5086 -0.6419
 5285SOL     OW27487   1.220   4.372   9.372  0.6482 -0.5908  0.0139
 5285SOL    HW127488   1.172   4.420   9.439  0.3239 -1.0856  0.1442
 5285SOL    HW227489   1.201   4.281   9.396 -0.6557  0.1118  1.6467
 5286SOL     OW27490   3.720   0.328   8.680  0.5150  0.3282 -0.0447
 5286SOL    HW127491   3.693   0.294   8.765 -0.9171 -1.8682 -1.3789
 5286SOL    HW227492   3.804   0.370   8.698  0.1825  1.4902 -1.2238
 5287SOL     OW27493   3.839   3.486  10.578  0.1858  0.3575 -0.0222
 5287SOL    HW127494   3.834   3.549  10.506  1.8630  0.2369 -0.2301
 5287SOL    HW227495   3.820   3.536  10.657  1.8839  0.0461  0.5670
 5288SOL     OW27496   1.716   1.265   2.101 -0.5922  0.4757 -0.4200
 5288SOL    HW127497   1.675   1.301   2.021 -1.1337 -0.1973 -0.4509
 5288SOL    HW227498   1.794   1.229   2.059 -0.0029 -1.0939  2.0777
 5289SOL     OW27499   3.132   1.943   9.826 -0.5031 -0.2973 -0.4239
 5289SOL    HW127500   3.079   2.007   9.779 -0.0467 -0.9569 -1.8424
 5289SOL    HW227501   3.180   1.907   9.751 -0.5010 -3.1020  0.9385
 5290SOL     OW27502   3.542   4.072   9.941  0.7891  0.4037  0.7057
 5290SOL    HW127503   3.503   3.985   9.931 -1.6047  1.3841  1.5528
 5290SOL    HW227504   3.562   4.074  10.034 -1.5139  0.7609  1.1878
 5291SOL     OW27505   2.225   1.074   5.139  0.3228 -0.4013  0.0348
 5291SOL    HW127506   2.158   1.068   5.207  0.7537 -1.4024  0.3710
 5291SOL    HW227507   2.168   1.058   5.064 -1.1592  1.9219  0.6614
 5292SOL     OW27508   3.643   0.075   6.818  0.2691  0.0536  0.1825
 5292SOL    HW127509   3.616   0.089   6.727  2.2678 -1.1099 -0.5961
 5292SOL    HW227510   3.716   0.137   6.829  0.9336 -0.3812 -1.7540
 5293SOL     OW27511   2.615   4.262   4.858  0.0141 -0.6120  0.1091
 5293SOL    HW127512   2.592   4.178   4.820 -1.8890 -0.8451  1.7651
 5293SOL    HW227513   2.544   4.317   4.826  0.3572  0.3764  1.0247
 5294SOL     OW27514   2.654   1.561   5.613 -0.3106 -0.3727  0.4302
 5294SOL    HW127515   2.679   1.585   5.703 -1.9754  2.7889  0.0658
 5294SOL    HW227516   2.721   1.622   5.582 -0.1804 -2.0027 -2.3946
 5295SOL     OW27517   0.617   3.986  17.264 -0.3525 -0.1136 -0.6004
 5295SOL    HW127518   0.551   4.036  17.214 -1.9097 -1.8684 -0.3091
 5295SOL    HW227519   0.624   4.045  17.338 -0.6668 -1.2617  0.3419
 5296SOL     OW27520   0.141   0.378   5.200  0.0230 -0.4299 -0.1234
 5296SOL    HW127521   0.144   0.314   5.129  0.5908 -1.6904  1.0303
 5296SOL    HW227522   0.047   0.393   5.193  0.0855  0.3675  0.7124
 5297SOL     OW27523   2.183   3.550   2.355  0.4062 -0.3726 -0.0244
 5297SOL    HW127524   2.238   3.582   2.427  1.8680 -0.5215 -1.0693
 5297SOL    HW227525   2.095   3.530   2.386  1.1907 -1.8151  1.2942
 5298SOL     OW27526   2.849   0.399  10.025 -0.3395 -0.0156 -0.6463
 5298SOL    HW127527   2.828   0.385  10.117  0.0325 -1.1273 -0.7321
 5298SOL    HW227528   2.872   0.309  10.001  2.2062  0.4189  0.1440
 5299SOL     OW27529   3.912   4.160   9.046  0.3442  0.6564  0.5743
 5299SOL    HW127530   3.971   4.135   8.974  0.4538  1.1752  0.4766
 5299SOL    HW227531   3.961   4.141   9.126 -0.0107 -2.6009  0.0165
 5300SOL     OW27532   1.003   2.218   0.669 -0.2895 -0.0164 -0.1202
 5300SOL    HW127533   1.080   2.250   0.621  0.7648  0.0162  1.5715
 5300SOL    HW227534   0.973   2.146   0.615 -3.5372  1.8672 -0.8232
 5301SOL     OW27535   4.556   0.380   2.803  0.1223 -0.2959 -0.3499
 5301SOL    HW127536   4.557   0.291   2.768 -0.7389 -0.4729  0.0625
 5301SOL    HW227537   4.471   0.410   2.771  0.2982  1.0580  0.4400
 5302SOL     OW27538   4.384   2.409   7.849 -0.2286  0.3979 -0.0246
 5302SOL    HW127539   4.348   2.459   7.922 -0.5271 -0.6961  0.5777
 5302SOL    HW227540   4.306   2.379   7.801 -0.6253  0.2533  0.7167
 5303SOL     OW27541   0.428   0.242   2.124 -0.5548  0.0142  0.0191
 5303SOL    HW127542   0.392   0.194   2.049  0.6554 -0.1812 -0.4476
 5303SOL    HW227543   0.454   0.162   2.169 -0.0226 -0.4768 -1.1583
 5304SOL     OW27544   1.697   4.116   6.855  0.6492 -0.2382  0.4759
 5304SOL    HW127545   1.610   4.080   6.873 -1.5625  3.4703 -2.7988
 5304SOL    HW227546   1.760   4.056   6.894  0.0261 -0.9575  0.3827
 5305SOL     OW27547   3.846   2.761   7.430  0.2615  0.9386  1.1159
 5305SOL    HW127548   3.853   2.700   7.356 -0.4993  0.2202  1.6323
 5305SOL    HW227549   3.850   2.846   7.386  0.7326 -0.1800 -1.0082
 5306SOL     OW27550   1.534   2.788   7.670  0.0945  0.0391 -0.1179
 5306SOL    HW127551   1.479   2.864   7.684 -2.1062 -1.5106 -0.4143
 5306SOL    HW227552   1.469   2.719   7.656  0.9575 -0.6313 -0.8685
 5307SOL     OW27553   1.070   2.339   8.020  0.0241  0.3843  0.0522
 5307SOL    HW127554   1.053   2.350   7.926  0.1039  2.1649  0.2449
 5307SOL    HW227555   1.004   2.394   8.064  1.3998 -0.0640  2.6747
 5308SOL     OW27556   0.870   2.145  11.800 -0.3303 -0.1602  0.5618
 5308SOL    HW127557   0.957   2.177  11.820  0.1772 -0.2405 -1.4806
 5308SOL    HW227558   0.886   2.096  11.719  0.1668  0.5524  0.2369
 5309SOL     OW27559   4.430   1.640  12.910 -0.1249  0.0833 -0.2327
 5309SOL    HW127560   4.461   1.582  12.979  1.5517  0.4869 -0.6581
 5309SOL    HW227561   4.387   1.702  12.969 -0.5929 -1.0226  0.5937
 5310SOL     OW27562   1.850   4.044   8.032  0.1805  0.0717  0.0512
 5310SOL    HW127563   1.895   4.001   8.105  0.9220  0.2359 -0.3095
 5310SOL    HW227564   1.881   4.134   8.039 -1.6405  0.6225  0.9533
 5311SOL     OW27565   3.770   2.508   8.805 -0.1469  0.0998 -0.2309
 5311SOL    HW127566   3.751   2.595   8.839  2.6591  0.2761  0.8423
 5311SOL    HW227567   3.716   2.516   8.726 -1.9961 -2.9772  0.7320
 5312SOL     OW27568   1.165   0.609   0.475 -0.3697  0.4771 -0.9335
 5312SOL    HW127569   1.186   0.560   0.555  1.4203  4.4448  1.0047
 5312SOL    HW227570   1.243   0.662   0.463  0.2290  0.3512  2.2717
 5313SOL     OW27571   1.256   4.692  15.571 -0.1641 -1.2883 -0.2661
 5313SOL    HW127572   1.313   4.682  15.495  1.5492 -1.9690  1.1010
 5313SOL    HW227573   1.258   4.604  15.609  1.5045 -1.9041 -1.7759
 5314SOL     OW27574   3.714   0.364   4.625  0.5917  0.4067  0.0628
 5314SOL    HW127575   3.746   0.279   4.655  1.1909  1.1063  1.3965
 5314SOL    HW227576   3.703   0.340   4.533  1.2476 -0.5179  0.2309
 5315SOL     OW27577   3.654   1.103   8.391 -0.3545 -0.2482 -0.5507
 5315SOL    HW127578   3.691   1.179   8.435  2.8655 -1.9888 -0.1775
 5315SOL    HW227579   3.733   1.052   8.368  0.5430 -0.2867  2.5518
 5316SOL     OW27580   4.032   2.223  13.785  0.1915  0.1083  0.1798
 5316SOL    HW127581   3.952   2.254  13.744  1.5075  4.8833  1.2079
 5316SOL    HW227582   3.994   2.174  13.858  0.7914 -0.0763  0.3767
 5317SOL     OW27583   0.049   2.580   6.257 -0.2586 -0.2689  0.6608
 5317SOL    HW127584   0.055   2.508   6.321  1.0206 -1.4936 -0.8375
 5317SOL    HW227585   0.126   2.631   6.283 -0.2495 -0.2073  0.5089
 5318SOL     OW27586   4.402   0.064   5.947 -0.4088 -0.6295  0.1204
 5318SOL    HW127587   4.485   0.059   5.994  0.8673  0.3675 -2.0472
 5318SOL    HW227588   4.350   0.027   6.019  1.0876 -2.3139  0.3464
 5319SOL     OW27589   1.013   2.590   6.766  0.2732 -0.2601  0.5147
 5319SOL    HW127590   1.002   2.667   6.822  0.5265  0.2728 -0.1680
 5319SOL    HW227591   0.960   2.616   6.691  0.3208 -1.8114 -0.0550
 5320SOL     OW27592   0.020   1.725  16.645  0.6337  0.1495  0.3877
 5320SOL    HW127593   4.712   1.644  16.620 -0.4046  0.5065  1.0893
 5320SOL    HW227594   0.113   1.704  16.647  1.3882  3.7999  2.9011
 5321SOL     OW27595   4.222   2.216  10.346  0.3290  0.2401  1.0161
 5321SOL    HW127596   4.257   2.142  10.298 -0.8491  1.8754 -2.3487
 5321SOL    HW227597   4.289   2.227  10.413  0.1045  2.7127  0.8267
 5322SOL     OW27598   3.736   2.039   9.087 -0.3539 -0.2233 -0.0867
 5322SOL    HW127599   3.742   2.113   9.027 -0.8959  0.5860  0.8599
 5322SOL    HW227600   3.661   2.070   9.138 -0.4618  0.1679 -0.4889
 5323SOL     OW27601   4.731   1.703   2.099 -0.4177  0.1892  0.6184
 5323SOL    HW127602   4.663   1.695   2.166 -1.2642 -3.8714 -0.7711
 5323SOL    HW227603   4.690   1.764   2.038  1.9170  0.5580 -0.5643
 5324SOL     OW27604   2.856   0.717   4.233  0.4284 -0.2361 -0.0722
 5324SOL    HW127605   2.872   0.810   4.250 -1.1742  0.0143  0.0411
 5324SOL    HW227606   2.913   0.676   4.297 -1.1095 -0.4135  1.1883
 5325SOL     OW27607   0.470   3.410   6.787  0.1461 -0.0945  0.3613
 5325SOL    HW127608   0.423   3.355   6.849 -0.3057  1.1842  1.1728
 5325SOL    HW227609   0.563   3.410   6.813  0.1961 -2.4811  0.1396
 5326SOL     OW27610   0.728   2.685  13.092  0.0033 -0.1961  0.3825
 5326SOL    HW127611   0.821   2.704  13.084 -0.0832  0.5152  1.0279
 5326SOL    HW227612   0.695   2.761  13.142  1.0892 -1.9745  3.7794
 5327SOL     OW27613   2.914   1.684   1.029 -0.2514 -0.0493 -0.6246
 5327SOL    HW127614   2.929   1.590   1.027  0.2723 -0.0042  2.5312
 5327SOL    HW227615   2.873   1.689   1.115 -0.3231 -2.2462 -0.5325
 5328SOL     OW27616   2.580   4.203   7.000  0.1079  0.2250 -0.1586
 5328SOL    HW127617   2.548   4.225   7.088  3.2313 -1.2324  1.3179
 5328SOL    HW227618   2.517   4.142   6.963 -1.0526  1.7840 -0.7840
 5329SOL     OW27619   0.033   2.324   0.031  0.2577 -0.6554  0.2719
 5329SOL    HW127620   0.107   2.268   0.006  0.2166 -1.1331  1.2346
 5329SOL    HW227621   4.722   2.312  17.696 -0.1050  1.3412  0.2086
 5330SOL     OW27622   3.837   0.761   6.394 -0.4745 -0.1557 -0.3725
 5330SOL    HW127623   3.790   0.831   6.440  1.1685  3.1906 -3.7557
 5330SOL    HW227624   3.771   0.741   6.328  0.6070  0.0419 -1.5228
 5331SOL     OW27625   0.609   3.272   6.239  0.5768 -0.1381  0.9273
 5331SOL    HW127626   0.523   3.296   6.205  2.0736  1.1474 -1.9434
 5331SOL    HW227627   0.569   3.251   6.323 -0.1583 -1.8861  0.1422
 5332SOL     OW27628   3.630   1.371  11.674  1.1300  0.1234  0.0359
 5332SOL    HW127629   3.562   1.437  11.658  0.7135  0.0800  1.6284
 5332SOL    HW227630   3.696   1.391  11.608  0.8387  2.9761  0.6211
 5333SOL     OW27631   0.326   0.837   3.562  0.5080  0.1044  0.0130
 5333SOL    HW127632   0.355   0.920   3.599  0.1373  0.5834 -0.7586
 5333SOL    HW227633   0.259   0.872   3.503  0.0227 -0.2403  0.3600
 5334SOL     OW27634   1.732   3.437   8.578 -0.1059 -0.2168 -0.1523
 5334SOL    HW127635   1.661   3.428   8.641  0.3331  1.0867  0.5353
 5334SOL    HW227636   1.801   3.387   8.622 -1.7086  0.1050  2.7447
 5335SOL     OW27637   2.677   1.260   4.348  0.5217 -0.3236  0.0555
 5335SOL    HW127638   2.643   1.171   4.340 -1.3259  0.4546 -0.7522
 5335SOL    HW227639   2.677   1.294   4.259  2.4310 -0.6560 -0.0628
 5336SOL     OW27640   3.579   3.819   2.167 -0.1609  0.0384  0.1302
 5336SOL    HW127641   3.656   3.811   2.110  0.1058  0.3425  0.4507
 5336SOL    HW227642   3.504   3.813   2.108 -0.9444 -1.8077  1.3287
 5337SOL     OW27643   3.420   1.465  14.196 -0.5231  0.5015 -0.0691
 5337SOL    HW127644   3.462   1.517  14.264 -0.8670  0.9567 -0.2015
 5337SOL    HW227645   3.404   1.380  14.237  0.0228  0.0290 -0.8234
 5338SOL     OW27646   0.614   3.718   0.073  0.1513 -0.6124  0.2902
 5338SOL    HW127647   0.532   3.749   0.035 -0.0911  0.1463  1.4095
 5338SOL    HW227648   0.633   3.639   0.023  1.0528  0.9359 -1.7737
 5339SOL     OW27649   4.401   1.579   8.577  0.3872  0.5686 -0.0034
 5339SOL    HW127650   4.368   1.550   8.662  0.0913 -0.1703 -0.3744
 5339SOL    HW227651   4.495   1.574   8.594  0.5301  1.3456 -0.5642
 5340SOL     OW27652   2.327   0.370   5.968  0.4558  0.2431 -0.1665
 5340SOL    HW127653   2.348   0.423   5.891 -0.0009 -0.3982 -0.7412
 5340SOL    HW227654   2.281   0.296   5.927  0.9526 -0.0509 -0.1880
 5341SOL     OW27655   4.279   2.780   9.881 -0.5490  0.5490  0.0286
 5341SOL    HW127656   4.219   2.707   9.871  0.4908 -0.5606  1.9490
 5341SOL    HW227657   4.365   2.740   9.869 -0.3155  0.5702  1.5624
 5342SOL     OW27658   0.596   1.747   9.609  0.1081  0.0360 -0.4383
 5342SOL    HW127659   0.665   1.693   9.647  0.8471 -0.8117 -3.0038
 5342SOL    HW227660   0.601   1.821   9.669  1.9662 -0.6309  0.2056
 5343SOL     OW27661   0.675   2.347   4.938  0.6296  0.5007 -0.1955
 5343SOL    HW127662   0.740   2.281   4.913 -1.1644 -1.0073 -0.8233
 5343SOL    HW227663   0.683   2.339   5.033 -1.4137 -2.0935 -0.2669
 5344SOL     OW27664   0.593   3.981   2.968  0.2474 -0.0945  0.0949
 5344SOL    HW127665   0.559   4.035   2.896  0.6686 -1.8127 -1.3873
 5344SOL    HW227666   0.568   4.033   3.044  0.0760 -1.0182  0.6705
 5345SOL     OW27667   0.090   0.774   8.697  0.4758  0.0318  0.0839
 5345SOL    HW127668   0.119   0.773   8.789 -0.5074  1.1058  0.4080
 5345SOL    HW227669   0.102   0.865   8.672  1.1465  0.6532  2.6454
 5346SOL     OW27670   1.599   0.600  11.425 -0.4893 -0.0969 -0.0692
 5346SOL    HW127671   1.664   0.530  11.417  1.2154  1.5306 -0.2573
 5346SOL    HW227672   1.627   0.635  11.509 -1.0276 -0.9195  0.4581
 5347SOL     OW27673   4.065   0.148   3.488  0.4126 -0.0669  0.1305
 5347SOL    HW127674   4.042   0.110   3.403  0.5898 -1.3498  0.6543
 5347SOL    HW227675   4.160   0.139   3.495  0.6504  1.7046 -0.7443
 5348SOL     OW27676   3.269   2.958  15.829  0.4061 -0.2130  0.4460
 5348SOL    HW127677   3.302   2.987  15.744  0.4979  1.8002  1.1771
 5348SOL    HW227678   3.291   2.864  15.831  1.0786 -0.0661 -0.1502
 5349SOL     OW27679   3.092   0.766   8.512  0.0495 -0.7359 -0.6457
 5349SOL    HW127680   3.068   0.824   8.439  1.9099 -1.0189 -1.4796
 5349SOL    HW227681   3.153   0.716   8.457  0.3941 -1.3819  0.3319
 5350SOL     OW27682   3.634   4.262   9.066  0.2424 -0.0208 -0.1364
 5350SOL    HW127683   3.624   4.220   9.151  0.8838  0.2591  0.0838
 5350SOL    HW227684   3.728   4.246   9.056  0.1536  0.1791 -1.2795
 5351SOL     OW27685   0.451   1.148   9.884 -0.5167  0.2911  0.2907
 5351SOL    HW127686   0.520   1.189   9.832  0.5746 -2.7128 -0.6534
 5351SOL    HW227687   0.489   1.063   9.904 -0.7388  0.0457 -0.3044
 5352SOL     OW27688   4.429   3.099  13.525 -0.0404 -0.6801 -0.0948
 5352SOL    HW127689   4.417   3.192  13.546  1.1656 -0.3417 -0.8503
 5352SOL    HW227690   4.425   3.054  13.610 -2.3419 -1.1490 -0.4711
 5353SOL     OW27691   2.242   0.698   7.652  0.2318  0.2978 -0.5660
 5353SOL    HW127692   2.257   0.757   7.578 -3.3673  1.5148 -0.3069
 5353SOL    HW227693   2.178   0.635   7.619  0.6094 -0.5721  0.3463
 5354SOL     OW27694   1.040   2.889   6.803  0.3284  0.1659 -0.3725
 5354SOL    HW127695   1.105   2.944   6.758  0.4563  0.2996 -0.0179
 5354SOL    HW227696   0.978   2.866   6.734 -0.1479  0.7921 -0.1546
 5355SOL     OW27697   3.333   0.149   0.383  0.3371 -0.3564  0.3803
 5355SOL    HW127698   3.387   0.208   0.330 -1.0837 -0.1840 -0.8627
 5355SOL    HW227699   3.328   0.078   0.320  1.1357  0.3381 -0.4624
 5356SOL     OW27700   2.378   3.322   8.116  0.5187  0.4000  0.5544
 5356SOL    HW127701   2.401   3.269   8.041  1.5680  1.1648  0.3321
 5356SOL    HW227702   2.310   3.374   8.075  1.1026 -0.4565 -1.4950
 5357SOL     OW27703   4.652   4.410   5.643  0.4469  0.1663  0.1010
 5357SOL    HW127704   4.651   4.384   5.550 -0.4931  0.3337  0.0614
 5357SOL    HW227705   4.728   4.358   5.668  0.4333 -0.5986 -1.4217
 5358SOL     OW27706   2.486   1.448  10.754 -0.0710 -0.3970 -0.6579
 5358SOL    HW127707   2.518   1.422  10.667  2.1423 -1.1466  0.3630
 5358SOL    HW227708   2.412   1.504  10.731 -2.1316 -2.6682  0.4829
 5359SOL     OW27709   0.654   0.200  13.701  0.0292 -0.0915  0.0466
 5359SOL    HW127710   0.726   0.262  13.687 -0.6089  0.5298 -0.4877
 5359SOL    HW227711   0.657   0.149  13.620 -0.3080  1.5680 -1.0116
 5360SOL     OW27712   2.348   4.691   4.752  0.3337  0.1447 -0.0399
 5360SOL    HW127713   2.414   4.637   4.708  0.3113 -2.4613  3.1140
 5360SOL    HW227714   2.275   4.699   4.690  1.0316 -1.4427 -1.0728
 5361SOL     OW27715   3.855   2.122  13.095  0.1365 -0.2461 -0.4342
 5361SOL    HW127716   3.912   2.193  13.125  1.0117 -0.5114 -1.4893
 5361SOL    HW227717   3.793   2.171  13.040  2.4943  3.3459  0.0743
 5362SOL     OW27718   0.508   4.213   5.332  0.4428  0.4222  0.0787
 5362SOL    HW127719   0.527   4.240   5.422  0.6239  1.8262 -0.3760
 5362SOL    HW227720   0.568   4.269   5.283 -0.9975  1.6012 -0.3208
 5363SOL     OW27721   3.928   3.561  11.316 -0.3548  0.0015 -0.0692
 5363SOL    HW127722   4.019   3.568  11.347 -1.0942 -1.2219  2.4402
 5363SOL    HW227723   3.895   3.496  11.379  0.8836 -0.9105 -0.3501
 5364SOL     OW27724   3.654   3.167   3.146  0.1098 -0.6930 -0.2511
 5364SOL    HW127725   3.664   3.216   3.064 -0.5003 -2.9516 -1.6722
 5364SOL    HW227726   3.575   3.211   3.180  0.2557 -1.6455  1.3022
 5365SOL     OW27727   2.827   1.482  12.399 -0.3118  0.4924  0.1688
 5365SOL    HW127728   2.909   1.436  12.381  0.3210  1.2975  0.9779
 5365SOL    HW227729   2.769   1.407  12.390  1.2002 -0.6759  0.1646
 5366SOL     OW27730   2.008   3.819  10.590 -0.2349  0.0182 -0.1898
 5366SOL    HW127731   2.039   3.730  10.573 -0.1504  0.0578 -0.2437
 5366SOL    HW227732   1.953   3.846  10.517  0.2221  1.6660  0.0716
 5367SOL     OW27733   2.542   0.095   6.298 -0.2644  0.2979  0.1554
 5367SOL    HW127734   2.528   0.182   6.261  0.6832  0.7518  0.8923
 5367SOL    HW227735   2.457   0.051   6.290  0.5166 -1.2188  0.2065
 5368SOL     OW27736   3.577   3.602  15.003 -0.2198 -0.3859  0.1398
 5368SOL    HW127737   3.563   3.665  15.073  1.1787  1.9367 -1.6821
 5368SOL    HW227738   3.495   3.552  15.002  1.5498 -3.2732 -0.9610
 5369SOL     OW27739   3.003   2.145  15.618  0.3750 -0.2487  0.0127
 5369SOL    HW127740   3.041   2.160  15.532  1.2023 -1.7641  0.1327
 5369SOL    HW227741   3.055   2.202  15.674  0.5839  1.1106 -1.5527
 5370SOL     OW27742   1.286   2.682  11.611  0.2089  0.0735 -0.1148
 5370SOL    HW127743   1.280   2.767  11.567  2.1390 -0.1407 -0.7587
 5370SOL    HW227744   1.214   2.680  11.675 -0.1544  0.5972 -0.5058
 5371SOL     OW27745   0.804   0.165   4.357  0.9326  0.1571  0.2564
 5371SOL    HW127746   0.890   0.206   4.358  1.3869 -0.7794  0.0520
 5371SOL    HW227747   0.755   0.194   4.434 -1.1719 -2.4282 -0.0955
 5372SOL     OW27748   4.278   4.403   5.050  0.1949  0.0355  0.3905
 5372SOL    HW127749   4.286   4.358   5.134 -0.1150  1.5091  1.2027
 5372SOL    HW227750   4.363   4.373   5.019 -0.2531 -0.6260 -0.1893
 5373SOL     OW27751   1.144   2.215   7.246 -0.0649 -0.1192 -0.0342
 5373SOL    HW127752   1.205   2.285   7.270  1.8330 -0.9276 -2.5516
 5373SOL    HW227753   1.077   2.233   7.311  0.0177 -1.3570  0.3760
 5374SOL     OW27754   3.712   1.668  14.615  0.1827  0.3343 -0.2277
 5374SOL    HW127755   3.691   1.665  14.708 -0.6100  0.9831 -0.3851
 5374SOL    HW227756   3.737   1.760  14.610  0.5616  0.2692  0.5432
 5375SOL     OW27757   4.506   1.358  17.213  0.3430 -0.6117  0.1757
 5375SOL    HW127758   4.545   1.273  17.197 -3.4318 -2.4191  0.6703
 5375SOL    HW227759   4.543   1.405  17.138  1.3237 -1.6822 -0.0098
 5376SOL     OW27760   3.502   4.082  15.941  0.2493 -0.0930 -0.5872
 5376SOL    HW127761   3.529   4.119  16.025  0.6594 -0.3625 -0.5988
 5376SOL    HW227762   3.416   4.042  15.955  1.5911 -3.4316 -1.9193
 5377SOL     OW27763   2.562   1.927   5.402  0.2013  0.0920  0.4238
 5377SOL    HW127764   2.521   1.860   5.347 -1.4507  2.6287 -1.4754
 5377SOL    HW227765   2.547   2.002   5.345  0.2606  0.4209  0.8443
 5378SOL     OW27766   1.912   4.274   1.410 -0.0119 -0.2499 -0.3933
 5378SOL    HW127767   1.940   4.314   1.327  1.1675 -0.9044 -0.3003
 5378SOL    HW227768   1.821   4.263   1.379 -0.3089  0.9388  0.0462
 5379SOL     OW27769   2.643   2.579   3.565  0.4106 -0.2227  0.5690
 5379SOL    HW127770   2.655   2.557   3.658  1.8349  2.7656  1.1004
 5379SOL    HW227771   2.584   2.654   3.561  3.2952  1.9814 -1.1545
 5380SOL     OW27772   2.897   1.594   7.073 -0.1296 -0.2467  0.2131
 5380SOL    HW127773   2.853   1.673   7.042  0.7133 -0.2151 -0.8760
 5380SOL    HW227774   2.946   1.574   6.994  0.1518  0.2642  0.2570
 5381SOL     OW27775   3.041   3.910   7.516 -0.8144  0.0119 -0.3258
 5381SOL    HW127776   3.027   4.002   7.535  1.2488  0.7783 -2.6304
 5381SOL    HW227777   3.093   3.888   7.594  1.1318  2.5627 -0.9450
 5382SOL     OW27778   1.451   4.014   8.750  0.2533 -0.3724 -0.1202
 5382SOL    HW127779   1.444   4.041   8.658  0.2278  2.4583  0.7335
 5382SOL    HW227780   1.527   4.067   8.774 -0.2465 -0.1058  0.8378
 5383SOL     OW27781   1.835   0.228   5.959 -0.0530  0.3719 -0.0955
 5383SOL    HW127782   1.925   0.239   5.989 -0.0321 -0.2816  0.0727
 5383SOL    HW227783   1.778   0.288   6.007 -1.2518 -0.3121 -0.6563
 5384SOL     OW27784   0.825   4.603   4.361  0.0993 -0.6679 -0.4386
 5384SOL    HW127785   0.916   4.616   4.333 -0.5386 -0.4662 -2.4025
 5384SOL    HW227786   0.815   4.682   4.414 -1.4621 -2.2691  1.6502
 5385SOL     OW27787   1.736   3.053   9.368  0.0936  0.1619 -0.0849
 5385SOL    HW127788   1.649   3.092   9.376  0.3116  0.7287 -0.5284
 5385SOL    HW227789   1.720   2.961   9.389  0.4156  0.0260 -0.4466
 5386SOL     OW27790   0.914   1.241   8.310 -0.3185 -0.1523  0.5391
 5386SOL    HW127791   1.002   1.275   8.295  0.4202 -0.9925  2.8217
 5386SOL    HW227792   0.930   1.149   8.333  1.0703 -0.8083 -3.0243
 5387SOL     OW27793   2.141   3.315  15.464 -0.2515 -0.2932 -0.1783
 5387SOL    HW127794   2.131   3.313  15.369 -0.5358 -1.1182 -0.1302
 5387SOL    HW227795   2.052   3.342  15.488  0.8608  1.1743  2.2957
 5388SOL     OW27796   4.329   0.095   3.602  0.1427  0.2079 -0.3254
 5388SOL    HW127797   4.422   0.119   3.599  1.2035 -3.7464  1.0208
 5388SOL    HW227798   4.324   0.032   3.673  2.7504  0.8186  0.4264
 5389SOL     OW27799   1.479   0.406   4.873 -0.2121  0.0635 -0.3470
 5389SOL    HW127800   1.497   0.313   4.854  1.3880  0.3540 -0.3036
 5389SOL    HW227801   1.474   0.392   4.968 -1.5416  1.3391 -0.2346
 5390SOL     OW27802   2.372   4.362   1.893  0.2237 -0.1410  0.0903
 5390SOL    HW127803   2.293   4.329   1.935  0.4140  1.9115  2.0888
 5390SOL    HW227804   2.380   4.444   1.942  1.1965 -1.2361  1.7639
 5391SOL     OW27805   0.395   0.796   8.600  0.4171 -0.0680  0.2755
 5391SOL    HW127806   0.348   0.723   8.561  1.9884  0.4458 -2.5926
 5391SOL    HW227807   0.421   0.767   8.687 -0.9243  0.6185  0.8981
 5392SOL     OW27808   2.369   4.401   5.795  0.1952  0.3845 -0.1066
 5392SOL    HW127809   2.308   4.473   5.780  0.1501  0.2618 -0.5179
 5392SOL    HW227810   2.316   4.334   5.838  1.1849 -0.4031 -0.0942
 5393SOL     OW27811   0.692   4.601   6.132 -0.7589  0.3138  0.4473
 5393SOL    HW127812   0.619   4.574   6.077  0.0461  0.1353 -0.5238
 5393SOL    HW227813   0.757   4.603   6.062  1.1295 -1.2415  2.1317
 5394SOL     OW27814   0.677   2.873   7.058  0.4762 -0.2852  0.4529
 5394SOL    HW127815   0.702   2.794   7.010  1.1309 -0.6106  1.3189
 5394SOL    HW227816   0.654   2.931   6.986 -1.6159 -2.5035 -0.6796
 5395SOL     OW27817   3.446   4.529   0.103 -0.0761  0.1791 -0.0267
 5395SOL    HW127818   3.385   4.493   0.038  3.0348 -2.0645 -1.7189
 5395SOL    HW227819   3.407   4.612   0.132  1.8619  0.1615  2.5427
 5396SOL     OW27820   2.769   1.993   5.568  0.2974  0.0556  0.0923
 5396SOL    HW127821   2.775   2.086   5.546  1.4642  0.3531  1.6791
 5396SOL    HW227822   2.697   1.965   5.512 -0.0418 -1.5009  1.2987
 5397SOL     OW27823   4.250   0.247   9.573  0.4648  0.7652  0.1423
 5397SOL    HW127824   4.175   0.201   9.536  0.7359  0.8192 -0.4736
 5397SOL    HW227825   4.246   0.328   9.522  0.3315  0.4486 -0.3423
 5398SOL     OW27826   4.299   0.104   7.401 -0.3693  0.1500  0.2800
 5398SOL    HW127827   4.314   0.118   7.495 -2.9015  2.9731  0.2462
 5398SOL    HW227828   4.209   0.136   7.393 -0.4557 -0.4935 -1.3589
 5399SOL     OW27829   4.257   4.167   8.048  0.2556 -0.2048  0.0205
 5399SOL    HW127830   4.245   4.258   8.076 -1.5279 -0.3662 -0.2276
 5399SOL    HW227831   4.351   4.158   8.032  0.4637 -0.2580  1.3283
 5400SOL     OW27832   2.226   1.659   6.700 -0.3248  0.1683  0.1161
 5400SOL    HW127833   2.283   1.733   6.721 -0.2376 -0.1389  0.9359
 5400SOL    HW227834   2.196   1.642   6.789 -0.8245 -2.1851 -0.5122
 5401SOL     OW27835   3.114   1.056   6.669  0.2241 -0.3338 -0.1463
 5401SOL    HW127836   3.187   1.021   6.618  0.2477 -0.9761  0.3271
 5401SOL    HW227837   3.046   0.989   6.659  0.7957 -0.7233 -1.3020
 5402SOL     OW27838   2.872   4.195   4.769 -0.1587 -0.1664 -0.0585
 5402SOL    HW127839   2.786   4.222   4.802  0.0500  3.2606 -2.3917
 5402SOL    HW227840   2.909   4.283   4.764  0.5037 -0.3015  2.3697
 5403SOL     OW27841   0.719   4.612  11.309 -0.2902 -0.3412 -0.2720
 5403SOL    HW127842   0.670   4.530  11.303  0.4273 -0.7235 -0.8830
 5403SOL    HW227843   0.794   4.601  11.250 -0.0055  2.0323 -0.3484
 5404SOL     OW27844   0.035   2.307  12.142  0.8024  0.1008  0.0450
 5404SOL    HW127845   4.710   2.312  12.070  0.9018 -0.7816 -0.1062
 5404SOL    HW227846   0.014   2.221  12.179  2.3419 -0.0112  0.6704
 5405SOL     OW27847   3.887   1.948  10.750 -0.1153  0.2799  0.4924
 5405SOL    HW127848   3.798   1.935  10.715  0.2656 -1.0413  0.0133
 5405SOL    HW227849   3.926   1.973  10.666 -1.7240 -2.4583 -1.0812
 5406SOL     OW27850   1.572   2.500   8.913 -0.2024  0.0547  0.2508
 5406SOL    HW127851   1.491   2.542   8.883  0.2991  1.2041  0.5044
 5406SOL    HW227852   1.626   2.501   8.834  1.5348 -1.0332  1.4229
 5407SOL     OW27853   2.713   3.315   9.147 -0.6792 -0.5069  0.2388
 5407SOL    HW127854   2.618   3.323   9.154 -0.5783  1.8075 -0.9351
 5407SOL    HW227855   2.716   3.276   9.060 -0.9097 -2.3925  1.0740
 5408SOL     OW27856   3.137   4.627   6.901  0.0842 -0.1067  0.4544
 5408SOL    HW127857   3.070   4.678   6.945  0.4737  0.3157  0.5540
 5408SOL    HW227858   3.172   4.692   6.840 -1.7979 -0.6167 -1.1571
 5409SOL     OW27859   0.303   4.692  16.739  0.5951  0.4551 -0.3022
 5409SOL    HW127860   0.213   4.696  16.772  0.1300 -1.1342 -1.3917
 5409SOL    HW227861   0.333   4.604  16.764  1.3680  0.8092  0.0205
 5410SOL     OW27862   0.939   4.152   4.942 -0.1964 -0.0938 -0.0332
 5410SOL    HW127863   0.947   4.152   5.037 -0.0280 -1.6377 -0.0389
 5410SOL    HW227864   0.855   4.107   4.936 -0.8907  1.0144  1.6254
 5411SOL     OW27865   1.813   1.622   2.231  0.7702  0.1973  0.3132
 5411SOL    HW127866   1.724   1.598   2.205  1.4500 -1.9114 -0.0645
 5411SOL    HW227867   1.852   1.547   2.275  0.2125 -0.4901 -0.3675
 5412SOL     OW27868   0.763   4.378  13.058 -0.3168  0.6189  0.3423
 5412SOL    HW127869   0.774   4.283  13.059 -1.9049  0.4380  0.3753
 5412SOL    HW227870   0.851   4.407  13.032 -1.4623  3.6053 -0.1342
 5413SOL     OW27871   4.390   3.461   6.309  0.7419  0.1279  0.2953
 5413SOL    HW127872   4.340   3.521   6.254  1.5356  1.4412  1.0310
 5413SOL    HW227873   4.448   3.421   6.245  0.7359 -0.1780  0.4753
 5414SOL     OW27874   2.300   0.544   1.005  0.1578  0.1826 -0.5922
 5414SOL    HW127875   2.369   0.609   0.995  1.2705 -0.9559 -0.2836
 5414SOL    HW227876   2.342   0.469   0.963 -1.7900 -0.8642 -0.6585
 5415SOL     OW27877   1.717   0.516   6.989 -0.4062  0.6649 -0.7443
 5415SOL    HW127878   1.721   0.477   6.902 -2.1264 -2.3352  0.5205
 5415SOL    HW227879   1.626   0.546   6.990 -0.5244  0.2127  0.9361
 5416SOL     OW27880   2.439   1.956   3.251  0.0566 -0.0509  0.7827
 5416SOL    HW127881   2.481   2.014   3.188 -0.7398  0.9788  1.2099
 5416SOL    HW227882   2.385   2.015   3.303  1.1370 -0.0838  1.9357
 5417SOL     OW27883   2.791   3.098  13.878 -0.3132 -0.4747  0.4675
 5417SOL    HW127884   2.775   3.130  13.789  0.6007 -1.8678 -0.1927
 5417SOL    HW227885   2.746   3.013  13.884  0.6002 -0.7807  2.8406
 5418SOL     OW27886   4.054   1.454   3.486 -0.2221 -0.2816 -0.4468
 5418SOL    HW127887   4.071   1.535   3.534 -0.3245 -1.8219  2.2056
 5418SOL    HW227888   4.013   1.400   3.554 -1.1610  2.1221  0.8789
 5419SOL     OW27889   2.870   3.339  14.619 -0.2663 -0.1817  0.3603
 5419SOL    HW127890   2.865   3.417  14.565  0.9175 -0.8996 -0.8078
 5419SOL    HW227891   2.784   3.297  14.619  0.2077 -1.1638 -3.3100
 5420SOL     OW27892   1.910   4.073   2.547  0.0536  0.2321  0.6957
 5420SOL    HW127893   1.845   4.008   2.571  1.3001 -0.5332  1.9849
 5420SOL    HW227894   1.982   4.014   2.524  0.4498  1.3624 -1.0638
 5421SOL     OW27895   4.720   1.330   0.138  0.2561 -0.1795 -0.7213
 5421SOL    HW127896   4.730   1.248   0.186 -0.2515 -0.7424 -1.5718
 5421SOL    HW227897   0.041   1.310   0.065 -0.0562  0.3063 -1.1012
 5422SOL     OW27898   3.532   1.907  15.731  0.4097  0.1617  0.5614
 5422SOL    HW127899   3.579   1.935  15.652  0.3028 -1.1734  0.0130
 5422SOL    HW227900   3.462   1.970  15.746  0.4082 -0.0107  1.2561
 5423SOL     OW27901   0.639   1.662   6.388  0.1182  0.2366  0.4999
 5423SOL    HW127902   0.715   1.664   6.446  0.8447 -0.4619 -0.4297
 5423SOL    HW227903   0.665   1.589   6.333 -1.7605  0.0655 -0.1418
 5424SOL     OW27904   2.059   0.220   8.380  0.6145  0.1639 -0.0230
 5424SOL    HW127905   1.967   0.206   8.405  0.2948  0.5695 -0.9568
 5424SOL    HW227906   2.090   0.259   8.461  0.7240  1.6558 -0.7765
 5425SOL     OW27907   3.066   4.560   0.089  0.0195  0.0135  0.0781
 5425SOL    HW127908   3.065   4.655   0.077  1.0381  0.3208  2.5477
 5425SOL    HW227909   3.117   4.534   0.012 -0.1614 -1.0841  0.3332
 5426SOL     OW27910   0.285   4.031   7.657  0.1744  0.1098  0.3736
 5426SOL    HW127911   0.357   3.974   7.683  0.7369 -0.0446 -1.5459
 5426SOL    HW227912   0.310   4.047   7.566 -0.4390 -0.8430  0.0404
 5427SOL     OW27913   3.791   3.251   8.608 -0.4320 -0.0771  0.0777
 5427SOL    HW127914   3.794   3.327   8.550  1.9152 -1.2030 -1.2948
 5427SOL    HW227915   3.703   3.272   8.638 -1.3295 -3.2765 -0.3116
 5428SOL     OW27916   3.716   1.062   6.479 -0.0086 -0.4274  0.5936
 5428SOL    HW127917   3.802   1.103   6.468  0.3885 -1.9409 -1.9372
 5428SOL    HW227918   3.711   1.021   6.565  1.1153  0.8365  1.2507
 5429SOL     OW27919   1.806   0.717   6.641 -0.2574 -0.0650 -0.6276
 5429SOL    HW127920   1.857   0.711   6.560 -3.0084 -0.4173 -2.3154
 5429SOL    HW227921   1.799   0.629   6.678 -1.0886  0.1550 -0.2623
 5430SOL     OW27922   2.858   1.310  12.065 -0.1425 -0.5507  0.1538
 5430SOL    HW127923   2.894   1.370  12.131  0.5521 -1.5435  0.6670
 5430SOL    HW227924   2.786   1.361  12.027 -1.7982 -1.5720  1.9616
 5431SOL     OW27925   0.613   2.895  15.182 -0.7079  0.2453  0.2948
 5431SOL    HW127926   0.587   2.898  15.090  0.5403  0.3656 -0.0468
 5431SOL    HW227927   0.534   2.935  15.220 -0.4577  0.7347  0.2988
 5432SOL     OW27928   3.068   0.903   3.822 -0.1450 -0.0389  0.4067
 5432SOL    HW127929   3.050   0.906   3.916  0.8963 -0.1761  0.6192
 5432SOL    HW227930   3.083   0.996   3.806 -2.5509 -0.0994 -2.1478
 5433SOL     OW27931   4.175   1.929   3.154 -0.0819 -0.2206 -0.0282
 5433SOL    HW127932   4.154   2.011   3.109  0.3508  0.6841  1.4069
 5433SOL    HW227933   4.094   1.908   3.199 -0.8539  1.4757 -0.6293
 5434SOL     OW27934   2.889   3.222  14.160  0.2968  0.4431  0.4869
 5434SOL    HW127935   2.858   3.205  14.072  0.6359  1.7534  0.1065
 5434SOL    HW227936   2.820   3.285  14.179  0.1183  0.5127 -0.4205
 5435SOL     OW27937   0.680   4.624  10.199 -0.4940 -0.1775  0.0080
 5435SOL    HW127938   0.716   4.651  10.114 -1.3139 -0.5132 -0.4493
 5435SOL    HW227939   0.758   4.656  10.244  0.3280 -0.2393 -1.3487
 5436SOL     OW27940   4.552   3.653   5.266 -0.1149 -0.3459 -0.0472
 5436SOL    HW127941   4.494   3.700   5.325 -0.3406  0.0016 -0.5509
 5436SOL    HW227942   4.502   3.655   5.185 -0.1748  0.5349  0.0170
 5437SOL     OW27943   0.636   2.030  11.536  0.0333  0.7305 -0.5749
 5437SOL    HW127944   0.582   2.104  11.563  0.6181  2.4556 -4.2520
 5437SOL    HW227945   0.560   1.972  11.528  0.7278 -0.6431  2.7427
 5438SOL     OW27946   3.730   2.492  11.691  0.2543 -1.0055  0.2954
 5438SOL    HW127947   3.709   2.405  11.725 -5.6790  0.0925 -0.5958
 5438SOL    HW227948   3.653   2.517  11.641  1.5567 -0.5728 -1.4867
 5439SOL     OW27949   4.187   2.943  11.497 -0.2193 -0.1766  0.0477
 5439SOL    HW127950   4.145   3.013  11.545  0.4299  0.1995  0.0639
 5439SOL    HW227951   4.230   3.001  11.434 -1.5476 -0.6936 -1.3419
 5440SOL     OW27952   4.185   2.146  10.713 -0.4275 -0.5532 -0.4878
 5440SOL    HW127953   4.119   2.124  10.646 -2.4285 -1.4823  1.7746
 5440SOL    HW227954   4.252   2.196  10.668  0.4776  0.6186  2.1728
 5441SOL     OW27955   1.269   3.613   7.009 -0.1805  0.2168 -0.1155
 5441SOL    HW127956   1.215   3.691   7.000 -0.8926 -0.1217  1.2462
 5441SOL    HW227957   1.359   3.635   6.982 -0.9986  2.0055 -1.3667
 5442SOL     OW27958   0.672   3.061   5.011 -0.2517  0.0170  0.4709
 5442SOL    HW127959   0.697   2.989   4.952 -1.4215 -0.1509  0.1896
 5442SOL    HW227960   0.752   3.112   5.022  0.1926 -0.2123 -1.6061
 5443SOL     OW27961   0.651   2.351   3.364 -0.1654 -0.2192 -0.6375
 5443SOL    HW127962   0.688   2.436   3.341  1.1399 -0.6727 -0.1996
 5443SOL    HW227963   0.618   2.314   3.282  0.3389 -1.0297 -0.4845
 5444SOL     OW27964   3.709   1.035   1.704  0.2797  0.0872 -0.0280
 5444SOL    HW127965   3.735   1.011   1.616 -1.3201  0.7908 -0.7066
 5444SOL    HW227966   3.621   0.997   1.700 -0.1156  0.9735  0.2314
 5445SOL     OW27967   1.124   2.633   7.641 -0.1471  0.0383 -1.2071
 5445SOL    HW127968   1.196   2.670   7.590  1.4423 -0.9551  0.3544
 5445SOL    HW227969   1.107   2.704   7.702  1.4899 -0.8748  0.2787
 5446SOL     OW27970   3.349   2.291  13.083  0.0849  0.3620 -0.0111
 5446SOL    HW127971   3.369   2.306  13.176 -0.7526  1.3160  0.0211
 5446SOL    HW227972   3.261   2.325  13.071 -0.6424 -0.6423  2.4229
 5447SOL     OW27973   2.457   2.607   2.939  0.3953 -0.1541  0.6590
 5447SOL    HW127974   2.534   2.638   2.891  1.1221  0.4333  2.2007
 5447SOL    HW227975   2.420   2.537   2.886 -3.6636  1.6917  1.0499
 5448SOL     OW27976   2.072   1.622   8.570  0.2821  0.0275  0.2443
 5448SOL    HW127977   2.021   1.564   8.514  0.7194 -0.7563  0.6632
 5448SOL    HW227978   2.048   1.707   8.533  2.8977  1.3186  1.4806
 5449SOL     OW27979   2.435   4.090  14.486 -0.2837 -0.0730 -0.0816
 5449SOL    HW127980   2.367   4.035  14.526  0.8782 -1.2113  0.3358
 5449SOL    HW227981   2.438   4.057  14.396 -1.6503  0.7089 -0.4032
 5450SOL     OW27982   3.135   0.568   2.922  0.0032  0.4316 -0.8116
 5450SOL    HW127983   3.110   0.481   2.891  0.0057  0.9201 -2.1685
 5450SOL    HW227984   3.111   0.559   3.014  0.1880  1.4693 -0.6671
 5451SOL     OW27985   2.098   3.224   3.686 -0.1008  0.3341 -0.1338
 5451SOL    HW127986   2.110   3.154   3.622 -0.0120 -0.4022  0.6847
 5451SOL    HW227987   2.157   3.293   3.657  2.0835 -0.9717  1.1349
 5452SOL     OW27988   2.152   3.123   8.231  0.2139 -0.1272 -0.6598
 5452SOL    HW127989   2.113   3.180   8.165 -0.9081  0.1593  0.2497
 5452SOL    HW227990   2.208   3.187   8.274  2.2265 -0.5065 -2.7713
 5453SOL     OW27991   1.584   4.032   3.613 -0.6902  0.0649  0.0238
 5453SOL    HW127992   1.546   3.948   3.587  1.2573  0.0634 -2.7859
 5453SOL    HW227993   1.646   3.987   3.670 -0.1333 -0.7207 -1.1962
 5454SOL     OW27994   0.715   0.921   4.706 -0.3407  0.4693  0.2403
 5454SOL    HW127995   0.659   0.999   4.707  0.9668  1.3955  1.3779
 5454SOL    HW227996   0.796   0.970   4.691 -0.1316 -0.0081 -0.2043
 5455SOL     OW27997   4.046   4.488   3.238 -0.3778 -0.4416  0.0064
 5455SOL    HW127998   4.104   4.418   3.268  0.0591 -0.8550 -1.7912
 5455SOL    HW227999   3.989   4.433   3.184 -1.4949  0.3979  0.3260
 5456SOL     OW28000   1.229   3.625   0.569 -0.2700  0.3083  0.2252
 5456SOL    HW128001   1.293   3.648   0.502 -2.3904 -0.7892 -2.1692
 5456SOL    HW228002   1.243   3.531   0.582  0.5589  0.1576 -1.6857
 5457SOL     OW28003   4.666   4.125  11.525  0.9585  0.1721 -0.1132
 5457SOL    HW128004   4.714   4.079  11.457  1.8896  0.6839  0.1981
 5457SOL    HW228005   4.664   4.211  11.484  1.3094  0.3566  0.2654
 5458SOL     OW28006   4.225   3.284   6.032 -0.2389 -0.0984  0.0274
 5458SOL    HW128007   4.199   3.296   5.941  1.2420 -0.2335 -0.4195
 5458SOL    HW228008   4.265   3.198   6.024  1.5805  0.7643 -0.2789
 5459SOL     OW28009   2.765   4.661   4.544  0.1175  0.5346  0.2413
 5459SOL    HW128010   2.769   0.007   4.592  0.8655  0.2728  0.6335
 5459SOL    HW228011   2.856   4.638   4.527 -0.2259 -0.9132  0.4272
 5460SOL     OW28012   0.784   1.942   7.025 -0.6049 -0.1519  0.4169
 5460SOL    HW128013   0.736   2.024   7.017 -0.4049 -0.0900 -0.1408
 5460SOL    HW228014   0.870   1.954   6.986 -1.4220  0.2565 -1.2437
 5461SOL     OW28015   0.779   0.452  14.357 -0.5891 -0.5686 -0.4102
 5461SOL    HW128016   0.773   0.389  14.286 -2.0801  0.7558 -1.4657
 5461SOL    HW228017   0.725   0.523  14.322  1.4070 -0.2802 -2.8617
 5462SOL     OW28018   4.351   2.289  11.083  0.0718  0.0578  0.3726
 5462SOL    HW128019   4.259   2.316  11.082 -0.3690 -1.4733 -0.6569
 5462SOL    HW228020   4.396   2.372  11.069  1.2863 -0.4025  1.6402
 5463SOL     OW28021   4.299   2.873  13.162  0.1103  0.3941 -0.7616
 5463SOL    HW128022   4.235   2.802  13.167  1.2584 -0.5180  0.6600
 5463SOL    HW228023   4.277   2.893  13.071 -1.3705  1.4072 -0.1971
 5464SOL     OW28024   1.400   1.977   4.549 -0.3817  0.0508 -0.4479
 5464SOL    HW128025   1.485   1.955   4.586  0.2539  1.5759 -1.0180
 5464SOL    HW228026   1.419   2.036   4.476 -1.0086 -0.4599 -1.0290
 5465SOL     OW28027   0.296   2.353  12.069  0.1420 -0.0924 -0.1130
 5465SOL    HW128028   0.205   2.345  12.099 -0.3687  0.1313 -1.6300
 5465SOL    HW228029   0.327   2.373  12.158 -2.2285  2.5051  0.0893
 5466SOL     OW28030   4.007   3.950   5.979 -0.1741 -0.3055  0.1527
 5466SOL    HW128031   3.967   3.929   6.063  0.3651 -1.3071  0.1495
 5466SOL    HW228032   3.996   3.866   5.934 -2.1347  0.0746 -0.0755
 5467SOL     OW28033   1.078   3.444   1.836 -0.0819 -0.0894  0.2665
 5467SOL    HW128034   1.023   3.415   1.763 -0.3303  0.4603  0.2418
 5467SOL    HW228035   1.012   3.430   1.904  0.2079  0.6833  0.7075
 5468SOL     OW28036   1.592   1.315  14.005  0.5485  0.1511  0.1828
 5468SOL    HW128037   1.527   1.384  13.995  1.6723  1.1158 -0.3810
 5468SOL    HW228038   1.567   1.256  13.934  0.2066 -0.7996  1.0744
 5469SOL     OW28039   0.269   3.416  16.860  0.2699  0.3839  0.0727
 5469SOL    HW128040   0.314   3.354  16.918 -1.9043  1.7314  3.2324
 5469SOL    HW228041   0.182   3.420  16.900  0.6627 -1.3912  1.0737
 5470SOL     OW28042   1.376   4.006   7.063  0.3839 -0.4961 -0.2743
 5470SOL    HW128043   1.392   3.949   6.988  0.5524 -2.0958  1.0005
 5470SOL    HW228044   1.434   4.080   7.042 -1.3660  0.8160 -0.4703
 5471SOL     OW28045   2.802   1.343   6.751 -0.6235 -0.6126  0.6241
 5471SOL    HW128046   2.824   1.435   6.768 -1.3164 -0.0987 -1.1956
 5471SOL    HW228047   2.876   1.303   6.795 -0.4295 -1.7561 -0.7382
 5472SOL     OW28048   0.391   2.999   2.768 -0.0666 -0.1548  0.3780
 5472SOL    HW128049   0.384   3.032   2.858  1.7535 -0.0080  0.4506
 5472SOL    HW228050   0.318   2.936   2.768 -0.0285 -0.2041 -2.4297
 5473SOL     OW28051   0.146   4.400  12.374  0.0886  0.5711 -0.7767
 5473SOL    HW128052   0.060   4.442  12.377 -1.1126 -1.8338 -0.7605
 5473SOL    HW228053   0.117   4.316  12.410  1.2497  0.2804 -0.5382
 5474SOL     OW28054   2.566   3.041   5.727  0.0458 -0.5981  0.7457
 5474SOL    HW128055   2.528   3.000   5.649  0.5576  0.2952  0.0182
 5474SOL    HW228056   2.616   2.969   5.766 -2.6336 -2.1441  1.2803
 5475SOL     OW28057   3.569   4.371  17.193  0.4605 -0.6825  0.2487
 5475SOL    HW128058   3.543   4.423  17.269  0.8967 -0.3497  0.1759
 5475SOL    HW228059   3.644   4.425  17.166 -1.4189  1.5289 -0.6355
 5476SOL     OW28060   3.083   1.845   5.567 -0.1900 -0.2751  0.7048
 5476SOL    HW128061   3.046   1.773   5.516  0.6541  0.0301 -0.3217
 5476SOL    HW228062   3.176   1.825   5.578  0.0240 -1.4330 -3.1423
 5477SOL     OW28063   1.339   2.840   2.152  0.0163  0.5869 -0.1871
 5477SOL    HW128064   1.380   2.927   2.155 -0.5355  0.7926  1.4128
 5477SOL    HW228065   1.274   2.847   2.082  3.7483 -0.3429 -3.7766
 5478SOL     OW28066   1.206   1.358   7.971 -0.1178  0.1289 -0.5742
 5478SOL    HW128067   1.158   1.275   7.959  0.2120  0.0867 -1.6026
 5478SOL    HW228068   1.143   1.430   7.971 -1.3877 -0.9688  2.6916
 5479SOL     OW28069   1.138   2.196  11.806  0.4785 -0.0639 -0.3210
 5479SOL    HW128070   1.162   2.134  11.737 -0.1279 -0.6761  0.0336
 5479SOL    HW228071   1.221   2.242  11.820  1.1935 -0.7579 -2.1603
 5480SOL     OW28072   3.249   1.216   8.350 -0.2354 -0.0391  0.2128
 5480SOL    HW128073   3.189   1.278   8.308  1.2675  1.3287  0.0892
 5480SOL    HW228074   3.331   1.222   8.302  0.2293 -2.0649  0.7585
 5481SOL     OW28075   0.945   3.139   5.580 -0.0541 -0.8752 -0.0081
 5481SOL    HW128076   0.931   3.186   5.498  1.0652  0.9813  0.8558
 5481SOL    HW228077   0.973   3.210   5.637 -0.5480 -2.2147  1.8963
 5482SOL     OW28078   0.101   1.864   1.822 -0.6128 -0.3975  0.2730
 5482SOL    HW128079   0.132   1.847   1.733  0.1082  2.7993 -0.0625
 5482SOL    HW228080   0.054   1.782   1.840  1.4157 -0.9757  2.9198
 5483SOL     OW28081   3.559   3.966  17.563 -0.6321 -0.1548  0.4997
 5483SOL    HW128082   3.492   4.018  17.607 -0.0287 -0.7391  2.0986
 5483SOL    HW228083   3.578   4.017  17.484  0.6706  0.4674  1.1966
 5484SOL     OW28084   4.221   1.234   4.862 -0.0332 -0.1309 -0.2583
 5484SOL    HW128085   4.214   1.302   4.929 -2.3680 -0.6758  0.0235
 5484SOL    HW228086   4.284   1.179   4.908 -0.4462 -0.8195 -0.5304
 5485SOL     OW28087   2.581   0.181   8.541  0.1820  0.5399 -0.5012
 5485SOL    HW128088   2.619   0.268   8.531 -0.1342  0.8739  1.3986
 5485SOL    HW228089   2.650   0.127   8.580  0.6965  1.3592 -0.2977
 5486SOL     OW28090   1.037   4.685   6.355  0.6295 -0.5110  0.4356
 5486SOL    HW128091   0.945   4.663   6.372  0.3944 -0.4517 -0.7195
 5486SOL    HW228092   1.057   0.027   6.405 -2.9184 -0.1387  1.2592
 5487SOL     OW28093   2.264   4.077  17.641  0.6587  0.3674  0.3260
 5487SOL    HW128094   2.237   4.098  17.730 -0.3315  0.7213 -0.0653
 5487SOL    HW228095   2.188   4.030  17.608  0.9868  1.1147 -1.5100
 5488SOL     OW28096   4.567   3.764   3.854 -0.2850 -0.3092 -0.2237
 5488SOL    HW128097   4.640   3.703   3.866 -0.1728 -0.5450 -2.0429
 5488SOL    HW228098   4.611   3.847   3.838  0.9842 -1.0402 -0.5093
 5489SOL     OW28099   1.138   0.473  11.247 -0.2856  0.1420  0.0147
 5489SOL    HW128100   1.067   0.521  11.289  0.0558  0.4057  0.2827
 5489SOL    HW228101   1.210   0.499  11.305 -1.1767  1.4463  0.5225
 5490SOL     OW28102   2.818   3.656  12.086  0.2092 -0.3221 -0.1874
 5490SOL    HW128103   2.797   3.587  12.149  1.0252  1.3399  1.9145
 5490SOL    HW228104   2.876   3.721  12.128 -0.6871  0.9659 -0.9606
 5491SOL     OW28105   3.955   1.759   6.141  0.4013  0.4760  0.4927
 5491SOL    HW128106   3.908   1.760   6.224 -0.8884 -1.0268 -0.2158
 5491SOL    HW228107   4.030   1.702   6.155  0.4871  0.6012  0.5366
 5492SOL     OW28108   0.822   3.567  15.758 -0.5704 -0.2114  0.0512
 5492SOL    HW128109   0.845   3.653  15.793 -0.0785 -0.4725  0.3683
 5492SOL    HW228110   0.744   3.551  15.812 -0.7249  1.1737  0.2551
 5493SOL     OW28111   2.375   2.203  17.120  0.0859 -0.2028 -0.3756
 5493SOL    HW128112   2.405   2.257  17.048 -1.1783 -0.7320 -1.2972
 5493SOL    HW228113   2.347   2.272  17.181  2.5205 -0.9810  1.6206
 5494SOL     OW28114   3.767   1.173  13.318 -0.5347 -0.0968 -0.4045
 5494SOL    HW128115   3.729   1.231  13.252  1.0726 -0.0672 -1.3160
 5494SOL    HW228116   3.692   1.162  13.376 -3.1486  0.0089 -3.8287
 5495SOL     OW28117   2.760   2.105   6.417 -0.1739 -0.4594 -0.3940
 5495SOL    HW128118   2.723   2.019   6.398 -0.8224 -0.5356  1.2549
 5495SOL    HW228119   2.731   2.114   6.508 -2.5784  0.3572 -1.2254
 5496SOL     OW28120   3.164   2.165   8.860  0.4204  0.2595 -0.2095
 5496SOL    HW128121   3.201   2.212   8.935 -0.9823  3.1766 -1.3431
 5496SOL    HW228122   3.144   2.085   8.908  0.3822  0.5280  0.2287
 5497SOL     OW28123   3.480   2.915   9.349 -0.6286 -0.1935  0.1208
 5497SOL    HW128124   3.575   2.917   9.356 -0.6090  1.6547 -0.5892
 5497SOL    HW228125   3.464   2.824   9.376 -0.0420  0.4774  2.7325
 5498SOL     OW28126   4.003   2.804  16.909  0.5185 -0.0563  0.3028
 5498SOL    HW128127   4.009   2.877  16.847 -1.0215 -0.1196  0.0740
 5498SOL    HW228128   3.908   2.801  16.916  0.4365  1.6384 -0.0800
 5499SOL     OW28129   2.076   1.394   1.835 -0.0741 -0.8865  0.3959
 5499SOL    HW128130   2.091   1.471   1.890 -1.5313  0.2747 -0.7995
 5499SOL    HW228131   2.166   1.381   1.804 -0.0472  1.3075 -0.4771
 5500SOL     OW28132   0.387   0.091   3.025  0.3491  0.2916 -0.1247
 5500SOL    HW128133   0.421   0.051   3.105  1.5114  0.7103 -0.4126
 5500SOL    HW228134   0.464   0.083   2.968  1.9510  2.1766  1.7448
 5501SOL     OW28135   4.240   3.788  10.572 -0.3674  0.0056  0.3705
 5501SOL    HW128136   4.322   3.804  10.523 -0.0309  0.6102  1.1357
 5501SOL    HW228137   4.258   3.700  10.604 -3.8132 -1.8651 -2.8135
 5502SOL     OW28138   3.448   0.212   3.655 -0.6684  0.2451 -0.0653
 5502SOL    HW128139   3.520   0.150   3.665  0.2075  1.4179  0.9824
 5502SOL    HW228140   3.402   0.204   3.738  0.9568  0.9169  0.9114
 5503SOL     OW28141   1.477   3.392  12.711 -0.4926 -0.2986 -0.2002
 5503SOL    HW128142   1.491   3.436  12.795  0.6001  0.1447 -0.6160
 5503SOL    HW228143   1.388   3.420  12.687 -1.3762 -1.1556  2.0572
 5504SOL     OW28144   1.376   0.024   9.974  0.3627 -0.3293 -0.5038
 5504SOL    HW128145   1.295   4.732  10.016  1.3256 -3.2793 -0.7541
 5504SOL    HW228146   1.360   0.119   9.975  0.3222 -0.3600  1.6051
 5505SOL     OW28147   4.648   3.927  16.323 -0.1016 -0.0004  0.0312
 5505SOL    HW128148   4.602   4.003  16.286  1.0443  0.2388 -0.8683
 5505SOL    HW228149   4.679   3.883  16.244 -1.1894 -4.5843  2.1848
 5506SOL     OW28150   1.698   0.601   4.567 -0.3479  0.1356  0.3923
 5506SOL    HW128151   1.735   0.664   4.505 -1.0919  0.8775  0.7185
 5506SOL    HW228152   1.713   0.522   4.515 -0.6773  0.8540 -0.7760
 5507SOL     OW28153   1.273   2.829   3.886  0.5521  0.8489  0.2288
 5507SOL    HW128154   1.356   2.824   3.933 -0.6936  2.0827  2.5485
 5507SOL    HW228155   1.307   2.874   3.809 -0.0176  0.9997  0.0626
 5508SOL     OW28156   4.459   3.567   2.002 -0.1531 -0.1921 -0.5175
 5508SOL    HW128157   4.517   3.554   2.077  0.6983  1.4512 -0.8868
 5508SOL    HW228158   4.524   3.603   1.942  0.6480 -2.1153 -0.7952
 5509SOL     OW28159   2.450   3.550   5.113  0.2568 -0.0876 -0.4201
 5509SOL    HW128160   2.374   3.593   5.153  0.9269  0.3946  0.3163
 5509SOL    HW228161   2.510   3.618   5.082  0.6527 -0.0818  0.3642
 5510SOL     OW28162   1.301   3.956   5.479  0.9044  0.1417 -0.1340
 5510SOL    HW128163   1.349   3.956   5.562  0.7377 -1.5357 -0.0285
 5510SOL    HW228164   1.208   3.961   5.503  0.7928  0.6826 -0.6796
 5511SOL     OW28165   1.320   3.916   0.229  0.3640  0.2301 -0.1863
 5511SOL    HW128166   1.258   3.913   0.301  0.0841 -0.7156 -0.4678
 5511SOL    HW228167   1.398   3.917   0.285  0.3805  3.0628 -0.2731
 5512SOL     OW28168   0.218   2.108   1.280  0.9292 -0.3471  0.2281
 5512SOL    HW128169   0.164   2.187   1.270 -1.0815 -1.5977  1.3484
 5512SOL    HW228170   0.151   2.041   1.288  1.1130 -0.4218  1.1360
 5513SOL     OW28171   0.833   1.744   9.059  0.1844  0.2473 -0.4961
 5513SOL    HW128172   0.917   1.745   9.104  0.3785 -1.6950 -0.7781
 5513SOL    HW228173   0.819   1.649   9.051  0.9371  0.3553 -2.8287
 5514SOL     OW28174   1.517   3.142  12.683 -0.2250 -0.1445  0.0177
 5514SOL    HW128175   1.493   3.234  12.678  0.2283  0.1516  3.2659
 5514SOL    HW228176   1.554   3.136  12.771 -1.7794 -1.3240  0.5807
 5515SOL     OW28177   0.122   0.574   3.866 -0.0545  0.1545 -0.3357
 5515SOL    HW128178   0.030   0.564   3.844 -0.2051  1.1819 -0.1829
 5515SOL    HW228179   0.159   0.621   3.791 -1.4558 -1.7005 -2.1827
 5516SOL     OW28180   2.359   1.043  10.282 -0.2688 -0.9805 -0.5792
 5516SOL    HW128181   2.430   1.076  10.338 -1.1579 -0.1928  0.0684
 5516SOL    HW228182   2.357   1.093  10.201  1.3694 -0.9505 -0.6035
 5517SOL     OW28183   3.632   1.296  12.874  0.2630  0.0877  0.0175
 5517SOL    HW128184   3.578   1.238  12.928 -1.3241  1.9899  0.4831
 5517SOL    HW228185   3.695   1.233  12.839 -0.4193  0.3153 -1.6107
 5518SOL     OW28186   4.079   2.058  14.860  0.0584 -0.2078 -0.2506
 5518SOL    HW128187   4.080   1.964  14.841  1.2692  0.2961 -2.7350
 5518SOL    HW228188   4.105   2.098  14.777  0.3257  1.6366  0.7270
 5519SOL     OW28189   2.335   3.936  10.000  0.1122  0.0674  0.1804
 5519SOL    HW128190   2.423   3.911   9.973  0.0688 -0.3812  0.4514
 5519SOL    HW228191   2.282   3.905   9.926  0.8380  2.8766 -1.5112
 5520SOL     OW28192   2.537   1.203  13.312  0.5301 -0.1539  0.0866
 5520SOL    HW128193   2.596   1.175  13.383  0.2802 -2.5608 -0.6404
 5520SOL    HW228194   2.490   1.275  13.354 -2.4532 -1.3445 -1.2128
 5521SOL     OW28195   1.316   3.249   7.565 -0.1523  0.8560  0.1300
 5521SOL    HW128196   1.353   3.168   7.599  0.2245  0.4906 -1.1481
 5521SOL    HW228197   1.344   3.314   7.629  1.4403  0.0346  0.2665
 5522SOL     OW28198   0.424   2.145   2.572 -0.3568 -0.3387  0.6469
 5522SOL    HW128199   0.379   2.092   2.637 -1.6561 -0.2261 -0.1732
 5522SOL    HW228200   0.356   2.212   2.572  0.0000  0.0721 -5.4618
 5523SOL     OW28201   3.194   2.075  10.940  0.5239  0.5788  0.4957
 5523SOL    HW128202   3.204   2.164  10.974  0.9937  0.8964 -0.4599
 5523SOL    HW228203   3.099   2.064  10.931  0.2906  2.0473  1.0682
 5524SOL     OW28204   2.496   4.693   0.975 -0.1500  0.2326  0.5066
 5524SOL    HW128205   2.484   0.009   0.896  0.3105  1.3263  1.1627
 5524SOL    HW228206   2.544   0.009   1.039  2.5538 -0.1287 -1.2411
 5525SOL     OW28207   3.618   2.302  12.971  0.2110  0.4969  0.3995
 5525SOL    HW128208   3.617   2.375  13.034 -2.0180  0.6139  0.2369
 5525SOL    HW228209   3.525   2.284  12.980 -0.0715  1.3570 -0.8932
 5526SOL     OW28210   3.485   3.930  14.091 -0.0131  0.2873  0.6352
 5526SOL    HW128211   3.475   4.025  14.102  1.8216  0.3281  1.9894
 5526SOL    HW228212   3.440   3.914  14.174  0.2632  0.8707  0.8978
 5527SOL     OW28213   1.259   3.833   8.227 -0.2097 -0.0322  0.1190
 5527SOL    HW128214   1.289   3.862   8.140 -2.7653  0.8116 -0.4742
 5527SOL    HW228215   1.339   3.822   8.279  0.7928  0.1052 -1.3764
 5528SOL     OW28216   3.835   0.612   5.928 -0.2259 -0.3818 -0.4278
 5528SOL    HW128217   3.915   0.631   5.879 -0.7053  1.8988 -0.3310
 5528SOL    HW228218   3.771   0.601   5.858 -2.7406  1.3112  1.6175
 5529SOL     OW28219   4.199   0.671  15.201 -0.3578 -0.5545  0.1178
 5529SOL    HW128220   4.245   0.594  15.166  1.9369  0.6509  0.4900
 5529SOL    HW228221   4.271   0.722  15.238  0.4070 -0.3674 -1.5941
 5530SOL     OW28222   2.097   3.985   4.390  0.0490 -0.1796  0.3496
 5530SOL    HW128223   2.141   4.064   4.422 -0.9075 -0.0396  1.2996
 5530SOL    HW228224   2.016   3.989   4.441 -0.5495  0.7870 -0.6740
 5531SOL     OW28225   1.209   0.759   4.403 -0.7323 -0.3482  0.7141
 5531SOL    HW128226   1.240   0.676   4.440 -0.8629 -2.0889 -3.0733
 5531SOL    HW228227   1.295   0.791   4.376 -0.2509 -0.8815  1.5980
 5532SOL     OW28228   1.353   2.772   2.449 -0.3341  0.8295 -0.4801
 5532SOL    HW128229   1.342   2.867   2.438  1.3755  1.2635  1.6421
 5532SOL    HW228230   1.334   2.735   2.362  2.5240  1.7765 -1.4905
 5533SOL     OW28231   0.308   4.035   0.882 -0.1016 -0.2950 -0.0826
 5533SOL    HW128232   0.303   4.109   0.942  1.6556 -0.7427  0.6169
 5533SOL    HW228233   0.334   3.971   0.949 -0.4180 -2.4629 -2.0362
 5534SOL     OW28234   1.809   2.477  10.001 -0.1989  0.5997 -0.8319
 5534SOL    HW128235   1.745   2.532  10.047 -1.3077 -0.5232 -1.0242
 5534SOL    HW228236   1.780   2.386  10.011 -0.0824  0.7082  0.4855
 5535SOL     OW28237   1.052   0.024   6.105  0.3448  0.3342 -0.4386
 5535SOL    HW128238   1.028   4.718   6.187 -0.0050  1.4185  0.0198
 5535SOL    HW228239   1.104   4.686   6.074 -2.3414 -0.4466 -3.0821
 5536SOL     OW28240   3.071   3.626  14.598 -0.0613 -0.4174 -0.5184
 5536SOL    HW128241   3.135   3.556  14.583  0.7056  0.8446 -3.0292
 5536SOL    HW228242   3.128   3.683  14.650 -0.9822  0.0005  0.0227
 5537SOL     OW28243   0.054   2.950  17.168 -0.1523 -0.4290  0.2604
 5537SOL    HW128244   0.120   3.004  17.126 -1.7294  0.9741 -0.3842
 5537SOL    HW228245   4.712   2.972  17.118  2.2827  1.7466 -2.5844
 5538SOL     OW28246   2.837   0.201   2.200  0.3815  0.5225  0.0656
 5538SOL    HW128247   2.931   0.187   2.211 -0.1161 -1.6620  1.5909
 5538SOL    HW228248   2.826   0.194   2.105  1.7268 -1.3240  0.0455
 5539SOL     OW28249   3.814   4.455   6.726  0.7025  0.7554 -0.1105
 5539SOL    HW128250   3.788   4.435   6.816  1.3867  1.8817  0.3486
 5539SOL    HW228251   3.730   4.437   6.684  0.6561  2.1136 -0.6030
 5540SOL     OW28252   4.556   1.824   6.972  0.1861  0.6196 -0.2684
 5540SOL    HW128253   4.535   1.898   7.029 -0.9249  0.5566 -0.5822
 5540SOL    HW228254   4.468   1.813   6.934  0.1566  0.1632 -0.0590
 5541SOL     OW28255   1.137   1.076   8.181  0.2422  0.8474 -0.1529
 5541SOL    HW128256   1.164   1.035   8.263 -2.5971 -1.0166 -0.1531
 5541SOL    HW228257   1.206   1.040   8.125  0.1753 -0.2211  0.4594
 5542SOL     OW28258   3.263   3.112   0.702  0.6829 -0.1735  0.2538
 5542SOL    HW128259   3.277   3.070   0.787 -1.1651  0.2695  0.7652
 5542SOL    HW228260   3.353   3.107   0.669  0.0812  1.9221 -1.6295
 5543SOL     OW28261   3.381   2.170   3.433 -0.1253 -0.1252  0.0102
 5543SOL    HW128262   3.471   2.142   3.452 -0.4708 -0.7442  0.7470
 5543SOL    HW228263   3.345   2.216   3.508  0.7606  1.2434 -0.4083
 5544SOL     OW28264   0.078   2.594   3.456 -0.1437 -0.7223 -0.5856
 5544SOL    HW128265   0.013   2.661   3.478 -0.3907 -1.1417 -0.0476
 5544SOL    HW228266   0.070   2.593   3.360 -0.6024  1.3598 -0.5783
 5545SOL     OW28267   2.775   0.344   0.996 -0.2713 -0.0803  0.7169
 5545SOL    HW128268   2.868   0.360   1.010 -0.2055 -0.7611  1.0471
 5545SOL    HW228269   2.764   0.331   0.902 -0.8688 -1.0662  0.9144
 5546SOL     OW28270   2.973   2.128   6.160  0.5043  0.1384  0.0337
 5546SOL    HW128271   2.911   2.158   6.226 -0.2188 -2.2665  0.4527
 5546SOL    HW228272   3.062   2.148   6.190  0.9098  0.8212 -1.6570
 5547SOL     OW28273   1.928   0.800   5.687  0.0324 -0.4168  0.0952
 5547SOL    HW128274   1.918   0.823   5.780  0.9758 -0.4331  0.1987
 5547SOL    HW228275   1.984   0.723   5.697 -0.6201 -1.0291 -0.9913
 5548SOL     OW28276   2.342   3.508   5.514 -0.8761 -0.1060  0.4359
 5548SOL    HW128277   2.354   3.574   5.446 -2.1485 -0.9373 -0.6020
 5548SOL    HW228278   2.339   3.437   5.450 -0.5396  2.3323 -2.3308
 5549SOL     OW28279   4.180   4.126   0.707  0.6740 -0.1802 -0.0817
 5549SOL    HW128280   4.096   4.167   0.685  0.9810 -1.1120 -2.9749
 5549SOL    HW228281   4.163   4.092   0.795 -0.5484 -0.1511 -0.2951
 5550SOL     OW28282   3.530   2.226  11.492  0.2973 -0.6144  0.0469
 5550SOL    HW128283   3.563   2.276  11.567  0.6248 -1.6169  0.5710
 5550SOL    HW228284   3.575   2.142  11.500  1.9409  0.3922  1.4410
 5551SOL     OW28285   3.962   4.523   4.374 -0.0404  0.2435  0.1929
 5551SOL    HW128286   4.052   4.548   4.394  0.3192 -0.0867 -1.0081
 5551SOL    HW228287   3.913   4.580   4.434  0.9146  1.2970 -0.0126
 5552SOL     OW28288   0.725   2.908   1.402 -0.2504 -0.4902 -0.2259
 5552SOL    HW128289   0.634   2.879   1.407 -0.5294  0.3386 -0.6295
 5552SOL    HW228290   0.735   2.922   1.308 -2.9383 -2.1565 -0.7782
 5553SOL     OW28291   0.054   2.007  15.428 -0.5643 -0.3439  0.2826
 5553SOL    HW128292   0.087   2.010  15.338 -1.0098 -0.7629  0.1061
 5553SOL    HW228293   0.081   2.094  15.457  0.5487  0.0544 -1.9172
 5554SOL     OW28294   2.273   1.235   3.957 -0.4019 -0.1954  0.1378
 5554SOL    HW128295   2.200   1.180   3.928 -0.0266 -2.0298  2.6364
 5554SOL    HW228296   2.317   1.175   4.018  2.4430  0.5749 -1.1710
 5555SOL     OW28297   4.073   3.638   3.466  0.2887  0.0701  0.2973
 5555SOL    HW128298   4.005   3.583   3.504 -0.0907  0.5584  0.3221
 5555SOL    HW228299   4.098   3.692   3.541  2.6984 -0.2793 -0.2463
 5556SOL     OW28300   2.114   3.307   8.619 -0.0069  0.0537  0.4689
 5556SOL    HW128301   2.206   3.323   8.640  0.1696 -0.7457  0.3204
 5556SOL    HW228302   2.103   3.216   8.646  0.7351 -0.5889 -1.4258
 5557SOL     OW28303   1.072   0.373  10.415 -0.2403 -0.3657 -0.1322
 5557SOL    HW128304   1.021   0.295  10.437 -4.0586  2.4626  1.1702
 5557SOL    HW228305   1.093   0.356  10.324 -2.1824  1.5319 -0.9357
 5558SOL     OW28306   3.007   4.438   4.714 -0.4266 -0.5441 -0.0495
 5558SOL    HW128307   3.015   4.480   4.628  1.5971 -0.6297  0.0884
 5558SOL    HW228308   3.099   4.424   4.737 -0.6102 -0.5585  0.6667
 5559SOL     OW28309   0.346   4.061   2.822 -0.1494  0.2697  0.2469
 5559SOL    HW128310   0.253   4.060   2.802 -0.5305  0.4430  2.0386
 5559SOL    HW228311   0.359   3.966   2.812 -0.8059  0.1684  0.3938
 5560SOL     OW28312   0.577   0.520  13.406 -0.1945 -0.1437 -0.6162
 5560SOL    HW128313   0.604   0.519  13.314 -1.6991  1.1922 -1.0859
 5560SOL    HW228314   0.659   0.535  13.453 -1.2965  1.4579  0.8093
 5561SOL     OW28315   0.395   4.045  12.644 -0.5706  0.7068 -0.4027
 5561SOL    HW128316   0.310   4.013  12.675  1.2824 -2.3802  1.5038
 5561SOL    HW228317   0.439   4.085  12.718  0.5065  1.4291 -1.4314
 5562SOL     OW28318   0.990   3.710   3.433  0.4030  0.0548  0.2230
 5562SOL    HW128319   0.899   3.718   3.459  0.7586 -0.1720  1.5430
 5562SOL    HW228320   0.998   3.651   3.358 -1.0944  0.0798  0.0504
 5563SOL     OW28321   0.024   1.403  15.273 -0.3754  0.4640  0.3980
 5563SOL    HW128322   4.736   1.494  15.285 -1.3831  0.1174  0.9546
 5563SOL    HW228323   0.027   1.378  15.366 -2.1330  0.4944  0.4597
 5564SOL     OW28324   4.211   2.879   4.463 -0.8712 -0.2770  0.5341
 5564SOL    HW128325   4.208   2.848   4.373 -2.0035 -0.0549  0.4880
 5564SOL    HW228326   4.303   2.901   4.479 -0.6560 -1.0702  0.3572
 5565SOL     OW28327   2.641   0.336   4.180 -0.3030  0.2942 -0.1122
 5565SOL    HW128328   2.602   0.256   4.215  1.4527 -0.8854 -0.8895
 5565SOL    HW228329   2.692   0.365   4.256  1.1006  1.5815 -1.5260
 5566SOL     OW28330   0.628   4.513   4.018  0.1799 -0.5664  0.3534
 5566SOL    HW128331   0.574   4.543   3.945 -2.2706 -0.4937  2.2111
 5566SOL    HW228332   0.679   4.452   3.965  0.6485  0.6565 -0.5998
 5567SOL     OW28333   1.343   2.181   8.266 -0.3051  0.0479 -0.1321
 5567SOL    HW128334   1.285   2.106   8.277  0.3592 -0.4707 -0.2116
 5567SOL    HW228335   1.366   2.197   8.358  0.5630  1.1142 -0.5314
 5568SOL     OW28336   1.975   3.196   6.139  0.1729 -0.0652  0.5833
 5568SOL    HW128337   1.948   3.185   6.230  1.9450 -0.0637  1.1099
 5568SOL    HW228338   1.913   3.143   6.089 -0.5334  1.5689 -0.2676
 5569SOL     OW28339   4.675   1.146  13.925  0.9493  0.4545  0.8764
 5569SOL    HW128340   0.033   1.145  13.913  0.7395  0.9317 -0.8071
 5569SOL    HW228341   4.646   1.132  13.835 -1.5263  1.0733  1.5838
 5570SOL     OW28342   4.544   3.203   5.860  0.1406 -0.3463  0.3296
 5570SOL    HW128343   4.610   3.268   5.835  2.2854 -2.6124  0.0982
 5570SOL    HW228344   4.493   3.219   5.780  1.6871  1.2149 -0.3525
 5571SOL     OW28345   3.551   2.889   4.290  0.5237  0.4804  0.3202
 5571SOL    HW128346   3.552   2.801   4.253  3.1601  0.1395  1.2002
 5571SOL    HW228347   3.458   2.904   4.310 -0.6775 -2.7134 -2.9755
 5572SOL     OW28348   2.599   1.892  16.208 -0.3321  0.0000  0.1714
 5572SOL    HW128349   2.602   1.974  16.257 -2.4131  1.3432 -1.9432
 5572SOL    HW228350   2.638   1.915  16.124  1.3093  0.0921  0.9637
 5573SOL     OW28351   0.668   3.922   5.953 -0.0972  0.0315 -0.0087
 5573SOL    HW128352   0.714   3.853   5.904 -0.1367  0.0014 -0.0041
 5573SOL    HW228353   0.581   3.881   5.950 -1.5046  3.0873 -0.9611
 5574SOL     OW28354   1.438   3.852   9.178  0.1741 -0.0274  0.1613
 5574SOL    HW128355   1.513   3.803   9.145  0.8850  2.3602 -1.7461
 5574SOL    HW228356   1.439   3.929   9.121  1.2998  0.8278  1.3542
 5575SOL     OW28357   4.002   2.757  11.404 -0.0405 -0.1281  0.2393
 5575SOL    HW128358   4.070   2.814  11.441 -0.1563  0.5058 -0.5169
 5575SOL    HW228359   4.011   2.784  11.313 -1.5421  0.7436  0.3508
 5576SOL     OW28360   4.213   1.270  15.831  0.1899 -0.3445 -0.5830
 5576SOL    HW128361   4.308   1.282  15.835  0.2647 -1.0142 -0.3151
 5576SOL    HW228362   4.186   1.310  15.749 -1.7900  1.0056  0.7129
 5577SOL     OW28363   0.549   0.085   5.474 -0.0655 -0.1722  0.0165
 5577SOL    HW128364   0.615   0.133   5.524  0.9404 -0.6767 -0.8356
 5577SOL    HW228365   0.582   0.087   5.385 -1.0927  1.7975 -0.3027
 5578SOL     OW28366   0.095   3.987   5.895 -0.3733  0.5021  0.0303
 5578SOL    HW128367   0.000   3.993   5.903 -0.4617 -2.3206  1.2604
 5578SOL    HW228368   0.117   3.951   5.981  0.2402  1.3280  0.2189
 5579SOL     OW28369   0.288   4.211   1.093  0.1179  0.2022 -0.1642
 5579SOL    HW128370   0.222   4.280   1.102  0.4985  0.3576  1.3680
 5579SOL    HW228371   0.284   4.173   1.180 -1.9764  0.0116 -0.3407
 5580SOL     OW28372   4.598   2.832   4.882 -0.4310 -0.0038 -0.4338
 5580SOL    HW128373   4.569   2.902   4.940  0.9505 -0.1948  0.4911
 5580SOL    HW228374   4.513   2.811   4.845 -0.5774  0.5147 -0.3912
 5581SOL     OW28375   1.362   2.026   1.628 -0.4435 -0.0120 -0.4038
 5581SOL    HW128376   1.333   1.989   1.544 -0.6427 -0.2452 -0.2330
 5581SOL    HW228377   1.456   2.039   1.613 -0.3832  0.6267  0.5928
 5582SOL     OW28378   4.305   3.844   1.442  0.3824  0.4688  0.0447
 5582SOL    HW128379   4.262   3.790   1.508 -1.1177  1.7772  0.1079
 5582SOL    HW228380   4.313   3.770   1.381  1.1065 -0.0770  0.7980
 5583SOL     OW28381   0.597   3.547   3.789  0.6094  1.1385 -0.1328
 5583SOL    HW128382   0.516   3.500   3.769  1.2074 -0.3420  0.8685
 5583SOL    HW228383   0.565   3.603   3.859 -0.1145  0.9503 -0.3103
 5584SOL     OW28384   1.950   2.327  15.839  0.6383  0.3064  0.0706
 5584SOL    HW128385   2.015   2.366  15.780 -0.1706 -0.3022 -1.2124
 5584SOL    HW228386   1.994   2.356  15.919 -1.2397  0.8221  0.9192
 5585SOL     OW28387   1.364   0.196   8.245 -0.2666 -0.4187 -0.1170
 5585SOL    HW128388   1.288   0.177   8.300 -0.2917  1.3064  0.4576
 5585SOL    HW228389   1.315   0.238   8.174  0.6519 -0.0017 -0.5190
 5586SOL     OW28390   1.172   1.308   7.323  0.6628  0.1819 -0.6927
 5586SOL    HW128391   1.183   1.225   7.369  0.4052 -0.6617 -2.1683
 5586SOL    HW228392   1.196   1.273   7.238  1.6279 -1.3736  0.2144
 5587SOL     OW28393   4.048   4.563  17.571  0.0805 -0.2313  0.2707
 5587SOL    HW128394   4.082   4.495  17.513  0.4899 -0.4277  0.7398
 5587SOL    HW228395   4.020   4.634  17.513 -1.1800  0.3081  1.5494
 5588SOL     OW28396   0.043   2.836  11.843  0.0238  0.4391 -0.3911
 5588SOL    HW128397   0.049   2.816  11.937 -3.2301 -0.0649 -0.3075
 5588SOL    HW228398   0.037   2.932  11.845 -1.4614  0.3265  1.1372
 5589SOL     OW28399   0.820   3.196   7.908  0.9428 -1.1851  0.1917
 5589SOL    HW128400   0.837   3.189   7.814  0.2723  0.3303 -0.0362
 5589SOL    HW228401   0.828   3.107   7.943 -0.5905 -1.3768  0.0800
 5590SOL     OW28402   0.808   1.221   1.915 -0.2564 -0.4276 -0.1287
 5590SOL    HW128403   0.855   1.279   1.855 -0.3263  0.8366  1.0441
 5590SOL    HW228404   0.779   1.279   1.985  0.9442  0.6782 -0.5464
 5591SOL     OW28405   0.576   2.967  14.071 -0.3069 -0.1906 -0.3050
 5591SOL    HW128406   0.617   3.035  14.017 -2.2470  1.2733  0.0352
 5591SOL    HW228407   0.508   3.021  14.112  0.6113  0.8975 -0.2284
 5592SOL     OW28408   3.424   4.308   1.746  0.5222 -0.5552  0.0910
 5592SOL    HW128409   3.394   4.379   1.690  0.5430  1.1039  2.1626
 5592SOL    HW228410   3.420   4.234   1.685  1.9776  0.6808 -1.4876
 5593SOL     OW28411   4.312   2.829   5.574 -0.8728  0.1603 -0.6135
 5593SOL    HW128412   4.268   2.804   5.493 -0.1028  0.1791 -1.0420
 5593SOL    HW228413   4.401   2.838   5.540 -0.7323 -0.2502 -0.3703
 5594SOL     OW28414   1.585   1.288   4.377  0.2366 -0.0147 -0.5583
 5594SOL    HW128415   1.509   1.230   4.381 -0.4369  1.0237  1.3977
 5594SOL    HW228416   1.604   1.308   4.468 -1.0202 -2.4548  0.2260
 5595SOL     OW28417   1.243   1.742   7.543 -0.1346  0.2211 -0.1925
 5595SOL    HW128418   1.194   1.823   7.529 -0.4314  0.5136  2.5308
 5595SOL    HW228419   1.207   1.711   7.626 -0.5582  2.5385  0.4947
 5596SOL     OW28420   1.840   2.362   5.393 -0.1884  0.2352  0.0381
 5596SOL    HW128421   1.878   2.289   5.442  0.0806 -0.0028 -0.5158
 5596SOL    HW228422   1.826   2.436   5.452  0.1486  0.7816 -0.5753
 5597SOL     OW28423   0.872   2.611  14.832  0.9288 -0.1554  0.1561
 5597SOL    HW128424   0.847   2.695  14.872 -0.2713 -0.8475  0.8680
 5597SOL    HW228425   0.811   2.605  14.758 -0.9069 -1.1939  1.7589
 5598SOL     OW28426   0.119   0.541   7.534 -0.1108  0.5688 -0.2973
 5598SOL    HW128427   0.184   0.482   7.496  1.1375 -0.4516  3.3725
 5598SOL    HW228428   0.046   0.483   7.511  1.5077 -0.7355 -2.1245
 5599SOL     OW28429   2.488   3.896  13.959  0.1702  0.5094  0.1256
 5599SOL    HW128430   2.546   3.903  14.035  0.7091  0.3742 -0.2668
 5599SOL    HW228431   2.538   3.946  13.894 -0.1441 -1.2682 -1.4822
 5600SOL     OW28432   4.235   4.306   1.838 -0.1170  0.2484  0.9121
 5600SOL    HW128433   4.310   4.352   1.875  0.3510  0.6630 -0.5936
 5600SOL    HW228434   4.249   4.347   1.753 -1.8458  0.4425  0.7193
 5601SOL     OW28435   2.998   4.299   8.344  0.1771  0.0103  0.9879
 5601SOL    HW128436   3.023   4.233   8.409  4.0175 -0.0634 -0.6096
 5601SOL    HW228437   3.078   4.351   8.346  1.3505 -1.7243 -2.0191
 5602SOL     OW28438   3.973   4.571   1.829 -0.3596  0.1694  0.5270
 5602SOL    HW128439   3.958   4.614   1.912  2.1234  1.0487  0.5247
 5602SOL    HW228440   3.924   4.632   1.774 -0.9325 -1.1404 -0.4443
 5603SOL     OW28441   1.237   4.323   8.862  0.1187 -0.2366  0.4451
 5603SOL    HW128442   1.248   4.401   8.917 -0.3236  0.6597 -0.7501
 5603SOL    HW228443   1.302   4.264   8.901 -0.0236 -0.0431  0.9808
 5604SOL     OW28444   2.841   1.867   3.670  0.0563 -0.1665  0.1878
 5604SOL    HW128445   2.750   1.899   3.673  0.2496  0.3256  0.8895
 5604SOL    HW228446   2.826   1.780   3.634  1.1867  0.4669 -1.7977
 5605SOL     OW28447   3.274   3.090  16.312  0.0834  0.5851 -0.6843
 5605SOL    HW128448   3.215   3.047  16.375 -0.6455  1.2615 -0.9036
 5605SOL    HW228449   3.267   3.024  16.242  0.2031 -1.0027  0.7833
 5606SOL     OW28450   1.780   3.072   3.234  0.0796 -0.0808 -0.2237
 5606SOL    HW128451   1.686   3.060   3.243  0.0050 -0.2005 -1.1192
 5606SOL    HW228452   1.816   2.986   3.215 -1.2158 -0.5615 -0.5002
 5607SOL     OW28453   1.412   1.262   6.154 -0.4349 -0.1562 -0.4280
 5607SOL    HW128454   1.488   1.206   6.172 -0.3975  0.6777  1.9246
 5607SOL    HW228455   1.375   1.300   6.233 -0.4532  1.1543 -1.0772
 5608SOL     OW28456   2.878   0.687   3.964 -0.3118 -0.2227 -0.1819
 5608SOL    HW128457   2.785   0.700   3.947  0.2805 -0.7491 -3.9051
 5608SOL    HW228458   2.864   0.684   4.058  0.4039  1.3528 -0.0337
 5609SOL     OW28459   1.362   0.275   7.413 -0.0864  0.1339  0.2785
 5609SOL    HW128460   1.413   0.214   7.467 -1.8515 -2.3110 -0.8089
 5609SOL    HW228461   1.272   0.262   7.440 -0.1842  0.5938  0.1769
 5610SOL     OW28462   2.530   3.849   2.406 -0.4854  0.0604  0.2923
 5610SOL    HW128463   2.520   3.781   2.339 -0.9000 -0.7125  1.1249
 5610SOL    HW228464   2.469   3.921   2.390  0.0397  0.4516  0.0529
 5611SOL     OW28465   0.955   0.871   5.077  0.1072  0.5158  0.0379
 5611SOL    HW128466   1.000   0.847   4.996  0.1380  1.7198 -0.3126
 5611SOL    HW228467   0.927   0.781   5.089 -0.0970  0.6183  0.3408
 5612SOL     OW28468   4.240   0.613   4.512 -0.3656 -0.2721 -0.2842
 5612SOL    HW128469   4.252   0.666   4.433  0.3257  3.2728  2.2259
 5612SOL    HW228470   4.330   0.593   4.539 -0.6581 -1.1823  0.0027
 5613SOL     OW28471   1.502   2.882   6.892 -0.2454  0.1374 -0.1397
 5613SOL    HW128472   1.577   2.824   6.878 -0.9494 -0.7632 -0.2222
 5613SOL    HW228473   1.491   2.939   6.816  0.0550 -0.1267 -0.3834
 5614SOL     OW28474   1.199   0.310  12.252  0.2111  0.4120  0.7735
 5614SOL    HW128475   1.133   0.288  12.187  0.0425 -1.7974  1.7112
 5614SOL    HW228476   1.274   0.253  12.241  0.2902  0.5720  0.4823
 5615SOL     OW28477   2.387   0.735   5.474 -0.5141  0.1257 -0.2764
 5615SOL    HW128478   2.403   0.765   5.384 -3.1797 -0.3441 -0.8883
 5615SOL    HW228479   2.312   0.790   5.495  0.8882  1.6589  0.7259
 5616SOL     OW28480   1.569   1.530   1.295 -0.3539  0.0805  0.0461
 5616SOL    HW128481   1.479   1.558   1.311  0.3753  1.7129  1.2474
 5616SOL    HW228482   1.552   1.460   1.232 -1.8361  1.3604 -0.9896
 5617SOL     OW28483   2.860   4.172   4.134  0.2244  0.5386  0.0097
 5617SOL    HW128484   2.931   4.204   4.190 -0.0189  1.0453  0.0253
 5617SOL    HW228485   2.825   4.107   4.194 -1.2085 -0.4201 -1.8560
 5618SOL     OW28486   2.658   0.611   5.967 -0.2960 -0.1619  0.1419
 5618SOL    HW128487   2.675   0.692   5.918 -3.6728 -0.5493 -1.6940
 5618SOL    HW228488   2.566   0.631   5.987 -0.4874  1.1523 -2.0083
 5619SOL     OW28489   2.209   3.411   7.935 -0.5475 -0.5352  0.3320
 5619SOL    HW128490   2.149   3.474   7.895 -1.0372 -2.0512 -1.3135
 5619SOL    HW228491   2.258   3.386   7.856  1.1478  1.1951  0.8220
 5620SOL     OW28492   2.247   4.493   7.621 -0.1881  0.0742 -0.4151
 5620SOL    HW128493   2.332   4.496   7.577 -0.0215  1.9105  0.0300
 5620SOL    HW228494   2.194   4.538   7.555  0.1000  0.9234 -0.0757
 5621SOL     OW28495   0.388   1.452   7.141  0.6407 -0.3426 -0.3392
 5621SOL    HW128496   0.311   1.501   7.170  0.9791  0.4561 -0.7985
 5621SOL    HW228497   0.448   1.526   7.130  2.0313 -1.7172 -2.0321
 5622SOL     OW28498   3.766   1.865  17.723  0.4100  0.4300 -0.3317
 5622SOL    HW128499   3.813   1.782  17.726 -0.8559 -0.2761 -0.2327
 5622SOL    HW228500   3.821   1.920  17.666  0.5452  0.0279 -0.5874
 5623SOL     OW28501   2.221   1.621   3.278  0.3081  0.2350 -0.1826
 5623SOL    HW128502   2.288   1.665   3.330 -1.1109  0.8723  1.1237
 5623SOL    HW228503   2.191   1.695   3.226  2.3251  2.9400  2.5139
 5624SOL     OW28504   0.485   0.487   2.044  0.8512 -0.0841  0.3933
 5624SOL    HW128505   0.480   0.406   2.094 -0.1213 -0.4658 -0.3240
 5624SOL    HW228506   0.502   0.446   1.959 -1.2043 -4.0992  1.9112
 5625SOL     OW28507   0.385   4.581   6.582  0.0551 -1.0225  0.2528
 5625SOL    HW128508   0.351   4.622   6.503  2.5497  0.7661  0.0966
 5625SOL    HW228509   0.473   4.617   6.595 -0.2548 -0.1203 -0.1344
 5626SOL     OW28510   1.941   2.490   2.817  0.5372  0.1281 -0.0582
 5626SOL    HW128511   1.884   2.416   2.794 -0.4670  0.8353  0.1257
 5626SOL    HW228512   1.884   2.551   2.864  0.0815  0.2683 -0.7869
 5627SOL     OW28513   3.723   0.949   6.725  0.6149 -0.0772  0.1132
 5627SOL    HW128514   3.700   1.006   6.798 -1.9405  0.2361 -0.9437
 5627SOL    HW228515   3.696   0.864   6.757  3.7069 -1.6071 -1.3341
 5628SOL     OW28516   3.318   1.598   5.100  0.6170  0.0010  0.8918
 5628SOL    HW128517   3.347   1.532   5.163  0.4546  1.3191  2.3439
 5628SOL    HW228518   3.340   1.677   5.150 -0.4764  0.7369  0.2212
 5629SOL     OW28519   4.712   0.266  11.771 -0.1106  0.0882  0.0635
 5629SOL    HW128520   4.696   0.359  11.791  0.7978  0.2319  0.1271
 5629SOL    HW228521   4.640   0.249  11.710  0.5704  2.6224 -1.4688
 5630SOL     OW28522   0.378   0.672   4.282  0.0345 -0.0184  0.4248
 5630SOL    HW128523   0.360   0.765   4.271 -1.1490 -0.3736 -0.6465
 5630SOL    HW228524   0.334   0.639   4.203 -0.7095 -0.5848  1.0716
 5631SOL     OW28525   2.502   1.124   4.591  0.1331 -0.1677  0.5088
 5631SOL    HW128526   2.429   1.182   4.614  0.8140  0.2501  1.5964
 5631SOL    HW228527   2.575   1.158   4.642  0.1132 -0.7246  0.9099
 5632SOL     OW28528   0.495   1.700   2.363  0.0958 -0.1724  0.5310
 5632SOL    HW128529   0.446   1.705   2.281 -1.5852  0.1453  1.5489
 5632SOL    HW228530   0.482   1.788   2.398 -0.0122 -0.2169  0.6034
 5633SOL     OW28531   0.557   1.038  14.170 -0.6608  0.4398  0.0212
 5633SOL    HW128532   0.572   0.945  14.153 -1.2116  0.0776  1.5983
 5633SOL    HW228533   0.471   1.037  14.212 -0.7882 -0.2660 -0.2456
 5634SOL     OW28534   3.519   3.086   1.910  0.1950  0.5237  0.5180
 5634SOL    HW128535   3.498   3.176   1.936 -1.0847 -0.0982  1.6071
 5634SOL    HW228536   3.507   3.084   1.815  0.9866  2.3264  0.3709
 5635SOL     OW28537   3.069   2.414   7.552  0.1928  0.0050  0.4189
 5635SOL    HW128538   3.125   2.491   7.563  1.8852 -1.0346 -0.8588
 5635SOL    HW228539   2.983   2.454   7.542 -0.1011 -0.7976 -0.2047
 5636SOL     OW28540   3.063   3.117   9.812 -0.4654  0.0484  0.2319
 5636SOL    HW128541   3.008   3.050   9.854  0.5907 -0.7629  0.3340
 5636SOL    HW228542   3.008   3.132   9.735 -2.5424  0.3541  1.7584
 5637SOL     OW28543   1.931   3.917   6.383  0.6428  0.1066  0.1877
 5637SOL    HW128544   1.948   3.942   6.474  1.8107  0.9606 -0.2607
 5637SOL    HW228545   1.905   3.825   6.396 -0.1059  0.4394  1.0385
 5638SOL     OW28546   1.169   3.411  12.808 -0.0384  0.0945 -0.1516
 5638SOL    HW128547   1.192   3.485  12.753 -1.9098  0.6559 -0.1839
 5638SOL    HW228548   1.098   3.376  12.753 -0.8202  0.8976  0.3526
 5639SOL     OW28549   0.651   0.063   8.295 -0.7130  0.5027 -0.1347
 5639SOL    HW128550   0.634   0.028   8.383  1.2886 -0.9977 -0.3414
 5639SOL    HW228551   0.624   4.721   8.248 -0.9038  1.2470 -1.2674
 5640SOL     OW28552   3.148   2.848   9.149  0.8789  0.1558  0.0783
 5640SOL    HW128553   3.211   2.919   9.138  0.2214  0.4255 -2.0742
 5640SOL    HW228554   3.158   2.811   9.236  1.4292  3.6368  1.4696
 5641SOL     OW28555   1.163   1.657   1.613  0.2973  0.1703 -0.1262
 5641SOL    HW128556   1.081   1.704   1.599 -0.8283 -2.3070 -1.7669
 5641SOL    HW228557   1.194   1.715   1.683 -1.9233 -1.0654  1.8821
 5642SOL     OW28558   4.284   3.474   2.264 -0.2102  0.5015 -0.1559
 5642SOL    HW128559   4.215   3.408   2.271  2.2391 -2.0642  0.0688
 5642SOL    HW228560   4.361   3.418   2.277 -1.3147 -0.8214  0.6573
 5643SOL     OW28561   0.418   4.226  15.947  0.0981 -0.1946 -0.7265
 5643SOL    HW128562   0.462   4.248  15.865 -1.5702 -1.3471 -1.9162
 5643SOL    HW228563   0.460   4.142  15.964  0.8925  0.4651  0.6186
 5644SOL     OW28564   3.194   4.566   2.248 -0.2473 -0.2784  0.1421
 5644SOL    HW128565   3.218   4.641   2.302 -1.8139  0.6873 -0.5285
 5644SOL    HW228566   3.147   4.508   2.308 -0.9146  0.1974  0.0768
 5645SOL     OW28567   0.797   2.289   5.875 -0.2488 -0.1399 -0.2600
 5645SOL    HW128568   0.710   2.314   5.844 -0.7735  0.0971  1.4324
 5645SOL    HW228569   0.798   2.319   5.966 -0.1001 -0.4280 -0.1667
 5646SOL     OW28570   1.920   2.616   6.622  0.1943 -0.1272 -0.2166
 5646SOL    HW128571   1.833   2.583   6.643  0.2713 -1.2684 -1.7148
 5646SOL    HW228572   1.918   2.701   6.667 -0.2460  0.0346 -0.5508
 5647SOL     OW28573   3.402   4.034   5.275 -0.1509 -0.4135  0.4113
 5647SOL    HW128574   3.441   3.958   5.320  1.7669  0.5342  0.3334
 5647SOL    HW228575   3.470   4.056   5.211 -0.8447  0.5428  0.0103
 5648SOL     OW28576   4.275   1.693   5.520  0.0332 -0.5598  0.0419
 5648SOL    HW128577   4.309   1.661   5.603  0.3397 -0.9696 -0.2368
 5648SOL    HW228578   4.198   1.638   5.507 -0.7061  0.4661  0.1506
 5649SOL     OW28579   2.300   3.672   5.287 -0.0475  0.4227 -0.8953
 5649SOL    HW128580   2.313   3.761   5.253 -0.2448  0.3359 -1.1989
 5649SOL    HW228581   2.206   3.679   5.304 -0.0983 -0.8461 -0.6667
 5650SOL     OW28582   0.024   3.393   8.651  0.6222 -0.0876 -0.3887
 5650SOL    HW128583   0.064   3.307   8.638 -0.9690 -0.8255 -0.2926
 5650SOL    HW228584   4.713   3.424   8.574 -1.3995 -1.8431  0.1682
 5651SOL     OW28585   1.945   1.423   2.768 -0.2712  0.6707 -0.3640
 5651SOL    HW128586   1.874   1.458   2.713 -0.0059  2.1903  0.2554
 5651SOL    HW228587   1.981   1.349   2.718  0.0894 -0.2812  1.3181
 5652SOL     OW28588   3.405   4.215   5.581  0.0921 -0.2990 -0.4007
 5652SOL    HW128589   3.366   4.131   5.604 -1.2285  0.7395  1.1890
 5652SOL    HW228590   3.369   4.241   5.496 -1.0511 -0.1657  0.1309
 5653SOL     OW28591   2.780   4.483  10.127 -0.5195  0.6147  0.2355
 5653SOL    HW128592   2.774   4.468  10.221  0.0901 -1.9581 -0.1448
 5653SOL    HW228593   2.794   4.394  10.094 -0.1545  0.3217  1.1961
 5654SOL     OW28594   1.375   0.584  14.053  0.3104  0.1144 -0.2204
 5654SOL    HW128595   1.338   0.544  13.975 -2.9857 -1.4302  2.1106
 5654SOL    HW228596   1.461   0.545  14.063 -0.0098 -0.7946 -1.0353
 5655SOL     OW28597   0.016   0.832  11.851  0.0416  0.1375  0.2298
 5655SOL    HW128598   0.031   0.926  11.860  3.5668 -0.0845 -3.1405
 5655SOL    HW228599   0.003   0.833  11.756  0.2548 -0.9607  0.1873
 5656SOL     OW28600   3.068   0.852   2.957  0.1693 -0.2350 -0.3111
 5656SOL    HW128601   3.091   0.879   3.045  0.6223 -2.8419  0.3864
 5656SOL    HW228602   3.123   0.774   2.946 -1.6508 -1.7722  1.6405
 5657SOL     OW28603   1.543   3.131   5.894 -0.6216 -0.2733  0.1765
 5657SOL    HW128604   1.487   3.082   5.953 -0.7135 -0.5433 -0.1352
 5657SOL    HW228605   1.510   3.220   5.906 -0.7044  0.0299 -2.2118
 5658SOL     OW28606   4.708   3.666   8.236  0.2635  0.1526  0.2318
 5658SOL    HW128607   0.040   3.723   8.204  0.7679 -0.4918  0.1548
 5658SOL    HW228608   4.640   3.732   8.250  0.1142  0.0942 -0.2022
 5659SOL     OW28609   3.387   0.956   7.503  0.0657 -0.1751  0.5964
 5659SOL    HW128610   3.330   0.908   7.562 -0.1115 -1.2144 -0.4109
 5659SOL    HW228611   3.356   0.908   7.426  0.8994 -0.2390  0.2925
 5660SOL     OW28612   2.751   3.522   1.679 -0.3736 -0.5264 -0.1502
 5660SOL    HW128613   2.754   3.533   1.584  0.3530  1.0467  0.0603
 5660SOL    HW228614   2.729   3.612   1.705 -2.2012 -1.6156  2.0877
 5661SOL     OW28615   1.931   2.796  14.422 -0.0352 -0.6508 -0.1611
 5661SOL    HW128616   1.894   2.763  14.504 -0.4532 -2.1111 -0.9517
 5661SOL    HW228617   1.902   2.888  14.421  0.3670 -0.5221 -0.1475
 5662SOL     OW28618   3.790   1.915   6.623 -0.6756  0.6054  0.2542
 5662SOL    HW128619   3.823   1.889   6.709  0.1208  0.1763 -0.1843
 5662SOL    HW228620   3.700   1.937   6.646 -1.5199 -1.0141 -1.5426
 5663SOL     OW28621   1.791   2.983   2.628 -0.5703  0.5156 -0.8176
 5663SOL    HW128622   1.848   3.054   2.657 -0.6632  0.7691 -1.2564
 5663SOL    HW228623   1.852   2.909   2.628 -2.2582 -0.8842 -1.3140
 5664SOL     OW28624   2.167   1.367   6.935 -0.1082  0.1277 -0.2693
 5664SOL    HW128625   2.141   1.459   6.944  1.2507  0.3024  1.8878
 5664SOL    HW228626   2.087   1.319   6.917 -1.6104  1.6451  2.2986
 5665SOL     OW28627   0.852   1.141   5.116 -0.1100  0.0175  0.6754
 5665SOL    HW128628   0.906   1.064   5.096 -0.2625 -0.2591  1.3122
 5665SOL    HW228629   0.818   1.117   5.202 -1.4675  0.1330  0.1634
 5666SOL     OW28630   1.853   0.494   9.027 -0.0086 -0.5253  0.0584
 5666SOL    HW128631   1.833   0.458   9.114 -0.4716 -0.4397 -0.0164
 5666SOL    HW228632   1.946   0.509   9.044  0.1942 -2.1833  0.4742
 5667SOL     OW28633   4.137   3.863  12.244 -0.3165  0.0141  0.1282
 5667SOL    HW128634   4.172   3.777  12.220 -0.4901  0.0822 -0.3618
 5667SOL    HW228635   4.059   3.842  12.296  0.1463 -0.7717  0.5087
 5668SOL     OW28636   1.578   0.910   1.077 -0.1478  0.1486 -0.3528
 5668SOL    HW128637   1.672   0.902   1.063 -0.4226 -1.4089 -1.3131
 5668SOL    HW228638   1.566   0.996   1.116  1.0947  0.3702 -0.4597
 5669SOL     OW28639   0.848   1.923   4.368 -0.1993 -0.6069  0.2667
 5669SOL    HW128640   0.921   1.953   4.423 -0.5192 -0.3903  0.5723
 5669SOL    HW228641   0.888   1.837   4.355  0.3290 -0.5468  1.4401
 5670SOL     OW28642   4.127   4.192   8.597 -0.3825  1.1421 -0.0533
 5670SOL    HW128643   4.038   4.175   8.628  0.5585 -4.3615 -0.3873
 5670SOL    HW228644   4.130   4.287   8.580  3.3525  1.2831  1.4242
 5671SOL     OW28645   0.172   3.084   6.868 -0.1956 -0.2148  0.4149
 5671SOL    HW128646   0.241   3.136   6.910  1.0217  1.3246 -3.5081
 5671SOL    HW228647   0.092   3.115   6.909 -0.9611 -0.1572 -1.1269
 5672SOL     OW28648   2.157   1.894  13.805  0.4046  0.2518 -0.0663
 5672SOL    HW128649   2.063   1.905  13.797  0.2417 -0.6845  0.5492
 5672SOL    HW228650   2.160   1.862  13.715  1.1567 -0.6592  0.2795
 5673SOL     OW28651   2.681   3.540   7.913 -0.4776  0.6201 -0.2897
 5673SOL    HW128652   2.653   3.624   7.878 -1.2514 -0.1340 -1.4814
 5673SOL    HW228653   2.712   3.492   7.836 -1.0609 -2.7244  1.5169
 5674SOL     OW28654   0.736   0.474   6.701 -0.2482  0.1231 -0.6054
 5674SOL    HW128655   0.774   0.390   6.726 -0.9561 -0.2987 -0.9569
 5674SOL    HW228656   0.782   0.494   6.619  0.0202  3.2226  0.2918
 5675SOL     OW28657   3.337   3.923   7.250  0.6499 -0.0036  0.0497
 5675SOL    HW128658   3.327   3.984   7.323 -2.9037  1.4254 -1.6319
 5675SOL    HW228659   3.367   3.979   7.178  1.4978 -0.6451 -0.1077
 5676SOL     OW28660   4.250   4.655   8.342 -0.1174  0.7746 -0.0754
 5676SOL    HW128661   4.255   4.660   8.246  0.8839 -4.9543 -0.3288
 5676SOL    HW228662   4.235   0.008   8.372 -0.5929  1.1737 -1.4876
 5677SOL     OW28663   0.395   1.491  13.541 -0.6810  0.2648 -0.4219
 5677SOL    HW128664   0.442   1.410  13.557 -1.2323  0.0881  0.3275
 5677SOL    HW228665   0.471   1.549  13.534 -0.1667 -0.5755 -1.8957
 5678SOL     OW28666   3.631   2.660   6.559 -0.4162 -0.1883  0.3276
 5678SOL    HW128667   3.677   2.683   6.639 -0.6320  1.4114 -0.0102
 5678SOL    HW228668   3.569   2.733   6.563 -1.1210 -0.7632 -0.0375
 5679SOL     OW28669   3.352   3.135   4.492  0.5549  1.1308 -0.4479
 5679SOL    HW128670   3.383   3.048   4.517 -0.9818  1.2097  1.7074
 5679SOL    HW228671   3.257   3.128   4.494  0.4643  2.2177 -1.3112
 5680SOL     OW28672   1.443   4.218   9.562 -0.0389 -0.4788 -0.2292
 5680SOL    HW128673   1.501   4.172   9.623  1.2983 -0.2209 -1.3168
 5680SOL    HW228674   1.356   4.179   9.558 -0.3209  0.1712 -0.4426
 5681SOL     OW28675   0.016   4.655   9.320  0.0548 -0.5871  0.2654
 5681SOL    HW128676   4.710   4.585   9.270  1.3298 -1.2322  0.0723
 5681SOL    HW228677   4.680   4.695   9.367  0.6481 -1.0217  1.5351
 5682SOL     OW28678   2.871   3.276  11.131  0.1301  0.4519 -0.2675
 5682SOL    HW128679   2.841   3.186  11.146  1.9284  0.0116  0.7493
 5682SOL    HW228680   2.937   3.269  11.062  0.0378 -0.9820 -0.2282
 5683SOL     OW28681   0.321   1.280   0.202  0.9612 -0.1413  0.0888
 5683SOL    HW128682   0.233   1.244   0.189  0.5208  1.3162 -0.9128
 5683SOL    HW228683   0.298   1.368   0.232  0.6614 -0.2303  0.1142
 5684SOL     OW28684   3.626   3.663   1.493  0.0997  0.1947 -0.2964
 5684SOL    HW128685   3.686   3.737   1.488  0.8803 -0.4479 -0.4027
 5684SOL    HW228686   3.577   3.674   1.575  0.8311  0.5662  0.0947
 5685SOL     OW28687   3.640   2.629  13.849  0.1445  0.0855 -0.2789
 5685SOL    HW128688   3.670   2.675  13.928  1.0598  1.7501 -1.5890
 5685SOL    HW228689   3.720   2.626  13.798  0.1318 -0.9010 -0.2341
 5686SOL     OW28690   3.587   0.305   7.629 -0.5812 -0.2114  0.4418
 5686SOL    HW128691   3.655   0.293   7.563 -1.7932 -0.3943 -0.7702
 5686SOL    HW228692   3.629   0.378   7.676 -1.4406  1.4831 -1.4320
 5687SOL     OW28693   1.935   0.545   8.526  0.2938  0.6517  0.0964
 5687SOL    HW128694   1.886   0.564   8.606 -1.2545  0.6504 -0.8571
 5687SOL    HW228695   1.971   0.460   8.550  1.5239  0.7215 -1.4714
 5688SOL     OW28696   4.402   4.601   6.141 -0.0812  0.3330 -0.1187
 5688SOL    HW128697   4.379   4.527   6.085 -1.0143  1.1713 -0.8359
 5688SOL    HW228698   4.462   4.554   6.200 -1.4040  1.0477  1.8135
 5689SOL     OW28699   3.425   3.427   8.610  0.2109 -0.0218  0.0274
 5689SOL    HW128700   3.471   3.355   8.654 -3.5761 -2.1729  0.4469
 5689SOL    HW228701   3.334   3.410   8.635 -0.2775  1.5720 -0.6417
 5690SOL     OW28702   2.777   4.720   8.624 -0.0717  0.0959 -0.0467
 5690SOL    HW128703   2.813   4.671   8.550  1.1979 -0.5696  1.0067
 5690SOL    HW228704   2.740   4.646   8.673  1.7290 -1.3755 -0.9103
 5691SOL     OW28705   1.732   0.597  10.270 -0.2309 -0.4835  0.5519
 5691SOL    HW128706   1.779   0.543  10.334 -1.7801  0.2542  2.3118
 5691SOL    HW228707   1.773   0.682  10.285 -0.0875 -0.2688 -1.0583
 5692SOL     OW28708   3.344   0.315   8.912 -0.2827  0.0933 -0.0436
 5692SOL    HW128709   3.251   0.294   8.927 -0.0373 -0.1011  1.2654
 5692SOL    HW228710   3.346   0.410   8.909 -0.5851  0.1442  1.1690
 5693SOL     OW28711   3.698   1.183   4.800 -0.1610  0.2994  0.5046
 5693SOL    HW128712   3.752   1.244   4.751  0.7156 -0.8100  0.0972
 5693SOL    HW228713   3.616   1.232   4.798 -0.3584 -0.1021 -0.7643
 5694SOL     OW28714   2.504   0.255  16.734 -0.1208  0.0144 -0.1077
 5694SOL    HW128715   2.432   0.203  16.771  0.4179 -0.5531  0.1464
 5694SOL    HW228716   2.457   0.338  16.736 -1.9587 -1.0321 -0.3410
 5695SOL     OW28717   0.675   3.818   4.481 -0.4912 -0.2463  0.0122
 5695SOL    HW128718   0.601   3.762   4.503  0.2625 -0.9306  0.8117
 5695SOL    HW228719   0.657   3.894   4.536  0.5229 -0.1389  0.1847
 5696SOL     OW28720   4.147   1.049   6.091  0.2395  0.1054 -0.2683
 5696SOL    HW128721   4.221   1.005   6.134 -1.6208 -1.1894  1.6153
 5696SOL    HW228722   4.185   1.070   6.006  1.3664 -0.2490  0.1382
 5697SOL     OW28723   1.846   4.709   6.082 -0.4164 -0.7069  0.3064
 5697SOL    HW128724   1.769   4.714   6.139 -0.8066  0.8294 -0.3793
 5697SOL    HW228725   1.838   0.057   6.041  0.9382 -0.8248 -0.2078
 5698SOL     OW28726   1.658   4.136   1.826  0.6894  0.3433  0.7041
 5698SOL    HW128727   1.737   4.092   1.857  1.7407 -0.7810 -3.5724
 5698SOL    HW228728   1.693   4.219   1.795 -2.1325  0.6221 -1.7279
 5699SOL     OW28729   2.024   0.866   3.339 -0.1312  0.5025 -0.5664
 5699SOL    HW128730   1.971   0.861   3.260 -0.1193 -1.1428 -0.4603
 5699SOL    HW228731   2.112   0.848   3.307  1.1779 -0.3161  3.4115
 5700SOL     OW28732   4.450   3.350   8.255 -0.2386  0.4495  0.2389
 5700SOL    HW128733   4.416   3.302   8.179 -0.6509 -0.2186  0.8404
 5700SOL    HW228734   4.545   3.340   8.249 -0.1365  1.9434 -0.6377
 5701SOL     OW28735   4.118   4.089   5.081 -0.1360 -0.0623 -0.6721
 5701SOL    HW128736   4.123   4.006   5.129 -2.5416 -0.1335 -0.5350
 5701SOL    HW228737   4.206   4.106   5.046  0.1298 -2.4407 -1.1433
 5702SOL     OW28738   1.441   1.025  14.124  0.3880  0.0247  0.0064
 5702SOL    HW128739   1.492   1.093  14.080 -0.9183  0.7662 -0.3745
 5702SOL    HW228740   1.408   0.976  14.049 -0.3151  3.6259 -2.0318
 5703SOL     OW28741   4.451   3.241   4.431 -1.2119 -0.1373 -0.5267
 5703SOL    HW128742   4.365   3.233   4.388 -2.2427  2.2793  1.0888
 5703SOL    HW228743   4.457   3.333   4.454  1.1852 -0.6457  0.8043
 5704SOL     OW28744   4.011   1.719   3.578 -1.1173 -0.0245 -0.2491
 5704SOL    HW128745   3.916   1.729   3.566 -1.0195  0.8963 -0.3063
 5704SOL    HW228746   4.024   1.739   3.671  3.0323 -0.1499 -0.7967
 5705SOL     OW28747   0.059   3.989  13.648 -0.0509 -0.2985 -0.0168
 5705SOL    HW128748   0.096   4.075  13.626 -0.5453 -0.4733 -1.4800
 5705SOL    HW228749   0.118   3.926  13.607 -0.9462 -0.0697 -1.6681
 5706SOL     OW28750   4.244   3.184   5.377 -0.1553 -0.1915  0.0735
 5706SOL    HW128751   4.167   3.221   5.419 -0.3396 -0.3874 -0.0922
 5706SOL    HW228752   4.205   3.103   5.346 -0.9453 -0.4115  1.6596
 5707SOL     OW28753   3.762   3.108   6.086  0.2088 -0.5958 -0.1249
 5707SOL    HW128754   3.762   3.029   6.140  0.2910 -1.3913 -1.2772
 5707SOL    HW228755   3.730   3.075   6.002 -1.5585 -0.1883  0.4049
 5708SOL     OW28756   1.643   1.180   0.942  0.8293  0.0316  0.5199
 5708SOL    HW128757   1.665   1.255   0.887 -0.7116 -0.6494 -1.0252
 5708SOL    HW228758   1.704   1.112   0.915  0.1869  0.0599 -0.9575
 5709SOL     OW28759   1.777   2.394  10.283  0.5589  0.0143 -0.2299
 5709SOL    HW128760   1.831   2.337  10.229  0.0665 -2.5491  1.9974
 5709SOL    HW228761   1.826   2.472  10.310 -1.8901  2.3074 -2.3882
 5710SOL     OW28762   1.385   1.272  16.086  0.1347  0.3271 -0.1921
 5710SOL    HW128763   1.370   1.229  16.002  0.2549 -0.9831  0.4631
 5710SOL    HW228764   1.442   1.345  16.064 -1.2077  0.7416 -2.2643
 5711SOL     OW28765   0.183   1.448  13.715 -0.4544  0.2928 -0.3890
 5711SOL    HW128766   0.177   1.534  13.755  1.5857  0.3606 -0.2287
 5711SOL    HW228767   0.261   1.461  13.661 -0.0494 -0.0981  0.1049
 5712SOL     OW28768   0.949   0.297   0.098  0.3426  0.0083  0.3147
 5712SOL    HW128769   0.910   0.238   0.162 -1.4922  1.6035  0.6615
 5712SOL    HW228770   0.989   0.356   0.162 -0.9219  0.3174  0.8248
 5713SOL     OW28771   1.615   4.067   2.696 -0.4891 -0.6558 -0.1706
 5713SOL    HW128772   1.653   3.979   2.700 -0.7348 -0.7360  0.5069
 5713SOL    HW228773   1.695   4.113   2.720  1.0307 -4.1304  1.5321
 5714SOL     OW28774   2.546   3.409   2.974 -0.7528 -0.4625 -0.0115
 5714SOL    HW128775   2.620   3.362   3.013  0.4103 -1.5529 -3.6084
 5714SOL    HW228776   2.518   3.339   2.916 -1.6485  0.2613 -0.4647
 5715SOL     OW28777   4.658   0.057   5.201 -0.7520 -0.3028 -0.2534
 5715SOL    HW128778   4.683   4.704   5.224 -0.4044 -0.1987 -0.2224
 5715SOL    HW228779   0.001   0.081   5.154 -0.3630 -1.9198 -0.4295
 5716SOL     OW28780   1.265   0.259  10.590 -0.1234 -0.1683 -0.3964
 5716SOL    HW128781   1.196   0.261  10.656  0.8376  1.9627  0.5560
 5716SOL    HW228782   1.216   0.289  10.513 -1.4757 -2.0957 -0.2618
 5717SOL     OW28783   1.336   3.050   2.440  0.2010 -0.0432  0.6472
 5717SOL    HW128784   1.314   3.104   2.365  1.1289  1.7158  1.6362
 5717SOL    HW228785   1.432   3.042   2.432  0.1013  0.0955 -0.6363
 5718SOL     OW28786   1.669   0.312   7.713 -0.6563  0.4007  0.2170
 5718SOL    HW128787   1.611   0.349   7.779 -0.8038 -1.5608  1.1796
 5718SOL    HW228788   1.750   0.356   7.735 -1.3303  2.3570 -1.2226
 5719SOL     OW28789   1.239   3.540  16.871  0.1522 -0.5107 -0.3107
 5719SOL    HW128790   1.215   3.518  16.961  1.7066 -1.0309 -0.0113
 5719SOL    HW228791   1.334   3.532  16.882 -0.1077 -0.3962  2.1247
 5720SOL     OW28792   4.506   4.605   8.467  0.3189 -0.2272  0.4492
 5720SOL    HW128793   4.430   4.627   8.413  1.1221  2.8212  0.5433
 5720SOL    HW228794   4.519   4.681   8.525 -1.3016 -0.2816  0.8869
 5721SOL     OW28795   2.185   3.193   6.570 -0.2333 -0.0637 -0.2749
 5721SOL    HW128796   2.262   3.206   6.625 -0.4655  1.3338 -0.2648
 5721SOL    HW228797   2.221   3.181   6.482  1.0714  1.0711  0.1016
 5722SOL     OW28798   0.021   1.431   8.371 -0.4919  0.1748  0.0736
 5722SOL    HW128799   4.682   1.478   8.338 -1.9833 -1.8279  0.6605
 5722SOL    HW228800   4.711   1.374   8.431  1.6585 -0.0214  1.6027
 5723SOL     OW28801   0.648   0.519  11.994 -0.4714  0.6491 -0.4475
 5723SOL    HW128802   0.588   0.567  12.051 -0.4186  2.2287 -1.7324
 5723SOL    HW228803   0.730   0.533  12.042 -0.2107  0.7756 -0.9347
 5724SOL     OW28804   2.512   1.382   5.965  0.1697  0.2355  0.6060
 5724SOL    HW128805   2.570   1.425   6.029 -0.0760  0.1440  0.8913
 5724SOL    HW228806   2.571   1.309   5.949 -0.9132 -0.0564 -1.9709
 5725SOL     OW28807   1.251   0.702   7.194 -0.4480 -0.4038  0.8023
 5725SOL    HW128808   1.234   0.751   7.275 -1.6411  0.5775 -0.0400
 5725SOL    HW228809   1.181   0.745   7.145 -1.0820 -1.3849  0.8477
 5726SOL     OW28810   4.032   4.108  11.579 -0.3522 -0.2315  0.4604
 5726SOL    HW128811   4.114   4.068  11.605 -1.2709 -2.6849 -0.4176
 5726SOL    HW228812   4.034   4.094  11.484 -0.5968  0.0384  0.4157
 5727SOL     OW28813   4.107   4.010   4.162  0.2135  0.2716 -0.7340
 5727SOL    HW128814   4.115   4.027   4.069 -1.4331 -0.4371 -1.0012
 5727SOL    HW228815   4.059   4.083   4.202  0.7126  0.5621 -0.6593
 5728SOL     OW28816   3.651   2.767   2.545 -0.4298  0.0906  0.7492
 5728SOL    HW128817   3.662   2.751   2.451 -2.1456  0.4494  0.4924
 5728SOL    HW228818   3.579   2.706   2.561  0.4370 -0.2764  3.1774
 5729SOL     OW28819   3.063   1.890   7.465 -0.1526  0.0102 -0.4305
 5729SOL    HW128820   3.059   1.853   7.553  2.0585  0.8440  0.0187
 5729SOL    HW228821   3.110   1.972   7.482  0.4743 -0.5067  0.2903
 5730SOL     OW28822   3.466   4.104   7.075 -0.3099  0.2585 -0.0202
 5730SOL    HW128823   3.447   4.154   6.995 -0.0981  2.8777  1.5504
 5730SOL    HW228824   3.523   4.041   7.033  0.7763  1.2494 -0.0320
 5731SOL     OW28825   4.162   0.790   9.790  0.5477  0.0720 -0.0273
 5731SOL    HW128826   4.239   0.775   9.844  0.3298  1.6898  0.7504
 5731SOL    HW228827   4.127   0.701   9.794  0.7666  0.0149  0.5354
 5732SOL     OW28828   1.072   2.303   6.029 -0.1081  0.3752 -0.2551
 5732SOL    HW128829   1.098   2.393   6.011  1.9797 -0.9566 -3.8395
 5732SOL    HW228830   1.123   2.268   6.103 -0.2248 -0.4906 -0.5821
 5733SOL     OW28831   2.629   1.712  12.075 -0.1068  0.3001 -0.2027
 5733SOL    HW128832   2.635   1.793  12.126  3.0576  0.4309 -0.8387
 5733SOL    HW228833   2.543   1.684  12.107 -0.6788  0.2485 -1.7774
 5734SOL     OW28834   1.839   2.801  12.014  0.2273 -0.4017 -0.2519
 5734SOL    HW128835   1.776   2.858  11.969 -1.4798 -2.0374  0.0565
 5734SOL    HW228836   1.917   2.856  12.015  0.2651 -0.4494 -0.6148
 5735SOL     OW28837   3.083   0.570   2.383 -0.0210 -0.1417  0.0303
 5735SOL    HW128838   3.057   0.661   2.395  2.3038  0.2659  2.0744
 5735SOL    HW228839   3.163   0.570   2.331  0.7878 -0.0152  1.2554
 5736SOL     OW28840   3.618   1.255   6.216  0.3374  0.2276  0.6820
 5736SOL    HW128841   3.694   1.309   6.239  1.0416  0.7973 -2.8622
 5736SOL    HW228842   3.657   1.192   6.155 -0.6965  0.3865 -0.1480
 5737SOL     OW28843   1.718   0.190   3.215 -0.0172  0.2854 -0.0008
 5737SOL    HW128844   1.622   0.196   3.220 -0.2473 -1.0393 -2.3387
 5737SOL    HW228845   1.731   0.162   3.124  1.3223 -3.2869  1.2791
 5738SOL     OW28846   2.166   2.300   7.816 -0.1877  0.1518 -0.0255
 5738SOL    HW128847   2.094   2.261   7.866  0.6644  0.9517  1.8259
 5738SOL    HW228848   2.188   2.233   7.751  2.3923  0.8856  0.0854
 5739SOL     OW28849   4.725   3.682   2.424 -0.1486  0.0985 -0.1442
 5739SOL    HW128850   4.668   3.746   2.467 -0.6445  0.0244 -0.7032
 5739SOL    HW228851   4.715   3.604   2.478  1.3156  0.1770  0.2474
 5740SOL     OW28852   4.395   0.355   8.094 -0.4656  0.2568  0.4784
 5740SOL    HW128853   4.479   0.375   8.054 -0.9160 -1.2727 -1.2420
 5740SOL    HW228854   4.366   0.297   8.023  0.7032 -1.9297  1.7892
 5741SOL     OW28855   1.415   0.776  11.850 -0.0517  0.2930 -0.2335
 5741SOL    HW128856   1.437   0.832  11.924 -0.1412 -0.0841  0.0746
 5741SOL    HW228857   1.333   0.819  11.825 -1.3733 -1.0350  1.8074
 5742SOL     OW28858   3.449   3.166   3.999  0.0604  0.7501 -0.5215
 5742SOL    HW128859   3.473   3.196   3.911 -1.0218 -1.1078 -1.4352
 5742SOL    HW228860   3.361   3.130   3.987  1.0743 -1.3547 -1.7545
 5743SOL     OW28861   3.734   0.151   5.851 -0.2264 -0.7681 -0.2966
 5743SOL    HW128862   3.788   0.221   5.815  1.7705 -1.7168  0.8542
 5743SOL    HW228863   3.681   0.200   5.914 -0.1217  1.8310 -2.2218
 5744SOL     OW28864   3.295   4.232   2.586  0.0704  0.2099 -0.1847
 5744SOL    HW128865   3.319   4.312   2.633 -0.3332  1.1447 -1.5915
 5744SOL    HW228866   3.347   4.169   2.636  1.1007  0.5431 -0.8540
 5745SOL     OW28867   2.493   3.573   3.778 -0.1178 -0.2430  0.0786
 5745SOL    HW128868   2.561   3.512   3.806  0.1625  0.0429  0.0175
 5745SOL    HW228869   2.545   3.653   3.768 -0.3943 -0.1896 -1.0149
 5746SOL     OW28870   1.928   1.004   1.276  0.8954  0.1633 -0.2244
 5746SOL    HW128871   1.962   0.993   1.187 -0.5335 -1.5651 -0.5540
 5746SOL    HW228872   1.977   0.934   1.321  2.6832  0.8657 -1.0661
 5747SOL     OW28873   3.741   3.370   7.268  0.2386 -0.0684 -0.0923
 5747SOL    HW128874   3.647   3.373   7.250  0.3292  1.7600 -0.2953
 5747SOL    HW228875   3.776   3.304   7.208 -0.1693 -0.3163 -0.0569
 5748SOL     OW28876   2.280   0.859   8.130 -0.1673  0.1346 -0.0584
 5748SOL    HW128877   2.283   0.870   8.035 -1.6540  1.0307 -0.0070
 5748SOL    HW228878   2.375   0.858   8.144 -0.2007 -1.2867  0.0724
 5749SOL     OW28879   0.060   3.114   9.245  0.0390  0.1266  0.4287
 5749SOL    HW128880   0.085   3.199   9.208 -0.3801 -0.1599 -0.5360
 5749SOL    HW228881   0.037   3.076   9.160  3.0896 -0.7137 -0.0278
 5750SOL     OW28882   1.047   1.638   2.838 -0.2910  0.1873  0.1628
 5750SOL    HW128883   1.121   1.580   2.820  0.1859  1.2138 -1.2788
 5750SOL    HW228884   1.097   1.710   2.799 -1.4559  2.0694  2.1804
 5751SOL     OW28885   1.628   3.290   7.620 -0.2821 -0.0657 -0.0767
 5751SOL    HW128886   1.582   3.372   7.599 -0.4707 -0.2075 -0.2128
 5751SOL    HW228887   1.655   3.314   7.708  0.2067  0.4070 -0.3548
 5752SOL     OW28888   3.724   3.445   5.162  0.0846  0.0904  0.0416
 5752SOL    HW128889   3.722   3.541   5.166  0.3849  0.1205 -0.4106
 5752SOL    HW228890   3.818   3.429   5.175  0.8180  2.2787 -2.4918
 5753SOL     OW28891   3.222   2.769   6.665  0.2357  0.0176  0.4630
 5753SOL    HW128892   3.148   2.830   6.659  0.2542 -0.0792 -0.8873
 5753SOL    HW228893   3.276   2.810   6.732 -1.5891  2.0052  0.7231
 5754SOL     OW28894   2.488   3.219   2.816 -0.0160  0.0640  0.4957
 5754SOL    HW128895   2.516   3.146   2.872 -0.0760  0.2089  0.7159
 5754SOL    HW228896   2.412   3.181   2.773  0.5734  0.6577 -1.0413
 5755SOL     OW28897   3.368   1.265   7.217  0.0040 -0.3697 -0.2085
 5755SOL    HW128898   3.320   1.335   7.173 -1.6958 -0.7957  0.9832
 5755SOL    HW228899   3.455   1.281   7.180  0.0927  0.3536  0.2995
 5756SOL     OW28900   2.886   2.907   3.353 -0.1183  0.1453 -0.2890
 5756SOL    HW128901   2.855   2.838   3.295 -0.1919  0.3844 -0.5322
 5756SOL    HW228902   2.884   2.860   3.437 -0.3828  0.7438  0.0404
 5757SOL     OW28903   3.078   2.491   3.305  0.0982  0.3684 -0.0745
 5757SOL    HW128904   3.036   2.462   3.224 -0.1577 -0.4333  0.3559
 5757SOL    HW228905   3.016   2.464   3.372  0.5962  2.0680  1.0845
 5758SOL     OW28906   1.071   4.547  11.360 -0.2278  0.7460 -0.3028
 5758SOL    HW128907   1.096   4.510  11.275 -1.0220  1.8439 -1.0146
 5758SOL    HW228908   1.066   4.474  11.421  0.2951 -0.6133 -1.8734
 5759SOL     OW28909   3.324   3.474   2.807 -0.0158 -0.4409  0.5562
 5759SOL    HW128910   3.393   3.425   2.762 -0.8743 -1.5748  0.4589
 5759SOL    HW228911   3.349   3.462   2.898  2.8407  0.0435 -0.1829
 5760SOL     OW28912   0.922   1.802   3.933  0.1356 -0.1563 -0.0283
 5760SOL    HW128913   0.917   1.737   3.863  1.7183  0.3637 -0.6105
 5760SOL    HW228914   1.016   1.809   3.948 -0.2106  1.2189  1.5019
 5761SOL     OW28915   2.564   3.938   6.884 -0.0543  0.1527  0.0641
 5761SOL    HW128916   2.649   3.899   6.864 -0.2290 -0.3349  0.2832
 5761SOL    HW228917   2.511   3.889   6.821 -0.1134 -1.7991  1.6448
 5762SOL     OW28918   1.100   3.509   3.208  0.2721  0.8740 -0.4628
 5762SOL    HW128919   1.179   3.497   3.262  0.7410  1.2159 -1.0822
 5762SOL    HW228920   1.132   3.523   3.119  2.3181  2.8213  0.5665
 5763SOL     OW28921   1.770   4.270   5.205 -0.3712  0.0209  0.2997
 5763SOL    HW128922   1.737   4.342   5.259 -0.0432 -0.1271  0.6960
 5763SOL    HW228923   1.858   4.270   5.242 -0.5284 -0.7107  0.6593
 5764SOL     OW28924   0.175   2.392   1.589  0.1741  0.1641  0.0109
 5764SOL    HW128925   0.260   2.417   1.625  0.3063  2.2212 -1.7329
 5764SOL    HW228926   0.198   2.410   1.498 -0.0499 -0.1455 -0.1113
 5765SOL     OW28927   2.313   2.211   4.169  0.2114  0.5199 -0.2650
 5765SOL    HW128928   2.291   2.144   4.233 -2.8138  0.0956 -1.7284
 5765SOL    HW228929   2.225   2.249   4.171 -0.4138 -0.8902 -1.1872
 5766SOL     OW28930   1.083   2.881   7.776 -0.4040  0.2963 -0.1638
 5766SOL    HW128931   1.034   2.950   7.732  0.4566  0.5586 -0.7000
 5766SOL    HW228932   1.056   2.891   7.867  1.0358 -0.5862  0.3684
 5767SOL     OW28933   1.769   4.118   9.422 -0.1547  0.2254 -0.5476
 5767SOL    HW128934   1.823   4.196   9.435  0.6962 -0.0377 -2.4716
 5767SOL    HW228935   1.791   4.097   9.331  1.1794 -0.2421 -0.1133
 5768SOL     OW28936   2.838   4.653  14.725  0.1812  0.8381  0.0227
 5768SOL    HW128937   2.752   4.689  14.700  0.1247 -0.5002 -1.7289
 5768SOL    HW228938   2.826   4.561  14.699  0.3511  1.3122 -1.7553
 5769SOL     OW28939   3.276   3.249  13.415 -0.2376 -0.5209  0.1885
 5769SOL    HW128940   3.349   3.255  13.476  0.5951  2.0610 -1.0697
 5769SOL    HW228941   3.235   3.335  13.419  1.6785  0.2917  2.0486
 5770SOL     OW28942   3.999   1.991   5.113 -0.0179 -0.1602 -0.7161
 5770SOL    HW128943   4.049   1.977   5.194 -0.1211  0.4972 -0.5386
 5770SOL    HW228944   4.051   1.925   5.067  1.9725  0.9532 -0.0663
 5771SOL     OW28945   0.080   2.859  12.129 -0.1126  0.6285 -0.3563
 5771SOL    HW128946   0.141   2.902  12.068 -2.0640 -0.0317 -2.7632
 5771SOL    HW228947   0.136   2.792  12.167  2.0148  2.3972 -0.3202
 5772SOL     OW28948   2.498   2.828  14.469  0.0888 -0.2852 -0.1467
 5772SOL    HW128949   2.407   2.844  14.494  0.0319 -0.0615 -0.4832
 5772SOL    HW228950   2.486   2.787  14.383 -1.5243  1.2518 -0.6503
 5773SOL     OW28951   4.377   2.303   7.069  0.0993 -0.6101 -0.3915
 5773SOL    HW128952   4.392   2.350   7.150 -0.1531  1.0062 -1.2751
 5773SOL    HW228953   4.283   2.314   7.052  0.9405  0.7490 -4.1563
 5774SOL     OW28954   2.772   4.124   3.057 -0.2888  0.1422  0.3725
 5774SOL    HW128955   2.724   4.181   3.116  0.0231  2.3863 -1.5190
 5774SOL    HW228956   2.846   4.182   3.037 -0.6013 -0.1391 -1.6880
 5775SOL     OW28957   2.433   0.072  11.483 -0.5186 -0.3882 -0.5610
 5775SOL    HW128958   2.398   0.149  11.438 -1.5699 -1.5613 -1.7888
 5775SOL    HW228959   2.356   0.024  11.514 -1.2740  0.1745 -1.5738
 5776SOL     OW28960   2.538   1.319   4.964 -0.7493  0.8233 -0.2852
 5776SOL    HW128961   2.600   1.383   5.000  1.1220 -0.4437 -1.2422
 5776SOL    HW228962   2.578   1.318   4.877  2.3083  1.9161  1.1282
 5777SOL     OW28963   0.602   2.015   9.301  0.0939  0.1199 -0.5297
 5777SOL    HW128964   0.511   2.006   9.328  0.3205  0.7484  0.4569
 5777SOL    HW228965   0.640   1.938   9.344  1.1223 -0.9776 -3.4427
 5778SOL     OW28966   3.878   2.317   3.169  0.3137  0.2826 -0.1390
 5778SOL    HW128967   3.790   2.314   3.204  0.6857 -0.1355  0.7593
 5778SOL    HW228968   3.890   2.412   3.170 -1.3941  0.4495  2.6726
 5779SOL     OW28969   2.668   0.363   1.983 -0.1603 -0.4181 -0.5805
 5779SOL    HW128970   2.604   0.363   2.054 -0.2297 -0.6649 -0.6435
 5779SOL    HW228971   2.646   0.272   1.960 -1.4448 -0.6141  1.4066
 5780SOL     OW28972   4.490   3.500  12.171 -0.6233  0.0345  0.3742
 5780SOL    HW128973   4.493   3.409  12.202  0.6303 -0.3670 -0.9610
 5780SOL    HW228974   4.405   3.541  12.189 -1.4626 -0.5857 -2.2044
 5781SOL     OW28975   1.340   2.134  15.566 -0.0066  0.3494 -0.3051
 5781SOL    HW128976   1.396   2.152  15.641  0.5235  1.5683 -0.9849
 5781SOL    HW228977   1.365   2.197  15.498  1.2603  0.7154  0.5024
 5782SOL     OW28978   2.151   2.829   8.234  0.1349 -0.5686 -0.6701
 5782SOL    HW128979   2.155   2.917   8.196 -1.3840  0.0396  0.6179
 5782SOL    HW228980   2.109   2.846   8.318  0.1250  0.3420 -0.8651
 5783SOL     OW28981   0.963   0.627   0.192 -0.6129  0.7034  0.0135
 5783SOL    HW128982   1.007   0.543   0.207 -1.2868  0.4410  0.5428
 5783SOL    HW228983   0.919   0.641   0.276 -0.5392  0.3729  0.1082
 5784SOL     OW28984   3.633   0.651  12.837  0.1078  0.6033 -0.6154
 5784SOL    HW128985   3.604   0.739  12.812 -0.8200  0.8215  1.2693
 5784SOL    HW228986   3.641   0.608  12.752  2.3307 -0.3301  0.0743
 5785SOL     OW28987   3.474   0.306   0.216 -0.3952  0.0852 -0.3078
 5785SOL    HW128988   3.461   0.342   0.128 -2.8530  1.3557  0.5715
 5785SOL    HW228989   3.567   0.321   0.228 -0.7781  2.3185 -0.1567
 5786SOL     OW28990   0.825   2.321   3.100  0.5444 -0.5826 -0.1371
 5786SOL    HW128991   0.812   2.307   3.006  0.4369  0.2332 -0.2430
 5786SOL    HW228992   0.834   2.416   3.090 -0.5363 -0.4721 -0.0766
 5787SOL     OW28993   1.246   1.328   7.027 -0.0300 -1.0153 -0.4802
 5787SOL    HW128994   1.208   1.256   6.976 -1.4574 -1.0697  0.6615
 5787SOL    HW228995   1.176   1.391   7.012  0.4390 -1.1167 -3.1497
 5788SOL     OW28996   0.670   4.104   4.941 -0.7498  0.3221 -0.6282
 5788SOL    HW128997   0.695   4.063   4.858 -0.9750 -1.1149  0.0134
 5788SOL    HW228998   0.659   4.028   4.998 -1.8912  1.0517  0.1390
 5789SOL     OW28999   3.823   2.312  15.465 -0.5961  0.1441 -0.0745
 5789SOL    HW129000   3.870   2.288  15.385 -1.1174 -0.7677 -0.1016
 5789SOL    HW229001   3.821   2.407  15.452  1.8177  0.0290 -1.3231
 5790SOL     OW29002   0.267   4.149   3.059  0.3171 -0.6391 -0.2623
 5790SOL    HW129003   0.188   4.097   3.073  0.6614 -1.1466 -0.1975
 5790SOL    HW229004   0.304   4.092   2.992  0.4240 -0.5689 -0.2646
 5791SOL     OW29005   0.111   1.138   3.563 -0.2585  0.4183  0.2720
 5791SOL    HW129006   0.163   1.217   3.553 -2.0102  1.1548 -3.1200
 5791SOL    HW229007   0.145   1.095   3.484  0.1927 -1.1737  1.3275
 5792SOL     OW29008   4.270   1.993   9.421 -0.2220 -0.2300 -0.2092
 5792SOL    HW129009   4.239   1.967   9.507 -1.7554 -0.4799 -0.8213
 5792SOL    HW229010   4.267   2.087   9.436 -0.0667  0.1586 -2.5761
 5793SOL     OW29011   2.787   0.371   4.438 -0.4434 -0.9079 -0.0389
 5793SOL    HW129012   2.863   0.339   4.390  0.0804  0.8375 -0.3837
 5793SOL    HW229013   2.824   0.383   4.526  0.3048  2.8260 -0.8491
 5794SOL     OW29014   2.103   3.150  17.173 -0.3725  0.5679  0.0799
 5794SOL    HW129015   2.010   3.130  17.181 -0.6342  0.9641 -1.9524
 5794SOL    HW229016   2.085   3.223  17.113 -1.8045  0.4684  0.3822
 5795SOL     OW29017   0.623   1.306  13.588  0.6714  0.1570  0.3782
 5795SOL    HW129018   0.695   1.311  13.650  0.5501 -0.3573  0.5677
 5795SOL    HW229019   0.660   1.304  13.500 -0.0896 -2.3066  0.1131
 5796SOL     OW29020   4.643   0.221   6.306  0.5568 -0.7940  0.1594
 5796SOL    HW129021   4.623   0.133   6.338  0.8183 -0.7448  0.4672
 5796SOL    HW229022   4.634   0.272   6.387 -0.2303 -1.7520  0.6809
 5797SOL     OW29023   2.352   1.120   1.871  0.0734  0.1546  0.0987
 5797SOL    HW129024   2.447   1.103   1.875 -0.3754 -2.0313  1.4233
 5797SOL    HW229025   2.327   1.142   1.960 -1.1556  1.4796 -0.5630
 5798SOL     OW29026   2.780   4.483   2.219 -0.5060 -0.2012 -0.1139
 5798SOL    HW129027   2.724   4.523   2.285 -0.9333  3.9195 -2.9635
 5798SOL    HW229028   2.836   4.450   2.290 -1.9256  1.1881  1.6802
 5799SOL     OW29029   1.988   3.628  15.110 -0.1283 -0.4736  0.3202
 5799SOL    HW129030   1.950   3.556  15.160 -0.5881 -0.1713  0.4110
 5799SOL    HW229031   1.984   3.611  15.016  1.0768 -2.2701  0.5933
 5800SOL     OW29032   0.228   0.373   8.770  0.4729 -0.5493  0.1453
 5800SOL    HW129033   0.194   0.439   8.708  0.4575 -0.2046  0.5225
 5800SOL    HW229034   0.234   0.299   8.709  1.2444  0.1707 -0.6675
 5801SOL     OW29035   1.101   1.149   6.622  0.2252 -0.7043 -0.1975
 5801SOL    HW129036   1.165   1.165   6.552  1.8522  1.2201  1.7356
 5801SOL    HW229037   1.071   1.061   6.600  0.2279 -0.6108 -0.5781
 5802SOL     OW29038   3.520   4.144   2.953 -0.0402  0.4273  0.2443
 5802SOL    HW129039   3.459   4.217   2.964  0.1168  0.4609  0.8474
 5802SOL    HW229040   3.545   4.133   3.044  1.1929 -0.7512 -0.2434
 5803SOL     OW29041   4.246   0.237   4.370 -0.0712  0.2054  0.1745
 5803SOL    HW129042   4.340   0.219   4.381 -0.2122  0.3837  1.7239
 5803SOL    HW229043   4.211   0.193   4.448 -0.4120  0.8094  0.3618
 5804SOL     OW29044   4.554   3.225   4.807  0.6569  0.9103 -0.0618
 5804SOL    HW129045   4.496   3.166   4.759  1.2031  0.2723  0.0633
 5804SOL    HW229046   4.636   3.235   4.757  1.0665  1.1886  0.6712
 5805SOL     OW29047   4.594   4.703   5.725 -0.0988 -0.0081  0.0387
 5805SOL    HW129048   4.536   4.692   5.800 -1.5849  2.2766 -0.7532
 5805SOL    HW229049   4.606   4.612   5.698  1.5444 -0.1390  1.2026
 5806SOL     OW29050   3.975   4.071  14.783  0.1071 -0.0413 -0.0622
 5806SOL    HW129051   3.886   4.105  14.790  0.4697  1.1579 -1.3413
 5806SOL    HW229052   3.986   4.035  14.871 -0.2275 -0.7276 -0.3013
 5807SOL     OW29053   2.271   4.595  16.227 -0.3460  0.9115 -0.1922
 5807SOL    HW129054   2.351   4.646  16.242  0.0084 -0.1466  1.5092
 5807SOL    HW229055   2.311   4.523  16.178  4.2261  2.1835  1.6285
 5808SOL     OW29056   2.622   2.428   2.109  0.0418  0.1520 -0.6647
 5808SOL    HW129057   2.645   2.404   2.019 -0.6935 -0.2626 -0.7453
 5808SOL    HW229058   2.541   2.476   2.095  1.1242  1.6711 -1.7274
 5809SOL     OW29059   1.751   1.287   5.217 -0.3066 -0.0909  0.0354
 5809SOL    HW129060   1.732   1.254   5.305 -1.0158 -1.1743 -0.5264
 5809SOL    HW229061   1.671   1.332   5.190  0.2876  1.0352  0.1227
 5810SOL     OW29062   3.679   1.753   4.549  0.0546 -0.2493 -0.7496
 5810SOL    HW129063   3.709   1.665   4.527 -0.1147  0.4168 -3.6003
 5810SOL    HW229064   3.584   1.741   4.551  0.0740 -0.1981  1.2314
 5811SOL     OW29065   2.068   3.881   1.560 -0.0884 -0.6850 -0.1123
 5811SOL    HW129066   2.036   3.933   1.486 -1.4935 -0.4857  0.6374
 5811SOL    HW229067   2.163   3.882   1.554 -0.0523 -0.4266  0.4939
 5812SOL     OW29068   4.342   3.824   8.242 -0.3367  0.1269  0.4430
 5812SOL    HW129069   4.431   3.853   8.264 -1.1608  1.7890  1.6415
 5812SOL    HW229070   4.300   3.854   8.323 -1.1918  0.1376  0.0019
 5813SOL     OW29071   2.273   4.226  13.000  0.0528 -0.1949  0.4946
 5813SOL    HW129072   2.177   4.231  12.998  0.1049  1.1894  1.3154
 5813SOL    HW229073   2.285   4.228  13.095  2.7642 -0.3679  0.1455
 5814SOL     OW29074   0.869   4.370   0.812 -0.2868  1.1824 -0.8501
 5814SOL    HW129075   0.876   4.443   0.874 -0.9410  0.9365 -0.4889
 5814SOL    HW229076   0.776   4.347   0.811 -0.4578  1.7864  0.3797
 5815SOL     OW29077   3.584   2.462   3.667 -0.0398 -0.5475 -0.0749
 5815SOL    HW129078   3.583   2.369   3.691 -2.4532 -0.5397 -0.1567
 5815SOL    HW229079   3.666   2.489   3.708  0.0853 -1.4660  0.2835
 5816SOL     OW29080   3.950   1.556  14.746 -0.6877  0.4613  0.1255
 5816SOL    HW129081   3.911   1.602  14.671  0.2110 -1.9084 -1.8281
 5816SOL    HW229082   3.876   1.504  14.777 -0.3306  0.7345  1.4138
 5817SOL     OW29083   0.704   4.404   2.711 -0.5130  0.4764  0.5869
 5817SOL    HW129084   0.635   4.345   2.680  1.7746 -1.4816 -0.8273
 5817SOL    HW229085   0.741   4.347   2.778 -3.4306  0.3751  2.1105
 5818SOL     OW29086   2.622   1.032   1.481 -0.5446  0.1455 -0.1592
 5818SOL    HW129087   2.528   1.043   1.465 -0.7138 -0.8420  0.1740
 5818SOL    HW229088   2.648   1.012   1.391 -0.8344  2.1999 -0.7169
 5819SOL     OW29089   1.170   3.895   0.458 -0.1163  0.0707  0.1476
 5819SOL    HW129090   1.197   3.824   0.516  0.0111 -0.1638 -0.2021
 5819SOL    HW229091   1.229   3.964   0.489  1.6632 -0.5139 -1.9283
 5820SOL     OW29092   0.067   1.349   2.580  0.1765  0.2936 -0.6606
 5820SOL    HW129093   0.054   1.426   2.524  2.5110 -0.4341 -2.2491
 5820SOL    HW229094   0.007   1.370   2.651 -0.0760  0.4860 -0.9270
 5821SOL     OW29095   3.774   1.345   3.092 -0.3875 -0.1322  0.2459
 5821SOL    HW129096   3.698   1.308   3.138  1.0709 -0.6962  2.2159
 5821SOL    HW229097   3.826   1.270   3.064  0.4805  0.9560 -1.0383
 5822SOL     OW29098   4.204   3.451   6.876  0.2180  0.1388 -0.1871
 5822SOL    HW129099   4.151   3.527   6.900  2.4005  1.6197 -0.0542
 5822SOL    HW229100   4.291   3.469   6.912  0.7128  0.0868 -1.3535
 5823SOL     OW29101   4.239   3.564   5.223  0.0361 -0.5583  0.0412
 5823SOL    HW129102   4.297   3.537   5.152 -0.0480 -1.6165  0.3725
 5823SOL    HW229103   4.183   3.486   5.221  0.4023 -0.8240  0.1311
 5824SOL     OW29104   3.117   0.539  12.632  0.3725  0.5129 -0.2130
 5824SOL    HW129105   3.189   0.485  12.665  1.0310  0.7110 -1.3401
 5824SOL    HW229106   3.036   0.515  12.678  1.1242 -0.8553  0.4046
 5825SOL     OW29107   3.767   2.957   6.330  0.3437 -0.7359  0.7790
 5825SOL    HW129108   3.759   2.861   6.334 -1.3765 -0.6490 -0.3277
 5825SOL    HW229109   3.782   2.965   6.424  0.8906 -1.0820  0.7248
 5826SOL     OW29110   3.856   0.622   3.908  0.2237  0.0117 -0.0261
 5826SOL    HW129111   3.779   0.646   3.959  0.6823 -0.0280  0.6938
 5826SOL    HW229112   3.917   0.578   3.968 -1.5965  0.1569  1.9387
 5827SOL     OW29113   3.255   0.422   7.072  0.2424  0.1304  0.5717
 5827SOL    HW129114   3.258   0.328   7.089 -1.1796 -0.3042 -1.5274
 5827SOL    HW229115   3.243   0.448   7.163  0.4845 -1.9839  1.2007
 5828SOL     OW29116   4.269   3.686   7.680 -0.3552  0.4706 -0.0015
 5828SOL    HW129117   4.253   3.600   7.718 -0.1771  1.4573  2.3178
 5828SOL    HW229118   4.262   3.730   7.765  0.2469 -0.6104  0.6107
 5829SOL     OW29119   1.444   1.530  10.284  0.5936  0.4841 -0.1042
 5829SOL    HW129120   1.512   1.479  10.328 -0.3406  1.4807  2.4638
 5829SOL    HW229121   1.419   1.587  10.357  1.3883 -0.6879  1.0827
 5830SOL     OW29122   4.441   1.494  10.991  0.3985 -0.2275 -0.1780
 5830SOL    HW129123   4.523   1.515  10.946 -0.4108 -2.6686 -2.7909
 5830SOL    HW229124   4.473   1.426  11.051 -0.0582 -0.0244  0.2991
 5831SOL     OW29125   3.298   2.272   5.681 -0.0485 -0.2711  0.2918
 5831SOL    HW129126   3.364   2.260   5.612  1.7849 -2.3498  2.4183
 5831SOL    HW229127   3.310   2.198   5.740  1.6707 -1.0597 -1.0099
 5832SOL     OW29128   3.826   2.662   9.601 -0.1799  0.2988 -0.6594
 5832SOL    HW129129   3.872   2.713   9.536  3.5256 -1.2743  0.7452
 5832SOL    HW229130   3.848   2.706   9.683 -1.3991  2.9256 -1.7650
 5833SOL     OW29131   3.902   3.582   0.481 -0.2425  0.3151  0.4187
 5833SOL    HW129132   3.940   3.538   0.405 -0.8731 -0.4605  0.5598
 5833SOL    HW229133   3.840   3.518   0.516  0.1376  1.0232  2.4170
 5834SOL     OW29134   0.914   1.503   4.540  0.8047 -0.3674  0.1016
 5834SOL    HW129135   0.995   1.554   4.543 -0.3201  1.5122 -1.4824
 5834SOL    HW229136   0.951   1.425   4.499 -1.9075 -1.1455 -0.8469
 5835SOL     OW29137   2.803   3.667  14.147 -0.1129  0.1581  0.1272
 5835SOL    HW129138   2.774   3.714  14.226 -0.1172  0.9203 -0.3346
 5835SOL    HW229139   2.833   3.744  14.101 -0.6639  1.7063  2.3492
 5836SOL     OW29140   4.548   2.478   7.330 -0.4137 -0.0863 -0.5925
 5836SOL    HW129141   4.458   2.490   7.302 -1.1594 -0.5076  1.5925
 5836SOL    HW229142   4.537   2.384   7.346  1.6316 -0.2128  0.0999
 5837SOL     OW29143   4.632   0.932   2.832  0.8034  0.4084  0.5075
 5837SOL    HW129144   4.602   0.872   2.763  0.4021  0.4060  0.6888
 5837SOL    HW229145   4.685   0.860   2.867  0.3771 -0.0206  0.2819
 5838SOL     OW29146   0.442   0.938  15.928 -0.3977 -0.5144  0.0425
 5838SOL    HW129147   0.367   0.945  15.870 -0.1038  0.9606 -0.1533
 5838SOL    HW229148   0.445   0.844  15.947 -0.6640 -0.8500 -1.5597
 5839SOL     OW29149   3.821   0.626   5.099 -0.0976 -0.1767  0.5580
 5839SOL    HW129150   3.811   0.717   5.125  0.4355  0.0580 -0.0429
 5839SOL    HW229151   3.776   0.621   5.015 -0.4399  3.8975  0.5077
 5840SOL     OW29152   0.610   1.563   7.845  0.0911  0.5230 -0.7729
 5840SOL    HW129153   0.660   1.628   7.894  0.1445  0.3459 -0.5927
 5840SOL    HW229154   0.681   1.506   7.814  0.5551  0.3638  0.5913
 5841SOL     OW29155   3.014   4.391   1.537 -0.0327 -0.1354  0.2386
 5841SOL    HW129156   3.001   4.370   1.630 -0.7164 -0.5986  0.0408
 5841SOL    HW229157   2.994   4.485   1.535  0.6601 -0.0374 -1.7800
 5842SOL     OW29158   0.050   0.748  12.345 -0.2233  0.0239  0.4762
 5842SOL    HW129159   0.054   0.688  12.271  0.4485 -0.4600  0.8915
 5842SOL    HW229160   0.023   0.831  12.307  2.3606  0.5119 -0.2885
 5843SOL     OW29161   3.220   2.363  11.509 -0.1576 -0.0714 -0.7690
 5843SOL    HW129162   3.207   2.347  11.416  1.8666 -1.3105 -0.8433
 5843SOL    HW229163   3.296   2.420  11.520 -0.2475 -0.1938  0.6005
 5844SOL     OW29164   1.122   0.964   6.227 -0.4979  0.2534  0.3212
 5844SOL    HW129165   1.176   0.985   6.302 -0.7308  0.3726  0.4565
 5844SOL    HW229166   1.038   1.005   6.249  0.8378  2.6269  0.9708
 5845SOL     OW29167   0.895   2.520   6.369 -0.1191 -0.0100  0.0692
 5845SOL    HW129168   0.920   2.476   6.451 -1.7433 -0.2836  0.4246
 5845SOL    HW229169   0.850   2.600   6.397 -1.8155 -1.1498  0.6102
 5846SOL     OW29170   3.877   0.217  15.014  0.3790 -0.5467  0.2655
 5846SOL    HW129171   3.812   0.201  15.082 -1.1689  0.3805 -0.9964
 5846SOL    HW229172   3.922   0.294  15.050  0.3862  0.2920 -1.5553
 5847SOL     OW29173   3.986   0.325   4.286  0.4105 -0.2288  0.0266
 5847SOL    HW129174   4.075   0.297   4.308  0.8647  2.8443  2.0166
 5847SOL    HW229175   3.979   0.397   4.349 -3.4489 -0.7271  0.2065
 5848SOL     OW29176   3.557   1.460   3.929  0.0735  0.3043 -0.3661
 5848SOL    HW129177   3.591   1.487   4.014  0.2998  0.8193 -0.6248
 5848SOL    HW229178   3.474   1.508   3.936  0.2239  0.3992  0.7957
 5849SOL     OW29179   4.095   0.712   0.622  0.0954  0.1258 -0.0959
 5849SOL    HW129180   4.031   0.779   0.644  1.2681  0.9478  0.7995
 5849SOL    HW229181   4.179   0.759   0.620  0.5582 -0.6713  0.4376
 5850SOL     OW29182   0.874   3.269   6.295  0.5972  0.2999  0.2295
 5850SOL    HW129183   0.847   3.297   6.383  1.9536 -0.2984  0.8295
 5850SOL    HW229184   0.790   3.287   6.253  1.7343  0.1407 -2.1184
 5851SOL     OW29185   4.537   0.466  12.677 -0.0698 -0.1421 -0.0174
 5851SOL    HW129186   4.445   0.469  12.703  0.1034 -0.5125  0.6271
 5851SOL    HW229187   4.531   0.489  12.584 -2.8532  1.6303  0.5683
 5852SOL     OW29188   3.509   0.916   4.098  0.0640 -0.1171 -0.1854
 5852SOL    HW129189   3.498   0.947   4.188 -3.0007 -2.5666  0.2377
 5852SOL    HW229190   3.518   1.002   4.056 -2.4959 -0.1854 -0.8467
 5853SOL     OW29191   4.279   2.429  13.253 -0.5080  0.4090 -0.3277
 5853SOL    HW129192   4.268   2.512  13.207 -0.9569  1.7470  2.2527
 5853SOL    HW229193   4.367   2.399  13.229  0.6265  0.7610  3.4975
 5854SOL     OW29194   3.291   3.150   5.050 -0.2941 -0.7022  0.4705
 5854SOL    HW129195   3.378   3.182   5.026 -0.6699 -0.7572 -0.9536
 5854SOL    HW229196   3.263   3.105   4.971  0.2523  0.6297 -0.4850
 5855SOL     OW29197   3.644   0.550   5.698 -0.2672 -0.4098  0.1709
 5855SOL    HW129198   3.580   0.489   5.662 -0.0570 -0.0102 -0.8779
 5855SOL    HW229199   3.661   0.605   5.622 -0.6653  0.5204  0.7589
 5856SOL     OW29200   3.386   4.339   6.165 -0.1651 -0.1279 -0.1968
 5856SOL    HW129201   3.479   4.358   6.153 -0.2357  0.4689  0.1631
 5856SOL    HW229202   3.367   4.369   6.254 -0.5986 -0.7744 -0.0730
 5857SOL     OW29203   4.320   4.006  15.974 -0.3593 -0.1051  0.5123
 5857SOL    HW129204   4.235   3.962  15.980 -0.1387 -0.5383  0.4758
 5857SOL    HW229205   4.381   3.933  15.959  1.7382  0.8852  4.2243
 5858SOL     OW29206   0.040   2.700   4.451  0.4511  0.4888  0.0751
 5858SOL    HW129207   0.012   2.757   4.523  2.8136  1.0206  0.5618
 5858SOL    HW229208   0.123   2.740   4.426  0.3388  2.2980  2.5469
 5859SOL     OW29209   2.875   2.163   4.583 -0.6716  0.0986 -0.2134
 5859SOL    HW129210   2.846   2.171   4.674  0.0078 -1.3591  0.1340
 5859SOL    HW229211   2.808   2.113   4.538 -0.2418  1.4616 -2.3894
 5860SOL     OW29212   2.310   4.307   3.255 -0.4781 -0.0394 -0.6874
 5860SOL    HW129213   2.314   4.398   3.284 -1.6198 -0.8073  1.8707
 5860SOL    HW229214   2.269   4.311   3.168  0.2723 -1.2948 -1.1035
 5861SOL     OW29215   3.380   2.689   8.821  0.1937 -0.8141 -0.6646
 5861SOL    HW129216   3.462   2.721   8.859 -0.0229 -0.5560 -0.4166
 5861SOL    HW229217   3.366   2.741   8.742 -1.1113  0.7242  0.5719
 5862SOL     OW29218   1.558   3.752   8.683  0.2396 -0.1562 -0.0262
 5862SOL    HW129219   1.504   3.820   8.724 -0.2338 -0.3578 -0.3176
 5862SOL    HW229220   1.626   3.807   8.645 -0.4582 -0.0778 -1.1445
 5863SOL     OW29221   0.874   3.219   2.608  0.2192  0.0048 -0.1680
 5863SOL    HW129222   0.916   3.259   2.684 -1.0593  2.1088 -0.5836
 5863SOL    HW229223   0.931   3.142   2.610  0.1110 -0.1098 -1.4776
 5864SOL     OW29224   3.100   3.786   0.349  0.2380  0.2170 -0.2723
 5864SOL    HW129225   3.162   3.859   0.349 -0.6692  0.9772 -0.4599
 5864SOL    HW229226   3.020   3.826   0.315  0.1159 -0.8933 -1.2824
 5865SOL     OW29227   1.351   4.507   7.021 -0.0517 -0.2394  0.2523
 5865SOL    HW129228   1.300   4.471   7.094  1.2097 -0.0272  1.2427
 5865SOL    HW229229   1.337   4.602   7.022 -1.6381 -0.4676 -4.0398
 5866SOL     OW29230   0.659   1.247   4.886  0.6855 -0.3445 -0.6979
 5866SOL    HW129231   0.741   1.280   4.849 -0.2580  0.1112 -2.3171
 5866SOL    HW229232   0.692   1.218   4.972 -0.7036  0.3756  0.0720
 5867SOL     OW29233   1.407   2.125   4.311 -0.0420 -0.2161 -0.1695
 5867SOL    HW129234   1.354   2.148   4.235 -1.5198 -0.1988  0.8596
 5867SOL    HW229235   1.490   2.088   4.283 -0.1452 -1.3480  1.0135
 5868SOL     OW29236   4.208   1.972   6.433 -0.3451 -0.3032 -0.1795
 5868SOL    HW129237   4.236   2.026   6.507 -2.0443 -1.3142  1.2081
 5868SOL    HW229238   4.170   1.899   6.483  1.6837 -2.7513 -2.2168
 5869SOL     OW29239   3.913   1.791   2.730 -0.1451 -0.4840 -0.1365
 5869SOL    HW129240   3.924   1.885   2.719  1.2520 -0.8592 -1.8152
 5869SOL    HW229241   3.987   1.776   2.789 -0.5046 -0.0659  0.4276
 5870SOL     OW29242   2.079   0.727   4.303  0.8034 -0.2759  0.2571
 5870SOL    HW129243   1.994   0.684   4.314  0.1516  0.4247 -2.0554
 5870SOL    HW229244   2.142   0.655   4.291  1.7777  0.8345 -1.2921
 5871SOL     OW29245   0.262   2.097  14.834 -0.4764  0.2324  0.5247
 5871SOL    HW129246   0.346   2.141  14.826 -0.4287 -0.7476 -4.0874
 5871SOL    HW229247   0.271   2.017  14.783  0.8874  1.7324 -1.5614
 5872SOL     OW29248   0.132   2.814   8.143 -0.5917  0.2604  1.2220
 5872SOL    HW129249   0.105   2.904   8.122 -2.4457 -0.2550  1.3936
 5872SOL    HW229250   0.045   2.775   8.155 -0.3484 -0.8973 -0.8867
 5873SOL     OW29251   0.122   3.624   7.096 -0.0462  0.4453  0.2371
 5873SOL    HW129252   0.046   3.572   7.072  1.2369 -0.3476 -2.0445
 5873SOL    HW229253   0.091   3.706   7.057 -0.2386  0.4145  0.3291
 5874SOL     OW29254   1.178   0.607   1.372  0.3945  0.2332 -0.3503
 5874SOL    HW129255   1.154   0.639   1.459  0.0746 -1.1405  0.0667
 5874SOL    HW229256   1.234   0.681   1.350  1.2529 -0.4830 -0.5606
 5875SOL     OW29257   0.440   3.769  14.997 -0.3214  0.1694  0.1127
 5875SOL    HW129258   0.452   3.820  15.078  0.4335  0.0895  0.0469
 5875SOL    HW229259   0.469   3.840  14.941 -1.1227 -0.5212 -1.1728
 5876SOL     OW29260   3.235   3.701   8.596 -0.1852  0.3288 -0.4022
 5876SOL    HW129261   3.146   3.708   8.562  0.2699 -0.7654 -1.8208
 5876SOL    HW229262   3.279   3.632   8.545 -0.9816 -1.5130  1.4058
 5877SOL     OW29263   3.972   2.082   3.023 -0.4404  0.0260  0.2015
 5877SOL    HW129264   3.947   2.151   3.085 -0.3933  2.0393 -2.0567
 5877SOL    HW229265   3.886   2.046   2.999 -0.4680 -0.5304  1.1043
 5878SOL     OW29266   2.072   1.870   7.111  0.0910 -0.0805  0.4223
 5878SOL    HW129267   1.983   1.882   7.078  0.5336  0.6978 -0.4899
 5878SOL    HW229268   2.062   1.802   7.178  0.4941 -0.7866 -0.2336
 5879SOL     OW29269   0.182   2.813   6.793  0.2785  0.3423 -0.2140
 5879SOL    HW129270   0.182   2.908   6.777  0.3253  0.5175  0.8444
 5879SOL    HW229271   0.272   2.795   6.767  0.4734  0.6257  0.2811
 5880SOL     OW29272   0.359   3.157  10.219 -0.0780 -0.4205  0.0442
 5880SOL    HW129273   0.312   3.226  10.267  1.5385  0.2053  0.7093
 5880SOL    HW229274   0.438   3.164  10.273  0.6051 -3.6059 -0.5598
 5881SOL     OW29275   2.602   2.011   3.908  0.1226  0.0012  0.3597
 5881SOL    HW129276   2.515   2.019   3.869  0.8442  2.9853 -0.6244
 5881SOL    HW229277   2.623   2.094   3.950  2.0736 -0.9164  1.1895
 5882SOL     OW29278   4.032   0.028   6.056 -0.4356  0.0816  0.5893
 5882SOL    HW129279   4.077   4.717   6.124 -0.6785 -0.5666  0.2872
 5882SOL    HW229280   3.966   0.075   6.107 -1.4245  1.5404 -2.0166
 5883SOL     OW29281   2.826   3.714   3.312  0.3065  0.8967 -0.0473
 5883SOL    HW129282   2.836   3.708   3.217 -1.8427 -0.2375 -0.2039
 5883SOL    HW229283   2.892   3.783   3.324  2.9441 -1.8393  1.1236
 5884SOL     OW29284   4.312   1.718   0.543 -0.1150  0.1480 -0.0514
 5884SOL    HW129285   4.275   1.796   0.501 -2.3403 -0.5828  0.5288
 5884SOL    HW229286   4.402   1.713   0.513 -0.2794 -0.7450 -0.3994
 5885SOL     OW29287   1.833   1.580   8.402  0.3486 -0.1530 -0.0028
 5885SOL    HW129288   1.829   1.499   8.351 -0.8271 -0.7129  0.9892
 5885SOL    HW229289   1.797   1.636   8.334  0.3415  0.2499  0.3377
 5886SOL     OW29290   2.420   1.914   4.545 -0.2167  0.0837 -0.2481
 5886SOL    HW129291   2.469   1.919   4.627 -0.0288  0.6845 -0.3958
 5886SOL    HW229292   2.460   1.841   4.498  0.7945  0.0834  0.6135
 5887SOL     OW29293   3.652   4.500   8.409  0.1471  0.2592 -0.1013
 5887SOL    HW129294   3.561   4.472   8.406  0.1596  0.4631 -2.0847
 5887SOL    HW229295   3.683   4.455   8.331  1.4257  0.9531  0.0054
 5888SOL     OW29296   1.024   2.636   2.296  0.1542 -0.6218  0.2977
 5888SOL    HW129297   1.055   2.548   2.317  0.1029 -0.4091  1.2622
 5888SOL    HW229298   0.930   2.619   2.305  0.2128 -0.8294  0.5157
 5889SOL     OW29299   3.415   1.749  13.138 -0.2476 -0.2171  0.5960
 5889SOL    HW129300   3.372   1.689  13.077  0.0421 -1.5906  1.7409
 5889SOL    HW229301   3.409   1.833  13.092  1.2450  1.2039  2.9868
 5890SOL     OW29302   0.115   1.883   7.204 -0.0582 -0.7299  0.6976
 5890SOL    HW129303   0.125   1.971   7.241 -0.4629  0.0668 -1.0512
 5890SOL    HW229304   0.052   1.833   7.256  0.5269 -2.5199 -0.3009
 5891SOL     OW29305   3.501   0.709   6.494  0.1720  0.3306 -0.6322
 5891SOL    HW129306   3.431   0.720   6.558 -0.4794 -1.3256 -1.0773
 5891SOL    HW229307   3.488   0.790   6.445 -4.1749 -0.0667 -0.1513
 5892SOL     OW29308   3.374   3.275  17.068  0.0527  0.5317 -0.0478
 5892SOL    HW129309   3.405   3.245  17.154  0.8606  0.2948 -0.4183
 5892SOL    HW229310   3.448   3.266  17.008 -0.9291  1.2539 -1.3529
 5893SOL     OW29311   3.525   0.787   7.162  0.1815  0.2427  0.2863
 5893SOL    HW129312   3.478   0.785   7.245  0.0425 -0.7684  0.1817
 5893SOL    HW229313   3.581   0.860   7.186  1.7767 -1.1025  0.6424
 5894SOL     OW29314   4.241   1.957   3.585  1.0633 -0.3070  0.0908
 5894SOL    HW129315   4.271   1.885   3.530 -2.0403 -0.8289 -0.9255
 5894SOL    HW229316   4.285   1.944   3.669  1.9230  0.9880 -0.1532
 5895SOL     OW29317   2.308   1.320   4.672  0.2585  0.2848  0.3327
 5895SOL    HW129318   2.328   1.399   4.622  1.6367 -0.1618  0.1783
 5895SOL    HW229319   2.290   1.359   4.758  3.5596  1.3986  0.5270
 5896SOL     OW29320   0.989   4.713   5.191  0.0854  0.7832 -0.4548
 5896SOL    HW129321   0.934   0.049   5.165 -1.7981  0.1557  1.7228
 5896SOL    HW229322   0.991   4.663   5.109 -1.6483 -1.5423  0.9090
 5897SOL     OW29323   0.331   3.986   6.746  0.0614  0.5351  0.6168
 5897SOL    HW129324   0.265   3.926   6.714  0.5962 -0.1892  0.8820
 5897SOL    HW229325   0.408   3.931   6.762 -0.9690 -1.1264 -0.2050
 5898SOL     OW29326   3.802   2.212  11.071 -0.3112 -0.2528 -0.4430
 5898SOL    HW129327   3.880   2.235  11.021  1.6829 -1.0953  2.2942
 5898SOL    HW229328   3.793   2.117  11.074  0.7615 -0.3252  0.2771
 5899SOL     OW29329   4.437   0.451   9.050 -0.6317  0.0407 -0.3211
 5899SOL    HW129330   4.375   0.379   9.058 -2.0956  1.5690  1.9791
 5899SOL    HW229331   4.413   0.490   8.966  2.2619 -0.8799 -1.5898
 5900SOL     OW29332   3.557   4.717  14.095  0.0691 -0.6729  0.3934
 5900SOL    HW129333   3.565   0.018  14.182 -2.0964 -1.3529  0.8928
 5900SOL    HW229334   3.499   4.643  14.113 -2.5757  1.0107 -1.2064
 5901SOL     OW29335   3.362   3.069   8.876 -0.3097 -0.0575  0.1411
 5901SOL    HW129336   3.271   3.068   8.846 -0.2512  1.8033 -0.0920
 5901SOL    HW229337   3.351   3.088   8.970  2.9435  1.4884  0.2190
 5902SOL     OW29338   1.568   0.269  11.933  0.4142 -0.4767  0.3284
 5902SOL    HW129339   1.588   0.193  11.880  0.5951 -0.6186  0.6014
 5902SOL    HW229340   1.573   0.341  11.870  0.1330  0.3600  1.2620
 5903SOL     OW29341   4.652   0.377   8.011 -0.0433 -0.2738 -0.4303
 5903SOL    HW129342   4.660   0.458   7.961  0.2987 -1.0294 -1.6044
 5903SOL    HW229343   4.669   0.410   8.099 -0.2472  0.6761 -0.7406
 5904SOL     OW29344   2.072   3.339  16.989 -0.0967 -0.2600  0.1949
 5904SOL    HW129345   2.077   3.431  16.960  0.2494 -1.6216 -4.1126
 5904SOL    HW229346   1.998   3.316  16.933 -2.0712 -0.1633  2.7719
 5905SOL     OW29347   4.253   3.950   8.468  0.3428 -0.3982  0.2551
 5905SOL    HW129348   4.186   3.896   8.510 -1.4985  2.9711  1.6144
 5905SOL    HW229349   4.235   4.036   8.504  0.2071 -0.8720  1.3334
 5906SOL     OW29350   0.105   3.966   3.222 -0.0625 -0.1707 -0.2049
 5906SOL    HW129351   0.074   4.017   3.297  0.9531  1.3695 -0.8364
 5906SOL    HW229352   0.020   3.931   3.195  0.2519 -0.6208 -0.6159
 5907SOL     OW29353   1.566   0.893  17.241 -0.1108 -0.3622  0.7735
 5907SOL    HW129354   1.589   0.986  17.247 -1.0486 -0.0070 -1.2033
 5907SOL    HW229355   1.525   0.888  17.155 -1.9658 -3.8708  1.8738
 5908SOL     OW29356   1.980   2.644  15.750 -0.4206 -0.1539 -0.4982
 5908SOL    HW129357   2.037   2.641  15.828  1.6884  0.3446 -2.0247
 5908SOL    HW229358   2.019   2.583  15.687  1.3104 -1.3012  1.6767
 5909SOL     OW29359   3.942   0.350   9.871 -0.7557  0.1534  0.1655
 5909SOL    HW129360   4.005   0.278   9.878 -0.5377  0.1984 -1.3488
 5909SOL    HW229361   3.865   0.296   9.853 -1.4962  0.5705  2.0741
 5910SOL     OW29362   0.816   3.246   4.450  0.7905  0.3537 -0.4877
 5910SOL    HW129363   0.776   3.171   4.405  2.3107 -0.7233 -0.0321
 5910SOL    HW229364   0.865   3.283   4.376  1.5447 -1.1480 -0.7391
 5911SOL     OW29365   3.586   0.019   8.231 -0.2420  0.1637 -0.4249
 5911SOL    HW129366   3.615   4.702   8.305 -4.4400  1.3725  2.0947
 5911SOL    HW229367   3.668   0.041   8.187  0.0453  0.3355  0.1910
 5912SOL     OW29368   4.180   3.810   5.127  0.0096 -0.6186  0.5528
 5912SOL    HW129369   4.261   3.853   5.152  0.2112  0.8416 -2.6029
 5912SOL    HW229370   4.203   3.729   5.171  2.1916  0.1571  0.8180
 5913SOL     OW29371   1.169   1.084   2.962  0.0728 -0.3732  0.2267
 5913SOL    HW129372   1.185   1.141   2.886  1.2107  1.5286  1.8819
 5913SOL    HW229373   1.210   1.004   2.931 -1.6103 -0.7751 -0.9544
 5914SOL     OW29374   0.714   0.237  13.351 -0.4382  0.0537  0.5211
 5914SOL    HW129375   0.621   0.243  13.327 -0.7338  1.4526  1.9902
 5914SOL    HW229376   0.717   0.157  13.403 -2.0067  1.1819  2.3542
 5915SOL     OW29377   0.009   4.394   6.731 -0.5056  0.1653  0.0614
 5915SOL    HW129378   4.662   4.354   6.751 -0.3380 -1.2303 -1.9445
 5915SOL    HW229379   0.055   4.328   6.678  0.0235  1.1849 -0.7449
 5916SOL     OW29380   2.151   3.352   3.095  0.2126 -0.0283  0.0311
 5916SOL    HW129381   2.199   3.276   3.065 -1.3732  0.7615 -4.6036
 5916SOL    HW229382   2.142   3.409   3.018 -1.2690  1.2035  1.1014
 5917SOL     OW29383   2.869   0.404   2.428  0.6290 -0.1462 -0.1873
 5917SOL    HW129384   2.954   0.446   2.427 -0.2929  1.6548 -2.8523
 5917SOL    HW229385   2.867   0.368   2.339 -0.4887 -0.4131 -0.0539
 5918SOL     OW29386   4.436   4.239  15.844 -0.2527 -0.8712  0.1962
 5918SOL    HW129387   4.392   4.178  15.903 -3.6227 -0.3740 -1.8052
 5918SOL    HW229388   4.353   4.255  15.800  1.0080  0.4332 -1.6962
 5919SOL     OW29389   0.051   0.976   1.918 -0.3090  0.3918 -0.1325
 5919SOL    HW129390   4.711   1.004   1.967  0.9828  1.7563  1.1089
 5919SOL    HW229391   0.097   1.060   1.917 -1.1506  0.8549  0.0274
 5920SOL     OW29392   1.620   2.345   4.646 -0.1161  0.4041 -0.0186
 5920SOL    HW129393   1.585   2.380   4.728 -2.2656  1.8811 -1.5988
 5920SOL    HW229394   1.535   2.330   4.606 -0.4040 -2.8753  1.8280
 5921SOL     OW29395   2.295   1.444   4.921 -0.1641 -0.1044 -0.0904
 5921SOL    HW129396   2.359   1.374   4.935 -0.8124 -1.3251 -3.2045
 5921SOL    HW229397   2.290   1.485   5.007  2.5603 -0.6753  0.3506
 5922SOL     OW29398   2.486   0.407   5.030 -0.0738 -0.2837  0.1723
 5922SOL    HW129399   2.500   0.439   4.941  1.5002 -1.0955  0.1239
 5922SOL    HW229400   2.408   0.353   5.021 -0.6888  0.3606  1.6347
 5923SOL     OW29401   1.344   3.594  17.720 -0.6093 -0.0336  0.4276
 5923SOL    HW129402   1.439   3.607  17.715 -0.9915  1.5454 -3.2972
 5923SOL    HW229403   1.336   3.536   0.048 -3.7838  1.7321  1.4869
 5924SOL     OW29404   2.724   2.028   8.090 -0.4758 -0.0026  0.0252
 5924SOL    HW129405   2.729   2.026   8.186  2.3748 -1.5995 -0.1384
 5924SOL    HW229406   2.664   1.958   8.064  1.1413 -1.4622  0.1833
 5925SOL     OW29407   4.236   0.259   5.478  0.4167 -0.5405 -0.5335
 5925SOL    HW129408   4.286   0.238   5.557 -1.4634  0.0234  0.8176
 5925SOL    HW229409   4.205   0.175   5.445  0.9272 -0.8386 -0.2420
 5926SOL     OW29410   1.979   3.098   2.125  0.6033 -0.6618 -0.7887
 5926SOL    HW129411   1.938   3.163   2.068  0.8561 -0.9139 -1.2620
 5926SOL    HW229412   2.025   3.152   2.189 -1.1489 -0.6906  0.4829
 5927SOL     OW29413   2.999   1.820   6.216  0.0654 -0.3038  0.3392
 5927SOL    HW129414   3.001   1.915   6.216 -3.0346 -0.2454  2.1007
 5927SOL    HW229415   2.908   1.814   6.186 -0.0827 -0.0031  0.7246
 5928SOL     OW29416   3.898   1.269   3.593 -0.1432 -0.2802  0.1353
 5928SOL    HW129417   3.827   1.310   3.544  2.3548  1.2416 -2.2265
 5928SOL    HW229418   3.872   1.178   3.578  1.9386 -0.7586 -0.5883
 5929SOL     OW29419   4.113   0.298  10.779 -0.7381  0.6596 -0.5023
 5929SOL    HW129420   4.058   0.277  10.704  1.9706 -0.8237 -2.0638
 5929SOL    HW229421   4.199   0.261  10.762 -0.3810  1.1191  0.2953
 5930SOL     OW29422   4.130   4.394   9.532  0.4982 -0.1593 -0.5550
 5930SOL    HW129423   4.199   4.329   9.515 -0.6935 -1.0838 -1.9139
 5930SOL    HW229424   4.128   4.441   9.449  3.0309  1.9210  0.5834
 5931SOL     OW29425   1.921   0.477  16.862 -0.2224 -0.6104  0.2964
 5931SOL    HW129426   1.888   0.534  16.931  2.3745  1.5338 -0.2334
 5931SOL    HW229427   2.008   0.514  16.848 -0.1582 -1.2121 -0.8919
 5932SOL     OW29428   0.677   3.547   4.229 -0.3884  0.5900 -1.0506
 5932SOL    HW129429   0.732   3.479   4.191  0.4294  0.8593 -0.3330
 5932SOL    HW229430   0.685   3.541   4.324  1.1574  0.9730 -1.1617
 5933SOL     OW29431   4.042   2.414  11.159  0.5450 -0.1204 -0.6693
 5933SOL    HW129432   4.028   2.420  11.253  2.9297  0.0694 -0.3292
 5933SOL    HW229433   3.981   2.481  11.128  0.7601  1.0017  1.3097
 5934SOL     OW29434   2.605   3.796   3.083  0.2497  0.1340  0.1717
 5934SOL    HW129435   2.556   3.839   3.013 -0.1476 -1.2489 -0.3940
 5934SOL    HW229436   2.693   3.830   3.067 -0.3215  1.4359 -0.2586
 5935SOL     OW29437   2.489   0.341   6.207 -0.2242 -0.0643 -0.1053
 5935SOL    HW129438   2.443   0.357   6.125 -0.7220 -1.2514 -0.0495
 5935SOL    HW229439   2.509   0.433   6.226  0.5962 -0.1817 -0.4156
 5936SOL     OW29440   0.451   0.855  11.232  0.7092 -0.4806  0.1200
 5936SOL    HW129441   0.502   0.790  11.280  0.7883 -0.5497 -0.0575
 5936SOL    HW229442   0.425   0.911  11.304  1.7986 -0.8932  0.8275
 5937SOL     OW29443   3.148   4.657  11.826  0.2275  0.7183  0.2062
 5937SOL    HW129444   3.081   4.718  11.794  0.0975 -0.5454 -1.9222
 5937SOL    HW229445   3.230   4.700  11.804  0.7283  0.1785  1.0316
 5938SOL     OW29446   2.977   4.276   3.709  0.3583 -0.5398  0.1092
 5938SOL    HW129447   2.976   4.357   3.759  1.1748  0.2322 -1.1477
 5938SOL    HW229448   2.962   4.206   3.773  1.5352 -0.4834  0.4418
 5939SOL     OW29449   0.283   0.664   2.059  1.0555 -0.7187 -0.0062
 5939SOL    HW129450   0.308   0.739   2.004 -0.1077  0.1501  0.6438
 5939SOL    HW229451   0.363   0.615   2.040  1.7644  0.6879 -0.6373
 5940SOL     OW29452   4.681   1.981   6.736  0.2613  0.0068 -0.0178
 5940SOL    HW129453   4.628   1.946   6.808 -0.2995 -0.9359 -0.8902
 5940SOL    HW229454   4.670   1.913   6.670  2.4032 -0.8039  0.4621
 5941SOL     OW29455   1.142   3.196   4.109  0.0511  1.0789 -0.4019
 5941SOL    HW129456   1.237   3.194   4.099  0.0747 -2.0995  0.2914
 5941SOL    HW229457   1.124   3.134   4.038  1.6234  0.2006 -0.0147
 5942SOL     OW29458   3.924   4.373  17.061  0.2354 -0.0333 -0.3687
 5942SOL    HW129459   3.896   4.353  16.972  2.6637  4.1277 -2.1040
 5942SOL    HW229460   3.871   4.452  17.073  1.7689  1.0630 -0.6917
 5943SOL     OW29461   3.814   3.028   2.412  0.2870 -0.1596  0.5000
 5943SOL    HW129462   3.743   3.010   2.474  1.1259  0.5377  1.6603
 5943SOL    HW229463   3.776   3.017   2.324  0.9435  0.0732  0.1862
 5944SOL     OW29464   4.311   1.364   7.147 -0.1484  0.5318  0.0316
 5944SOL    HW129465   4.336   1.442   7.098 -0.0197 -0.1272 -0.9405
 5944SOL    HW229466   4.331   1.289   7.091 -1.4789 -1.7556  2.6291
 5945SOL     OW29467   1.670   0.185   3.537  0.2771 -0.3349  0.0790
 5945SOL    HW129468   1.604   0.214   3.474 -0.5131  1.3438  1.6940
 5945SOL    HW229469   1.752   0.214   3.497  0.0998 -0.8527 -0.6667
 5946SOL     OW29470   0.072   0.819   6.707  0.3165  0.6653 -0.1901
 5946SOL    HW129471   4.717   0.816   6.678  0.1799  2.5586  0.0411
 5946SOL    HW229472   0.114   0.822   6.621  1.3174 -0.5144  0.2651
 5947SOL     OW29473   0.686   1.011   9.010 -0.3052  0.3730  0.1719
 5947SOL    HW129474   0.725   0.973   8.932  1.0893  1.8080  0.1715
 5947SOL    HW229475   0.698   0.940   9.073 -1.8905  0.5818  0.7161
 5948SOL     OW29476   1.898   2.657   7.186  0.3450  0.2217 -0.3343
 5948SOL    HW129477   1.827   2.706   7.228 -1.4752 -0.6636 -2.3747
 5948SOL    HW229478   1.942   2.615   7.259  1.4663 -0.4674 -1.3946
 5949SOL     OW29479   3.674   3.886   4.142 -0.1224 -0.0117  0.3755
 5949SOL    HW129480   3.592   3.934   4.128  0.7131  1.4830  0.6565
 5949SOL    HW229481   3.675   3.825   4.068  0.3626 -0.6433  0.9058
 5950SOL     OW29482   3.849   0.254   6.824  0.1038  0.0349 -0.3263
 5950SOL    HW129483   3.895   0.330   6.860  2.3334 -1.0664 -0.8777
 5950SOL    HW229484   3.899   0.224   6.748  2.4462  0.7637  0.9457
 5951SOL     OW29485   1.904   2.408  16.251  0.3633 -0.1886  0.2964
 5951SOL    HW129486   1.840   2.340  16.231  0.0965  0.5610 -1.3957
 5951SOL    HW229487   1.929   2.390  16.342  0.2558 -0.9860  0.1703
 5952SOL     OW29488   3.619   4.662   7.323 -0.8348  0.1443  0.6508
 5952SOL    HW129489   3.647   4.623   7.241 -1.0685 -0.1525  0.7095
 5952SOL    HW229490   3.702   4.694   7.358 -0.3449 -0.6931  0.2383
 5953SOL     OW29491   3.524   2.190   4.297  0.0225 -0.0666 -0.1818
 5953SOL    HW129492   3.514   2.168   4.389 -0.3646 -0.9576 -0.4387
 5953SOL    HW229493   3.444   2.240   4.283  0.1227 -0.2731 -1.5065
 5954SOL     OW29494   2.670   3.700   5.691  0.1809  0.3490  0.0262
 5954SOL    HW129495   2.701   3.690   5.781  0.8689 -1.7824 -0.4639
 5954SOL    HW229496   2.744   3.659   5.648 -1.3060 -0.3237 -1.8856
 5955SOL     OW29497   4.626   3.990   7.267  0.2337 -0.1406  0.0723
 5955SOL    HW129498   4.702   3.974   7.324 -0.0852 -2.1057 -0.0641
 5955SOL    HW229499   4.575   4.050   7.323  1.9341  2.6757 -1.3754
 5956SOL     OW29500   3.067   3.283   2.303 -0.0974  0.3275  0.2499
 5956SOL    HW129501   3.073   3.342   2.227 -0.7050  1.9895  1.4892
 5956SOL    HW229502   2.977   3.255   2.288 -0.1865  0.5341  0.3955
 5957SOL     OW29503   0.897   2.027   5.954  0.7874 -0.1310 -0.0406
 5957SOL    HW129504   0.847   2.023   6.035  0.4260  0.3782 -0.2389
 5957SOL    HW229505   0.890   2.122   5.942  1.5676 -0.0204  0.3470
 5958SOL     OW29506   1.640   3.377   9.008  0.3806 -0.3199  0.0159
 5958SOL    HW129507   1.566   3.418   9.053 -0.6036 -0.8846 -1.0883
 5958SOL    HW229508   1.623   3.409   8.920 -0.3790 -0.8703 -0.0398
 5959SOL     OW29509   4.234   3.766   9.146 -0.5063 -0.2051  0.0373
 5959SOL    HW129510   4.226   3.727   9.059 -1.1804 -0.5846  0.2662
 5959SOL    HW229511   4.143   3.784   9.167 -0.3383  1.1567 -0.4195
 5960SOL     OW29512   4.695   1.077   1.586  0.4125 -0.1093 -0.0860
 5960SOL    HW129513   4.720   0.994   1.545 -1.9771  0.4700 -2.7678
 5960SOL    HW229514   0.049   1.104   1.588  0.4628 -0.1844 -1.2134
 5961SOL     OW29515   4.549   0.594   9.252  0.4959  0.2914 -0.0242
 5961SOL    HW129516   4.603   0.516   9.262  0.2839  0.4745  2.5247
 5961SOL    HW229517   4.511   0.568   9.168  1.7728 -2.3204  0.2172
 5962SOL     OW29518   3.327   0.987   2.582  0.3154  0.2139 -0.4406
 5962SOL    HW129519   3.331   1.060   2.521 -0.8906 -1.0331 -1.9897
 5962SOL    HW229520   3.254   1.011   2.639  0.8556 -1.9366  1.1751
 5963SOL     OW29521   4.451   2.753   0.422 -0.0647  0.8687 -0.0376
 5963SOL    HW129522   4.508   2.681   0.450  0.2358  1.7920  1.7675
 5963SOL    HW229523   4.500   2.831   0.448  0.2563 -0.0735  2.2056
 5964SOL     OW29524   0.382   2.531  10.433 -0.2340  0.2223 -0.3841
 5964SOL    HW129525   0.461   2.573  10.401  1.4568 -2.0580  0.7622
 5964SOL    HW229526   0.321   2.545  10.361 -0.8206 -1.0515 -0.1479
 5965SOL     OW29527   2.065   1.988   6.337  0.2677  0.0859  0.8002
 5965SOL    HW129528   2.006   1.977   6.411 -0.4838  3.2579  0.6504
 5965SOL    HW229529   1.998   1.972   6.271  0.5911  1.9723  0.0006
 5966SOL     OW29530   1.959   2.640  12.228 -0.2556  0.1594  0.3516
 5966SOL    HW129531   1.907   2.690  12.165 -1.1726 -0.5011  0.5847
 5966SOL    HW229532   2.045   2.678  12.214  0.0511 -0.5550  0.3162
 5967SOL     OW29533   1.965   4.298   8.912  0.1803 -0.0121 -0.6761
 5967SOL    HW129534   1.881   4.265   8.881  0.7686 -0.4257 -1.8279
 5967SOL    HW229535   1.995   4.209   8.932 -1.0367 -0.2191  0.1945
 5968SOL     OW29536   0.669   3.969  12.570 -0.7079  0.1000  0.3605
 5968SOL    HW129537   0.575   3.964  12.557 -0.5831 -1.8077  0.1416
 5968SOL    HW229538   0.665   3.894  12.630  1.1528  1.7544  2.5511
 5969SOL     OW29539   3.042   2.632  11.366  1.1662  0.1822  0.2884
 5969SOL    HW129540   3.091   2.636  11.448 -0.1572 -2.6796  1.1849
 5969SOL    HW229541   3.054   2.726  11.348  1.4583  0.5155  2.3034
 5970SOL     OW29542   3.994   0.715   2.195  0.2572  0.0589  0.0394
 5970SOL    HW129543   4.023   0.652   2.129  0.0623  0.5700 -0.5235
 5970SOL    HW229544   4.068   0.759   2.237  0.1644  0.5428 -0.3114
 5971SOL     OW29545   1.924   2.941   2.357  0.1785  0.7826 -0.0481
 5971SOL    HW129546   1.851   2.879   2.347 -0.0195  1.2535 -1.4807
 5971SOL    HW229547   1.924   2.979   2.270  1.1417  0.8245 -0.0287
 5972SOL     OW29548   1.084   3.941   4.388 -0.3361  0.1643 -0.5122
 5972SOL    HW129549   1.137   3.998   4.331  1.9506 -0.4368  0.9932
 5972SOL    HW229550   1.103   3.855   4.351 -0.3696  0.8872 -2.2217
 5973SOL     OW29551   3.062   4.070   5.759  0.2456 -0.5229 -0.0225
 5973SOL    HW129552   2.970   4.097   5.754  0.1804 -0.4332  1.8766
 5973SOL    HW229553   3.100   4.150   5.796  3.2097 -1.2819 -1.4173
 5974SOL     OW29554   0.521   3.632   8.971  0.1035 -0.0518  0.2335
 5974SOL    HW129555   0.580   3.639   9.046 -1.0834  0.3209  1.1252
 5974SOL    HW229556   0.575   3.642   8.893  0.8457  0.3204  0.7880
 5975SOL     OW29557   1.817   2.152   3.638  0.2474  0.7025 -0.5016
 5975SOL    HW129558   1.736   2.153   3.689 -0.5985 -0.2604 -1.8279
 5975SOL    HW229559   1.815   2.059   3.614 -3.5417  0.3473  1.1832
 5976SOL     OW29560   1.467   0.803   4.320 -0.3423 -0.6208 -0.0577
 5976SOL    HW129561   1.489   0.757   4.239  2.3040  0.6747 -0.0753
 5976SOL    HW229562   1.542   0.822   4.377 -1.0652 -0.3974  0.8082
 5977SOL     OW29563   2.133   4.233  14.648  0.1651 -0.4076 -0.3613
 5977SOL    HW129564   2.080   4.154  14.634 -1.6731  0.5554  1.1282
 5977SOL    HW229565   2.172   4.215  14.734 -1.4470 -1.9135  0.0583
 5978SOL     OW29566   3.417   0.400   4.336  0.4085 -0.2458 -0.8075
 5978SOL    HW129567   3.325   0.410   4.311 -0.1612 -0.8321  1.0486
 5978SOL    HW229568   3.452   0.417   4.248  0.9605 -1.4858 -0.8138
 5979SOL     OW29569   0.546   1.747   9.949  0.7139 -0.0816  0.4089
 5979SOL    HW129570   0.513   1.825   9.904 -2.9033 -1.5076  0.6100
 5979SOL    HW229571   0.496   1.677   9.908 -1.7786  1.6810  0.4149
 5980SOL     OW29572   4.248   2.637   1.369 -0.1225  0.0209  0.2091
 5980SOL    HW129573   4.177   2.692   1.402  1.2849  2.6646 -1.1683
 5980SOL    HW229574   4.313   2.650   1.439  0.4644  1.5893 -0.6198
 5981SOL     OW29575   4.089   4.200   3.626 -0.3227 -0.4559  0.1087
 5981SOL    HW129576   4.078   4.280   3.573 -0.0830  1.1252  2.4488
 5981SOL    HW229577   4.152   4.150   3.575  0.0444  1.8351 -1.7022
 5982SOL     OW29578   3.940   4.469   4.715 -0.2635 -0.4468 -0.4041
 5982SOL    HW129579   4.016   4.508   4.758  0.6263 -2.5395 -0.0594
 5982SOL    HW229580   3.979   4.392   4.672  0.7012  0.1118 -0.5430
 5983SOL     OW29581   4.162   0.553   2.441  0.0642  0.4704 -0.2430
 5983SOL    HW129582   4.112   0.534   2.520 -0.1021  0.4746 -0.3480
 5983SOL    HW229583   4.111   0.515   2.370 -1.8582 -0.8212  1.8234
 5984SOL     OW29584   3.881   1.057   0.360 -0.4290 -0.8341  0.7875
 5984SOL    HW129585   3.949   1.024   0.302 -0.9135 -0.4299  0.0021
 5984SOL    HW229586   3.934   1.067   0.440 -0.5851  1.4848  0.5824
 5985SOL     OW29587   3.452   0.314   6.697  0.1772 -0.7629  0.8818
 5985SOL    HW129588   3.525   0.360   6.656 -0.2356  1.1283  2.3031
 5985SOL    HW229589   3.399   0.386   6.729  0.0323 -0.3147 -0.3426
 5986SOL     OW29590   2.260   4.430   6.799  0.1641  0.5670 -0.3055
 5986SOL    HW129591   2.295   4.403   6.714 -0.1304  0.7674 -0.4888
 5986SOL    HW229592   2.195   4.495   6.772  0.2314  1.3301  1.3445
 5987SOL     OW29593   0.687   1.982  13.206 -0.4963 -0.4020  0.1945
 5987SOL    HW129594   0.737   1.926  13.146 -0.6513 -0.8291  0.4597
 5987SOL    HW229595   0.753   2.051  13.206 -0.2098 -0.6583  2.3320
 5988SOL     OW29596   3.723   1.125  10.285 -0.0720 -0.4199  0.1424
 5988SOL    HW129597   3.774   1.169  10.218 -1.6835 -0.3704 -1.0409
 5988SOL    HW229598   3.792   1.083  10.337  1.4113  0.0119 -1.4837
 5989SOL     OW29599   2.597   3.898   9.944 -0.0631 -0.0977 -0.6301
 5989SOL    HW129600   2.618   3.882  10.035  3.2816 -0.2558 -1.4405
 5989SOL    HW229601   2.682   3.909   9.900 -0.1441  1.7655 -0.3490
 5990SOL     OW29602   4.258   1.858   9.181 -0.3408 -0.7589 -0.3685
 5990SOL    HW129603   4.254   1.903   9.265 -0.6005 -1.2224 -0.1293
 5990SOL    HW229604   4.266   1.934   9.123 -0.7915  0.4887  1.2321
 5991SOL     OW29605   1.055   3.596   9.316  0.2833 -0.3429 -0.2814
 5991SOL    HW129606   0.970   3.554   9.330 -0.1204  0.1320 -1.3277
 5991SOL    HW229607   1.070   3.570   9.226 -1.0723 -2.7501  0.1734
 5992SOL     OW29608   1.531   3.543   3.889 -0.0152  0.2753 -0.6527
 5992SOL    HW129609   1.540   3.448   3.898  0.2217  0.2303 -1.3884
 5992SOL    HW229610   1.620   3.561   3.918 -0.3880 -0.0975  0.7577
 5993SOL     OW29611   3.074   4.396   4.269 -0.1975 -0.5054  0.0256
 5993SOL    HW129612   2.988   4.383   4.309 -0.0560 -0.4945  0.3365
 5993SOL    HW229613   3.052   4.473   4.216 -2.1907 -1.1114 -0.0127
 5994SOL     OW29614   1.835   3.123   4.528 -0.1047 -0.1121 -0.1436
 5994SOL    HW129615   1.760   3.183   4.524  0.0148 -0.1683 -3.2036
 5994SOL    HW229616   1.904   3.179   4.562 -2.3615  2.1182  0.8004
 5995SOL     OW29617   1.471   2.011   2.193 -1.1463  0.2410  0.2120
 5995SOL    HW129618   1.485   1.972   2.107 -1.0293 -2.0329  1.2693
 5995SOL    HW229619   1.562   2.015   2.223 -0.9213 -2.1031 -0.1822
 5996SOL     OW29620   0.146   1.667   4.716  0.2487 -0.2318 -0.1307
 5996SOL    HW129621   0.083   1.737   4.698  0.5488  0.7847  2.7579
 5996SOL    HW229622   0.231   1.711   4.718  0.6651 -1.0584  0.6595
 5997SOL     OW29623   2.588   2.594  12.827  0.9101 -0.2841 -0.0576
 5997SOL    HW129624   2.512   2.625  12.877  1.0380  4.0606 -2.5414
 5997SOL    HW229625   2.657   2.569  12.888  0.0867  0.1466  1.0510
 5998SOL     OW29626   4.144   1.619  13.188 -0.4191 -0.1045 -0.6537
 5998SOL    HW129627   4.130   1.525  13.177  0.9309 -0.3413 -0.3299
 5998SOL    HW229628   4.207   1.635  13.118  0.6302  0.8166  0.5032
 5999SOL     OW29629   1.077   3.557  10.120 -0.1081 -0.5031 -0.3152
 5999SOL    HW129630   1.049   3.524  10.035  0.0072  0.0430 -0.5682
 5999SOL    HW229631   1.173   3.551  10.115 -0.2563 -1.2566 -2.2755
 6000SOL     OW29632   3.541   1.994   5.949  0.1110  0.5390  0.0512
 6000SOL    HW129633   3.613   1.934   5.971 -0.2166 -0.3919 -1.3784
 6000SOL    HW229634   3.599   2.070   5.945  0.2679  0.3751 -0.9701
 6001SOL     OW29635   0.118   0.214   1.034 -0.0691 -0.2031 -0.3612
 6001SOL    HW129636   0.064   0.274   1.085  1.1445 -0.3069  1.0556
 6001SOL    HW229637   0.085   0.130   1.067  0.7956  0.0427  1.1468
 6002SOL     OW29638   1.513   1.139   5.876  0.1736  0.0531 -0.0133
 6002SOL    HW129639   1.562   1.222   5.883 -0.9490  0.8684 -2.0373
 6002SOL    HW229640   1.431   1.177   5.907  0.3898  0.1594  0.4392
 6003SOL     OW29641   2.601   2.956  12.698 -1.5167  0.8471 -0.1770
 6003SOL    HW129642   2.629   3.044  12.724  0.1073 -0.2484  1.8011
 6003SOL    HW229643   2.681   2.908  12.719 -1.8072 -0.5010 -2.1768
 6004SOL     OW29644   0.157   1.841   2.355 -0.0044  0.3027 -0.2160
 6004SOL    HW129645   0.172   1.936   2.352  1.7172  0.1218  2.2278
 6004SOL    HW229646   0.119   1.822   2.269 -0.0810  1.5302 -0.4597
 6005SOL     OW29647   0.686   2.070   4.514  0.1888  0.1242 -0.0538
 6005SOL    HW129648   0.725   2.010   4.451  2.0549 -0.9283  2.0826
 6005SOL    HW229649   0.597   2.073   4.480 -0.7449 -0.4723  2.3423
 6006SOL     OW29650   2.389   1.520   4.526  0.6725 -0.2196 -0.1516
 6006SOL    HW129651   2.388   1.509   4.431  2.7780 -2.5947  0.0910
 6006SOL    HW229652   2.482   1.535   4.543  1.1072 -1.4396 -1.4723
 6007SOL     OW29653   2.857   2.287  17.128 -0.6475  0.3673  0.5341
 6007SOL    HW129654   2.780   2.233  17.147 -0.7194  0.0738 -0.5843
 6007SOL    HW229655   2.909   2.241  17.063  0.3775  1.4765  0.5788
 6008SOL     OW29656   2.293   2.759  14.244  0.5872 -0.3001 -0.0466
 6008SOL    HW129657   2.270   2.756  14.152 -0.8877  0.7111  0.2831
 6008SOL    HW229658   2.277   2.850  14.269 -2.1435 -0.7137 -0.2443
 6009SOL     OW29659   2.520   3.211   6.096 -0.9029 -0.1344 -0.3736
 6009SOL    HW129660   2.576   3.210   6.018  0.5902  1.4026  0.6790
 6009SOL    HW229661   2.545   3.299   6.124  1.2600 -1.0908  0.6507
 6010SOL     OW29662   1.103   2.928   5.654 -0.2324  0.0773  0.0343
 6010SOL    HW129663   1.044   3.002   5.645  0.4061  0.5558 -0.2384
 6010SOL    HW229664   1.082   2.874   5.578 -1.9111  0.4330  0.2417
 6011SOL     OW29665   4.189   2.599   2.992 -0.1494 -0.7929 -0.0850
 6011SOL    HW129666   4.102   2.562   2.984  0.3603 -2.3744  1.8585
 6011SOL    HW229667   4.204   2.641   2.907 -4.6269  0.6070 -0.1446
 6012SOL     OW29668   2.674   4.000   5.921  0.9343 -0.6291  0.0970
 6012SOL    HW129669   2.674   4.092   5.945  0.3028 -0.6678  0.2547
 6012SOL    HW229670   2.720   3.953   5.991 -0.3189  0.1174  1.4168
 6013SOL     OW29671   4.428   0.545   2.516 -0.4550  0.4629 -0.0265
 6013SOL    HW129672   4.483   0.586   2.449 -1.5292 -0.7597 -1.6670
 6013SOL    HW229673   4.343   0.545   2.472 -0.7653 -0.6008  0.5805
 6014SOL     OW29674   1.838   0.383   2.676  0.7361 -0.3446 -0.3139
 6014SOL    HW129675   1.797   0.322   2.615  2.1311  0.7810 -2.3670
 6014SOL    HW229676   1.909   0.409   2.617  1.5078 -0.3966  0.5940
 6015SOL     OW29677   1.735   0.499   7.505  0.0195  0.1641  0.3193
 6015SOL    HW129678   1.707   0.420   7.551  1.3453 -0.7472 -0.4423
 6015SOL    HW229679   1.667   0.513   7.440 -0.5603 -0.7883  0.7271
 6016SOL     OW29680   1.923   1.229  12.642 -0.1447 -0.3670 -0.0023
 6016SOL    HW129681   1.930   1.314  12.600 -0.1489  0.2708  1.2992
 6016SOL    HW229682   1.891   1.176  12.569  0.7164 -0.9424  0.0399
 6017SOL     OW29683   0.152   1.914   1.571 -0.1258 -0.2018  0.1439
 6017SOL    HW129684   0.178   1.824   1.551  1.8542  0.3061  0.4916
 6017SOL    HW229685   0.091   1.932   1.500  0.4949 -1.8957 -0.8416
 6018SOL     OW29686   1.894   2.603   3.203  0.1239 -0.1089 -0.0442
 6018SOL    HW129687   1.894   2.519   3.249 -1.6409  0.0127  0.1660
 6018SOL    HW229688   1.835   2.586   3.130  1.7388  1.3158 -1.6727
 6019SOL     OW29689   0.065   4.635  16.430  0.4412 -0.6209 -0.5929
 6019SOL    HW129690   0.036   4.567  16.368  0.4370 -0.6421 -0.5677
 6019SOL    HW229691   0.065   4.586  16.512  0.9828 -0.4247 -0.4781
 6020SOL     OW29692   1.015   3.185  14.935  0.4111 -0.6487 -0.6060
 6020SOL    HW129693   1.070   3.236  14.995  1.6819 -1.6897 -0.8782
 6020SOL    HW229694   0.960   3.141  14.999 -0.8028  1.7016 -0.0587
 6021SOL     OW29695   0.515   0.109   1.108 -0.7643 -0.8447 -0.9217
 6021SOL    HW129696   0.602   0.084   1.141 -1.0177  0.1852  0.5453
 6021SOL    HW229697   0.537   0.148   1.024  0.0217 -1.3797 -0.9707
 6022SOL     OW29698   2.464   3.259  13.884 -0.8554 -0.0030  0.3144
 6022SOL    HW129699   2.478   3.186  13.824  1.8668 -0.8802  2.0386
 6022SOL    HW229700   2.501   3.331  13.832 -0.0648 -0.7333 -0.1292
 6023SOL     OW29701   3.650   1.096   6.953 -0.6381  0.0536 -0.0532
 6023SOL    HW129702   3.591   1.168   6.977 -1.2610 -1.3027  2.4096
 6023SOL    HW229703   3.633   1.037   7.026  1.9854  1.0565  1.3566
 6024SOL     OW29704   0.941   1.943   3.379  0.3637 -0.0828 -0.6820
 6024SOL    HW129705   0.962   2.033   3.357 -0.6437  0.0780 -1.0014
 6024SOL    HW229706   0.871   1.936   3.314  0.3837  0.2176 -0.7353
 6025SOL     OW29707   1.184   3.935   7.550  0.0550  0.0592 -0.0075
 6025SOL    HW129708   1.249   3.923   7.481  1.1845  0.1864  1.0385
 6025SOL    HW229709   1.197   3.852   7.596  0.3563  0.1577  0.0858
 6026SOL     OW29710   3.300   4.633   3.500 -0.4331 -0.4034 -0.0100
 6026SOL    HW129711   3.258   4.550   3.523  2.0706 -0.9957  2.4320
 6026SOL    HW229712   3.220   4.680   3.475 -1.3577 -0.1783  3.4142
 6027SOL     OW29713   1.311   3.707   5.026 -0.5175  0.2122  0.6117
 6027SOL    HW129714   1.322   3.764   5.102 -3.3266  1.6195 -0.0265
 6027SOL    HW229715   1.400   3.683   5.003 -0.1394  0.8296  1.4086
 6028SOL     OW29716   4.467   1.688   4.543  0.2064 -0.3046  0.8431
 6028SOL    HW129717   4.506   1.600   4.540 -1.4205 -1.0152  0.8032
 6028SOL    HW229718   4.410   1.695   4.619 -0.9197 -0.2432 -0.0127
 6029SOL     OW29719   2.598   0.999   1.921  0.1145 -0.0384  0.2875
 6029SOL    HW129720   2.576   0.947   1.998 -0.2698 -0.4104 -0.0752
 6029SOL    HW229721   2.680   0.961   1.889 -0.4195 -1.0727  0.1728
 6030SOL     OW29722   0.413   2.349   0.763  0.0318  0.2844  0.2862
 6030SOL    HW129723   0.358   2.415   0.806  0.7128  1.2289 -0.2808
 6030SOL    HW229724   0.485   2.408   0.740  1.3953 -1.8436 -0.8886
 6031SOL     OW29725   0.616   3.984   2.585  0.2983 -0.2791 -0.2777
 6031SOL    HW129726   0.536   3.932   2.573  0.3660 -0.9817  2.3991
 6031SOL    HW229727   0.577   4.068   2.560 -1.0532 -0.8577 -0.1231
 6032SOL     OW29728   3.880   2.183   1.886  0.4374 -0.6111 -0.2770
 6032SOL    HW129729   3.971   2.201   1.864  0.6939 -1.2756  0.2517
 6032SOL    HW229730   3.849   2.146   1.803  3.7169  0.2503 -1.8968
 6033SOL     OW29731   4.357   1.135   3.194 -0.1716 -0.3361 -0.8688
 6033SOL    HW129732   4.379   1.043   3.179  0.3128 -0.4151  0.3343
 6033SOL    HW229733   4.371   1.145   3.288 -3.2815 -2.2492 -0.2167
 6034SOL     OW29734   2.817   3.826   6.962 -0.0815  0.2867 -0.3530
 6034SOL    HW129735   2.904   3.787   6.958 -0.9027 -1.4760 -1.0246
 6034SOL    HW229736   2.783   3.773   7.034  0.3438  2.5137  1.4709
 6035SOL     OW29737   1.845   1.270   1.264 -0.5282 -0.2571 -0.4020
 6035SOL    HW129738   1.855   1.175   1.257  1.1280  0.0092 -1.5565
 6035SOL    HW229739   1.870   1.297   1.176  1.8614 -1.8597 -0.2256
 6036SOL     OW29740   3.365   1.957   2.982 -0.2164  0.3678 -0.3528
 6036SOL    HW129741   3.394   1.988   3.068 -0.3182 -1.6956  0.4357
 6036SOL    HW229742   3.324   2.034   2.943  0.4561  0.7651 -0.2775
 6037SOL     OW29743   3.326   1.559  10.565  0.0058  0.5334  0.2875
 6037SOL    HW129744   3.325   1.565  10.660 -1.8299  1.6622  0.1889
 6037SOL    HW229745   3.236   1.527  10.554 -0.5756  1.6732  1.8142
 6038SOL     OW29746   0.911   1.870   8.305 -0.3503  0.0509  0.1087
 6038SOL    HW129747   0.914   1.775   8.312 -2.3103  0.0187  0.3065
 6038SOL    HW229748   0.837   1.897   8.360 -0.4104 -0.8157  0.4531
 6039SOL     OW29749   0.369   4.132   7.398  0.0142  0.6196 -0.4636
 6039SOL    HW129750   0.358   4.227   7.391 -1.0696  0.5080 -0.2046
 6039SOL    HW229751   0.303   4.098   7.338 -0.7255 -0.4429  0.9573
 6040SOL     OW29752   3.810   4.651   2.983 -0.1868 -0.4282 -0.5918
 6040SOL    HW129753   3.841   4.630   2.895  2.7624 -1.2836  0.6732
 6040SOL    HW229754   3.735   4.706   2.961  0.1563 -0.6166 -2.1893
 6041SOL     OW29755   0.182   3.552   2.614 -0.1727 -0.2279 -0.1349
 6041SOL    HW129756   0.264   3.539   2.567 -0.3946 -2.2070 -0.0029
 6041SOL    HW229757   0.178   3.469   2.662  0.1943 -1.1316 -1.6782
 6042SOL     OW29758   4.458   0.294   4.705  0.4535  0.2140  0.0786
 6042SOL    HW129759   4.526   0.329   4.762  1.5681  1.5694 -2.0545
 6042SOL    HW229760   4.399   0.368   4.691  0.5555  0.0745 -1.0840
 6043SOL     OW29761   1.006   1.276  14.733  0.2074  0.0486  0.4801
 6043SOL    HW129762   1.070   1.207  14.720  0.5259  0.5785 -0.7579
 6043SOL    HW229763   0.923   1.236  14.707 -0.5130  1.8505  0.0285
 6044SOL     OW29764   2.710   1.884   7.562  0.0066  0.3580  0.5892
 6044SOL    HW129765   2.778   1.894   7.628 -0.5882  0.6266  1.1585
 6044SOL    HW229766   2.647   1.827   7.607 -0.3816  0.5023  0.2326
 6045SOL     OW29767   4.107   4.600   5.070 -0.4050  0.1429 -0.0851
 6045SOL    HW129768   4.196   4.566   5.057 -0.7352 -1.1492  0.9260
 6045SOL    HW229769   4.108   4.614   5.165 -1.6207 -0.4333  0.0111
 6046SOL     OW29770   1.306   0.898   6.917  0.3963  0.1877 -0.2979
 6046SOL    HW129771   1.397   0.926   6.927  0.7009 -0.5226 -1.2103
 6046SOL    HW229772   1.260   0.974   6.882  0.1852 -0.4661 -1.4156
 6047SOL     OW29773   4.047   1.809   6.835 -0.1775  0.2307  0.0748
 6047SOL    HW129774   3.951   1.803   6.832  0.0160 -3.9904  1.3916
 6047SOL    HW229775   4.067   1.816   6.928  1.4280 -0.7007 -0.1983
 6048SOL     OW29776   4.290   3.646   5.491  0.2228  0.3342  0.1291
 6048SOL    HW129777   4.267   3.643   5.398 -0.1378 -1.6860  0.2796
 6048SOL    HW229778   4.207   3.620   5.531 -0.7597  0.6659 -1.6641
 6049SOL     OW29779   3.257   1.702   2.956  1.0964 -0.1214  0.0116
 6049SOL    HW129780   3.288   1.656   3.034  2.6951  0.2931 -0.3821
 6049SOL    HW229781   3.313   1.780   2.953 -1.4657  1.6450 -2.3579
 6050SOL     OW29782   2.724   3.941  17.594  0.6135 -0.5354  0.7043
 6050SOL    HW129783   2.793   3.890  17.637  1.9900 -0.6840 -1.7208
 6050SOL    HW229784   2.729   3.910  17.504  0.1448 -1.3371  0.9484
 6051SOL     OW29785   4.493   3.868  11.512  0.4333  0.0050  0.0724
 6051SOL    HW129786   4.565   3.925  11.484  1.3542 -0.6472  1.0813
 6051SOL    HW229787   4.496   3.803  11.442  0.8496 -1.8686  1.8286
 6052SOL     OW29788   0.486   0.761   7.334  0.0829 -0.3002 -0.0123
 6052SOL    HW129789   0.393   0.742   7.326  0.1098  0.2857 -1.6540
 6052SOL    HW229790   0.505   0.753   7.241 -1.1269 -0.5788 -0.2264
 6053SOL     OW29791   1.166   2.191   6.982  0.0008 -0.4017 -0.3384
 6053SOL    HW129792   1.198   2.274   6.948 -2.7105  1.2811  1.1975
 6053SOL    HW229793   1.166   2.193   7.078  1.7823 -1.3263 -0.3245
 6054SOL     OW29794   0.873   4.350   4.524 -0.2692 -0.8041  0.1416
 6054SOL    HW129795   0.889   4.441   4.499 -0.7205 -0.7031  0.2322
 6054SOL    HW229796   0.781   4.369   4.540 -0.3790  1.2262 -2.9288
 6055SOL     OW29797   0.042   1.098   2.517  0.1676 -0.2023  0.3032
 6055SOL    HW129798   4.698   1.068   2.558  0.5810 -1.3018  0.3338
 6055SOL    HW229799   0.044   1.193   2.529 -1.1619 -0.2084  0.5498
 6056SOL     OW29800   0.727   0.422   1.854  0.4188 -0.3948 -0.2314
 6056SOL    HW129801   0.715   0.517   1.847  1.2672 -0.2238  0.7940
 6056SOL    HW229802   0.774   0.415   1.936 -1.3264 -2.1960  0.6236
 6057SOL     OW29803   4.374   4.286  14.434  0.1013  0.1766 -0.4461
 6057SOL    HW129804   4.430   4.217  14.471 -0.7571 -1.5545 -2.3677
 6057SOL    HW229805   4.286   4.258  14.461 -0.6169  2.5063 -0.4244
 6058SOL     OW29806   2.169   1.166   5.918  0.0403 -0.2785 -0.2847
 6058SOL    HW129807   2.253   1.124   5.900 -0.4285 -1.4698  0.3520
 6058SOL    HW229808   2.196   1.245   5.965  1.4483 -0.4430 -0.8314
 6059SOL     OW29809   4.713   2.528   2.363  0.5370 -0.2325  0.0880
 6059SOL    HW129810   0.037   2.576   2.420 -2.5123  1.4318  1.9568
 6059SOL    HW229811   4.656   2.595   2.326  1.4543  0.9806  0.8584
 6060SOL     OW29812   3.630   1.423   5.068 -0.0371 -0.3829  0.2885
 6060SOL    HW129813   3.627   1.338   5.024  0.7712 -0.0773 -0.3480
 6060SOL    HW229814   3.603   1.413   5.160 -0.1612 -0.6112  0.2292
 6061SOL     OW29815   4.701   0.845   3.152 -0.1464 -0.3709  0.1348
 6061SOL    HW129816   4.716   0.939   3.146  1.2425 -0.6289 -0.4192
 6061SOL    HW229817   0.006   0.814   3.072 -0.3251 -0.2682  0.0025
 6062SOL     OW29818   4.120   0.248   5.893 -0.2834  0.0596 -0.2649
 6062SOL    HW129819   4.040   0.261   5.841  2.2245  1.3337 -3.8006
 6062SOL    HW229820   4.092   0.167   5.935 -0.8172 -0.4302 -1.5791
 6063SOL     OW29821   3.256   3.250  13.001  0.1997  0.1952  0.0910
 6063SOL    HW129822   3.284   3.323  13.057 -1.6622 -0.3350  1.6994
 6063SOL    HW229823   3.230   3.181  13.062  1.0078  0.2467  0.4904
 6064SOL     OW29824   0.288   2.224   0.546 -0.7163  0.4894 -0.4178
 6064SOL    HW129825   0.344   2.250   0.619 -0.8319  1.0031 -0.5146
 6064SOL    HW229826   0.233   2.167   0.599 -0.7289  1.8966  1.0892
 6065SOL     OW29827   4.512   2.547   6.835 -0.1086  0.0706  0.3868
 6065SOL    HW129828   4.522   2.625   6.780  2.0365 -1.3803 -1.2805
 6065SOL    HW229829   4.601   2.534   6.868 -0.5040 -1.1950  0.9525
 6066SOL     OW29830   2.630   2.615   6.455 -0.0629 -0.3304 -0.1935
 6066SOL    HW129831   2.627   2.623   6.360 -1.4280  1.9662  0.0118
 6066SOL    HW229832   2.666   2.527   6.458 -2.3921 -1.3257 -1.1918
 6067SOL     OW29833   3.098   1.201   6.111  0.5747  0.0853  0.5048
 6067SOL    HW129834   3.192   1.218   6.117 -0.0284  1.9995  4.4060
 6067SOL    HW229835   3.083   1.112   6.143 -0.9003 -0.1583 -0.8470
 6068SOL     OW29836   1.918   4.589  11.313  0.1256  0.4267 -0.3427
 6068SOL    HW129837   1.939   4.531  11.386  0.3379  0.8520 -0.0639
 6068SOL    HW229838   1.925   4.521  11.246 -1.7014 -0.2496  0.1343
 6069SOL     OW29839   0.395   2.094   6.762  0.1968 -0.2639  0.0161
 6069SOL    HW129840   0.346   2.071   6.683  2.4610  2.0324 -2.0545
 6069SOL    HW229841   0.341   2.052   6.829  0.7396 -1.0186 -0.0297
 6070SOL     OW29842   3.356   2.537   1.404 -0.3394  0.2227  0.0859
 6070SOL    HW129843   3.296   2.593   1.454 -1.9465 -0.2667 -1.3004
 6070SOL    HW229844   3.424   2.600   1.383 -0.6374  0.9671  1.3389
 6071SOL     OW29845   2.254   3.067   3.082 -0.2010  0.0824  0.1665
 6071SOL    HW129846   2.316   3.084   3.153  0.0426  0.5548 -0.1626
 6071SOL    HW229847   2.314   3.009   3.037  0.1906 -0.1355  0.9701
 6072SOL     OW29848   1.550   1.440   4.923 -0.0606  0.2036 -0.2125
 6072SOL    HW129849   1.541   1.356   4.969 -0.0484  0.3295  0.0189
 6072SOL    HW229850   1.603   1.495   4.981 -0.8836 -0.0939  0.8161
 6073SOL     OW29851   0.651   1.553   3.921 -0.3130 -0.0036  0.0129
 6073SOL    HW129852   0.719   1.582   3.860  1.2463  0.3392  1.9272
 6073SOL    HW229853   0.608   1.633   3.953  0.8703 -0.4562  2.7336
 6074SOL     OW29854   4.563   3.194   2.966  0.2944  0.1775 -0.1228
 6074SOL    HW129855   4.548   3.183   3.060 -1.8588  3.1562 -0.1119
 6074SOL    HW229856   4.532   3.282   2.945  2.7028  0.9902 -0.2298
 6075SOL     OW29857   0.325   4.033   6.437 -0.2793 -0.1309  0.1404
 6075SOL    HW129858   0.329   3.967   6.506  1.8548 -2.0846 -1.8477
 6075SOL    HW229859   0.348   3.980   6.360  0.6694 -1.1978  1.1436
 6076SOL     OW29860   0.920   3.353  16.416  0.0136 -0.3822 -0.4082
 6076SOL    HW129861   0.878   3.323  16.335 -0.5287  0.5661 -0.4779
 6076SOL    HW229862   0.999   3.388  16.375 -1.0304  0.4573 -1.6851
 6077SOL     OW29863   3.136   4.244  15.269 -0.1310 -0.1961 -0.2466
 6077SOL    HW129864   3.202   4.277  15.330  1.9753 -1.8036 -1.6346
 6077SOL    HW229865   3.161   4.293  15.191 -2.0903  0.4430 -0.4685
 6078SOL     OW29866   1.611   0.463  10.053  0.1678 -0.0006 -0.0008
 6078SOL    HW129867   1.524   0.500  10.061  0.2919  0.0571  1.0459
 6078SOL    HW229868   1.653   0.502  10.130  2.5352 -1.2542 -0.6654
 6079SOL     OW29869   1.902   4.223   4.926 -0.1187 -0.1281 -0.4304
 6079SOL    HW129870   1.819   4.193   4.889  0.2630 -1.3874 -0.2727
 6079SOL    HW229871   1.876   4.244   5.015  1.2474 -1.7421  0.3486
 6080SOL     OW29872   3.887   2.698  13.703  0.6719  0.8384 -0.2272
 6080SOL    HW129873   3.912   2.744  13.782 -0.6765 -0.5921  1.0281
 6080SOL    HW229874   3.968   2.699  13.653  0.1589  0.7987 -1.0736
 6081SOL     OW29875   0.053   4.375   1.113 -0.1422  0.5074 -0.2325
 6081SOL    HW129876   0.033   4.396   1.205  3.0434  0.4062  0.4777
 6081SOL    HW229877   4.715   4.336   1.069  0.0031  1.1176 -1.0133
 6082SOL     OW29878   3.600   4.132   0.456 -0.0823 -0.0100 -0.2571
 6082SOL    HW129879   3.506   4.111   0.451 -0.3643  0.7027  1.9879
 6082SOL    HW229880   3.596   4.227   0.470 -0.8324 -0.1728  0.6877
 6083SOL     OW29881   1.090   0.481   1.821 -0.0989  0.2166  0.3465
 6083SOL    HW129882   1.077   0.574   1.837  0.5805  0.0242  2.0302
 6083SOL    HW229883   1.007   0.451   1.860 -0.2567  4.1625  2.9809
 6084SOL     OW29884   0.601   3.668   5.823 -0.4268 -0.6095 -0.1263
 6084SOL    HW129885   0.540   3.627   5.884  1.6110 -0.0129  2.3431
 6084SOL    HW229886   0.588   3.613   5.746 -1.0106 -0.5296 -0.0846
 6085SOL     OW29887   0.731   0.371  17.599  0.1920  0.4189 -0.1821
 6085SOL    HW129888   0.730   0.455  17.645  2.5179  0.9849 -1.2012
 6085SOL    HW229889   0.805   0.322  17.634 -0.7729 -0.0473  1.2127
 6086SOL     OW29890   1.273   2.016   8.776  0.5884 -0.2795  0.9488
 6086SOL    HW129891   1.189   1.983   8.806  0.1822  0.2292  0.3760
 6086SOL    HW229892   1.262   2.108   8.802 -0.4260 -0.3660  0.8246
 6087SOL     OW29893   2.856   1.372   5.176 -0.0763  0.0172 -0.2194
 6087SOL    HW129894   2.920   1.397   5.243  1.7961  1.1447 -2.4486
 6087SOL    HW229895   2.886   1.282   5.167  0.7774  0.3810 -0.9816
 6088SOL     OW29896   1.622   0.052   1.645  0.1227 -0.0437  0.0685
 6088SOL    HW129897   1.555   4.720   1.643 -0.9006  0.9787 -1.6862
 6088SOL    HW229898   1.646   0.051   1.737 -1.8015  1.8072  0.5860
 6089SOL     OW29899   2.774   3.054   6.870 -0.4230  0.7631 -0.0285
 6089SOL    HW129900   2.737   3.056   6.781  0.2083  2.0645 -0.2604
 6089SOL    HW229901   2.748   2.965   6.890  1.0734  0.2703 -0.2961
 6090SOL     OW29902   0.051   1.902   5.401  0.6859 -0.3646  0.1672
 6090SOL    HW129903   0.077   1.939   5.485 -1.0125  0.1351  0.4600
 6090SOL    HW229904   4.718   1.844   5.429 -1.1247  1.3428 -0.8807
 6091SOL     OW29905   3.362   1.212   5.437 -0.6401 -0.2792 -0.2034
 6091SOL    HW129906   3.432   1.152   5.411  0.7983  1.3637 -0.0856
 6091SOL    HW229907   3.284   1.173   5.397 -1.4262  0.9725  0.1311
 6092SOL     OW29908   1.217   3.867   6.398  0.2513  0.2449 -0.1074
 6092SOL    HW129909   1.171   3.831   6.322 -0.4549 -0.0245  0.4493
 6092SOL    HW229910   1.298   3.880   6.349  1.6472 -0.1262  2.0824
 6093SOL     OW29911   0.588   0.839   9.341 -0.5294 -0.2669  0.1124
 6093SOL    HW129912   0.556   0.895   9.411  1.2214 -0.0051  0.6912
 6093SOL    HW229913   0.673   0.882   9.329 -0.4998 -0.9929 -2.2303
 6094SOL     OW29914   1.189   2.037   5.145  0.3306 -0.2133 -0.6548
 6094SOL    HW129915   1.209   1.944   5.157 -0.9036 -0.2572  1.0722
 6094SOL    HW229916   1.134   2.029   5.067 -0.2195 -1.8288 -0.1158
 6095SOL     OW29917   3.645   2.031   4.965 -0.0322  0.3866 -0.9484
 6095SOL    HW129918   3.659   2.109   5.019 -1.5895 -0.9849  1.4655
 6095SOL    HW229919   3.680   1.968   5.029 -0.8901  1.4912  0.6048
 6096SOL     OW29920   3.117   2.522   8.200  0.1154 -0.2582 -0.3004
 6096SOL    HW129921   3.123   2.544   8.107 -0.5771  1.8841  0.1641
 6096SOL    HW229922   3.061   2.596   8.222 -0.0070 -0.8327  1.3579
 6097SOL     OW29923   4.411   1.496   2.027  0.1642 -0.2598  0.0376
 6097SOL    HW129924   4.408   1.401   2.016  0.2989 -0.6809  3.6732
 6097SOL    HW229925   4.448   1.521   2.111 -0.0389 -0.6887  0.2545
 6098SOL     OW29926   4.696   1.177   1.016  0.1219 -0.1345  0.1577
 6098SOL    HW129927   4.608   1.199   1.048 -0.3996 -0.9445 -0.7276
 6098SOL    HW229928   0.008   1.169   1.098  0.3688 -1.1755 -0.0947
 6099SOL     OW29929   2.566   0.737   3.540 -0.2831 -0.2788  0.5576
 6099SOL    HW129930   2.566   0.807   3.474 -0.8377 -0.8283 -0.0163
 6099SOL    HW229931   2.472   0.733   3.554 -0.7644  2.5321 -1.8400
 6100SOL     OW29932   0.012   1.594   6.966  0.3843 -0.1762  0.0617
 6100SOL    HW129933   4.705   1.673   6.997 -0.0517  0.0209 -1.0512
 6100SOL    HW229934   0.072   1.636   6.904  0.4165 -0.3718 -0.0395
 6101SOL     OW29935   2.799   4.735   3.057 -0.1663  0.6767  0.1146
 6101SOL    HW129936   2.875   0.055   3.063 -0.6576  1.3242  0.1253
 6101SOL    HW229937   2.833   4.653   3.092  0.9794  0.5217 -1.3423
 6102SOL     OW29938   1.715   3.931  13.778 -0.2705  0.2473 -0.3581
 6102SOL    HW129939   1.663   3.881  13.715 -0.8407  2.5664 -1.7135
 6102SOL    HW229940   1.658   3.929  13.855  0.1622  2.4715  0.0187
 6103SOL     OW29941   4.014   2.546   9.014 -0.4764  0.6700  0.2443
 6103SOL    HW129942   3.950   2.570   9.080 -0.3082 -0.5290  0.8387
 6103SOL    HW229943   4.023   2.621   8.955  0.6083 -1.0264 -1.7771
 6104SOL     OW29944   4.020   4.639   3.669 -0.0617  0.4445  0.2303
 6104SOL    HW129945   3.944   4.697   3.680  0.2183  0.7963  0.2802
 6104SOL    HW229946   4.095   4.690   3.698 -0.2669  1.9401 -1.8459
 6105SOL     OW29947   3.316   0.476   4.605 -0.2642  0.7067  0.2985
 6105SOL    HW129948   3.395   0.467   4.658 -0.3906 -0.5317  0.2719
 6105SOL    HW229949   3.347   0.500   4.517 -0.4426 -0.4507 -0.0832
 6106SOL     OW29950   3.911   4.264   7.169 -0.7257  0.3670 -0.0048
 6106SOL    HW129951   3.900   4.192   7.230 -4.2930  3.0057  2.4413
 6106SOL    HW229952   3.860   4.240   7.091 -0.2743 -1.5603  0.3031
 6107SOL     OW29953   1.206   3.929  11.763 -0.3071  0.1812 -0.1994
 6107SOL    HW129954   1.247   3.852  11.802 -0.8144  0.4072  0.7739
 6107SOL    HW229955   1.167   3.892  11.684  0.3721  1.7141 -1.2726
 6108SOL     OW29956   4.081   0.583   2.880 -0.5599  0.1432 -0.1973
 6108SOL    HW129957   4.027   0.536   2.817 -0.9633 -0.8377  0.8867
 6108SOL    HW229958   4.038   0.551   2.959 -0.8170  1.0523  0.0303
 6109SOL     OW29959   0.374   0.396   9.244 -0.4548  0.0329  0.2185
 6109SOL    HW129960   0.320   0.403   9.165 -2.0333  2.8273  1.5344
 6109SOL    HW229961   0.321   0.449   9.304 -2.0795 -0.8664 -0.4343
 6110SOL     OW29962   2.109   1.642   6.927 -0.0341  0.8531  0.4266
 6110SOL    HW129963   2.028   1.679   6.892 -0.2209 -1.2734 -1.3559
 6110SOL    HW229964   2.113   1.698   7.005 -3.1515  1.2773  0.2931
 6111SOL     OW29965   2.829   3.698  10.051 -0.4908  0.2070 -0.1130
 6111SOL    HW129966   2.846   3.759   9.979  0.5202  1.4680  1.1951
 6111SOL    HW229967   2.767   3.746  10.105 -1.0234  0.0501 -0.5933
 6112SOL     OW29968   1.117   1.100   6.865  0.2180  0.5903  0.1479
 6112SOL    HW129969   1.113   1.133   6.776  0.8384 -1.6457 -0.7287
 6112SOL    HW229970   1.030   1.118   6.900  1.1172  2.0223  1.6885
 6113SOL     OW29971   3.322   3.045   9.167  0.3485 -0.3359  0.4532
 6113SOL    HW129972   3.315   3.133   9.204 -0.6733 -0.6352  0.9683
 6113SOL    HW229973   3.389   3.019   9.231 -1.1948 -2.1971  1.3353
 6114SOL     OW29974   2.333   1.244  11.380 -0.0888  0.5980 -0.1060
 6114SOL    HW129975   2.415   1.264  11.335  2.5658 -2.4008  3.2964
 6114SOL    HW229976   2.291   1.175  11.329  1.4088 -1.2906  1.1757
 6115SOL     OW29977   0.545   2.338   5.859 -0.1424 -0.9216 -0.0828
 6115SOL    HW129978   0.486   2.270   5.825 -0.2510 -0.8590 -0.0190
 6115SOL    HW229979   0.534   2.399   5.786 -2.3826 -2.1519 -0.7978
 6116SOL     OW29980   2.073   3.923  17.542  0.1659  0.1820 -0.6769
 6116SOL    HW129981   2.008   3.927  17.472 -0.0993  0.7845 -0.3950
 6116SOL    HW229982   2.012   3.886  17.606  0.2651 -0.4768 -0.9653
 6117SOL     OW29983   2.703   0.104   0.475  0.1713 -0.3217  0.3470
 6117SOL    HW129984   2.765   0.177   0.474 -1.5417  1.1056 -0.0658
 6117SOL    HW229985   2.723   0.056   0.395 -1.0105 -1.4696  0.7496
 6118SOL     OW29986   3.183   0.680  12.109 -0.2921  0.2694  0.5352
 6118SOL    HW129987   3.089   0.677  12.087 -0.4708  0.8460  1.2192
 6118SOL    HW229988   3.168   0.674  12.204 -3.4233 -0.6605 -0.0132
 6119SOL     OW29989   3.672   2.014   9.845 -0.9596  0.3671  0.0690
 6119SOL    HW129990   3.680   2.004   9.750 -0.4165 -1.8419  0.3484
 6119SOL    HW229991   3.598   1.960   9.873 -0.3599  0.4234  1.7915
 6120SOL     OW29992   1.804   3.054   7.226 -0.6151 -0.2307  0.1182
 6120SOL    HW129993   1.804   2.961   7.250  1.4265 -0.1340  0.5424
 6120SOL    HW229994   1.725   3.061   7.173 -1.4157 -0.8394  1.2283
 6121SOL     OW29995   2.620   1.620   6.882 -0.5477 -0.5577 -0.1984
 6121SOL    HW129996   2.549   1.583   6.934  0.8745 -1.9336  0.7834
 6121SOL    HW229997   2.593   1.597   6.794 -0.1137  0.2355 -0.5431
 6122SOL     OW29998   0.101   4.127   2.765 -0.1039 -0.2132 -0.3411
 6122SOL    HW129999   0.116   4.207   2.815  1.6905 -0.4538 -0.5147
 6122SOL    HW230000   0.007   4.128   2.744 -0.1636 -0.8445 -0.1036
 6123SOL     OW30001   2.466   3.105  14.507  0.6177 -0.2384 -0.2621
 6123SOL    HW130002   2.483   3.022  14.462 -2.4647 -0.3091 -1.2390
 6123SOL    HW230003   2.454   3.169  14.438  1.3009 -0.2036 -0.3525
 6124SOL     OW30004   2.598   3.350   5.583  0.1956 -0.3367 -0.2521
 6124SOL    HW130005   2.542   3.387   5.515  1.3969 -1.5545 -1.9158
 6124SOL    HW230006   2.540   3.342   5.659 -0.6706 -1.0938 -0.9949
 6125SOL     OW30007   4.524   3.037   3.904  0.6433  0.4516 -0.5227
 6125SOL    HW130008   4.609   3.080   3.916  0.1307  1.0004  1.1942
 6125SOL    HW230009   4.546   2.981   3.830  0.6587  1.2702 -1.1413
 6126SOL     OW30010   1.182   2.213   5.774 -0.4795 -0.4447  0.4219
 6126SOL    HW130011   1.143   2.242   5.856 -0.2365  0.2492  0.2931
 6126SOL    HW230012   1.121   2.259   5.717  0.3292  0.5836  0.3904
 6127SOL     OW30013   3.970   3.113   9.584  0.2751  0.0844  0.5300
 6127SOL    HW130014   4.061   3.141   9.569  0.1682 -0.9781 -2.1941
 6127SOL    HW230015   3.939   3.120   9.494 -1.0151 -0.4174  0.9432
 6128SOL     OW30016   3.907   3.173   3.873  0.0709  0.1991 -0.3097
 6128SOL    HW130017   3.858   3.097   3.905  2.5339 -1.0234  0.5871
 6128SOL    HW230018   3.965   3.129   3.811 -0.0800 -1.0414  0.4183
 6129SOL     OW30019   0.328   0.007   9.542 -0.6429 -0.0124  0.2153
 6129SOL    HW130020   0.313   0.102   9.542  0.9695  0.2346  0.8576
 6129SOL    HW230021   0.411   0.005   9.495 -1.8071 -1.7395 -1.7615
 6130SOL     OW30022   4.003   4.100   4.819  0.5559 -0.4717 -0.2341
 6130SOL    HW130023   4.044   4.163   4.759  0.8267  0.1188  0.5787
 6130SOL    HW230024   4.051   4.118   4.899  0.3801  0.6176 -0.3719
 6131SOL     OW30025   0.972   3.837  16.600  0.0027 -0.2432  0.1563
 6131SOL    HW130026   1.007   3.822  16.513 -2.6640  0.9167 -1.1310
 6131SOL    HW230027   0.980   3.931  16.616 -2.0771 -0.0774  0.2765
 6132SOL     OW30028   0.373   3.325   4.276  0.2967  0.4317 -0.0412
 6132SOL    HW130029   0.396   3.258   4.212 -1.2370 -0.4487  0.3460
 6132SOL    HW230030   0.317   3.394   4.240 -0.8333 -1.0277 -1.0397
 6133SOL     OW30031   3.990   3.324   6.435  0.3028  0.4103  0.0437
 6133SOL    HW130032   4.067   3.267   6.433 -1.0542 -1.3253 -1.3579
 6133SOL    HW230033   3.948   3.311   6.520  1.0385  0.7716  0.4704
 6134SOL     OW30034   1.541   1.076   7.462  0.5626 -0.3555  0.5318
 6134SOL    HW130035   1.610   1.048   7.522  0.7498 -1.2817 -0.1132
 6134SOL    HW230036   1.535   1.167   7.491 -1.0302 -0.8588  1.8434
 6135SOL     OW30037   3.453   0.606   5.480  0.7831  0.6259  0.4593
 6135SOL    HW130038   3.373   0.569   5.441  0.7689  2.5580 -1.3292
 6135SOL    HW230039   3.417   0.663   5.549 -2.2447  0.3647 -0.8848
 6136SOL     OW30040   3.855   4.558  15.962  0.0315 -0.2362  0.1465
 6136SOL    HW130041   3.902   4.479  15.989  0.4172 -0.1946 -0.4159
 6136SOL    HW230042   3.896   4.619  16.024 -0.4494  0.7148 -0.4793
 6137SOL     OW30043   3.510   0.715   6.056 -0.4417 -0.2575 -0.5542
 6137SOL    HW130044   3.575   0.698   6.125 -0.7847 -1.0331 -0.4292
 6137SOL    HW230045   3.473   0.629   6.035 -0.9517  0.3512 -2.1543
 6138SOL     OW30046   1.877   2.081   7.036 -0.2273  0.4973  0.3988
 6138SOL    HW130047   1.871   2.142   7.110 -1.8261  0.7794  0.0380
 6138SOL    HW230048   1.941   2.121   6.978 -2.0739  1.3414 -1.0323
 6139SOL     OW30049   2.672   1.710   8.519 -0.1678  0.5758 -0.0323
 6139SOL    HW130050   2.717   1.640   8.471 -0.7833 -0.2876  0.6428
 6139SOL    HW230051   2.583   1.700   8.485 -0.1301  0.0916  0.0082
 6140SOL     OW30052   1.263   4.045   4.184 -0.1349 -0.8718 -0.0346
 6140SOL    HW130053   1.245   4.002   4.100  0.1430 -1.9615  0.4653
 6140SOL    HW230054   1.311   4.122   4.154 -3.8148 -0.3341 -4.4657
 6141SOL     OW30055   2.335   0.102   5.830  0.3237  0.2701 -0.0873
 6141SOL    HW130056   2.368   0.143   5.750 -1.8721  0.8524 -0.6698
 6141SOL    HW230057   2.410   0.093   5.890 -0.7259  1.2918  1.3730
 6142SOL     OW30058   4.252   2.553   2.642 -0.5599 -0.4039  0.0160
 6142SOL    HW130059   4.254   2.460   2.620 -1.3936 -0.4679  0.1987
 6142SOL    HW230060   4.344   2.577   2.639 -0.4276 -0.6440  1.9109
 6143SOL     OW30061   0.257   0.966  11.742 -0.0791  0.0461  0.1438
 6143SOL    HW130062   0.197   1.015  11.685 -2.1752 -2.0862  0.5395
 6143SOL    HW230063   0.227   0.877  11.723  0.6333 -0.5104  1.6652
 6144SOL     OW30064   3.404   0.581   8.593  0.0736  0.3453  0.1528
 6144SOL    HW130065   3.338   0.601   8.659 -0.8793  1.6515 -1.1825
 6144SOL    HW230066   3.480   0.605   8.648  0.4629 -1.6419  0.4749
 6145SOL     OW30067   3.495   0.044  15.175  0.0037  0.3140 -0.0704
 6145SOL    HW130068   3.575   0.023  15.127  1.1932  1.0697  1.5723
 6145SOL    HW230069   3.453   4.695  15.181  1.2596 -0.2924 -0.1486
 6146SOL     OW30070   3.023   2.602   4.107 -0.0727 -0.3499 -0.3211
 6146SOL    HW130071   3.078   2.675   4.075 -1.2642 -0.0562 -1.6824
 6146SOL    HW230072   2.997   2.558   4.026 -1.4183 -0.0348 -0.0574
 6147SOL     OW30073   0.138   2.447   4.019 -1.0975 -0.6072 -0.6592
 6147SOL    HW130074   0.068   2.502   4.053  2.0488  2.4787  0.8530
 6147SOL    HW230075   0.132   2.376   4.083  0.2643 -1.8389 -1.8795
 6148SOL     OW30076   0.663   2.958   8.412 -0.5837 -0.0509  0.5680
 6148SOL    HW130077   0.636   2.910   8.334 -1.1494  2.2084 -0.6302
 6148SOL    HW230078   0.605   3.032   8.392 -0.0209 -0.1320 -1.3382
 6149SOL     OW30079   3.220   0.303   3.137  0.3114 -0.1556 -0.2079
 6149SOL    HW130080   3.203   0.396   3.145  1.6814  0.2523 -1.9624
 6149SOL    HW230081   3.306   0.300   3.095  1.3913  0.0968  2.0161
 6150SOL     OW30082   2.435   3.151   7.886  0.0022 -0.1360 -0.0429
 6150SOL    HW130083   2.470   3.173   7.799  1.7374 -3.5272 -0.2138
 6150SOL    HW230084   2.426   3.056   7.882  2.3475 -0.2887 -1.6143
 6151SOL     OW30085   1.068   2.226   4.546 -0.2586 -0.0165  0.6407
 6151SOL    HW130086   1.026   2.271   4.473  0.9317 -3.3225 -2.0522
 6151SOL    HW230087   0.998   2.237   4.610  0.2242  2.2932  0.7559
 6152SOL     OW30088   3.565   1.824   8.645 -0.9223 -0.3615 -0.2999
 6152SOL    HW130089   3.564   1.838   8.550 -2.0024  0.6741 -0.1305
 6152SOL    HW230090   3.472   1.809   8.662 -1.0606 -1.4151 -1.9125
 6153SOL     OW30091   3.419   4.188   4.305  0.6652 -0.4246  0.4979
 6153SOL    HW130092   3.495   4.142   4.339  2.3511  2.1348  0.1270
 6153SOL    HW230093   3.406   4.143   4.222  0.9013  1.0899 -0.3559
 6154SOL     OW30094   1.783   0.282   0.740 -0.5962  0.7884  0.2773
 6154SOL    HW130095   1.757   0.344   0.672  0.0263 -0.0916 -0.7416
 6154SOL    HW230096   1.794   0.194   0.704  0.8075  0.3733  1.7518
 6155SOL     OW30097   4.700   2.080   7.794 -0.0032 -0.1651 -0.0540
 6155SOL    HW130098   4.620   2.048   7.752 -0.6797  1.4231 -0.0014
 6155SOL    HW230099   4.663   2.168   7.788 -0.4507 -0.2752  1.0250
 6156SOL     OW30100   4.022   3.393   5.167 -0.1485  0.2012  0.2938
 6156SOL    HW130101   3.977   3.344   5.236  0.8879 -0.7173  0.3070
 6156SOL    HW230102   4.050   3.319   5.114  0.4928  0.5674  0.1269
 6157SOL     OW30103   0.833   2.544  13.739 -0.0096  0.2459  0.2714
 6157SOL    HW130104   0.869   2.536  13.651 -2.0622  0.4894 -0.6056
 6157SOL    HW230105   0.810   2.455  13.765  0.4316 -0.4826 -1.8431
 6158SOL     OW30106   1.440   3.657   0.419  0.0478  0.2005  0.0757
 6158SOL    HW130107   1.500   3.649   0.494 -1.0138  0.8709  0.9945
 6158SOL    HW230108   1.474   3.736   0.377  0.6121 -1.1519 -1.9567
 6159SOL     OW30109   0.757   0.862  17.680  0.2811  0.0517 -0.3870
 6159SOL    HW130110   0.831   0.918  17.705 -0.4946  1.1006 -0.4371
 6159SOL    HW230111   0.744   0.885  17.588 -1.3451 -0.1968 -0.2125
 6160SOL     OW30112   2.817   1.543  17.733  0.1525 -0.2998 -0.0567
 6160SOL    HW130113   2.821   1.473  17.668  1.4418 -0.6937  0.4550
 6160SOL    HW230114   2.771   1.605  17.676 -0.1719 -0.2720  0.2364
 6161SOL     OW30115   4.077   0.116   9.382  0.2795 -0.0162  0.0241
 6161SOL    HW130116   4.079   0.024   9.408 -3.4993 -0.2546 -0.5581
 6161SOL    HW230117   4.072   0.106   9.287  1.0509  0.7499 -0.1004
 6162SOL     OW30118   2.722   3.743  17.390 -0.4865 -0.1503 -0.2718
 6162SOL    HW130119   2.635   3.703  17.385 -0.7098  0.2385  0.4206
 6162SOL    HW230120   2.763   3.658  17.404 -0.6655 -0.1856  0.0590
 6163SOL     OW30121   4.378   3.931   5.307 -0.4570 -0.2132 -0.4292
 6163SOL    HW130122   4.350   3.979   5.385  0.0866  1.7944 -1.4535
 6163SOL    HW230123   4.461   3.975   5.284  0.9744 -1.5839  2.1125
 6164SOL     OW30124   2.971   4.591   3.774 -0.2423 -0.0270  0.9026
 6164SOL    HW130125   3.036   4.524   3.797 -0.7496 -0.2816  1.6145
 6164SOL    HW230126   2.996   4.654   3.842  0.7719  0.6132 -0.0674
 6165SOL     OW30127   1.031   4.085   2.424  0.0822  1.0593  0.5064
 6165SOL    HW130128   0.976   4.105   2.501  2.9238 -1.5124  3.2144
 6165SOL    HW230129   1.031   4.164   2.370  1.6503 -0.9928 -2.4656
 6166SOL     OW30130   0.132   3.332   4.689  0.5724  0.1862 -0.4570
 6166SOL    HW130131   0.147   3.241   4.716  0.5818  0.8049  1.5779
 6166SOL    HW230132   0.194   3.377   4.747 -0.5768  1.1887 -0.0100
 6167SOL     OW30133   4.094   1.759   4.998  0.0202 -0.2725  0.0575
 6167SOL    HW130134   4.125   1.742   4.910 -2.1405  1.2026 -1.0077
 6167SOL    HW230135   4.038   1.684   5.016 -1.4141  0.6114 -0.7100
 6168SOL     OW30136   3.455   3.466   4.225  0.1302 -0.2812  0.0884
 6168SOL    HW130137   3.501   3.410   4.287 -1.4425 -0.9648  0.6440
 6168SOL    HW230138   3.518   3.481   4.155  1.4006 -0.7550  1.1199
 6169SOL     OW30139   4.017   1.035   8.393 -0.5822 -0.3354 -0.8106
 6169SOL    HW130140   4.056   1.099   8.334 -0.5254  0.3670 -0.0171
 6169SOL    HW230141   4.025   1.084   8.476  0.3944  0.3895 -1.3335
 6170SOL     OW30142   0.213   0.986   3.366  0.4004  0.5340 -0.4457
 6170SOL    HW130143   0.299   1.017   3.338  0.4710  0.7131 -0.0310
 6170SOL    HW230144   0.152   0.987   3.292  1.7748 -1.4913 -1.6144
 6171SOL     OW30145   2.558   1.860   3.630 -0.0622  0.1697 -0.2253
 6171SOL    HW130146   2.501   1.934   3.611 -1.5837 -1.3835 -1.7373
 6171SOL    HW230147   2.493   1.792   3.613 -0.0147  0.5267 -1.8407
 6172SOL     OW30148   4.386   1.749   5.267 -0.1766 -0.0121  0.0319
 6172SOL    HW130149   4.375   1.732   5.361  1.3383 -1.0657  0.0264
 6172SOL    HW230150   4.365   1.662   5.233 -3.2268  0.6359  0.3323
 6173SOL     OW30151   4.710   3.078  10.511  0.3197  0.0434 -0.0437
 6173SOL    HW130152   0.000   3.061  10.421 -0.9779 -2.3831  0.0245
 6173SOL    HW230153   0.059   3.098  10.548  0.0137  2.1121 -0.4789
 6174SOL     OW30154   3.026   4.163   2.722 -0.3663  0.0518 -0.0714
 6174SOL    HW130155   3.025   4.072   2.751 -3.6219  0.6361  1.5608
 6174SOL    HW230156   3.112   4.166   2.678  0.7962 -0.6899  2.1703
 6175SOL     OW30157   3.022   1.286   7.440  0.2135 -0.3253 -0.9078
 6175SOL    HW130158   3.117   1.274   7.433  0.2789  0.1598 -0.8849
 6175SOL    HW230159   3.013   1.375   7.406 -2.9044 -0.8087 -1.3028
 6176SOL     OW30160   3.795   2.241  13.654 -0.1774 -0.1255  0.2415
 6176SOL    HW130161   3.703   2.266  13.649  0.3296  1.1856 -2.6547
 6176SOL    HW230162   3.823   2.305  13.589  0.9521 -1.7103 -0.8480
 6177SOL     OW30163   1.362   0.830  15.171  0.3354 -0.3620  0.2947
 6177SOL    HW130164   1.373   0.924  15.154  0.8230 -0.4154  0.2928
 6177SOL    HW230165   1.436   0.811  15.229  1.8484  1.9041 -0.8874
 6178SOL     OW30166   4.245   0.442   8.844 -0.0826 -0.2840  0.1738
 6178SOL    HW130167   4.182   0.491   8.898 -2.0063 -0.0685 -2.2727
 6178SOL    HW230168   4.294   0.508   8.796 -1.5699  1.1959  0.6805
 6179SOL     OW30169   1.311   0.311   8.908  0.2558 -0.1537  0.1728
 6179SOL    HW130170   1.323   0.355   8.992 -2.0824 -0.2626  0.5802
 6179SOL    HW230171   1.362   0.237   8.942  1.8275 -0.1941 -2.2975
 6180SOL     OW30172   1.269   3.092  13.247  0.1890  0.1463 -0.2364
 6180SOL    HW130173   1.293   3.135  13.329  0.4538  0.9726 -0.7475
 6180SOL    HW230174   1.275   3.173  13.196 -1.0655  0.1761 -0.3246
 6181SOL     OW30175   4.187   2.719   7.433  0.2596  0.1019  0.5378
 6181SOL    HW130176   4.149   2.636   7.460 -0.1601  0.6233  1.5649
 6181SOL    HW230177   4.152   2.786   7.492 -1.6733 -0.4836  0.0335
 6182SOL     OW30178   0.693   2.632   6.935  0.1391  0.2276 -0.0073
 6182SOL    HW130179   0.641   2.610   7.013 -2.4552  0.4839 -1.6354
 6182SOL    HW230180   0.756   2.561   6.942  0.6072  0.4532 -2.0760
 6183SOL     OW30181   3.580   0.850   9.100 -0.1630 -0.0969 -0.1703
 6183SOL    HW130182   3.589   0.902   9.180 -0.0564 -0.7070  0.2152
 6183SOL    HW230183   3.549   0.914   9.037 -0.8088  1.1528  1.4068
 6184SOL     OW30184   1.838   3.449   2.670  0.3376  0.1392 -0.1976
 6184SOL    HW130185   1.806   3.486   2.752  1.5509 -0.5822  0.5944
 6184SOL    HW230186   1.756   3.422   2.629 -1.2194  0.7173  2.5253
 6185SOL     OW30187   3.845   4.600  12.535 -0.0157  0.0787  0.3878
 6185SOL    HW130188   3.775   4.560  12.484 -0.4071  1.9056 -0.5182
 6185SOL    HW230189   3.825   4.694  12.538  4.2008  1.0131  0.1371
 6186SOL     OW30190   1.006   2.966   2.676  0.4882  0.5002 -0.5324
 6186SOL    HW130191   0.984   2.873   2.678  0.6967  0.4399 -1.3695
 6186SOL    HW230192   0.986   2.990   2.586  0.7851 -2.1012 -1.2788
 6187SOL     OW30193   0.655   2.643   1.153  0.0910 -0.4108 -0.8797
 6187SOL    HW130194   0.628   2.735   1.157 -2.2181 -1.0017 -3.2271
 6187SOL    HW230195   0.694   2.644   1.066  0.9115 -2.8419 -0.5355
 6188SOL     OW30196   2.510   2.649   2.643 -0.6776  0.3487  0.1590
 6188SOL    HW130197   2.523   2.691   2.559 -0.1703  2.6186  1.3699
 6188SOL    HW230198   2.418   2.622   2.641 -0.6426  0.2039  0.3948
 6189SOL     OW30199   2.062   4.321   2.292  0.0846  0.7280  0.2636
 6189SOL    HW130200   2.144   4.368   2.303 -1.1554  2.7334  0.9806
 6189SOL    HW230201   2.085   4.235   2.256  1.3697  1.6875 -1.2155
 6190SOL     OW30202   4.382   1.140   3.454  0.1784 -0.2020 -0.4632
 6190SOL    HW130203   4.332   1.182   3.524 -0.5270 -0.9547 -0.5145
 6190SOL    HW230204   4.464   1.136   3.503 -1.5094  1.5377  2.5082
 6191SOL     OW30205   1.164   1.888   0.698 -0.7257 -0.2726 -0.5306
 6191SOL    HW130206   1.180   1.903   0.791  0.0851  0.5998 -0.8080
 6191SOL    HW230207   1.246   1.927   0.666 -0.0648 -0.3330  1.0823
 6192SOL     OW30208   0.564   1.373   6.880  0.2754  0.3678 -0.0249
 6192SOL    HW130209   0.540   1.396   6.790 -0.5288  2.4118  0.7159
 6192SOL    HW230210   0.490   1.319   6.909  1.2447 -1.0498 -0.2189
 6193SOL     OW30211   1.608   0.467  12.539 -0.0816  0.5598 -0.0823
 6193SOL    HW130212   1.644   0.555  12.533  2.1049 -0.3213  0.1673
 6193SOL    HW230213   1.616   0.453  12.634 -1.3232 -0.1715 -0.0847
 6194SOL     OW30214   1.758   1.817   6.638  0.7679  0.2287 -0.7043
 6194SOL    HW130215   1.701   1.760   6.586  1.5665 -0.8774 -0.3504
 6194SOL    HW230216   1.847   1.794   6.612  1.4240  0.2902  1.4926
 6195SOL     OW30217   3.558   2.842   8.230 -0.0179  0.4374 -0.1477
 6195SOL    HW130218   3.629   2.906   8.223 -0.7985  0.8969 -3.9504
 6195SOL    HW230219   3.598   2.791   8.300  1.2109 -0.4971 -1.5115
 6196SOL     OW30220   4.697   2.372   8.810 -0.4884 -0.0652 -0.2638
 6196SOL    HW130221   0.053   2.352   8.814 -0.5498 -0.2039  0.4976
 6196SOL    HW230222   4.682   2.417   8.893 -2.4841 -1.5673  0.2139
 6197SOL     OW30223   2.058   1.026   4.474  0.0199  0.1554  0.1581
 6197SOL    HW130224   2.054   0.986   4.386 -0.0250  1.1072 -0.2695
 6197SOL    HW230225   2.132   1.084   4.461  0.2714 -0.6026 -1.8035
 6198SOL     OW30226   1.552   3.612   2.987 -0.2791 -0.2784  0.5287
 6198SOL    HW130227   1.461   3.604   3.016 -0.8091  2.6427 -0.3322
 6198SOL    HW230228   1.560   3.707   2.997  1.4519 -0.1866 -1.8166
 6199SOL     OW30229   3.713   1.776   4.215 -0.1011  0.1269  0.1965
 6199SOL    HW130230   3.752   1.722   4.146  0.3355  1.1127 -0.3256
 6199SOL    HW230231   3.687   1.712   4.282 -0.0165  1.7099  1.7505
 6200SOL     OW30232   4.500   2.742  12.988 -0.4109 -0.2056 -0.1406
 6200SOL    HW130233   4.455   2.759  13.071 -0.6959  1.6975 -0.7021
 6200SOL    HW230234   4.499   2.830  12.951 -1.3021  0.3005  1.0932
 6201SOL     OW30235   3.951   2.279  15.216  0.0467 -0.7936  0.4714
 6201SOL    HW130236   3.887   2.245  15.153 -1.2439  1.5500  0.5263
 6201SOL    HW230237   4.031   2.265  15.165  0.5915  0.8298  0.8742
 6202SOL     OW30238   0.980   4.579   4.932 -0.0853 -0.2552  0.0654
 6202SOL    HW130239   1.022   4.495   4.954 -2.1034 -0.4597  3.1567
 6202SOL    HW230240   0.964   4.560   4.839 -0.6764  1.8127 -0.2377
 6203SOL     OW30241   3.471   0.929  17.592 -0.3987 -0.2260 -0.2247
 6203SOL    HW130242   3.564   0.928  17.570 -0.4575  1.6881 -0.5710
 6203SOL    HW230243   3.433   0.896  17.511 -2.8512 -2.7928  1.9340
 6204SOL     OW30244   2.597   0.583   0.814  0.2365  0.4518  0.0582
 6204SOL    HW130245   2.580   0.497   0.853 -1.3547  0.7031 -0.1101
 6204SOL    HW230246   2.656   0.563   0.741  0.7642 -0.3331  0.6939
 6205SOL     OW30247   1.292   2.398   3.467  0.8033 -0.2089 -0.0533
 6205SOL    HW130248   1.238   2.355   3.533  1.6878 -0.3589  0.5852
 6205SOL    HW230249   1.317   2.481   3.508  0.5410  0.3807 -1.0966
 6206SOL     OW30250   0.263   4.394   6.266 -0.1374 -0.4336 -0.2878
 6206SOL    HW130251   0.256   4.415   6.173 -0.7774 -0.7753 -0.3151
 6206SOL    HW230252   0.184   4.431   6.306  0.2051  1.4113 -1.3384
 6207SOL     OW30253   2.125   2.582   7.785  0.1843 -0.8291 -0.1958
 6207SOL    HW130254   2.142   2.488   7.776  1.7953 -0.6626  1.0020
 6207SOL    HW230255   2.120   2.583   7.880  1.3779 -1.3628 -0.1312
 6208SOL     OW30256   2.667   4.599   5.048 -0.3353  0.3845  0.0659
 6208SOL    HW130257   2.622   4.682   5.065 -2.0548  0.0325 -2.7532
 6208SOL    HW230258   2.736   4.627   4.989 -0.7662  2.3740  0.4913
 6209SOL     OW30259   0.237   1.981   7.480 -0.4369  0.3145  0.4115
 6209SOL    HW130260   0.167   2.046   7.484 -0.7159  0.0476 -0.0852
 6209SOL    HW230261   0.275   2.008   7.563  2.4375 -0.1000 -0.7435
 6210SOL     OW30262   2.152   1.881   7.785 -0.2705 -0.0652  0.0172
 6210SOL    HW130263   2.091   1.821   7.829  0.7500 -0.3631  1.0303
 6210SOL    HW230264   2.145   1.853   7.694 -0.6207  1.1208 -0.3095
 6211SOL     OW30265   1.421   1.046   5.287 -0.3836  0.2171  0.1769
 6211SOL    HW130266   1.446   1.134   5.258  1.3012 -0.2920  0.1236
 6211SOL    HW230267   1.494   1.000   5.247  0.6682 -0.2422  2.6242
 6212SOL     OW30268   0.414   4.695  16.487 -0.1089  0.7396  0.0913
 6212SOL    HW130269   0.384   4.685  16.577  0.0599  1.0552  0.1848
 6212SOL    HW230270   0.499   4.654  16.497 -0.1404  1.0435  1.5192
 6213SOL     OW30271   4.390   4.519   1.954 -0.3554 -0.5806  0.7991
 6213SOL    HW130272   4.421   4.602   1.917 -2.0297 -0.2821  0.0591
 6213SOL    HW230273   4.416   4.510   2.045  2.8068 -0.4864 -0.0727
 6214SOL     OW30274   3.813   0.539  10.077  0.3700  0.1849 -0.1003
 6214SOL    HW130275   3.885   0.598  10.097 -1.1985  2.1758 -0.3677
 6214SOL    HW230276   3.850   0.478  10.013 -1.7521 -0.9118 -0.2810
 6215SOL     OW30277   4.480   4.209   3.242  0.2656 -0.1219  0.2188
 6215SOL    HW130278   4.432   4.127   3.239  2.0588 -1.2397  2.0314
 6215SOL    HW230279   4.512   4.216   3.152 -2.3854 -1.3531 -0.8048
 6216SOL     OW30280   2.929   1.383   9.377  0.2363  0.4605  0.2437
 6216SOL    HW130281   2.909   1.457   9.319  0.5030 -0.3962 -0.9560
 6216SOL    HW230282   3.007   1.354   9.329  0.6361  0.1484  1.0923
 6217SOL     OW30283   1.281   0.026   3.257 -0.1004  0.3748  0.5671
 6217SOL    HW130284   1.317   0.090   3.318  0.3216  1.2707 -0.6278
 6217SOL    HW230285   1.294   4.683   3.308  0.5970  0.3299  0.3178
 6218SOL     OW30286   4.137   2.973   6.699  1.0336 -0.3626  0.2652
 6218SOL    HW130287   4.229   2.954   6.712  1.9370  2.3735 -2.1663
 6218SOL    HW230288   4.137   2.963   6.603 -1.7578 -0.3481  0.2438
 6219SOL     OW30289   0.045   1.202   7.891 -0.1944  0.0107  0.1807
 6219SOL    HW130290   4.694   1.218   7.925  0.7531  1.4571  1.9359
 6219SOL    HW230291   0.085   1.284   7.920 -4.2505  0.7248  3.6385
 6220SOL     OW30292   3.672   4.651   6.031  0.3573  0.5227  0.1585
 6220SOL    HW130293   3.591   4.674   6.075  0.2929  0.0163  0.3016
 6220SOL    HW230294   3.707   4.737   6.006  1.4856  0.4882  1.6360
 6221SOL     OW30295   2.086   3.297   6.864 -0.2506 -0.4065  0.7694
 6221SOL    HW130296   2.108   3.367   6.804 -0.2391 -1.1292 -0.0731
 6221SOL    HW230297   2.159   3.234   6.868 -0.3327 -0.4132  2.2714
 6222SOL     OW30298   0.598   0.867   4.353 -0.3212 -0.7972 -0.2712
 6222SOL    HW130299   0.553   0.906   4.427  2.1352 -0.7161  1.1868
 6222SOL    HW230300   0.567   0.776   4.349 -2.8739  0.1151 -1.3245
 6223SOL     OW30301   4.125   1.988   4.671 -0.4017 -0.0182 -0.2221
 6223SOL    HW130302   4.142   2.065   4.616 -0.3450  0.0756 -0.0706
 6223SOL    HW230303   4.051   1.946   4.626  1.9031 -1.5266 -2.6058
 6224SOL     OW30304   2.934   1.619   2.526  0.7030  0.1257  0.5421
 6224SOL    HW130305   2.863   1.682   2.514  2.0866  1.5701 -0.0728
 6224SOL    HW230306   2.964   1.634   2.616  1.5864  1.8651 -0.0381
 6225SOL     OW30307   3.780   1.590   6.703 -0.3508  0.1843 -0.0988
 6225SOL    HW130308   3.754   1.681   6.721  0.3459  0.5013 -0.7204
 6225SOL    HW230309   3.713   1.554   6.761 -0.1422 -2.5389 -1.5567
 6226SOL     OW30310   2.388   2.444   7.551  0.1806  0.1703 -0.2363
 6226SOL    HW130311   2.358   2.534   7.538 -1.2315 -0.1183  1.1091
 6226SOL    HW230312   2.404   2.415   7.461 -0.7247 -1.0435 -0.0107
 6227SOL     OW30313   1.941   1.403   1.047 -0.2173  0.2252  0.0225
 6227SOL    HW130314   1.986   1.451   1.117  2.1167  0.0511 -1.3513
 6227SOL    HW230315   2.016   1.377   0.993 -0.7753 -1.1908 -0.0810
 6228SOL     OW30316   3.672   3.959  13.124 -0.7455  0.4258 -0.3976
 6228SOL    HW130317   3.740   3.943  13.189  0.9557 -0.1286 -2.3370
 6228SOL    HW230318   3.644   4.049  13.143  0.5343  0.4031  1.5366
 6229SOL     OW30319   2.785   1.865   6.013 -0.6108  0.5741 -0.4270
 6229SOL    HW130320   2.780   1.956   5.981 -0.2641  1.9145  3.3894
 6229SOL    HW230321   2.847   1.834   5.947 -1.3091  1.2118 -1.3926
 6230SOL     OW30322   0.206   3.835   7.295  0.3064  0.1449  0.2624
 6230SOL    HW130323   0.161   3.761   7.255 -1.8832  1.5670  0.1139
 6230SOL    HW230324   0.173   3.911   7.247 -2.6549 -1.1611  0.2585
 6231SOL     OW30325   3.997   3.160   2.943  0.2621  0.5310  0.3433
 6231SOL    HW130326   4.069   3.220   2.924  0.0665  0.3613 -0.9208
 6231SOL    HW230327   4.034   3.117   3.021  3.1040  1.1425 -0.6693
 6232SOL     OW30328   1.435   2.636   2.681 -0.2901  0.1054 -0.0039
 6232SOL    HW130329   1.394   2.679   2.606 -0.0035 -1.3333 -0.9950
 6232SOL    HW230330   1.373   2.562   2.683  0.1137 -0.2579 -1.2994
 6233SOL     OW30331   2.613   3.211   4.104  0.4512  0.3576  0.1302
 6233SOL    HW130332   2.524   3.180   4.125  0.8920 -0.4898  0.7559
 6233SOL    HW230333   2.656   3.192   4.188  2.8986  1.7370 -0.8185
 6234SOL     OW30334   0.518   2.241   1.876 -0.0016  0.4120  0.4224
 6234SOL    HW130335   0.568   2.310   1.920 -1.7533  1.7711  0.2670
 6234SOL    HW230336   0.433   2.251   1.918 -0.9346  1.9666 -1.8240
 6235SOL     OW30337   3.313   2.201   3.151  0.0643  0.3280  0.3259
 6235SOL    HW130338   3.336   2.162   3.235 -0.2018  0.1869  0.3333
 6235SOL    HW230339   3.219   2.181   3.146  0.2872 -0.5839 -0.0844
 6236SOL     OW30340   0.680   1.069   3.264  0.5193 -0.0324  0.0490
 6236SOL    HW130341   0.638   1.005   3.207  0.6666  0.4245 -0.5736
 6236SOL    HW230342   0.606   1.085   3.323  0.4053  1.8627 -0.6040
 6237SOL     OW30343   0.980   3.676   3.712  0.4752  0.2958  0.0433
 6237SOL    HW130344   0.995   3.726   3.631 -1.7896  1.7023  0.5089
 6237SOL    HW230345   0.918   3.725   3.766  1.8864  2.3644 -0.2142
 6238SOL     OW30346   0.875   1.454   2.725 -0.0945  0.6409  0.3498
 6238SOL    HW130347   0.780   1.457   2.738  0.1886 -0.4272  2.7254
 6238SOL    HW230348   0.909   1.527   2.778  2.8787  0.2044 -0.9633
 6239SOL     OW30349   0.048   1.378   1.778 -0.3778  0.0465  0.1152
 6239SOL    HW130350   4.703   1.332   1.791  0.1513 -0.6969  0.8511
 6239SOL    HW230351   0.057   1.425   1.861  2.2098 -2.3935  1.2547
 6240SOL     OW30352   4.607   1.240   8.511 -0.0473 -0.3834  0.2605
 6240SOL    HW130353   4.624   1.285   8.594 -0.0758  1.0347 -0.4986
 6240SOL    HW230354   4.512   1.229   8.509 -0.2828  1.4410  0.9557
 6241SOL     OW30355   3.340   2.608   4.957 -0.1464  0.0265 -0.5397
 6241SOL    HW130356   3.392   2.688   4.962 -2.1398  1.4002 -1.5851
 6241SOL    HW230357   3.347   2.588   4.863 -1.6902  4.2666 -1.5679
 6242SOL     OW30358   3.156   3.014   1.558 -0.2246  0.3235 -0.4798
 6242SOL    HW130359   3.206   3.024   1.477  0.8853 -0.6811  0.0934
 6242SOL    HW230360   3.212   2.961   1.614 -1.7059 -2.4844 -1.6613
 6243SOL     OW30361   3.732   2.875  16.989  0.0684  0.0427  0.3782
 6243SOL    HW130362   3.674   2.838  17.055  1.3640  0.0423  1.5027
 6243SOL    HW230363   3.707   2.967  17.000  3.6524  0.5766  3.9671
 6244SOL     OW30364   1.441   3.035   6.696 -0.0634 -0.7460 -0.0754
 6244SOL    HW130365   1.499   3.104   6.664 -0.1320  0.4957  2.5432
 6244SOL    HW230366   1.359   3.081   6.713  0.8601  0.4673  1.0499
 6245SOL     OW30367   2.809   1.148   5.543 -0.2744  0.5327  0.3952
 6245SOL    HW130368   2.827   1.055   5.530  0.6716  1.1297 -2.6312
 6245SOL    HW230369   2.717   1.156   5.517 -1.0215  0.9396  3.1884
 6246SOL     OW30370   2.468   4.226   9.979 -0.0011  0.5479 -0.0192
 6246SOL    HW130371   2.477   4.249   9.887 -2.3179  0.4520 -0.2609
 6246SOL    HW230372   2.395   4.164   9.976 -0.4578  1.1701 -1.5211
 6247SOL     OW30373   4.681   2.887  10.283 -0.1475  0.4274 -0.8307
 6247SOL    HW130374   4.725   2.843  10.356 -4.1909 -0.2641  1.1575
 6247SOL    HW230375   4.594   2.847  10.284 -0.4721  1.0108 -4.2259
 6248SOL     OW30376   3.612   2.319   3.230  0.6530  0.4215 -0.1259
 6248SOL    HW130377   3.563   2.276   3.160  1.3288 -0.3329 -0.1403
 6248SOL    HW230378   3.542   2.337   3.292  1.5161  1.0327  0.6708
 6249SOL     OW30379   1.777   2.562   1.592 -0.1566 -0.4574  0.4940
 6249SOL    HW130380   1.818   2.610   1.521  0.1843 -0.2238  0.8493
 6249SOL    HW230381   1.687   2.579   1.566 -0.0690  0.9894  1.1622
 6250SOL     OW30382   4.409   2.732  12.110 -0.8121  0.1648 -0.0503
 6250SOL    HW130383   4.467   2.684  12.168 -0.8662 -2.4080 -2.1159
 6250SOL    HW230384   4.467   2.751  12.036 -0.9314  0.4286 -0.0772
 6251SOL     OW30385   3.929   1.084   8.953 -0.0164 -0.4612 -0.5865
 6251SOL    HW130386   4.009   1.122   8.917 -1.3717  1.4990 -1.5516
 6251SOL    HW230387   3.969   1.030   9.020  0.0707  1.0220  0.5451
 6252SOL     OW30388   1.580   3.768   9.681  0.5358 -0.0684 -0.2577
 6252SOL    HW130389   1.488   3.793   9.683  0.8029  0.9659 -1.4283
 6252SOL    HW230390   1.584   3.756   9.586 -3.2179 -1.1625 -0.2637
 6253SOL     OW30391   2.155   4.694   1.038 -0.6149 -0.6820  0.5064
 6253SOL    HW130392   2.203   4.721   1.116  0.6392 -4.9903  1.2261
 6253SOL    HW230393   2.180   0.022   0.972 -0.6532 -1.3388 -0.1650
 6254SOL     OW30394   1.357   4.678   6.543 -0.1934  0.2173  0.2158
 6254SOL    HW130395   1.405   4.656   6.623 -0.1004  0.6747  0.2801
 6254SOL    HW230396   1.372   4.596   6.495 -1.3805  1.0257 -1.5359
 6255SOL     OW30397   2.869   2.260   4.104 -0.0021 -0.2090 -0.0441
 6255SOL    HW130398   2.836   2.341   4.063  1.2974  0.8680  1.0353
 6255SOL    HW230399   2.795   2.200   4.103  1.3190 -1.8599  2.5388
 6256SOL     OW30400   0.885   1.032   8.586 -0.9606  0.1959 -0.4792
 6256SOL    HW130401   0.817   1.098   8.604 -1.2492  0.0400 -1.0021
 6256SOL    HW230402   0.857   0.998   8.501  1.0131 -0.7891 -0.7218
 6257SOL     OW30403   0.737   3.411  11.699  0.3927  0.2376 -0.4242
 6257SOL    HW130404   0.719   3.347  11.630 -1.4237  2.3434 -1.8983
 6257SOL    HW230405   0.735   3.495  11.653  3.6664  0.4657 -0.1184
 6258SOL     OW30406   4.314   0.220   0.443 -0.1656  0.1316  0.5838
 6258SOL    HW130407   4.236   0.170   0.468 -0.6105  0.0610 -0.9543
 6258SOL    HW230408   4.371   0.170   0.501  1.9907 -0.1956 -1.8398
 6259SOL     OW30409   2.007   0.752   1.928  0.1026 -0.7483  0.1654
 6259SOL    HW130410   2.083   0.807   1.909  1.5931 -2.2215  1.8558
 6259SOL    HW230411   1.970   0.752   1.840 -1.0072  0.0650  0.6263
 6260SOL     OW30412   3.998   2.971   2.658  0.0478 -0.3853  0.2559
 6260SOL    HW130413   3.935   3.023   2.607 -0.0247 -1.8800 -1.2059
 6260SOL    HW230414   4.050   2.951   2.580  0.4552 -1.5787  0.8403
 6261SOL     OW30415   3.904   2.703   1.891  0.3620 -0.2201  0.4564
 6261SOL    HW130416   3.812   2.727   1.901 -0.2649 -3.1656  1.8435
 6261SOL    HW230417   3.917   2.685   1.984 -0.5980 -0.3754  0.5581
 6262SOL     OW30418   0.208   0.691   5.499 -0.1406  0.0179 -0.2410
 6262SOL    HW130419   0.222   0.603   5.533  2.7730  0.6031  0.0231
 6262SOL    HW230420   0.274   0.751   5.533  0.9844 -1.1488 -0.4061
 6263SOL     OW30421   0.647   1.765  13.875  0.1480 -0.5925  0.1981
 6263SOL    HW130422   0.701   1.773  13.954  0.0410 -0.5452  0.2663
 6263SOL    HW230423   0.604   1.680  13.882  0.0263 -0.5692 -0.2901
 6264SOL     OW30424   0.226   3.280  12.169  0.0432  0.0264 -0.0796
 6264SOL    HW130425   0.254   3.226  12.096 -0.3607 -1.8535  1.1408
 6264SOL    HW230426   0.246   3.227  12.246  0.8120 -0.1457 -0.4021
 6265SOL     OW30427   3.469   2.214   2.319 -0.1005 -0.0034 -0.3039
 6265SOL    HW130428   3.434   2.303   2.327  0.0872  0.0377  0.0972
 6265SOL    HW230429   3.562   2.236   2.316  0.4272 -2.1070  1.1360
 6266SOL     OW30430   2.561   1.292  17.591  0.0252 -0.0535 -0.4298
 6266SOL    HW130431   2.505   1.251  17.525  0.9276 -1.0233 -0.6060
 6266SOL    HW230432   2.640   1.332  17.554  0.0667  0.3601  0.1128
 6267SOL     OW30433   3.630   0.933   4.730 -0.0701 -0.1102 -0.2346
 6267SOL    HW130434   3.617   0.968   4.641 -0.6094  0.1831 -0.0420
 6267SOL    HW230435   3.641   1.015   4.778 -4.1230 -0.8413  1.9279
 6268SOL     OW30436   4.085   0.752   5.798  0.6544 -0.7729  0.0064
 6268SOL    HW130437   4.138   0.821   5.757 -0.8833  0.2623 -0.2552
 6268SOL    HW230438   4.146   0.728   5.868  0.2710  1.8349  1.2278
 6269SOL     OW30439   3.722   3.817  17.384  0.3541  0.3504 -0.0941
 6269SOL    HW130440   3.734   3.893  17.327 -0.2888  0.9207  0.5532
 6269SOL    HW230441   3.652   3.851  17.439  0.7975 -1.1355  1.4106
 6270SOL     OW30442   3.138   3.605  11.324 -0.5072 -0.1900  0.3447
 6270SOL    HW130443   3.206   3.607  11.391 -1.0556  2.7822  0.7952
 6270SOL    HW230444   3.176   3.656  11.253  1.0687  1.1734  2.1543
 6271SOL     OW30445   1.546   1.966   1.937  0.4102 -0.0094 -0.6040
 6271SOL    HW130446   1.597   1.957   1.857 -0.8953  0.1992 -1.4544
 6271SOL    HW230447   1.490   2.038   1.908  1.8992  0.3965 -2.4160
 6272SOL     OW30448   2.867   3.041   1.285 -0.0544 -0.0540  0.1644
 6272SOL    HW130449   2.942   3.000   1.243 -1.4787 -0.5177 -1.9211
 6272SOL    HW230450   2.821   2.959   1.305 -1.2040  0.5353 -0.0411
 6273SOL     OW30451   4.108   2.278   7.031 -0.1500  0.4422 -0.7463
 6273SOL    HW130452   4.019   2.305   7.052 -0.2084 -0.3376  0.0065
 6273SOL    HW230453   4.102   2.289   6.936  0.7707 -2.4032 -1.1361
 6274SOL     OW30454   1.120   0.924   2.120  0.2393 -0.3177 -0.2628
 6274SOL    HW130455   1.029   0.940   2.099  0.5280 -0.9835 -2.0305
 6274SOL    HW230456   1.103   0.872   2.199  1.3233 -0.3781 -0.0635
 6275SOL     OW30457   3.392   2.527   3.256 -0.2270 -0.3416  0.4082
 6275SOL    HW130458   3.300   2.523   3.283 -0.7001  3.2331 -0.7090
 6275SOL    HW230459   3.384   2.519   3.161  0.9876  0.6906  0.2207
 6276SOL     OW30460   0.773   1.240   8.057 -0.3582 -0.5725  0.3084
 6276SOL    HW130461   0.679   1.257   8.050 -0.6910 -1.6024  2.1960
 6276SOL    HW230462   0.793   1.245   8.151  0.0328  1.3946  0.1071
 6277SOL     OW30463   4.028   3.914  15.331  0.3265 -0.1284  0.0296
 6277SOL    HW130464   4.018   3.833  15.381  0.5631  0.0620  0.3840
 6277SOL    HW230465   3.963   3.970  15.373  0.2588 -0.8109  0.8430
 6278SOL     OW30466   2.439   0.048   6.643 -0.1442 -0.7088 -0.5027
 6278SOL    HW130467   2.367   0.111   6.648  0.7722  0.2728  0.3929
 6278SOL    HW230468   2.510   0.090   6.594 -2.8074 -0.6650 -4.3377
 6279SOL     OW30469   2.905   3.052   5.464  0.1719 -0.2528 -0.4894
 6279SOL    HW130470   2.877   3.133   5.506  0.6741  0.2186 -1.0676
 6279SOL    HW230471   2.954   3.086   5.388  2.2730  0.9321  1.3978
 6280SOL     OW30472   2.734   2.636   3.274 -0.6027 -0.1485  0.2471
 6280SOL    HW130473   2.724   2.609   3.365  1.0159  1.6526  0.9712
 6280SOL    HW230474   2.651   2.684   3.271 -0.4870  0.0278 -0.0406
 6281SOL     OW30475   0.535   2.378   6.156  0.1170  0.3450  0.2366
 6281SOL    HW130476   0.627   2.354   6.168 -0.3615 -0.4148  2.4278
 6281SOL    HW230477   0.532   2.386   6.061 -1.9292  0.2175  0.2862
 6282SOL     OW30478   4.466   1.570   3.020 -0.2211 -0.7022 -0.7252
 6282SOL    HW130479   4.488   1.482   2.988 -1.6649 -0.7826 -1.4983
 6282SOL    HW230480   4.370   1.562   3.022 -0.5473  3.2665 -0.8735
 6283SOL     OW30481   4.251   4.144   8.990  0.2360 -0.2539 -0.6394
 6283SOL    HW130482   4.336   4.155   8.947 -0.4189 -0.9272 -2.0838
 6283SOL    HW230483   4.279   4.149   9.081 -2.2348  0.2257  0.0991
 6284SOL     OW30484   0.878   2.828  12.571  0.3998 -0.5528 -0.1569
 6284SOL    HW130485   0.878   2.816  12.476  0.5795 -0.5527 -0.1568
 6284SOL    HW230486   0.802   2.886  12.571  2.3634  2.0406 -0.3751
 6285SOL     OW30487   2.444   1.540  12.180  0.9174 -0.4015  0.6013
 6285SOL    HW130488   2.398   1.494  12.251 -1.1391  2.0689  0.8491
 6285SOL    HW230489   2.515   1.477  12.169  1.2728  0.3054 -1.0412
 6286SOL     OW30490   0.021   4.173   4.965 -0.2988  0.3597 -0.1478
 6286SOL    HW130491   0.055   4.097   5.011 -0.2058 -0.0220 -0.8518
 6286SOL    HW230492   0.048   4.169   4.873  0.7889  2.4007  0.0893
 6287SOL     OW30493   2.363   3.611   3.455  0.1377 -0.0951  0.3724
 6287SOL    HW130494   2.270   3.629   3.442  0.1299 -0.4185  0.0128
 6287SOL    HW230495   2.410   3.629   3.373  1.2858 -4.1036  0.1791
 6288SOL     OW30496   1.294   0.948   8.014 -0.2686  0.5331  0.6517
 6288SOL    HW130497   1.316   1.021   7.955 -2.2811  2.4365  2.2720
 6288SOL    HW230498   1.383   0.913   8.016  0.3611  1.8040 -3.0376
 6289SOL     OW30499   1.993   4.446   7.157  0.3884  0.3302 -0.2295
 6289SOL    HW130500   2.039   4.407   7.083 -2.7966 -0.3367 -1.8451
 6289SOL    HW230501   1.909   4.401   7.146  1.2208 -1.0736 -0.7668
 6290SOL     OW30502   1.029   1.175   7.952  0.3777 -0.0457 -0.0465
 6290SOL    HW130503   0.940   1.191   7.982  1.0236  3.2114  0.1108
 6290SOL    HW230504   1.061   1.128   8.029 -0.6055  1.4749  1.2710
 6291SOL     OW30505   0.852   4.669   3.149  0.5114  0.0466 -0.1766
 6291SOL    HW130506   0.774   4.616   3.163  0.4887 -0.0253 -0.5865
 6291SOL    HW230507   0.925   4.608   3.141  0.4105 -0.0977  0.0180
 6292SOL     OW30508   2.391   2.573   2.092  0.1578  0.4111 -0.1235
 6292SOL    HW130509   2.373   2.664   2.117  1.6180  1.2120 -1.9658
 6292SOL    HW230510   2.312   2.539   2.051 -0.1139 -0.7298  1.3420
 6293SOL     OW30511   0.277   1.088   2.252 -0.1068  0.2681  0.0132
 6293SOL    HW130512   0.281   1.106   2.158  2.3656  0.7598  0.2149
 6293SOL    HW230513   0.184   1.066   2.254  0.4138 -1.9361  0.2951
 6294SOL     OW30514   3.381   4.129   7.783 -0.2943 -0.4037 -0.6111
 6294SOL    HW130515   3.456   4.167   7.739 -0.7329  1.5660  0.3316
 6294SOL    HW230516   3.396   4.039   7.755  0.3609 -0.4014 -0.2588
 6295SOL     OW30517   1.402   2.181  14.423  0.6812 -0.2342 -0.1411
 6295SOL    HW130518   1.312   2.214  14.415  0.2796 -1.2986 -0.0003
 6295SOL    HW230519   1.427   2.212  14.510 -4.4179 -1.6105  1.8334
 6296SOL     OW30520   2.208   3.453   3.923 -0.3257  0.4292  0.2091
 6296SOL    HW130521   2.282   3.496   3.881 -0.2069 -1.9191 -1.9549
 6296SOL    HW230522   2.163   3.411   3.850  0.9325  0.0278 -0.3230
 6297SOL     OW30523   2.379   4.019   4.050  0.3113  0.2382 -0.3080
 6297SOL    HW130524   2.307   4.010   3.988  0.3861  0.2853 -0.4019
 6297SOL    HW230525   2.425   4.096   4.015 -3.5516  2.9723  0.6304
 6298SOL     OW30526   0.808   4.055   0.316  0.0380  0.0488  0.0191
 6298SOL    HW130527   0.727   4.029   0.274  0.4357  0.0901 -0.7713
 6298SOL    HW230528   0.779   4.129   0.369  2.5759  0.1684  1.2643
 6299SOL     OW30529   1.579   0.421  14.365  0.2851 -0.3244 -0.1130
 6299SOL    HW130530   1.661   0.457  14.399  0.1315  1.4503 -1.6050
 6299SOL    HW230531   1.589   0.427  14.270 -1.1651  0.2094 -0.2350
 6300SOL     OW30532   3.343   2.275   4.492 -0.2053 -0.0042  0.3168
 6300SOL    HW130533   3.373   2.192   4.530 -0.4329 -0.1182  0.2501
 6300SOL    HW230534   3.285   2.304   4.562 -0.7069 -0.4813  0.1045
 6301SOL     OW30535   2.787   1.204   3.715  0.2629  0.0384 -0.5075
 6301SOL    HW130536   2.863   1.172   3.667  0.7158  0.9203 -0.3606
 6301SOL    HW230537   2.752   1.270   3.655  0.7839  0.1801 -0.6525
 6302SOL     OW30538   2.888   2.703  16.851  0.1465  0.5705 -0.8824
 6302SOL    HW130539   2.874   2.756  16.773 -0.5944  1.2126 -0.3154
 6302SOL    HW230540   2.797   2.682  16.873  1.1343 -2.0339  0.8730
 6303SOL     OW30541   1.044   1.632   8.508 -0.2785 -0.0277 -0.0004
 6303SOL    HW130542   1.090   1.560   8.551  1.7030  1.9669  1.1994
 6303SOL    HW230543   1.087   1.711   8.540 -1.3712  0.5587  0.0012
 6304SOL     OW30544   3.650   0.296   0.720 -0.5381 -0.4362  0.0175
 6304SOL    HW130545   3.626   0.379   0.679 -0.4129  0.4021  1.6583
 6304SOL    HW230546   3.576   0.240   0.696 -0.5469  0.4207 -1.9700
 6305SOL     OW30547   1.606   3.040   2.435 -0.4040  0.1582 -0.5756
 6305SOL    HW130548   1.643   2.967   2.384  1.4623  0.8016 -0.1337
 6305SOL    HW230549   1.675   3.036   2.501 -1.2394 -1.1381  0.2187
 6306SOL     OW30550   0.166   0.581   4.123 -0.1858  0.0532 -0.4554
 6306SOL    HW130551   0.152   0.486   4.125 -2.1180  0.3530 -0.1152
 6306SOL    HW230552   0.144   0.587   4.030  0.9685  1.3508 -0.6327
 6307SOL     OW30553   1.985   4.431  11.507  0.7078  0.3698  0.2464
 6307SOL    HW130554   2.016   4.456  11.594 -1.1864  1.6983  0.5561
 6307SOL    HW230555   2.000   4.337  11.505  1.1228  0.3986  1.7841
 6308SOL     OW30556   1.667   2.162   5.268 -0.2386  0.1404 -0.6569
 6308SOL    HW130557   1.592   2.189   5.321  0.1462  0.4755 -0.2754
 6308SOL    HW230558   1.732   2.221   5.306  0.0049 -1.7946  1.9182
 6309SOL     OW30559   0.822   2.767   5.088 -0.5048  0.2172  0.7167
 6309SOL    HW130560   0.808   2.769   4.993  1.7791  0.4721  0.3904
 6309SOL    HW230561   0.788   2.685   5.124 -0.1372 -1.1584 -2.0508
 6310SOL     OW30562   4.050   3.710   5.866  0.1902  0.6780 -0.8163
 6310SOL    HW130563   4.136   3.751   5.876  0.4692  0.9228 -4.1021
 6310SOL    HW230564   4.025   3.726   5.775  0.2152 -1.0083 -1.1299
 6311SOL     OW30565   2.984   0.355   8.076  0.3065 -0.3673 -0.2071
 6311SOL    HW130566   2.943   0.345   8.162  1.1042 -1.6368  0.0257
 6311SOL    HW230567   3.034   0.274   8.080  2.5461  0.8699 -2.9826
 6312SOL     OW30568   4.273   3.018   5.758 -0.4644  0.0845  0.4164
 6312SOL    HW130569   4.280   2.955   5.686  1.4305  1.4986 -0.6404
 6312SOL    HW230570   4.181   3.024   5.781 -0.4632 -2.2965  1.0582
 6313SOL     OW30571   2.654   4.252   6.036  0.0875  0.4439  0.3016
 6313SOL    HW130572   2.664   4.268   6.130  0.7420  0.4435  0.2342
 6313SOL    HW230573   2.743   4.269   6.005  0.9891 -1.6380  1.7662
 6314SOL     OW30574   1.282   2.974   8.128  0.0620 -0.0587 -0.0262
 6314SOL    HW130575   1.365   2.944   8.090 -0.0932  1.6239 -1.6765
 6314SOL    HW230576   1.242   3.035   8.067 -0.5952 -0.5957 -0.1345
 6315SOL     OW30577   0.873   3.004   3.430 -0.2770 -0.5991 -0.0066
 6315SOL    HW130578   0.849   2.930   3.486 -1.7264 -2.4161 -3.0234
 6315SOL    HW230579   0.794   3.012   3.376  0.0433 -0.1760 -0.4135
 6316SOL     OW30580   4.331   1.255  12.509  0.0162  0.0490 -0.4478
 6316SOL    HW130581   4.397   1.190  12.485  0.8512  0.6818  0.1171
 6316SOL    HW230582   4.250   1.217  12.475 -0.1193 -0.4991  0.4824
 6317SOL     OW30583   3.847   2.249   3.618 -0.1259  0.4744  0.5987
 6317SOL    HW130584   3.884   2.164   3.595  0.0134  0.7498 -0.1953
 6317SOL    HW230585   3.765   2.217   3.656 -0.1560 -0.1717 -0.0287
 6318SOL     OW30586   1.854   2.037   7.778  0.0687  0.7326 -0.1778
 6318SOL    HW130587   1.776   1.981   7.777  0.6009 -0.0157  0.1241
 6318SOL    HW230588   1.925   1.976   7.757 -0.1276  0.5334 -0.2604
 6319SOL     OW30589   3.301   1.712   4.820  0.1617  0.4554 -0.0333
 6319SOL    HW130590   3.309   1.794   4.868  1.1221  0.8059 -0.8054
 6319SOL    HW230591   3.319   1.646   4.888 -2.3131 -1.5052 -1.2690
 6320SOL     OW30592   0.508   4.715   3.255 -0.9508  0.3093  0.2439
 6320SOL    HW130593   0.532   0.015   3.340 -0.0025 -0.2122  0.1948
 6320SOL    HW230594   0.490   4.623   3.277 -1.1489  0.1808 -0.4622
 6321SOL     OW30595   3.611   0.802  13.207  0.5858 -0.2293 -0.3977
 6321SOL    HW130596   3.699   0.803  13.245  1.0938 -1.4860 -1.5484
 6321SOL    HW230597   3.611   0.710  13.180  0.4906 -0.3334 -0.0419
 6322SOL     OW30598   3.249   3.326   0.222  0.4101  0.4262 -0.3207
 6322SOL    HW130599   3.166   3.329   0.173 -1.7155  0.5360  3.2969
 6322SOL    HW230600   3.226   3.276   0.300 -1.4423  2.5324  0.4756
 6323SOL     OW30601   3.169   2.305   2.001 -0.2794  0.0926  0.3500
 6323SOL    HW130602   3.159   2.332   1.909 -0.6276 -3.0089 -0.5227
 6323SOL    HW230603   3.265   2.311   2.003 -0.3325  1.1741 -0.3684
 6324SOL     OW30604   0.678   2.534  17.666  0.5207  0.2443  0.7657
 6324SOL    HW130605   0.691   2.550  17.572 -1.7755 -0.4311  0.3179
 6324SOL    HW230606   0.615   2.462  17.674  0.7163  0.1292  1.2242
 6325SOL     OW30607   3.187   2.424   7.283  0.3632 -0.1690  0.3259
 6325SOL    HW130608   3.182   2.418   7.379  1.5197  2.0343  0.5166
 6325SOL    HW230609   3.102   2.465   7.270  0.1029 -0.0862  2.1827
 6326SOL     OW30610   1.361   3.510   3.290 -0.1801  0.1462 -0.3582
 6326SOL    HW130611   1.456   3.511   3.285 -0.1900  2.8028 -0.0415
 6326SOL    HW230612   1.347   3.532   3.383 -1.4030 -0.9406 -0.2773
 6327SOL     OW30613   2.792   2.918   8.019  0.3501  0.2415 -0.0107
 6327SOL    HW130614   2.765   2.909   7.927 -0.5006  2.0208  0.0692
 6327SOL    HW230615   2.835   3.003   8.011  3.7643 -1.3311  1.8508
 6328SOL     OW30616   1.817   1.752  10.609  0.0666 -0.1080  0.0442
 6328SOL    HW130617   1.878   1.785  10.675 -1.4022  0.4845  1.0903
 6328SOL    HW230618   1.753   1.819  10.589  1.0404 -0.0837 -3.0173
 6329SOL     OW30619   4.492   4.225   1.250  0.2599  0.5011  0.1353
 6329SOL    HW130620   4.569   4.188   1.293 -0.2948  0.1910  0.8824
 6329SOL    HW230621   4.507   4.209   1.157  1.7567 -0.3937  0.5342
 6330SOL     OW30622   4.664   1.879   4.746  0.1112  0.1155  0.4521
 6330SOL    HW130623   4.570   1.867   4.733 -0.3592  2.3635  1.8094
 6330SOL    HW230624   4.670   1.967   4.782 -0.6548 -0.1876  1.3137
 6331SOL     OW30625   0.384   4.438  12.515  0.0322  0.1475  0.3001
 6331SOL    HW130626   0.432   4.450  12.433  0.4092  2.1680  0.8114
 6331SOL    HW230627   0.292   4.443  12.487  0.0440  0.7149  0.3589
 6332SOL     OW30628   4.164   1.584   1.139  0.1259  0.4107 -0.6029
 6332SOL    HW130629   4.163   1.500   1.093 -0.2780  0.1149 -0.0632
 6332SOL    HW230630   4.130   1.634   1.065 -0.9508  2.9698  1.6357
 6333SOL     OW30631   0.017   3.344   4.416  0.2924 -0.5364  0.2111
 6333SOL    HW130632   0.055   3.323   4.501  1.5371 -0.6702 -0.3794
 6333SOL    HW230633   0.033   3.438   4.409 -0.6435 -0.3242  0.9657
 6334SOL     OW30634   1.101   4.552   8.613  0.4489  0.1835 -0.1485
 6334SOL    HW130635   1.034   4.553   8.544 -0.3570  2.9909  0.6789
 6334SOL    HW230636   1.047   4.525   8.688  0.1557  0.0451 -0.4084
 6335SOL     OW30637   0.880   4.502   8.486  0.2568  0.6263 -0.5049
 6335SOL    HW130638   0.911   4.434   8.426  0.3075  0.5817 -0.4272
 6335SOL    HW230639   0.796   4.462   8.509  1.0796 -1.4211 -1.1001
 6336SOL     OW30640   0.503   4.281   5.646  0.2580 -0.0262  0.5783
 6336SOL    HW130641   0.454   4.347   5.599  0.2059  0.1695  0.9059
 6336SOL    HW230642   0.552   4.337   5.706  1.2651 -0.1336 -0.1389
 6337SOL     OW30643   1.038   1.972  15.998  0.1030 -0.1948  0.3668
 6337SOL    HW130644   1.007   1.980  15.908 -2.4016  0.6415  1.3105
 6337SOL    HW230645   1.119   1.921  15.991  0.3018  0.3292 -1.0208
 6338SOL     OW30646   4.335   2.370  15.217  0.6209  0.1490 -0.1923
 6338SOL    HW130647   4.403   2.367  15.150  0.1313 -0.0800 -0.6786
 6338SOL    HW230648   4.291   2.287  15.198  1.2080 -0.0263 -0.7805
 6339SOL     OW30649   2.574   2.505   4.247  0.0975 -0.1874  0.2223
 6339SOL    HW130650   2.570   2.433   4.309 -0.8190 -0.3585 -0.0351
 6339SOL    HW230651   2.667   2.526   4.254  1.0167 -3.9187 -0.7310
 6340SOL     OW30652   1.589   2.475   5.661 -0.0824 -0.2898 -0.6096
 6340SOL    HW130653   1.541   2.504   5.739 -0.0058 -1.0199 -0.2867
 6340SOL    HW230654   1.524   2.492   5.593 -2.2310  1.8958  1.9653
 6341SOL     OW30655   2.635   4.648   7.996  0.1337  0.0998 -0.0118
 6341SOL    HW130656   2.556   4.699   8.017  1.5222  1.6711  1.4057
 6341SOL    HW230657   2.695   4.719   7.969  0.0998  0.4478  0.8329
 6342SOL     OW30658   2.266   2.870   7.840  0.4788 -0.3794 -0.0571
 6342SOL    HW130659   2.215   2.795   7.810  1.8607 -1.4987  0.3900
 6342SOL    HW230660   2.311   2.813   7.903 -0.0678 -0.5672  0.1668
 6343SOL     OW30661   2.602   2.376   5.063 -0.1902 -0.6165 -0.0602
 6343SOL    HW130662   2.585   2.282   5.060  0.2994 -0.6339 -2.6813
 6343SOL    HW230663   2.663   2.381   5.136 -0.3396  2.3877 -0.1451
 6344SOL     OW30664   2.182   2.814   6.966  0.4338 -0.0867  0.4077
 6344SOL    HW130665   2.183   2.802   7.061  2.1265  2.1527  0.6708
 6344SOL    HW230666   2.167   2.722   6.942 -0.0785 -0.2260  1.2973
 6345SOL     OW30667   4.134   1.331  14.700  0.5505  0.4553  0.3107
 6345SOL    HW130668   4.190   1.349  14.624  0.2731  1.3013  0.3143
 6345SOL    HW230669   4.075   1.406  14.708  1.1581  1.1429 -1.7496
 6346SOL     OW30670   1.041   1.866   8.793  0.6455  0.3566 -0.3183
 6346SOL    HW130671   1.081   1.782   8.818  0.9453  0.9331  1.1791
 6346SOL    HW230672   0.951   1.836   8.793  1.4893 -2.2133  0.6840
 6347SOL     OW30673   1.125   1.345  13.006 -0.2928  0.4574  0.3821
 6347SOL    HW130674   1.208   1.388  12.988  0.5531 -1.5827 -0.5762
 6347SOL    HW230675   1.083   1.359  12.921 -0.2036 -1.7630 -0.0320
 6348SOL     OW30676   4.119   4.046   2.527 -0.0457 -0.5937 -0.4103
 6348SOL    HW130677   4.129   3.985   2.454 -1.4758 -1.0255 -0.2420
 6348SOL    HW230678   4.094   3.984   2.595  1.7176 -1.6249 -0.6923
 6349SOL     OW30679   0.418   1.266   8.527 -0.2283 -0.0620  0.0324
 6349SOL    HW130680   0.400   1.359   8.513  1.6219 -0.0312 -2.1733
 6349SOL    HW230681   0.474   1.260   8.450  1.0626 -0.3588  1.0054
 6350SOL     OW30682   0.776   0.932   0.240 -0.3162 -0.7168  0.0238
 6350SOL    HW130683   0.857   0.937   0.291 -0.8932  0.4866  0.8124
 6350SOL    HW230684   0.803   0.960   0.153 -0.3177 -0.4025  0.1253
 6351SOL     OW30685   1.168   0.533   2.596 -0.1870 -0.4700 -0.1471
 6351SOL    HW130686   1.088   0.536   2.544 -0.5933 -4.0850  0.2542
 6351SOL    HW230687   1.138   0.510   2.684  0.3963  0.1137  0.1967
 6352SOL     OW30688   2.640   4.052   2.021 -0.2493  0.0609 -0.3099
 6352SOL    HW130689   2.677   3.966   2.041 -1.6157 -0.1518  1.2897
 6352SOL    HW230690   2.710   4.112   2.045 -1.3980 -0.2126  3.7290
 6353SOL     OW30691   0.008   1.554  10.558 -0.2161  0.2270 -0.1597
 6353SOL    HW130692   0.060   1.492  10.609 -1.3497 -0.2565  0.3994
 6353SOL    HW230693   4.668   1.506  10.528 -1.0314  0.8221  0.9467
 6354SOL     OW30694   3.064   4.180  17.027  0.3793 -0.0189 -0.0261
 6354SOL    HW130695   2.993   4.116  17.035  2.1704 -1.7963  1.3639
 6354SOL    HW230696   3.139   4.149  17.077 -0.2078  0.6131  1.2565
 6355SOL     OW30697   4.182   3.283   7.618  0.7071 -0.2678 -0.3097
 6355SOL    HW130698   4.215   3.193   7.619 -2.0383 -1.2680 -0.2464
 6355SOL    HW230699   4.257   3.322   7.662  1.0854 -0.3096 -0.9099
 6356SOL     OW30700   4.603   2.265   6.190 -0.2425  0.4781  0.2790
 6356SOL    HW130701   4.547   2.258   6.267 -0.1436  1.2319  0.4185
 6356SOL    HW230702   4.639   2.353   6.201 -0.2739  0.7310 -1.5890
 6357SOL     OW30703   1.977   4.723   5.685 -1.0000  0.1914 -0.3551
 6357SOL    HW130704   2.014   0.073   5.676  2.8153 -1.1753  2.0917
 6357SOL    HW230705   2.055   4.683   5.722 -1.2786 -1.8673 -1.9168
 6358SOL     OW30706   0.809   4.478   2.325  0.0217  0.2055 -0.5803
 6358SOL    HW130707   0.821   4.418   2.252 -0.6134  0.2754 -0.7415
 6358SOL    HW230708   0.840   4.425   2.398  1.6129  0.3312 -1.1541
 6359SOL     OW30709   0.637   2.370   4.411 -0.1687 -0.3957 -0.3204
 6359SOL    HW130710   0.728   2.343   4.425  0.4608  1.2704 -1.1543
 6359SOL    HW230711   0.609   2.288   4.370  0.5283  0.2120 -1.9933
 6360SOL     OW30712   2.658   0.135  11.666 -0.2538  0.3054 -0.7388
 6360SOL    HW130713   2.697   0.047  11.662 -1.1915 -0.1111 -0.6500
 6360SOL    HW230714   2.575   0.126  11.620 -0.1507 -0.9171 -0.7091
 6361SOL     OW30715   0.221   2.350   5.081 -0.1337 -0.3395 -0.1313
 6361SOL    HW130716   0.135   2.375   5.113 -0.1704 -1.5273  0.7045
 6361SOL    HW230717   0.263   2.433   5.057 -0.4469  0.1638  1.0467
 6362SOL     OW30718   4.587   1.000  12.702  0.0287 -0.2621  0.1273
 6362SOL    HW130719   4.633   0.916  12.705 -2.5534 -1.6522  0.7794
 6362SOL    HW230720   4.593   1.043  12.787 -0.1842 -0.1640  0.0922
 6363SOL     OW30721   2.908   3.749   0.823 -0.4357  0.3219  0.5839
 6363SOL    HW130722   2.917   3.665   0.868  0.4603 -0.0215 -0.2650
 6363SOL    HW230723   2.837   3.727   0.763  0.8922 -1.9911 -0.1209
 6364SOL     OW30724   4.618   3.220   2.316  0.6662 -0.3705  0.2033
 6364SOL    HW130725   4.595   3.229   2.223  3.5079  0.2982 -0.4380
 6364SOL    HW230726   4.613   3.125   2.319 -0.3021 -0.3796 -1.8627
 6365SOL     OW30727   3.429   4.149   8.039  0.3664  0.0922  0.2567
 6365SOL    HW130728   3.428   4.163   7.944  1.1141  1.8887  0.5243
 6365SOL    HW230729   3.524   4.161   8.046  0.3897  0.9575 -1.3646
 6366SOL     OW30730   2.158   1.395   1.476  0.3887 -0.3295 -0.7257
 6366SOL    HW130731   2.137   1.487   1.492 -0.6658 -0.6556 -0.2206
 6366SOL    HW230732   2.225   1.376   1.542  0.8176  1.5574 -0.6271
 6367SOL     OW30733   1.021   3.583  11.769  0.2630 -0.2714  0.2609
 6367SOL    HW130734   1.006   3.529  11.847  1.0219  0.1426  0.6985
 6367SOL    HW230735   1.116   3.597  11.775  0.0805 -0.0799  2.6940
 6368SOL     OW30736   3.196   3.347   8.951  0.0568  0.2275 -0.0907
 6368SOL    HW130737   3.147   3.277   8.908 -0.6780  0.4302  0.4058
 6368SOL    HW230738   3.201   3.418   8.886  2.4078 -0.0793 -0.2243
 6369SOL     OW30739   0.181   4.355  15.847  0.1172 -0.2968  0.1912
 6369SOL    HW130740   0.264   4.373  15.892  0.3321 -0.8919  0.0370
 6369SOL    HW230741   0.199   4.264  15.822  2.2269  0.2325 -0.1967
 6370SOL     OW30742   1.456   1.835   8.180 -0.6154 -0.3499  0.3494
 6370SOL    HW130743   1.480   1.887   8.257 -4.0838  0.5996  0.7895
 6370SOL    HW230744   1.409   1.903   8.132  1.7727  0.3254 -1.0523
 6371SOL     OW30745   1.001   4.422   1.953 -0.1552 -0.1298 -0.0453
 6371SOL    HW130746   1.019   4.513   1.977 -1.7034 -0.2554  1.6520
 6371SOL    HW230747   1.084   4.379   1.974  0.6473  0.5862 -1.7884
 6372SOL     OW30748   3.990   2.474   3.582  0.2789 -0.5041  0.2364
 6372SOL    HW130749   3.931   2.400   3.599 -0.7205  0.1904 -0.2464
 6372SOL    HW230750   3.952   2.543   3.637 -0.9788  0.1598 -1.4663
 6373SOL     OW30751   2.022   4.309   2.627  0.3083 -0.5052 -0.2764
 6373SOL    HW130752   2.091   4.315   2.561 -0.6084  0.9050 -1.1152
 6373SOL    HW230753   1.974   4.228   2.610  1.3438 -0.8389 -1.6733
 6374SOL     OW30754   3.046   0.401   3.768 -0.2519  0.3775 -0.4490
 6374SOL    HW130755   3.108   0.372   3.701  0.8922  0.3249  0.6304
 6374SOL    HW230756   3.021   0.491   3.748 -1.0396 -0.1338 -1.7690
 6375SOL     OW30757   3.667   0.952   5.395 -0.3389  0.0833  0.5199
 6375SOL    HW130758   3.572   0.943   5.393 -0.3165 -0.2435  1.1497
 6375SOL    HW230759   3.668   1.034   5.444  0.5206 -0.4197  1.3378
 6376SOL     OW30760   1.648   2.723  15.106 -0.3782  0.5371 -0.3426
 6376SOL    HW130761   1.654   2.631  15.133 -1.6774  0.3055 -0.8384
 6376SOL    HW230762   1.559   2.711  15.073 -0.1695 -4.3554  0.8207
 6377SOL     OW30763   3.818   0.664   7.046 -0.4521 -0.3596  0.3913
 6377SOL    HW130764   3.779   0.671   7.133  1.4263  0.0255  1.1976
 6377SOL    HW230765   3.898   0.715   7.056  0.5106 -1.6978 -0.5975
 6378SOL     OW30766   0.435   3.345   9.989  0.2296  0.1374 -0.2900
 6378SOL    HW130767   0.488   3.310   9.918 -0.6840  0.3257 -1.0729
 6378SOL    HW230768   0.384   3.270  10.019  3.1119 -1.9826 -0.7874
 6379SOL     OW30769   0.754   4.182   6.011  0.0059  0.2143 -0.3250
 6379SOL    HW130770   0.705   4.111   5.969 -2.1401  1.9124 -0.6791
 6379SOL    HW230771   0.697   4.209   6.082  0.1215 -1.8261  0.5635
 6380SOL     OW30772   1.437   2.161   3.099  0.0564  0.8506  0.5541
 6380SOL    HW130773   1.360   2.151   3.154 -1.3941  1.3401 -1.4034
 6380SOL    HW230774   1.412   2.094   3.036  1.5747 -1.1105  2.0409
 6381SOL     OW30775   2.192   0.175   6.613  0.0575 -0.2957  0.2586
 6381SOL    HW130776   2.114   0.172   6.558 -0.0211  0.1590  0.3458
 6381SOL    HW230777   2.152   0.226   6.683 -0.8915 -1.8270  0.8415
 6382SOL     OW30778   3.368   2.190   6.042 -0.4076  0.1420 -0.5608
 6382SOL    HW130779   3.401   2.106   6.009  2.2429 -0.1675  2.7855
 6382SOL    HW230780   3.323   2.167   6.123  1.0661 -1.1291 -0.0969
 6383SOL     OW30781   3.289   1.158   5.882  0.0706 -0.1044 -0.4503
 6383SOL    HW130782   3.318   1.155   5.973 -0.6557 -0.1338 -0.2198
 6383SOL    HW230783   3.225   1.225   5.905 -0.6851 -0.0733 -2.6826
 6384SOL     OW30784   0.132   4.117   9.193 -0.0663  0.2509  0.3397
 6384SOL    HW130785   0.182   4.159   9.264  0.1519  0.3760  0.1106
 6384SOL    HW230786   0.046   4.159   9.194 -1.0166 -1.7380 -0.5432
 6385SOL     OW30787   4.394   3.184   8.057 -0.0268  0.5890  0.3943
 6385SOL    HW130788   4.404   3.124   7.983  0.0808 -0.8276  1.5624
 6385SOL    HW230789   4.331   3.245   8.019 -1.3302 -1.5742 -0.9111
 6386SOL     OW30790   4.637   4.385   8.369 -0.9112 -1.0460 -0.0837
 6386SOL    HW130791   4.600   4.446   8.433 -0.8529 -0.8909 -0.1951
 6386SOL    HW230792   4.695   4.441   8.318 -0.7454  1.8725  3.2883
 6387SOL     OW30793   1.013   1.421   1.509  0.3208  0.4633 -0.7835
 6387SOL    HW130794   1.033   1.404   1.601  0.6161  1.5709 -0.6449
 6387SOL    HW230795   1.072   1.493   1.485  0.5946  1.0779  1.6947
 6388SOL     OW30796   1.657   0.065   2.554  0.5476  0.2471  0.0804
 6388SOL    HW130797   1.672   0.012   2.476 -1.8239  1.7204 -1.3771
 6388SOL    HW230798   1.711   0.143   2.544 -0.2557  0.6674 -1.0235
 6389SOL     OW30799   0.744   1.039  11.703 -0.6057  0.1967 -0.3143
 6389SOL    HW130800   0.653   1.064  11.690 -0.6895 -0.8565 -1.7444
 6389SOL    HW230801   0.796   1.105  11.658 -0.7647 -0.0278 -0.8268
 6390SOL     OW30802   1.065   1.474   3.992  0.2834  0.1486  0.1516
 6390SOL    HW130803   0.989   1.428   3.957 -0.1862  2.1068 -1.3690
 6390SOL    HW230804   1.134   1.407   3.985 -1.6642 -2.0664  2.3682
 6391SOL     OW30805   2.215   3.163   5.560 -0.2179 -0.2918 -0.1291
 6391SOL    HW130806   2.202   3.205   5.475  2.1949  0.7685  0.0400
 6391SOL    HW230807   2.200   3.238   5.617  0.2403  1.2255 -1.9895
 6392SOL     OW30808   1.240   1.818  11.418 -0.0699 -0.3346  0.3450
 6392SOL    HW130809   1.174   1.825  11.349 -0.1326 -0.4094  0.3972
 6392SOL    HW230810   1.207   1.750  11.477  0.2350  0.3727  1.3357
 6393SOL     OW30811   3.905   2.865   7.051  0.2437  0.2438 -0.3408
 6393SOL    HW130812   3.870   2.908   7.129  0.4895 -0.3000  0.0736
 6393SOL    HW230813   3.995   2.853   7.080  0.8073 -0.3090 -2.3442
 6394SOL     OW30814   3.984   2.833   5.433 -0.3675 -0.6404 -0.3898
 6394SOL    HW130815   3.974   2.738   5.422  3.5501 -1.5074  3.8090
 6394SOL    HW230816   3.893   2.863   5.431 -0.5977 -1.3868 -1.2450
 6395SOL     OW30817   1.910   2.487   6.970 -0.6612  0.1060 -0.0103
 6395SOL    HW130818   2.001   2.509   6.951 -1.2831  1.8863 -0.8595
 6395SOL    HW230819   1.906   2.532   7.055 -0.7964 -1.0484  0.6013
 6396SOL     OW30820   3.778   1.542   9.425  0.2614 -0.0759  0.2756
 6396SOL    HW130821   3.842   1.606   9.455  1.1210 -1.2210  0.9376
 6396SOL    HW230822   3.737   1.592   9.355 -2.5474 -1.1945  1.1232
 6397SOL     OW30823   0.845   4.579   5.588  0.4537 -0.5138  0.1693
 6397SOL    HW130824   0.906   4.554   5.518  0.5010 -1.4164  0.5344
 6397SOL    HW230825   0.881   4.525   5.659 -3.0555 -0.9523  1.6131
 6398SOL     OW30826   0.746   3.596  16.399 -0.4628  0.0897 -0.3902
 6398SOL    HW130827   0.795   3.514  16.392 -1.5858 -0.7537  1.8829
 6398SOL    HW230828   0.765   3.620  16.308 -1.3208 -2.2703 -1.1859
 6399SOL     OW30829   2.308   3.720  10.639  0.4482  0.1161  0.1992
 6399SOL    HW130830   2.222   3.680  10.627  0.9986 -1.1363  0.4373
 6399SOL    HW230831   2.282   3.806  10.674 -1.9704 -0.7013  0.4058
 6400SOL     OW30832   1.786   4.508   8.106  0.5118  0.3265 -0.2861
 6400SOL    HW130833   1.724   4.568   8.064  0.0370 -0.5155 -0.8044
 6400SOL    HW230834   1.775   4.532   8.198  1.5784 -2.6256  0.6045
 6401SOL     OW30835   3.911   0.694  13.069 -0.1703  0.1401 -0.7253
 6401SOL    HW130836   3.981   0.656  13.123 -0.3691 -0.2695 -0.7583
 6401SOL    HW230837   3.842   0.635  13.098  1.1501 -1.4633 -0.8594
 6402SOL     OW30838   2.048   1.091   5.342 -0.5577 -0.4338 -0.0659
 6402SOL    HW130839   2.061   1.179   5.377 -2.3192 -0.5564  0.8563
 6402SOL    HW230840   1.976   1.063   5.398  0.6631  1.7350  2.6085
 6403SOL     OW30841   2.559   0.940  14.595 -0.8526  0.4832  0.2401
 6403SOL    HW130842   2.463   0.937  14.601 -0.7865 -1.2484  0.3048
 6403SOL    HW230843   2.574   0.888  14.674 -0.1038 -1.1596 -0.9758
 6404SOL     OW30844   0.630   0.508   0.557 -0.0371  0.2839  0.3792
 6404SOL    HW130845   0.539   0.483   0.545 -0.2333  0.7114  0.9919
 6404SOL    HW230846   0.593   0.572   0.618  0.4440 -1.0676  2.0718
 6405SOL     OW30847   2.327   0.121   3.235 -0.6192 -0.1939 -0.3993
 6405SOL    HW130848   2.391   0.083   3.175 -0.1964  0.5520 -0.4191
 6405SOL    HW230849   2.271   0.149   3.163  1.1520 -0.0370 -1.7324
 6406SOL     OW30850   2.375   1.222   7.912 -0.1288  0.4994  0.2887
 6406SOL    HW130851   2.309   1.255   7.851 -1.4441 -1.2989  0.7535
 6406SOL    HW230852   2.435   1.173   7.856 -0.7153  0.3650 -0.2280
 6407SOL     OW30853   2.041   2.509   5.924 -0.4226 -0.1219 -0.5708
 6407SOL    HW130854   2.002   2.589   5.889 -0.8019  0.9129  2.1859
 6407SOL    HW230855   2.091   2.481   5.848 -0.7414 -0.8519 -0.5214
 6408SOL     OW30856   2.218   2.947   8.939  0.1824  0.2338  0.0368
 6408SOL    HW130857   2.278   2.877   8.915  0.1093  0.1777  0.0199
 6408SOL    HW230858   2.288   3.005   8.969 -0.1156 -0.8349  2.8060
 6409SOL     OW30859   1.165   2.570   2.562  0.5044  0.2123 -0.0541
 6409SOL    HW130860   1.180   2.496   2.503  0.7000 -1.2367  1.7969
 6409SOL    HW230861   1.180   2.642   2.501  0.0779  0.5292  0.2125
 6410SOL     OW30862   1.123   1.186  12.058  0.5494 -0.2345 -0.4206
 6410SOL    HW130863   1.078   1.247  12.116 -0.8004 -0.1353 -1.5672
 6410SOL    HW230864   1.092   1.100  12.086 -1.1754  0.1132 -1.3103
 6411SOL     OW30865   3.900   0.916   2.401 -0.0734  0.7244 -0.1757
 6411SOL    HW130866   3.840   0.863   2.349  0.6550 -0.4752  0.2112
 6411SOL    HW230867   3.922   0.853   2.470 -2.6344  0.4543  0.3849
 6412SOL     OW30868   3.120   3.782   6.964 -0.0415  0.2988 -0.4225
 6412SOL    HW130869   3.131   3.862   6.914 -3.0327 -0.3820 -2.1882
 6412SOL    HW230870   3.155   3.803   7.050  0.4095  1.6315 -0.9410
 6413SOL     OW30871   0.326   0.289   7.119 -0.0564 -0.5599 -0.6743
 6413SOL    HW130872   0.404   0.302   7.065 -0.2503  0.6040 -0.6726
 6413SOL    HW230873   0.310   0.195   7.110  3.1993 -1.3768  2.0472
 6414SOL     OW30874   2.263   1.206   7.594 -0.7620  0.1951  0.3084
 6414SOL    HW130875   2.291   1.184   7.505 -3.3039 -3.6627  0.4441
 6414SOL    HW230876   2.174   1.170   7.603 -0.0254 -1.6093  0.3519
 6415SOL     OW30877   3.763   2.221   8.174  0.5456  0.4994  0.0533
 6415SOL    HW130878   3.753   2.230   8.269 -0.3393  3.0275 -0.2666
 6415SOL    HW230879   3.682   2.180   8.144  1.3120  0.6378 -2.1908
 6416SOL     OW30880   3.735   3.006  12.585  0.0984 -0.3852 -0.1587
 6416SOL    HW130881   3.807   2.968  12.636 -0.0273 -1.0504 -0.4788
 6416SOL    HW230882   3.705   2.925  12.543 -0.7528  0.1116 -0.4840
 6417SOL     OW30883   3.595   0.010   9.870 -0.8808  0.6465  0.0029
 6417SOL    HW130884   3.688   4.726   9.864 -1.4799 -1.8506 -0.7258
 6417SOL    HW230885   3.551   4.711   9.793  0.9513 -1.5768  0.0007
 6418SOL     OW30886   3.464   3.280   7.547  0.3481  0.0660  0.4850
 6418SOL    HW130887   3.411   3.350   7.509  1.3593  1.4696  1.6611
 6418SOL    HW230888   3.544   3.320   7.580 -1.7289  3.2791  1.5911
 6419SOL     OW30889   3.665   0.496   7.808 -0.7675 -0.6476 -0.4081
 6419SOL    HW130890   3.608   0.473   7.881  0.7168 -0.0882  0.9260
 6419SOL    HW230891   3.752   0.478   7.843 -0.9491 -1.6288 -0.4665
 6420SOL     OW30892   3.520   3.861   9.599  0.3269  0.2683  0.5461
 6420SOL    HW130893   3.599   3.910   9.573  0.4545 -0.3005 -0.1220
 6420SOL    HW230894   3.533   3.857   9.694  0.8589  0.5069  0.4875
 6421SOL     OW30895   0.419   1.879  13.238 -0.7451 -0.1816  0.4409
 6421SOL    HW130896   0.479   1.921  13.300  0.9848 -0.6702 -0.8850
 6421SOL    HW230897   0.382   1.805  13.287 -0.5406 -0.9136 -0.4997
 6422SOL     OW30898   3.796   0.765   8.179  0.1830 -0.1565 -0.4999
 6422SOL    HW130899   3.712   0.744   8.139 -0.5617  1.7829  0.0657
 6422SOL    HW230900   3.850   0.796   8.106 -1.7999  0.9304 -1.4907
 6423SOL     OW30901   2.127   0.122   0.779  0.4379  0.3596  0.4984
 6423SOL    HW130902   2.076   0.135   0.699  1.0178  0.1030  0.0879
 6423SOL    HW230903   2.156   0.213   0.785  0.5372  0.4854 -1.9798
 6424SOL     OW30904   2.707   2.014   8.366  0.3027 -0.0552  0.3702
 6424SOL    HW130905   2.618   2.037   8.392 -0.1395  0.0498 -1.2610
 6424SOL    HW230906   2.749   2.087   8.412  1.9212  0.0443 -1.2932
 6425SOL     OW30907   3.659   1.539   0.429 -0.5748 -0.0235  0.0117
 6425SOL    HW130908   3.634   1.631   0.429  0.1391  0.1795  1.6657
 6425SOL    HW230909   3.580   1.499   0.394 -0.7657 -0.2799  0.7324
 6426SOL     OW30910   4.262   3.193   2.315  0.2588 -0.1009 -0.5079
 6426SOL    HW130911   4.226   3.108   2.340 -0.5026  0.8411  1.5864
 6426SOL    HW230912   4.279   3.228   2.402 -0.1682 -1.7067  0.2201
 6427SOL     OW30913   1.848   2.035   6.204  0.4178  0.9467  0.2299
 6427SOL    HW130914   1.794   2.030   6.125  0.4026  1.4892  0.2106
 6427SOL    HW230915   1.882   2.124   6.204  1.1507  0.6728 -3.7783
 6428SOL     OW30916   1.602   0.652   5.164  0.3708  0.1596  0.2479
 6428SOL    HW130917   1.550   0.628   5.087 -0.5284  1.1400  0.5444
 6428SOL    HW230918   1.540   0.639   5.236  0.7801  2.1165  0.9636
 6429SOL     OW30919   3.279   1.177  15.669 -0.0483 -0.5819 -0.3281
 6429SOL    HW130920   3.262   1.133  15.585 -0.0539 -1.8314  0.3312
 6429SOL    HW230921   3.261   1.271  15.663  2.2987 -0.2422 -2.1153
 6430SOL     OW30922   2.254   0.121   7.947 -0.3562 -0.0612 -0.0265
 6430SOL    HW130923   2.180   0.153   7.896  0.8897 -0.0814 -1.8314
 6430SOL    HW230924   2.331   0.157   7.904  0.5969 -0.9166  0.9381
 6431SOL     OW30925   1.178   1.722   3.962 -0.2841  0.6015 -0.3674
 6431SOL    HW130926   1.206   1.716   4.053 -0.0369  0.9692 -0.4183
 6431SOL    HW230927   1.142   1.633   3.959 -1.5627  1.0374  3.0485
 6432SOL     OW30928   3.368   3.400   6.632  0.0235  0.6393 -0.1837
 6432SOL    HW130929   3.283   3.370   6.600 -0.8062 -2.6495  5.2170
 6432SOL    HW230930   3.417   3.318   6.632 -0.0235  0.6192  1.1416
 6433SOL     OW30931   3.479   3.405   2.545 -0.3141  0.4753  0.1011
 6433SOL    HW130932   3.410   3.359   2.498 -0.4044  1.5457 -0.8390
 6433SOL    HW230933   3.485   3.480   2.486 -0.6631  1.2431  1.0364
 6434SOL     OW30934   1.923   3.500   7.303 -0.2818  0.1000  0.1323
 6434SOL    HW130935   1.975   3.447   7.243 -1.1661 -0.7915  0.1412
 6434SOL    HW230936   1.847   3.442   7.304 -0.1002 -0.1313  0.6939
 6435SOL     OW30937   3.032   0.683   7.215 -0.7908  0.7393 -0.3400
 6435SOL    HW130938   2.954   0.645   7.176 -2.3626 -0.4357  4.0388
 6435SOL    HW230939   3.076   0.604   7.246 -1.8679  0.2513 -0.0777
 6436SOL     OW30940   1.745   4.158  14.406 -0.7616  0.1873 -0.1166
 6436SOL    HW130941   1.654   4.187  14.419 -1.2733 -2.1535  1.5311
 6436SOL    HW230942   1.792   4.242  14.409  1.0385 -0.8602  1.0896
 6437SOL     OW30943   3.025   0.460   0.942  0.3212 -0.2898  0.2499
 6437SOL    HW130944   3.007   0.535   0.885  1.5346  1.1461  1.7722
 6437SOL    HW230945   3.081   0.401   0.891  0.4792 -0.6987  0.8933
 6438SOL     OW30946   4.215   1.939   8.636 -0.1145 -0.0465  0.4745
 6438SOL    HW130947   4.125   1.968   8.644  0.9246  2.6903  2.2229
 6438SOL    HW230948   4.201   1.845   8.620 -0.3975 -0.6261  4.2818
 6439SOL     OW30949   4.073   0.922   0.985  0.1939  0.2365 -0.1952
 6439SOL    HW130950   4.147   0.984   0.980  0.9676 -0.7039 -0.4095
 6439SOL    HW230951   4.052   0.917   0.892  0.4979  1.4949 -0.3334
 6440SOL     OW30952   1.513   0.978  10.986  0.5800 -0.7129  0.3020
 6440SOL    HW130953   1.559   0.909  11.034  0.0920  0.2875  2.1871
 6440SOL    HW230954   1.530   1.047  11.050  2.0840  0.1440 -1.0381
 6441SOL     OW30955   0.330   1.879   4.706  0.2771 -0.4464 -0.3917
 6441SOL    HW130956   0.406   1.877   4.765 -1.0950 -1.8607  1.3179
 6441SOL    HW230957   0.298   1.968   4.715  1.3533 -0.0135 -0.7754
 6442SOL     OW30958   1.313   3.286  16.049 -0.0392 -0.2081 -0.2450
 6442SOL    HW130959   1.227   3.282  16.007  0.5258 -0.5357 -1.3678
 6442SOL    HW230960   1.371   3.294  15.973 -1.5505  1.0348 -1.2748
 6443SOL     OW30961   3.336   4.088   3.267 -0.3745 -0.2316 -0.1222
 6443SOL    HW130962   3.259   4.072   3.212 -0.8849  1.0173  0.2175
 6443SOL    HW230963   3.313   4.045   3.349  1.0687  0.6456  0.7359
 6444SOL     OW30964   4.299   2.897   6.185 -0.2818 -0.1274  0.3779
 6444SOL    HW130965   4.366   2.830   6.172  0.5837  0.6258  0.9354
 6444SOL    HW230966   4.341   2.981   6.163 -0.0735 -0.4079 -0.2784
 6445SOL     OW30967   3.310   2.791   3.753 -0.2599 -0.0163  0.8455
 6445SOL    HW130968   3.404   2.801   3.772 -0.1548  0.2197  0.2143
 6445SOL    HW230969   3.294   2.864   3.693 -0.3605 -0.6378  0.1159
 6446SOL     OW30970   1.975   1.212   8.238 -0.3558  0.4941  0.1593
 6446SOL    HW130971   1.961   1.243   8.148  1.1340  2.6140  0.6577
 6446SOL    HW230972   2.061   1.173   8.222 -1.6145 -1.4967 -1.7183
 6447SOL     OW30973   1.393   4.030   5.727 -0.2959  0.6214 -0.2748
 6447SOL    HW130974   1.394   4.110   5.780  2.4162  0.4917 -0.1248
 6447SOL    HW230975   1.469   4.040   5.669  0.5735  1.5185  1.0109
 6448SOL     OW30976   1.788   2.269   7.640 -0.4596  0.0170  0.5672
 6448SOL    HW130977   1.702   2.242   7.609 -0.4094 -0.9129  1.2574
 6448SOL    HW230978   1.789   2.217   7.720  0.4892 -1.8433 -0.6671
 6449SOL     OW30979   2.337   2.421   5.059 -0.0099  0.2527  0.2274
 6449SOL    HW130980   2.429   2.422   5.032 -0.4485 -0.8228 -1.3146
 6449SOL    HW230981   2.341   2.386   5.148 -1.4139  0.3348  0.3277
 6450SOL     OW30982   2.563   4.508   5.386 -0.1459  0.4305 -0.0430
 6450SOL    HW130983   2.506   4.571   5.430 -0.2414 -0.5790  1.2710
 6450SOL    HW230984   2.504   4.489   5.313  1.2651  2.2734 -1.6372
 6451SOL     OW30985   1.498   0.225   6.236 -0.2961 -0.2501  0.1674
 6451SOL    HW130986   1.542   0.310   6.238 -1.8633  0.6198 -2.6197
 6451SOL    HW230987   1.421   0.246   6.184  0.0909  0.7526  0.0003
 6452SOL     OW30988   2.234   3.204   2.699  0.2017  0.0802 -0.8389
 6452SOL    HW130989   2.147   3.181   2.731 -0.0946  0.3491 -1.4490
 6452SOL    HW230990   2.226   3.254   2.618 -1.0388  0.3454 -0.5554
 6453SOL     OW30991   1.683   2.502   6.782 -0.1370  0.6458 -0.3466
 6453SOL    HW130992   1.754   2.458   6.828  1.2299  1.5829 -1.5448
 6453SOL    HW230993   1.678   2.589   6.823 -0.8345  0.5530 -0.2258
 6454SOL     OW30994   1.706   2.253   2.856 -0.1597  0.1082 -0.2091
 6454SOL    HW130995   1.649   2.243   2.780 -0.1468  0.5420 -0.2773
 6454SOL    HW230996   1.654   2.319   2.902 -1.5295 -1.3034  0.2795
 6455SOL     OW30997   1.153   3.879  13.012  0.1443  0.3126  0.4919
 6455SOL    HW130998   1.183   3.951  13.067  0.5872  1.3634 -1.1236
 6455SOL    HW230999   1.192   3.907  12.930  0.7140  1.7246  1.2423
 6456SOL     OW31000   3.112   0.001   3.207  0.6779 -0.1955 -0.1504
 6456SOL    HW131001   3.104   0.010   3.302 -0.9771  0.0287 -0.2953
 6456SOL    HW231002   3.163   0.080   3.188  0.6834  0.0308  0.7814
 6457SOL     OW31003   1.017   1.404   4.287 -0.1973  0.0277  0.1303
 6457SOL    HW131004   1.032   1.357   4.205  3.0852 -0.9278  1.2634
 6457SOL    HW231005   1.109   1.408   4.315  0.3379 -0.0579 -1.6091
 6458SOL     OW31006   1.336   3.587   8.078 -0.5007  0.2452  0.3824
 6458SOL    HW131007   1.367   3.601   8.167 -1.8054 -3.8323  1.4726
 6458SOL    HW231008   1.372   3.657   8.024  0.2284 -0.7153 -0.3749
 6459SOL     OW31009   4.726   2.107   4.483  0.5341  0.0049  0.5866
 6459SOL    HW131010   4.720   2.121   4.389  0.0208  0.6252  0.7048
 6459SOL    HW231011   4.651   2.146   4.529  0.7531 -0.4687  1.3452
 6460SOL     OW31012   3.329   3.805   1.934 -0.2035  0.5510  0.0568
 6460SOL    HW131013   3.282   3.864   1.993 -1.5497 -1.2558  0.7806
 6460SOL    HW231014   3.253   3.761   1.898 -0.5048  3.1917 -2.5728
 6461SOL     OW31015   0.421   3.827   0.587  1.1185 -0.2948  0.2189
 6461SOL    HW131016   0.483   3.881   0.637  0.2325  3.0594 -2.3010
 6461SOL    HW231017   0.471   3.789   0.515  0.4057  1.9447 -1.4447
 6462SOL     OW31018   0.323   1.751   7.066  0.8465 -0.1695  0.1116
 6462SOL    HW131019   0.271   1.793   7.134  0.3409 -1.0875  0.2986
 6462SOL    HW231020   0.270   1.775   6.989  0.6113  1.2358  0.7113
 6463SOL     OW31021   3.712   4.665   7.852 -0.3462  0.0463  0.1253
 6463SOL    HW131022   3.735   4.709   7.934  1.2676 -0.6803  0.0738
 6463SOL    HW231023   3.647   4.599   7.875 -1.1125  0.7368 -0.0385
 6464SOL     OW31024   0.300   0.461   6.215 -0.1782 -0.4383 -0.9179
 6464SOL    HW131025   0.337   0.398   6.153  0.9079 -1.0649  0.3735
 6464SOL    HW231026   0.277   0.530   6.153  0.7524 -0.2657 -1.0759
 6465SOL     OW31027   0.763   4.255   7.145  0.7557 -0.0318  0.0530
 6465SOL    HW131028   0.750   4.234   7.052  2.9960 -0.1089 -0.2506
 6465SOL    HW231029   0.723   4.342   7.144  0.6241 -0.1139 -2.5615
 6466SOL     OW31030   0.565   2.891   2.100 -0.0254 -0.0432  0.8848
 6466SOL    HW131031   0.637   2.946   2.069 -0.0148 -0.5457  0.0412
 6466SOL    HW231032   0.593   2.806   2.066 -2.1126 -0.1277 -0.5943
 6467SOL     OW31033   0.891   1.278   5.639 -0.3548  0.0690  0.2363
 6467SOL    HW131034   0.950   1.222   5.689  2.2684  1.4906 -1.2810
 6467SOL    HW231035   0.928   1.367   5.638 -2.9505  1.1616  1.7024
 6468SOL     OW31036   3.167   0.132   1.374 -0.5042  0.0580  0.4102
 6468SOL    HW131037   3.163   0.222   1.342  2.7635  1.2564  3.3207
 6468SOL    HW231038   3.111   0.131   1.452 -0.6791  1.7996  0.3112
 6469SOL     OW31039   2.569   2.244   4.072  0.4114  0.1222 -0.0757
 6469SOL    HW131040   2.565   2.336   4.099 -0.2931  0.0606  0.0261
 6469SOL    HW231041   2.477   2.220   4.081 -0.0232  1.4516 -1.0045
 6470SOL     OW31042   1.459   2.854   5.440  0.1840 -0.1982  0.0229
 6470SOL    HW131043   1.391   2.840   5.374  1.9723  1.0382 -2.0511
 6470SOL    HW231044   1.479   2.947   5.440 -0.7885  0.0032 -1.0826
 6471SOL     OW31045   3.276   2.309   4.763  0.3689 -0.2238  0.1796
 6471SOL    HW131046   3.311   2.286   4.849 -0.8761 -1.1406  0.4408
 6471SOL    HW231047   3.186   2.279   4.777 -0.2201  1.7582  0.6859
 6472SOL     OW31048   2.848   0.334   0.480  0.0707 -0.1453  0.2987
 6472SOL    HW131049   2.866   0.407   0.420  0.3918 -0.2728  0.2432
 6472SOL    HW231050   2.940   0.317   0.500  0.0662 -0.1480  0.3175
 6473SOL     OW31051   1.251   3.344  17.269  0.0558 -0.0252 -0.5742
 6473SOL    HW131052   1.177   3.390  17.231  0.4556  0.4224 -0.7990
 6473SOL    HW231053   1.195   3.287  17.323  0.5784 -1.3851 -1.4666
 6474SOL     OW31054   0.204   2.907   5.129 -0.1853  0.1861 -0.9965
 6474SOL    HW131055   0.155   2.869   5.056  0.7228 -2.7301 -0.0510
 6474SOL    HW231056   0.282   2.928   5.077  0.6314 -1.0433 -0.2517
 6475SOL     OW31057   2.200   0.272   4.964 -0.1185 -0.2284 -1.0291
 6475SOL    HW131058   2.171   0.341   4.904 -3.1152 -2.6946 -2.4406
 6475SOL    HW231059   2.148   0.289   5.043  0.9817  0.8204 -0.5405
 6476SOL     OW31060   2.323   0.655   1.963 -0.2299 -0.1805 -0.3509
 6476SOL    HW131061   2.269   0.609   1.898  0.2091  0.1787 -0.9683
 6476SOL    HW231062   2.333   0.737   1.915  0.2090 -0.3939 -0.6343
 6477SOL     OW31063   3.632   4.189   3.207  0.2316 -0.4524 -0.4799
 6477SOL    HW131064   3.638   4.283   3.195 -2.1623 -0.2690 -0.1315
 6477SOL    HW231065   3.618   4.183   3.301 -2.3151  0.5681 -0.8188
 6478SOL     OW31066   0.444   2.718   8.942  1.2791 -0.3035 -0.0533
 6478SOL    HW131067   0.524   2.766   8.920  0.1460  0.7799 -1.7425
 6478SOL    HW231068   0.451   2.706   9.037 -2.8931 -0.2849  0.2252
 6479SOL     OW31069   0.433   4.186  12.386 -0.1753 -0.2804 -0.2864
 6479SOL    HW131070   0.408   4.186  12.478  0.1602  0.4734 -0.1903
 6479SOL    HW231071   0.526   4.209  12.392 -0.1860  0.1232 -1.4873
 6480SOL     OW31072   2.736   2.846   5.496  0.2300 -0.2260  0.0676
 6480SOL    HW131073   2.734   2.799   5.413 -0.5290 -0.6817  0.3392
 6480SOL    HW231074   2.794   2.921   5.488  0.1552 -0.2609 -0.7580
 6481SOL     OW31075   3.313   3.511  14.972 -0.4809 -0.5106  0.0523
 6481SOL    HW131076   3.276   3.424  14.959 -0.3444 -0.3029 -1.7000
 6481SOL    HW231077   3.235   3.566  14.966 -0.7409 -0.9751 -0.7679
 6482SOL     OW31078   3.273   0.625  16.987  0.2029 -0.2399 -0.5276
 6482SOL    HW131079   3.296   0.604  16.897 -1.3794  1.0063 -1.2193
 6482SOL    HW231080   3.278   0.720  16.980  1.5906 -0.3093 -0.4664
 6483SOL     OW31081   0.603   0.990   2.914 -0.2007  0.3130 -0.1446
 6483SOL    HW131082   0.611   0.929   2.987 -0.7598  2.2232  1.5245
 6483SOL    HW231083   0.697   1.001   2.897 -0.3777 -1.0143 -1.9719
 6484SOL     OW31084   0.700   4.659  12.608 -0.1844 -0.1338 -0.1862
 6484SOL    HW131085   0.684   4.661  12.514 -0.5051 -1.9167 -0.1736
 6484SOL    HW231086   0.786   4.616  12.603  0.8339  2.2077 -2.3779
 6485SOL     OW31087   3.351   1.360   5.671 -0.2800 -0.8193 -0.0454
 6485SOL    HW131088   3.376   1.286   5.727 -0.7322 -1.3296 -0.5100
 6485SOL    HW231089   3.335   1.313   5.589 -0.9292  0.8723 -0.8763
 6486SOL     OW31090   0.952   1.986   0.533  0.0310 -0.2587  0.9485
 6486SOL    HW131091   0.993   1.943   0.608  1.2529  0.6746  0.8189
 6486SOL    HW231092   1.011   1.966   0.460 -0.0817  0.3292  0.6906
 6487SOL     OW31093   1.821   1.915   7.337 -0.3519 -0.5474 -0.2213
 6487SOL    HW131094   1.793   2.002   7.310  0.0380 -0.8093 -1.4648
 6487SOL    HW231095   1.894   1.945   7.391 -0.2677 -1.7960  0.3510
 6488SOL     OW31096   3.850   4.138  10.241 -1.0834  0.3530 -0.2737
 6488SOL    HW131097   3.831   4.159  10.332  0.8790 -0.7835  0.3960
 6488SOL    HW231098   3.768   4.092  10.220 -0.3323  0.1291 -2.6905
 6489SOL     OW31099   0.030   1.892   6.440 -0.3926 -0.0654 -0.0116
 6489SOL    HW131100   4.731   1.835   6.508 -0.7672 -1.2744 -1.2518
 6489SOL    HW231101   0.099   1.938   6.489 -0.5887  1.7458 -1.4234
 6490SOL     OW31102   3.267   3.649  13.049 -0.0348  0.2619 -0.0028
 6490SOL    HW131103   3.293   3.739  13.065 -1.5309  0.6105  0.5189
 6490SOL    HW231104   3.311   3.610  13.125  0.8060 -0.9094 -1.0947
 6491SOL     OW31105   0.267   0.874   9.689 -0.0383  0.8055  0.3709
 6491SOL    HW131106   0.190   0.857   9.635  0.9417 -0.9231 -0.5023
 6491SOL    HW231107   0.232   0.924   9.762  0.7739  0.7994  0.7560
 6492SOL     OW31108   3.256   4.355  17.682  0.0261 -0.1922 -0.1393
 6492SOL    HW131109   3.173   4.336  17.726 -0.5635 -0.5779 -1.3934
 6492SOL    HW231110   3.297   4.270  17.695  1.6825  1.0339  2.4939
 6493SOL     OW31111   2.602   1.036  10.095 -0.1423  0.9135  0.0391
 6493SOL    HW131112   2.691   1.058  10.122  0.7594  0.2828 -2.4626
 6493SOL    HW231113   2.564   1.124  10.105  1.3530  1.4097  1.4018
 6494SOL     OW31114   1.468   0.425  12.299 -0.4416 -0.0415 -0.0563
 6494SOL    HW131115   1.380   0.462  12.309 -0.6016 -0.9327  1.8513
 6494SOL    HW231116   1.515   0.465  12.372 -1.4897 -1.2191  1.2620
 6495SOL     OW31117   2.498   4.226   8.385  0.0904 -0.8919  0.9196
 6495SOL    HW131118   2.438   4.166   8.430  0.9647 -1.0867  1.8253
 6495SOL    HW231119   2.543   4.170   8.322 -0.0922  0.2156 -0.2017
 6496SOL     OW31120   2.193   2.228   7.310 -0.2411 -0.5229 -0.5975
 6496SOL    HW131121   2.212   2.136   7.331  0.7087 -0.3058 -0.5189
 6496SOL    HW231122   2.148   2.257   7.390 -0.0508  0.3723 -0.8151
 6497SOL     OW31123   4.253   2.961  10.689 -0.2356 -0.4899 -0.2046
 6497SOL    HW131124   4.309   2.888  10.663  0.7386  0.3321 -0.4196
 6497SOL    HW231125   4.298   3.032  10.644 -1.9336  0.9327  0.3363
 6498SOL     OW31126   3.274   3.498   7.782  0.0116  0.0550  0.6780
 6498SOL    HW131127   3.346   3.495   7.845  1.3258  2.3328 -0.7477
 6498SOL    HW231128   3.312   3.508   7.695 -1.0595  0.5626  0.2633
 6499SOL     OW31129   4.716   0.313   3.238  0.0463 -0.1986  0.6041
 6499SOL    HW131130   0.069   0.283   3.233 -0.3111 -1.2734  0.4316
 6499SOL    HW231131   4.690   0.265   3.317 -1.5859  1.4592  1.0747
 6500SOL     OW31132   3.933   3.349   6.055  0.0430 -0.1843  0.4219
 6500SOL    HW131133   3.890   3.270   6.088  0.4797 -1.4558 -2.0990
 6500SOL    HW231134   4.024   3.323   6.042 -0.2308 -0.1468 -1.6260
 6501SOL     OW31135   3.544   1.888   7.007 -0.3725 -0.0694  0.5511
 6501SOL    HW131136   3.461   1.874   7.051 -1.2555  0.7177 -0.8522
 6501SOL    HW231137   3.517   1.964   6.956 -1.1496  0.9705  2.5488
 6502SOL     OW31138   0.786   3.766   8.083 -0.1261 -0.2146 -0.0040
 6502SOL    HW131139   0.861   3.707   8.074  0.9858  1.4792 -1.8242
 6502SOL    HW231140   0.824   3.839   8.133  0.4498 -1.1551  0.9387
 6503SOL     OW31141   1.153   0.206   8.527 -0.3625 -0.6271 -0.5445
 6503SOL    HW131142   1.118   0.195   8.616  1.3836 -0.9076  0.0974
 6503SOL    HW231143   1.065   0.226   8.494 -0.4135  0.8771  0.5333
 6504SOL     OW31144   3.185   0.175  17.489  0.0842  0.1193  0.0725
 6504SOL    HW131145   3.143   0.197  17.406 -1.5679 -1.0799  0.5779
 6504SOL    HW231146   3.277   0.159  17.464 -0.5494 -3.1275 -0.2518
 6505SOL     OW31147   0.101   2.473  11.783  1.0375  0.3600 -0.4923
 6505SOL    HW131148   0.029   2.513  11.735 -1.2271 -1.2989  1.4748
 6505SOL    HW231149   0.083   2.379  11.790  1.4416  0.2466 -1.0586
 6506SOL     OW31150   2.187   1.736   6.032 -0.1745 -0.4598  0.1528
 6506SOL    HW131151   2.164   1.670   5.966  0.0865  0.4377 -0.8376
 6506SOL    HW231152   2.139   1.816   6.011  2.5740  0.7883 -1.4379
 6507SOL     OW31153   0.111   3.228   2.944 -0.3112  0.1642 -0.1056
 6507SOL    HW131154   0.016   3.218   2.940 -0.5101  1.9017  0.4390
 6507SOL    HW231155   0.115   3.231   3.040 -0.3207 -4.9519  0.0560
 6508SOL     OW31156   2.216   4.323   7.842 -0.2685 -0.0796  0.1317
 6508SOL    HW131157   2.220   4.347   7.935 -0.2155 -1.3489  0.4522
 6508SOL    HW231158   2.222   4.405   7.793 -1.1200 -0.1366 -0.0677
 6509SOL     OW31159   0.079   3.318  16.395 -0.0425  0.6975  0.1321
 6509SOL    HW131160   0.122   3.307  16.480  0.0366  0.7967  0.1050
 6509SOL    HW231161   0.030   3.400  16.400  1.5689  1.8223 -2.7284
 6510SOL     OW31162   1.126   4.586   4.532  0.5531  0.1629 -0.3737
 6510SOL    HW131163   1.188   4.571   4.604  1.6670  1.0333 -1.1615
 6510SOL    HW231164   1.048   4.617   4.578  0.2499 -0.8021 -0.2316
 6511SOL     OW31165   1.493   2.855   6.509 -0.3801  0.8245  0.0937
 6511SOL    HW131166   1.434   2.784   6.535  3.3976 -1.1394  3.4008
 6511SOL    HW231167   1.462   2.922   6.570  0.6650  0.9045  0.5254
 6512SOL     OW31168   2.203   0.665   8.621 -0.0745  0.2028  0.4704
 6512SOL    HW131169   2.164   0.701   8.700  0.3353 -0.7406  1.1084
 6512SOL    HW231170   2.130   0.611   8.591  0.5349 -0.5733  0.3831
 6513SOL     OW31171   4.360   1.376  12.771  0.3605 -0.2535  0.1649
 6513SOL    HW131172   4.340   1.359  12.679 -0.3986 -0.8195  0.4321
 6513SOL    HW231173   4.373   1.471  12.775 -1.5292 -0.0829  2.2333
 6514SOL     OW31174   1.934   0.404   7.855 -0.4870  0.2800 -0.0596
 6514SOL    HW131175   1.932   0.309   7.844 -3.7495  0.6969 -2.7040
 6514SOL    HW231176   2.002   0.428   7.792  2.0170 -2.1627  1.6601
 6515SOL     OW31177   3.132   3.272   8.378  0.2485  0.8142  0.0221
 6515SOL    HW131178   3.056   3.242   8.329  0.3248 -0.0170  0.4126
 6515SOL    HW231179   3.116   3.356   8.335  2.8210  1.4817  0.3856
 6516SOL     OW31180   2.084   1.643   0.680 -0.0146 -0.7890  0.4615
 6516SOL    HW131181   2.105   1.639   0.586 -2.2826  1.7585 -0.1492
 6516SOL    HW231182   2.040   1.728   0.688  0.4032 -0.7205  1.9108
 6517SOL     OW31183   0.350   3.248   7.025  0.1427 -0.1535  0.1237
 6517SOL    HW131184   0.437   3.256   7.062 -0.1604  0.5669  0.6873
 6517SOL    HW231185   0.296   3.264   7.102 -0.0671 -1.3393  0.2166
 6518SOL     OW31186   1.529   0.889  14.328  0.1244  0.4072 -0.2355
 6518SOL    HW131187   1.478   0.930  14.258 -0.6550 -0.6359 -0.2756
 6518SOL    HW231188   1.613   0.853  14.299  0.1591  0.3603 -0.0764
 6519SOL     OW31189   3.819   1.734   8.791 -0.2437  0.1756 -0.1401
 6519SOL    HW131190   3.790   1.646   8.814  1.4251 -0.4803 -0.5146
 6519SOL    HW231191   3.737   1.774   8.765  0.0453  2.2251  2.0350
 6520SOL     OW31192   3.369   0.547   5.910  0.3995 -0.1462  0.0697
 6520SOL    HW131193   3.377   0.601   5.831  0.6927  0.1353  0.2916
 6520SOL    HW231194   3.281   0.567   5.942 -0.0892  0.7546 -1.8396
 6521SOL     OW31195   2.295   0.762   3.552 -0.1144  0.5703 -0.6392
 6521SOL    HW131196   2.258   0.697   3.612  1.2673 -1.6440 -2.1926
 6521SOL    HW231197   2.225   0.825   3.565  0.3180  1.0035 -0.4362
 6522SOL     OW31198   2.436   1.205   5.222 -0.5521  0.3638  0.4147
 6522SOL    HW131199   2.355   1.157   5.201  0.0696 -0.5323  0.0628
 6522SOL    HW231200   2.461   1.227   5.133 -1.5931  0.1550  0.0664
 6523SOL     OW31201   1.159   3.704   0.834  0.0289  0.0826  0.6675
 6523SOL    HW131202   1.189   3.675   0.748  1.2267 -0.5822  1.3091
 6523SOL    HW231203   1.170   3.799   0.827 -1.2576  0.2921  1.4166
 6524SOL     OW31204   2.782   0.926   4.423  0.2746  0.0881 -0.1912
 6524SOL    HW131205   2.821   1.004   4.461  2.1994 -1.3559  0.7839
 6524SOL    HW231206   2.692   0.955   4.409  0.2545 -0.5676 -1.4300
 6525SOL     OW31207   2.583   4.080  15.337  0.0673  0.0488 -0.1787
 6525SOL    HW131208   2.606   4.019  15.267  0.7050  0.6939 -0.5296
 6525SOL    HW231209   2.658   4.138  15.346  1.4659 -1.7090 -0.3473
 6526SOL     OW31210   3.422   1.377   4.843 -0.0708  0.2271 -0.5736
 6526SOL    HW131211   3.353   1.312   4.854  0.3036  0.1713  1.4065
 6526SOL    HW231212   3.398   1.425   4.922  1.2709  0.7517 -0.4943
 6527SOL     OW31213   2.249   0.929   4.807 -0.8081  0.0411 -0.6369
 6527SOL    HW131214   2.182   0.947   4.873  0.8143  1.9864  0.4767
 6527SOL    HW231215   2.193   0.897   4.736 -0.8935 -0.4868 -0.3355
 6528SOL     OW31216   0.945   2.620  15.158  0.3830  0.3404  0.1278
 6528SOL    HW131217   0.905   2.691  15.208 -2.0222 -0.1601 -1.0443
 6528SOL    HW231218   1.034   2.632  15.189  1.4007 -1.5465 -2.0234
 6529SOL     OW31219   0.451   2.038   5.546  0.3855  0.4886 -0.5430
 6529SOL    HW131220   0.383   2.004   5.488 -1.4193  0.1105  1.8205
 6529SOL    HW231221   0.447   1.967   5.610 -2.3360  1.6876  0.6173
 6530SOL     OW31222   2.141   2.990   4.145  0.1271 -0.2112 -0.1443
 6530SOL    HW131223   2.089   3.007   4.067 -1.8502  0.4437  1.3107
 6530SOL    HW231224   2.150   3.076   4.187 -1.1971  0.1324 -0.5820
 6531SOL     OW31225   0.262   3.112   7.941 -0.6529 -0.1980 -0.0321
 6531SOL    HW131226   0.206   3.187   7.961 -2.0730 -1.5139  0.8991
 6531SOL    HW231227   0.346   3.130   7.985 -0.5694  1.3624 -0.8257
 6532SOL     OW31228   2.777   2.583   7.492  0.5139 -0.5429 -0.4205
 6532SOL    HW131229   2.817   2.640   7.557  0.0086  0.1888 -0.7455
 6532SOL    HW231230   2.704   2.639   7.465  0.1731 -1.8042 -2.1897
 6533SOL     OW31231   0.317   1.313   2.401 -0.1470  0.1168 -0.1654
 6533SOL    HW131232   0.227   1.339   2.417 -0.7085 -1.4351 -0.8335
 6533SOL    HW231233   0.307   1.228   2.357  0.1040  0.4696 -0.9085
 6534SOL     OW31234   0.999   4.696  15.700  0.3670 -0.0571  0.3337
 6534SOL    HW131235   1.078   4.727  15.655  0.8684 -1.1787  0.4467
 6534SOL    HW231236   1.005   0.017  15.775 -0.5666  3.5333 -2.3480
 6535SOL     OW31237   4.612   3.938  10.492 -0.0889  0.2419  0.1893
 6535SOL    HW131238   4.597   4.015  10.438  0.4389 -0.7734 -1.4096
 6535SOL    HW231239   4.547   3.879  10.455  0.0174  0.1673  0.1195
 6536SOL     OW31240   1.505   0.218  11.344  0.8511  0.1554 -0.7753
 6536SOL    HW131241   1.549   0.139  11.313  1.9971  0.0078  1.2410
 6536SOL    HW231242   1.521   0.270  11.265  2.1399 -0.8204 -1.1599
 6537SOL     OW31243   4.632   3.572  11.624 -0.5804 -0.0566 -0.3153
 6537SOL    HW131244   4.605   3.586  11.715  0.7009  1.7101 -0.2011
 6537SOL    HW231245   4.692   3.499  11.641  1.8580  2.0597  0.2660
 6538SOL     OW31246   3.015   4.191  16.198 -0.2442  0.4105  0.1998
 6538SOL    HW131247   3.014   4.227  16.286 -0.4489  2.5525 -0.6740
 6538SOL    HW231248   3.074   4.255  16.158  0.9939 -0.0666  1.2743
 6539SOL     OW31249   4.532   2.245   4.570  0.2295 -0.4087  0.5226
 6539SOL    HW131250   4.464   2.234   4.504  0.6812 -0.2383  0.0321
 6539SOL    HW231251   4.479   2.245   4.650 -1.0920  3.7057 -0.3763
 6540SOL     OW31252   2.136   0.943  17.727 -0.3054  0.5907 -0.7910
 6540SOL    HW131253   2.193   0.967   0.053 -0.5237  0.3118 -0.5353
 6540SOL    HW231254   2.192   0.964  17.652 -1.8973  0.9006 -1.8953
 6541SOL     OW31255   1.104   1.526  12.543  0.2873 -0.4438 -0.5303
 6541SOL    HW131256   1.101   1.487  12.631 -0.7045  2.3709  0.7050
 6541SOL    HW231257   1.045   1.468  12.495 -1.6967 -1.5233  3.1701
 6542SOL     OW31258   3.538   1.811   5.695 -0.7329  0.2829 -0.0887
 6542SOL    HW131259   3.613   1.842   5.746 -1.1052  0.4440  0.3681
 6542SOL    HW231260   3.545   1.716   5.685  1.1676  0.6444 -2.1113
 6543SOL     OW31261   0.486   2.620   6.252  0.0250  0.1753 -0.4523
 6543SOL    HW131262   0.502   2.530   6.225  1.4469  0.9367 -2.1404
 6543SOL    HW231263   0.497   2.672   6.173  0.2529  0.4672 -0.2322
 6544SOL     OW31264   1.458   0.008   3.591 -0.1482 -0.2645 -0.1528
 6544SOL    HW131265   1.419   0.072   3.530  0.2907 -0.6665 -0.8556
 6544SOL    HW231266   1.536   0.060   3.613 -1.3453  1.7870 -0.7589
 6545SOL     OW31267   1.970   3.278   5.701 -0.7059  0.1526 -0.3811
 6545SOL    HW131268   1.958   3.237   5.615 -0.8841 -0.2224 -0.1728
 6545SOL    HW231269   2.007   3.365   5.685  2.4101 -0.8165  1.4619
 6546SOL     OW31270   0.767   3.122   9.079  0.1059  0.2941  0.4301
 6546SOL    HW131271   0.748   3.177   9.003 -0.0905  0.3559  0.5231
 6546SOL    HW231272   0.741   3.195   9.137  0.7518 -0.2448  1.3937
 6547SOL     OW31273   2.543   2.609   5.648  0.4785 -0.0037 -0.3292
 6547SOL    HW131274   2.552   2.602   5.553  1.2035  1.5106 -0.3778
 6547SOL    HW231275   2.544   2.515   5.666  0.5532  0.3258  1.4143
 6548SOL     OW31276   0.373   3.588   7.189  0.2169  0.0548 -0.3952
 6548SOL    HW131277   0.360   3.562   7.280  0.7792  2.0073  0.2426
 6548SOL    HW231278   0.283   3.596   7.160 -0.5644  1.1777  2.3596
 6549SOL     OW31279   0.138   0.936   5.176 -0.1608 -0.4053  0.4044
 6549SOL    HW131280   0.106   0.887   5.101  2.6266  1.9042 -2.2446
 6549SOL    HW231281   0.057   0.964   5.219 -0.0602 -0.2866  0.5173
 6550SOL     OW31282   2.763   4.493   0.361  0.3458  0.0737 -0.1484
 6550SOL    HW131283   2.678   4.486   0.317 -0.6602 -1.3300  2.0332
 6550SOL    HW231284   2.797   4.578   0.333 -0.5513  0.2049 -0.8387
 6551SOL     OW31285   3.959   2.789   8.841  0.4593  0.6424 -0.3141
 6551SOL    HW131286   3.951   2.875   8.799 -0.3471  0.7174 -0.0050
 6551SOL    HW231287   3.954   2.736   8.761  0.1441  2.2493 -1.3576
 6552SOL     OW31288   2.013   3.642   1.864  0.4234 -0.3882  0.1810
 6552SOL    HW131289   2.095   3.676   1.902  0.3735  0.2664 -0.2864
 6552SOL    HW231290   2.041   3.617   1.776  0.0240  0.2366 -0.1243
 6553SOL     OW31291   2.379   4.637  17.187 -0.3641 -0.1641  0.5386
 6553SOL    HW131292   2.284   4.642  17.197 -0.5842 -0.0772 -1.6885
 6553SOL    HW231293   2.392   4.615  17.095 -1.1826  0.3040  0.3123
 6554SOL     OW31294   1.619   0.362   9.476 -0.0300 -0.5046 -0.2309
 6554SOL    HW131295   1.635   0.368   9.570  0.7519 -1.1076 -0.3265
 6554SOL    HW231296   1.534   0.317   9.469  0.0640 -0.6244 -0.5711
 6555SOL     OW31297   0.107   0.400   7.014  0.0651 -0.3014  0.3813
 6555SOL    HW131298   0.150   0.460   6.953  0.0211  0.0836  0.7265
 6555SOL    HW231299   0.181   0.352   7.050  0.2103 -0.7983 -0.5903
 6556SOL     OW31300   2.634   1.380   7.412  0.2901  0.4596 -0.2223
 6556SOL    HW131301   2.655   1.473   7.423  0.8811  0.1151  1.4563
 6556SOL    HW231302   2.671   1.375   7.324  0.4896  0.5385 -0.1430
 6557SOL     OW31303   3.936   0.891   0.738 -0.3845 -0.1382  0.3430
 6557SOL    HW131304   3.905   0.826   0.800 -0.1221  0.0866  0.7151
 6557SOL    HW231305   3.857   0.944   0.730 -0.6045 -0.0856  3.1118
 6558SOL     OW31306   1.453   4.684   0.896  1.0398  0.1661  0.2794
 6558SOL    HW131307   1.514   4.665   0.967  3.3229  0.6104 -1.5610
 6558SOL    HW231308   1.465   0.041   0.882 -0.7094 -0.0881 -2.8491
 6559SOL     OW31309   0.299   0.708   6.500 -0.1707 -0.0710 -0.3698
 6559SOL    HW131310   0.368   0.661   6.453  0.6925  1.3735 -0.5541
 6559SOL    HW231311   0.235   0.639   6.516  1.8088 -1.3425  2.1590
 6560SOL     OW31312   1.575   2.812   8.767 -0.2464 -0.0953 -0.3988
 6560SOL    HW131313   1.566   2.792   8.674 -2.5304 -0.3873 -0.1065
 6560SOL    HW231314   1.519   2.745   8.805 -0.0024  0.7642  1.5013
 6561SOL     OW31315   2.914   4.424  15.456 -0.8146  0.4053 -0.1255
 6561SOL    HW131316   2.901   4.477  15.378  0.8988  3.0854  1.4306
 6561SOL    HW231317   2.908   4.338  15.413 -0.7769 -0.6655  2.0296
 6562SOL     OW31318   3.479   0.818   8.358 -0.2251  0.6375 -0.0819
 6562SOL    HW131319   3.491   0.899   8.307 -0.0539  0.6890  0.0397
 6562SOL    HW231320   3.393   0.828   8.399  0.0606  0.1419  0.6502
 6563SOL     OW31321   3.371   1.967   4.919  0.3628  0.4764  0.4516
 6563SOL    HW131322   3.461   1.999   4.931  0.3713  1.7432 -3.1650
 6563SOL    HW231323   3.321   2.047   4.936 -0.9696 -0.2358 -0.0710
 6564SOL     OW31324   0.596   0.875   2.609  0.3030 -0.3664  0.5136
 6564SOL    HW131325   0.609   0.951   2.666 -0.3536 -0.1733  0.4097
 6564SOL    HW231326   0.680   0.831   2.624  0.8886  0.4651 -0.3793
 6565SOL     OW31327   0.860   3.328  16.149  0.7029 -0.9382  0.5231
 6565SOL    HW131328   0.931   3.320  16.086 -0.5316  1.7646 -1.1816
 6565SOL    HW231329   0.830   3.238  16.135  0.1415 -0.9164  1.5384
 6566SOL     OW31330   3.251   4.110   3.858  0.2225  0.1393  0.2165
 6566SOL    HW131331   3.262   4.174   3.928 -0.1944 -2.0825  2.3228
 6566SOL    HW231332   3.232   4.028   3.904  0.0333 -0.9361 -1.7911
 6567SOL     OW31333   4.153   4.270   7.427 -0.1364 -0.4154  0.4209
 6567SOL    HW131334   4.112   4.299   7.346  0.8873  0.7887  0.3296
 6567SOL    HW231335   4.096   4.312   7.492 -0.2026  0.7725 -0.4246
 6568SOL     OW31336   4.329   3.985   9.262  0.0692  0.1116 -0.0788
 6568SOL    HW131337   4.310   3.907   9.211 -1.7545  1.0430 -0.8364
 6568SOL    HW231338   4.335   3.949   9.350  1.6766 -0.5841 -0.4835
 6569SOL     OW31339   1.341   2.064   4.823 -0.1742  0.7082 -0.3655
 6569SOL    HW131340   1.390   2.043   4.744  1.3027 -0.6184  0.9281
 6569SOL    HW231341   1.406   2.089   4.888 -0.1963 -0.0385 -0.0563
 6570SOL     OW31342   3.775   1.849   3.002  0.2287  0.6960 -0.5270
 6570SOL    HW131343   3.731   1.784   2.947  0.8363  0.5991 -0.9043
 6570SOL    HW231344   3.864   1.828   2.975 -0.0192 -0.8735 -0.0886
 6571SOL     OW31345   2.033   3.600   8.719 -0.0446 -0.1892  0.0624
 6571SOL    HW131346   2.047   3.523   8.662  1.8292 -0.7359  1.2648
 6571SOL    HW231347   2.083   3.662   8.666  0.0948 -0.1033  0.2948
 6572SOL     OW31348   3.999   3.613  10.126  0.2621  0.7730 -0.7514
 6572SOL    HW131349   3.991   3.596  10.220  2.0072  1.2619 -0.5229
 6572SOL    HW231350   3.918   3.661  10.107 -2.0883 -2.8209  0.3132
 6573SOL     OW31351   0.009   1.743   5.959  0.5448  0.0605  0.5330
 6573SOL    HW131352   0.046   1.767   6.044 -0.5690  3.5078  0.0266
 6573SOL    HW231353   0.034   1.821   5.909 -0.7167  1.0806  1.4823
 6574SOL     OW31354   0.469   1.014   4.541 -0.2559 -0.1394 -0.0666
 6574SOL    HW131355   0.411   1.087   4.563 -0.7336  0.4044 -3.1325
 6574SOL    HW231356   0.418   0.946   4.587 -1.2282  1.4665  1.2349
 6575SOL     OW31357   4.348   2.947   9.396  0.2875  0.2832  0.6205
 6575SOL    HW131358   4.265   2.993   9.382  0.0417  0.3654  2.4209
 6575SOL    HW231359   4.403   3.017   9.359  2.4549 -1.2614  0.9266
 6576SOL     OW31360   1.691   1.269   3.526  0.0724  0.2791  0.1704
 6576SOL    HW131361   1.664   1.344   3.473  1.3003  1.5055  1.2738
 6576SOL    HW231362   1.660   1.199   3.468 -1.6432  0.0145  1.4286
 6577SOL     OW31363   1.656   3.729   7.638 -0.0408  0.3026 -0.4765
 6577SOL    HW131364   1.736   3.678   7.623  0.6992  1.7892 -1.5946
 6577SOL    HW231365   1.689   3.789   7.705  1.2911 -1.2255  0.2408
 6578SOL     OW31366   4.315   0.387  12.006 -0.0481 -0.2280  0.3573
 6578SOL    HW131367   4.225   0.392  11.972 -0.2369 -4.8542  0.1808
 6578SOL    HW231368   4.326   0.481  12.018  0.4591 -0.2829  0.3214
 6579SOL     OW31369   3.224   0.830  16.405  0.3194  0.1418 -0.2799
 6579SOL    HW131370   3.144   0.855  16.358  1.1938 -1.1158 -2.4377
 6579SOL    HW231371   3.270   0.913  16.420 -2.0886  1.9049 -2.6187
 6580SOL     OW31372   0.444   0.406   4.653 -0.1868  0.1331  0.1459
 6580SOL    HW131373   0.462   0.498   4.634  0.8349  0.0986  0.9199
 6580SOL    HW231374   0.437   0.409   4.748 -0.9645 -2.6178  0.1660
 6581SOL     OW31375   1.472   2.401   2.942 -0.2841 -0.0943 -0.2250
 6581SOL    HW131376   1.426   2.330   2.987  0.4846 -0.4506  0.0116
 6581SOL    HW231377   1.398   2.461   2.948 -0.2631 -0.0427 -0.5014
 6582SOL     OW31378   1.079   4.480   4.024  0.1492  0.4703 -0.0245
 6582SOL    HW131379   1.109   4.472   4.115  0.5278 -0.0606 -0.1898
 6582SOL    HW231380   0.984   4.470   4.020  0.1927 -0.3637  0.9025
 6583SOL     OW31381   0.490   3.685   4.007 -0.2695  0.6001 -0.2889
 6583SOL    HW131382   0.556   3.754   4.013  0.4799 -0.3108  1.9014
 6583SOL    HW231383   0.450   3.690   4.094 -0.6126  1.0220 -0.4750
 6584SOL     OW31384   4.111   2.711   6.187 -0.1636  0.1510  0.4042
 6584SOL    HW131385   4.096   2.678   6.276 -1.1110 -1.0927 -0.2101
 6584SOL    HW231386   4.184   2.771   6.197  2.1842 -2.4621 -1.0334
 6585SOL     OW31387   4.629   1.470   7.233 -0.1071 -0.2529  0.2372
 6585SOL    HW131388   4.655   1.494   7.144  3.0310 -0.8754  0.9679
 6585SOL    HW231389   4.629   1.375   7.220  0.4256  0.2363 -3.3311
 6586SOL     OW31390   0.442   2.912   5.740 -0.1646  0.1666 -0.2076
 6586SOL    HW131391   0.535   2.897   5.723  0.1114 -0.0282  1.4415
 6586SOL    HW231392   0.432   3.003   5.713 -3.0942 -0.7257 -2.0938
 6587SOL     OW31393   3.223   0.042   8.770  0.4500 -0.2423 -0.4354
 6587SOL    HW131394   3.315   0.049   8.744  0.5565 -2.1465 -0.5905
 6587SOL    HW231395   3.244   0.048   8.863  0.6970 -0.9294 -0.4470
 6588SOL     OW31396   2.502   1.279  10.117 -1.0494 -0.0419  0.2176
 6588SOL    HW131397   2.575   1.335  10.091 -0.4760 -0.5412  0.7435
 6588SOL    HW231398   2.453   1.343  10.168 -0.2914 -1.4585  2.7329
 6589SOL     OW31399   1.383   2.658   9.551  0.0161  0.2630  0.6748
 6589SOL    HW131400   1.305   2.668   9.607 -0.9134  1.7895 -0.8828
 6589SOL    HW231401   1.334   2.654   9.469 -0.9149 -1.6247  1.3180
 6590SOL     OW31402   0.853   0.271  11.339 -0.1978  0.1334  0.4397
 6590SOL    HW131403   0.911   0.205  11.302  1.5828 -0.2408  3.9140
 6590SOL    HW231404   0.781   0.213  11.365  1.1270 -1.7491 -0.0494
 6591SOL     OW31405   0.755   3.485   2.904  0.2936  0.0525  0.4224
 6591SOL    HW131406   0.764   3.471   2.999  2.5314  0.0703  0.2215
 6591SOL    HW231407   0.829   3.432   2.874 -0.5346 -1.3366  0.8327
 6592SOL     OW31408   0.435   4.279   6.462  0.4039 -0.2396 -0.3080
 6592SOL    HW131409   0.369   4.325   6.408 -2.1320  0.3098  3.2537
 6592SOL    HW231410   0.407   4.188   6.458 -0.3431  0.0222 -1.4249
 6593SOL     OW31411   0.779   3.239   8.847  0.2932 -0.0124  0.2743
 6593SOL    HW131412   0.721   3.236   8.771  1.2616  2.3670 -0.5701
 6593SOL    HW231413   0.853   3.297   8.827  0.8544 -0.3306  1.4095
 6594SOL     OW31414   2.510   0.186  13.237 -0.8587 -0.3535  0.0125
 6594SOL    HW131415   2.552   0.235  13.307 -2.8021 -0.3844  1.2029
 6594SOL    HW231416   2.546   0.099  13.255  0.1258 -0.2748 -1.5473
 6595SOL     OW31417   1.512   1.952   9.442  0.0168 -0.1265 -0.7979
 6595SOL    HW131418   1.497   1.867   9.402 -1.4563 -0.9455  1.4687
 6595SOL    HW231419   1.468   2.017   9.387 -1.7473  0.6751  1.5235
 6596SOL     OW31420   4.292   3.316  17.449  0.1660  0.2529 -0.1990
 6596SOL    HW131421   4.237   3.298  17.373  0.1089 -0.5433  0.0366
 6596SOL    HW231422   4.329   3.400  17.422 -2.2441  0.6212 -2.3388
 6597SOL     OW31423   2.176   1.327  15.380  0.6871  0.0095 -0.1470
 6597SOL    HW131424   2.240   1.299  15.316  0.2796 -1.8745  0.2878
 6597SOL    HW231425   2.167   1.417  15.347  1.6065  0.4555  0.8197
 6598SOL     OW31426   1.485   4.441   8.209  0.1362  0.4205  0.2099
 6598SOL    HW131427   1.514   4.530   8.229  1.5983  0.5948 -2.7925
 6598SOL    HW231428   1.494   4.439   8.114 -0.9105  2.8159  0.0567
 6599SOL     OW31429   0.302   1.237   4.573  0.0119 -0.4804  0.1868
 6599SOL    HW131430   0.213   1.240   4.539 -0.2200  3.1931  1.1345
 6599SOL    HW231431   0.286   1.287   4.653 -2.8399 -0.7990 -0.2129
 6600SOL     OW31432   4.658   0.185   7.022 -0.1207  0.3766 -0.3143
 6600SOL    HW131433   4.713   0.263   7.023  1.3012 -0.6145 -0.7960
 6600SOL    HW231434   4.593   0.198   7.090  0.1649 -0.0230  0.0400
 6601SOL     OW31435   4.019   2.789   1.023  0.4552 -0.1467 -0.1111
 6601SOL    HW131436   4.062   2.846   0.961  2.2200 -1.5085 -0.1444
 6601SOL    HW231437   4.099   2.752   1.062  0.2853  0.0587  0.4370
 6602SOL     OW31438   0.108   4.164   6.537  0.6495  0.3803 -0.2596
 6602SOL    HW131439   0.192   4.136   6.502  1.8290  0.9278  2.1587
 6602SOL    HW231440   0.060   4.084   6.558  0.7179 -0.1176 -2.0216
 6603SOL     OW31441   4.494   2.734   6.157  0.2455  0.4516 -0.4499
 6603SOL    HW131442   4.553   2.745   6.082  0.2089 -0.5579 -0.6232
 6603SOL    HW231443   4.554   2.682   6.211  0.6695  0.4733 -0.8936
 6604SOL     OW31444   1.030   4.416  10.987 -0.5927  0.0504  0.8289
 6604SOL    HW131445   1.125   4.415  11.000 -0.5110 -2.3535  0.1701
 6604SOL    HW231446   1.020   4.332  10.940  3.0554 -0.6279  1.2978
 6605SOL     OW31447   4.175   4.089   1.524 -0.6395  0.2115  0.7403
 6605SOL    HW131448   4.171   4.031   1.448  1.9407 -0.2230  0.9571
 6605SOL    HW231449   4.204   4.021   1.586  1.5239  1.6522  1.2861
 6606SOL     OW31450   0.343   4.715  15.850  0.1151 -0.1179  0.3718
 6606SOL    HW131451   0.413   4.689  15.909 -0.0166 -0.0807  0.5433
 6606SOL    HW231452   0.272   4.665  15.890  0.0742 -0.7204 -0.4372
 6607SOL     OW31453   2.779   0.669   5.318  0.3419  0.3229 -0.0582
 6607SOL    HW131454   2.688   0.661   5.289  0.2363 -2.7149  1.0686
 6607SOL    HW231455   2.802   0.582   5.351  0.8531 -0.0843 -1.4752
 6608SOL     OW31456   0.779   3.564   0.322  0.7119 -0.5264 -0.2794
 6608SOL    HW131457   0.857   3.620   0.323 -1.7971  3.0117 -3.1923
 6608SOL    HW231458   0.792   3.532   0.233  0.5270 -1.1270 -0.0960
 6609SOL     OW31459   3.273   1.248   7.754 -0.9090  0.3526 -0.3221
 6609SOL    HW131460   3.319   1.246   7.670 -1.3349  0.9469 -0.5669
 6609SOL    HW231461   3.220   1.169   7.746 -0.5849  0.5277 -3.9723
 6610SOL     OW31462   3.405   4.333  16.755 -0.1319  0.1615 -0.1912
 6610SOL    HW131463   3.352   4.387  16.814  0.3213 -1.7389  1.9401
 6610SOL    HW231464   3.350   4.256  16.741  1.1360 -0.5742 -1.1302
 6611SOL     OW31465   1.817   2.726   1.350  0.0622 -0.4975 -0.2283
 6611SOL    HW131466   1.906   2.750   1.375 -0.4511 -1.3289  2.4181
 6611SOL    HW231467   1.770   2.809   1.350  0.2145 -0.4321 -4.1329
 6612SOL     OW31468   2.553   0.775   3.878 -0.2543 -0.1032  0.0209
 6612SOL    HW131469   2.613   0.788   3.804 -2.4154  2.6811 -1.2213
 6612SOL    HW231470   2.557   0.679   3.884 -1.2531 -0.0831  1.0394
 6613SOL     OW31471   4.333   1.484   5.182 -0.1937  0.1865 -1.1796
 6613SOL    HW131472   4.254   1.433   5.200  0.1936  0.9873  2.8295
 6613SOL    HW231473   4.397   1.427   5.224 -0.2142 -0.3175 -1.8325
 6614SOL     OW31474   4.712   1.321   6.892  0.1769 -0.0487 -0.0071
 6614SOL    HW131475   4.684   1.287   6.977  0.6421  0.5012  0.3622
 6614SOL    HW231476   0.010   1.402   6.929  2.9381 -1.3430  0.2009
 6615SOL     OW31477   0.679   2.471   4.005  0.7081  0.3035  0.4021
 6615SOL    HW131478   0.759   2.422   4.026  0.4007 -0.0204  0.8029
 6615SOL    HW231479   0.691   2.552   4.054  0.4441 -0.2192  1.3164
 6616SOL     OW31480   1.532   1.176   2.839  0.7390 -1.0251 -0.2629
 6616SOL    HW131481   1.509   1.085   2.856  1.2160 -1.1888 -0.5008
 6616SOL    HW231482   1.466   1.194   2.771  3.1946  1.1599 -2.0748
 6617SOL     OW31483   0.326   2.694   7.665  0.1713 -0.9597 -0.0696
 6617SOL    HW131484   0.397   2.636   7.691  0.9257  0.2228  0.4899
 6617SOL    HW231485   0.252   2.649   7.706  0.3347 -2.7469 -1.6971
 6618SOL     OW31486   4.059   0.922   0.184 -0.2681 -0.0439 -0.3686
 6618SOL    HW131487   4.113   0.898   0.109 -1.2579 -0.2814 -1.0135
 6618SOL    HW231488   4.036   0.841   0.229  0.2526  1.2502  2.2354
 6619SOL     OW31489   3.915   2.622  10.792 -0.3443  0.0695  0.3595
 6619SOL    HW131490   3.995   2.636  10.742 -0.9663 -0.9390 -0.9167
 6619SOL    HW231491   3.879   2.548  10.744 -0.1021 -1.5872  2.7426
 6620SOL     OW31492   2.278   1.638  13.467  0.0961  0.1059 -0.3677
 6620SOL    HW131493   2.259   1.717  13.416  0.7126  2.2351  2.7154
 6620SOL    HW231494   2.235   1.570  13.414 -0.3371  1.0901 -1.2621
 6621SOL     OW31495   0.386   3.291  14.435  0.1053 -0.3275  0.3108
 6621SOL    HW131496   0.349   3.373  14.403 -0.9650 -0.8786  0.1169
 6621SOL    HW231497   0.466   3.327  14.471  0.6754 -1.1748 -0.1099
 6622SOL     OW31498   1.861   0.241   2.461  0.0986 -0.6013  0.1405
 6622SOL    HW131499   1.955   0.257   2.472  0.2184  0.9251 -3.4013
 6622SOL    HW231500   1.852   0.194   2.378  0.7663 -0.7083  0.1312
 6623SOL     OW31501   1.637   4.451   3.714  0.2786 -0.6280 -0.1264
 6623SOL    HW131502   1.676   4.533   3.684  3.1265 -1.4030  1.4556
 6623SOL    HW231503   1.614   4.414   3.629 -0.1306 -2.0285  0.6076
 6624SOL     OW31504   1.575   3.606   2.610  0.6067  0.7300 -0.9416
 6624SOL    HW131505   1.501   3.665   2.626 -0.4373 -1.0147  0.5762
 6624SOL    HW231506   1.649   3.646   2.656  1.5209 -1.4328 -0.5618
 6625SOL     OW31507   2.205   3.621   8.476 -0.0963  1.0034  0.1972
 6625SOL    HW131508   2.234   3.616   8.385 -1.1450 -0.3816 -0.0627
 6625SOL    HW231509   2.285   3.646   8.522 -0.8598 -0.5847  2.4167
 6626SOL     OW31510   3.419   1.556   7.938 -0.6176  0.6537 -0.0880
 6626SOL    HW131511   3.467   1.599   7.867 -0.1108 -1.4328 -1.0141
 6626SOL    HW231512   3.340   1.542   7.884  0.0831  1.7187 -1.3957
 6627SOL     OW31513   1.854   0.569   6.006 -0.6729 -0.4395 -0.0614
 6627SOL    HW131514   1.935   0.538   6.046 -0.5472  1.5528  1.2100
 6627SOL    HW231515   1.858   0.529   5.919  1.6363  1.6067 -0.9335
 6628SOL     OW31516   2.795   3.000   2.958  0.6657 -0.0311  0.2693
 6628SOL    HW131517   2.802   2.919   3.009  0.9432  0.4060  0.9141
 6628SOL    HW231518   2.777   2.966   2.870  0.8102 -0.2188  0.3131
 6629SOL     OW31519   3.589   3.225  12.679 -0.0636  0.2585 -1.0079
 6629SOL    HW131520   3.638   3.162  12.628  2.0815 -0.9499  2.5356
 6629SOL    HW231521   3.653   3.291  12.706  0.9857 -1.0191 -0.4154
 6630SOL     OW31522   2.917   0.945   1.023 -0.6130  0.1120 -0.1629
 6630SOL    HW131523   2.873   1.009   0.967 -0.8253 -0.4825 -0.6693
 6630SOL    HW231524   3.008   0.941   0.994  0.6682  2.2022  3.4751
 6631SOL     OW31525   1.233   3.852   2.838 -0.2417 -0.3393  0.2370
 6631SOL    HW131526   1.247   3.939   2.800 -1.1611 -0.1909  0.2406
 6631SOL    HW231527   1.263   3.808   2.758 -2.9349 -0.0083 -0.9557
 6632SOL     OW31528   4.333   1.784  13.370  0.1563 -0.1214 -0.4129
 6632SOL    HW131529   4.298   1.869  13.394 -2.4454 -1.2922 -0.0433
 6632SOL    HW231530   4.254   1.729  13.365 -2.2383  3.1227  1.7528
 6633SOL     OW31531   3.435   1.047  15.408  0.1767  0.1269 -0.5402
 6633SOL    HW131532   3.346   1.075  15.386 -0.3015 -1.1594 -0.2045
 6633SOL    HW231533   3.488   1.108  15.356 -0.1066 -0.2352 -1.2589
 6634SOL     OW31534   0.757   0.435   7.595 -0.5141 -0.3147  0.3231
 6634SOL    HW131535   0.768   0.371   7.526  0.5130  1.2706 -0.9903
 6634SOL    HW231536   0.742   0.514   7.543 -1.7443 -0.8941 -0.1730
 6635SOL     OW31537   0.528   0.309   6.925  0.2095  0.1885  0.2806
 6635SOL    HW131538   0.622   0.303   6.907  0.3329 -3.2977  2.1437
 6635SOL    HW231539   0.499   0.384   6.872 -1.4214 -0.6892 -0.0631
 6636SOL     OW31540   3.106   0.556   1.643  0.8083  0.5018 -0.7693
 6636SOL    HW131541   3.081   0.554   1.736 -1.8180  1.0894 -1.4526
 6636SOL    HW231542   3.026   0.542   1.592  1.5467 -1.2394 -1.4070
 6637SOL     OW31543   3.901   3.476   5.804 -0.2241 -0.1619 -0.4415
 6637SOL    HW131544   3.944   3.399   5.842 -0.4157 -0.6968 -1.3063
 6637SOL    HW231545   3.963   3.545   5.826 -0.0703 -0.8022  1.1641
 6638SOL     OW31546   1.919   4.410   7.516 -0.0148  0.2862 -0.4146
 6638SOL    HW131547   1.942   4.387   7.606  0.5693 -0.0753 -0.6561
 6638SOL    HW231548   1.972   4.359   7.455 -0.2790 -0.9926  0.4341
 6639SOL     OW31549   1.043   0.417  15.421 -0.4998 -0.3759  0.1306
 6639SOL    HW131550   0.977   0.376  15.365 -0.3482 -0.4678  0.0200
 6639SOL    HW231551   1.022   0.506  15.393  0.7273  0.9338  3.4447
 6640SOL     OW31552   4.170   2.240  15.044 -0.2099 -0.3389 -0.1993
 6640SOL    HW131553   4.170   2.174  14.974  0.5520  0.3173 -0.8076
 6640SOL    HW231554   4.128   2.306  14.989 -2.0031 -0.1148  1.4342
 6641SOL     OW31555   4.337   2.790   6.552 -0.6865 -0.1684  0.0702
 6641SOL    HW131556   4.421   2.787   6.506 -0.0250  0.4063  1.2079
 6641SOL    HW231557   4.289   2.844   6.489 -0.6433 -0.0191  0.1643
 6642SOL     OW31558   1.018   0.356   0.626 -0.8851 -0.1801 -0.1056
 6642SOL    HW131559   1.109   0.385   0.634 -1.3302  1.0484  0.4954
 6642SOL    HW231560   1.024   0.306   0.545  0.2933 -0.8233  0.3755
 6643SOL     OW31561   0.653   0.158   5.905  0.2284 -0.1365  0.7826
 6643SOL    HW131562   0.586   0.121   5.847  1.3138  0.2325 -0.6852
 6643SOL    HW231563   0.714   0.086   5.918  0.8136 -0.2042 -2.2923
 6644SOL     OW31564   4.437   1.272   6.800  0.1662 -0.1885  0.2371
 6644SOL    HW131565   4.443   1.365   6.817  0.6586 -0.0664 -0.5803
 6644SOL    HW231566   4.529   1.247   6.812  1.4349  4.5246  0.0347
 6645SOL     OW31567   1.051   0.823   4.180 -0.3965  0.5834 -0.1196
 6645SOL    HW131568   0.973   0.767   4.184  0.2076 -0.3417 -1.1872
 6645SOL    HW231569   1.091   0.818   4.266  1.3712  0.6619 -0.9395
 6646SOL     OW31570   4.430   3.125  10.603 -0.1732 -0.3217 -0.3661
 6646SOL    HW131571   4.519   3.093  10.592 -0.1052 -0.3034  0.1587
 6646SOL    HW231572   4.430   3.218  10.580  1.0472 -0.0862  0.6048
 6647SOL     OW31573   0.214   0.271   8.350 -0.0107 -0.3520  0.3273
 6647SOL    HW131574   0.135   0.225   8.379 -0.4211  0.1760  0.0579
 6647SOL    HW231575   0.273   0.276   8.425 -1.3999 -2.1090  1.5404
 6648SOL     OW31576   0.845   1.139   6.895 -0.0954 -0.1652 -0.1593
 6648SOL    HW131577   0.827   1.227   6.863 -0.4585  0.7813  2.6497
 6648SOL    HW231578   0.795   1.141   6.977 -0.2663 -0.8008 -0.2482
 6649SOL     OW31579   4.634   3.306   0.306 -0.1613 -0.2664  0.2048
 6649SOL    HW131580   4.623   3.249   0.382 -0.1694 -1.8360 -0.9481
 6649SOL    HW231581   4.571   3.272   0.242 -0.6030  1.2478 -0.1413
 6650SOL     OW31582   0.804   4.657   2.721  0.6280  0.3331 -0.2545
 6650SOL    HW131583   0.755   4.577   2.705 -1.9017  2.0310 -1.0865
 6650SOL    HW231584   0.822   4.653   2.815  1.7627  0.2004 -0.4707
 6651SOL     OW31585   2.022   1.086   7.522 -0.7594 -0.3355 -0.1086
 6651SOL    HW131586   1.944   1.131   7.491 -2.3407 -1.2890  2.4658
 6651SOL    HW231587   1.981   1.050   7.601 -0.5020 -2.5555 -0.9770
 6652SOL     OW31588   1.320   3.878   7.317  0.3682 -0.2460 -0.2504
 6652SOL    HW131589   1.228   3.861   7.301  0.4764 -1.3225  0.2337
 6652SOL    HW231590   1.358   3.906   7.234 -2.2405 -1.7906 -1.9352
 6653SOL     OW31591   3.642   3.748   5.708 -0.0341 -0.2627  0.1858
 6653SOL    HW131592   3.666   3.691   5.781 -1.8224  1.0605  1.8126
 6653SOL    HW231593   3.623   3.832   5.750  0.0500 -0.5958  0.8732
 6654SOL     OW31594   3.366   3.601  10.913  0.4066  0.4327 -0.1771
 6654SOL    HW131595   3.318   3.538  10.860  0.6877 -0.1123  0.2121
 6654SOL    HW231596   3.452   3.566  10.892  1.8077  2.6686  1.9056
 6655SOL     OW31597   4.034   2.199   9.979  0.1837  0.4134 -1.0453
 6655SOL    HW131598   3.947   2.239   9.980 -0.3080 -0.6270 -1.6308
 6655SOL    HW231599   4.019   2.135   9.909  0.8842 -0.0624 -0.7634
 6656SOL     OW31600   0.644   1.736   9.351  0.0599 -0.1136 -0.1185
 6656SOL    HW131601   0.558   1.713   9.315  0.4376 -1.7792  0.0404
 6656SOL    HW231602   0.633   1.726   9.446 -1.0849  0.9678 -0.1359
 6657SOL     OW31603   3.549   1.545   5.649  0.0085  0.2339 -0.0174
 6657SOL    HW131604   3.470   1.504   5.683 -0.3908  0.5041 -0.6290
 6657SOL    HW231605   3.620   1.487   5.676 -0.7410 -1.7349 -2.2971
 6658SOL     OW31606   4.377   1.113   5.063  0.0500 -0.5810 -0.1897
 6658SOL    HW131607   4.472   1.122   5.063 -0.1990  2.0991 -2.2377
 6658SOL    HW231608   4.365   1.150   5.151 -0.0507 -1.7266  0.2705
 6659SOL     OW31609   2.997   3.323   3.775  0.3438  0.0296 -0.8441
 6659SOL    HW131610   2.905   3.329   3.799  0.3535  3.2635 -1.6549
 6659SOL    HW231611   2.987   3.348   3.683  0.7768 -0.0172 -0.9034
 6660SOL     OW31612   0.612   0.358   3.714 -0.5055 -0.2911 -0.1932
 6660SOL    HW131613   0.533   0.314   3.681  1.3175 -1.8739 -2.3839
 6660SOL    HW231614   0.579   0.448   3.712  1.7894  0.5707  0.8930
 6661SOL     OW31615   0.987   1.340   9.121 -1.0482  0.2450  0.1711
 6661SOL    HW131616   1.006   1.249   9.141  4.0247  0.9804 -1.2242
 6661SOL    HW231617   1.063   1.376   9.075 -0.3805 -2.3486 -0.7446
 6662SOL     OW31618   4.595   4.494   7.402 -0.0586  0.3442 -0.3750
 6662SOL    HW131619   4.575   4.490   7.308 -3.1750 -1.3510  0.3609
 6662SOL    HW231620   4.520   4.546   7.431 -1.2693 -1.9802  0.6278
 6663SOL     OW31621   3.452   0.759   4.522 -0.2728  0.6279  0.3280
 6663SOL    HW131622   3.454   0.692   4.590 -1.0901  0.2029 -0.0688
 6663SOL    HW231623   3.543   0.784   4.505  0.5559 -0.8166  2.7928
 6664SOL     OW31624   2.353   3.674   7.557 -0.4337  0.8848 -0.3886
 6664SOL    HW131625   2.419   3.692   7.624  0.2997  1.3034 -1.2273
 6664SOL    HW231626   2.307   3.599   7.596 -0.6343  1.2745  0.1164
 6665SOL     OW31627   0.243   3.477   7.511  0.7462 -0.7513  0.4465
 6665SOL    HW131628   0.154   3.509   7.528 -0.1178 -2.3504 -1.0225
 6665SOL    HW231629   0.295   3.554   7.534  0.8207 -0.1698 -1.6276
 6666SOL     OW31630   1.334   3.089   3.401  0.5979 -0.6212 -0.7578
 6666SOL    HW131631   1.396   3.144   3.448 -2.4015  1.2464  1.0242
 6666SOL    HW231632   1.250   3.135   3.402  0.3134 -1.0961 -3.0084
 6667SOL     OW31633   2.065   3.048   7.817  0.0026  0.1485  0.0587
 6667SOL    HW131634   2.134   2.985   7.837  0.5288  0.8283  0.3626
 6667SOL    HW231635   1.999   2.982   7.798  1.3299 -1.0723 -0.2757
 6668SOL     OW31636   4.706   0.486   5.767  0.0523  0.1629  0.0995
 6668SOL    HW131637   0.001   0.463   5.680  1.1615  2.3877 -0.0983
 6668SOL    HW231638   4.689   0.400   5.805 -0.6831 -0.3528 -1.3819
 6669SOL     OW31639   3.548   2.457   8.628 -0.0378  0.3816  0.6326
 6669SOL    HW131640   3.514   2.380   8.672  2.7339 -0.2076  1.7471
 6669SOL    HW231641   3.493   2.460   8.549  1.2882 -1.5505 -0.3633
 6670SOL     OW31642   0.297   0.452   0.125 -0.1492  0.0060 -0.7057
 6670SOL    HW131643   0.387   0.463   0.156  0.6982  1.1404 -3.6519
 6670SOL    HW231644   0.292   0.543   0.098 -1.3339  0.4774  1.0969
 6671SOL     OW31645   1.472   2.079   3.547  0.4864 -0.4206  0.0687
 6671SOL    HW131646   1.525   2.117   3.477 -1.9486  0.5876 -1.1917
 6671SOL    HW231647   1.434   2.003   3.503  1.4730 -1.2942  0.7032
 6672SOL     OW31648   0.822   0.651  11.020  0.1940 -0.0050  0.2190
 6672SOL    HW131649   0.904   0.697  11.004  0.5868 -1.6387 -2.4707
 6672SOL    HW231650   0.833   0.610  11.106 -0.2541 -0.0503  0.2523
 6673SOL     OW31651   2.354   1.470   8.071  0.0155 -0.3237 -0.5650
 6673SOL    HW131652   2.424   1.490   8.133 -1.7483  0.1041  1.2542
 6673SOL    HW231653   2.345   1.375   8.061 -0.4306 -0.3564  0.1947
 6674SOL     OW31654   0.529   1.126   1.925  0.6791 -0.2893  0.5311
 6674SOL    HW131655   0.623   1.107   1.932  0.5720 -1.1001 -0.1792
 6674SOL    HW231656   0.528   1.193   1.857  3.4900 -1.7570 -0.9639
 6675SOL     OW31657   3.686   0.376   8.997  0.5725  0.2688 -0.4655
 6675SOL    HW131658   3.631   0.300   9.016  2.0219 -0.6997 -0.2104
 6675SOL    HW231659   3.634   0.448   9.032  0.6441  0.8382 -1.5301
 6676SOL     OW31660   3.703   1.342   8.116 -0.0647  0.4151 -0.2583
 6676SOL    HW131661   3.738   1.257   8.143 -2.1998 -0.5751 -0.5834
 6676SOL    HW231662   3.651   1.316   8.040  1.3794 -0.6182 -0.8862
 6677SOL     OW31663   2.146   0.910   7.379  0.2345 -0.3461  0.4311
 6677SOL    HW131664   2.103   0.981   7.427  0.8189 -0.3813  1.0011
 6677SOL    HW231665   2.070   0.899   7.322 -1.9750  1.6774  2.9444
 6678SOL     OW31666   3.283   3.538  15.262 -0.5482  0.1514 -0.6216
 6678SOL    HW131667   3.283   3.507  15.171  1.8883  2.8748 -1.5545
 6678SOL    HW231668   3.205   3.497  15.300 -1.0279  2.1760  0.6020
 6679SOL     OW31669   1.954   3.797   9.649 -0.2771 -0.2296  0.0011
 6679SOL    HW131670   1.936   3.708   9.682  2.5159 -0.7288  0.1564
 6679SOL    HW231671   1.908   3.843   9.719 -0.0249 -0.2210  0.1620
 6680SOL     OW31672   3.510   3.337   4.954  0.6133  0.0490  0.2704
 6680SOL    HW131673   3.460   3.418   4.964 -0.3677 -0.3666 -1.2373
 6680SOL    HW231674   3.580   3.356   5.016 -0.5798  1.4692  1.1705
 6681SOL     OW31675   3.384   2.220   8.667 -0.5284 -0.5384  0.7826
 6681SOL    HW131676   3.324   2.224   8.593  2.1258  0.9071 -1.2401
 6681SOL    HW231677   3.315   2.190   8.726 -1.7283  1.7115  0.5353
 6682SOL     OW31678   4.527   3.654  11.918 -0.1280 -0.0863 -0.0175
 6682SOL    HW131679   4.524   3.749  11.918 -1.3603 -0.1239 -1.7133
 6682SOL    HW231680   4.484   3.636  12.002 -0.6200 -0.4168 -0.3372
 6683SOL     OW31681   4.143   1.218  13.343 -0.0562  0.4270  0.3321
 6683SOL    HW131682   4.114   1.198  13.254  0.5090 -0.5257  0.3655
 6683SOL    HW231683   4.071   1.272  13.375 -1.1000 -0.5991 -0.2722
 6684SOL     OW31684   3.722   1.229   9.048  0.3918 -0.5312  0.2935
 6684SOL    HW131685   3.746   1.320   9.067  0.6938 -0.0571 -2.3559
 6684SOL    HW231686   3.807   1.190   9.029  1.4695  1.5281  0.8320
 6685SOL     OW31687   2.424   3.905   4.532 -0.0252 -0.0657 -0.4280
 6685SOL    HW131688   2.434   3.956   4.451  1.4524  1.2081  0.5730
 6685SOL    HW231689   2.421   3.971   4.601  1.5778 -0.4628  0.0264
 6686SOL     OW31690   0.757   3.911   6.225 -0.2099 -0.0128 -0.1285
 6686SOL    HW131691   0.823   3.979   6.235  1.7202 -1.7423 -0.9992
 6686SOL    HW231692   0.735   3.926   6.133  0.4333  2.3633  0.1156
 6687SOL     OW31693   2.354   2.117   1.308 -0.3178  0.0594 -0.3449
 6687SOL    HW131694   2.389   2.121   1.397 -1.1091 -2.6449  0.0878
 6687SOL    HW231695   2.259   2.110   1.316 -0.2588  1.8858  1.8011
 6688SOL     OW31696   4.625   3.564  10.400 -0.1971 -0.2750  0.7418
 6688SOL    HW131697   4.632   3.606  10.485  1.7183  0.0841  0.4130
 6688SOL    HW231698   4.583   3.480  10.418 -2.9696  0.8125 -0.5819
 6689SOL     OW31699   1.856   1.342   8.687  0.0510 -0.9588 -0.0416
 6689SOL    HW131700   1.804   1.418   8.661 -1.0935 -1.2236  1.4821
 6689SOL    HW231701   1.907   1.317   8.610  3.0809 -0.5476  1.8210
 6690SOL     OW31702   1.483   2.099   7.897 -0.5251 -0.2101  1.0156
 6690SOL    HW131703   1.424   2.167   7.930 -0.2851  1.0384 -1.1318
 6690SOL    HW231704   1.551   2.089   7.964  0.5430  1.5528  0.1919
 6691SOL     OW31705   2.426   0.270  17.459 -0.0360 -0.2554  0.5780
 6691SOL    HW131706   2.336   0.246  17.480 -0.9397  0.2241 -2.8386
 6691SOL    HW231707   2.463   0.187  17.429 -0.8275  1.0135 -3.8195
 6692SOL     OW31708   3.060   4.642   1.652 -0.4761  0.4150 -0.3508
 6692SOL    HW131709   2.996   4.701   1.612  0.3650  0.2708 -1.9058
 6692SOL    HW231710   3.021   4.629   1.739  0.1281  1.0426  0.0204
 6693SOL     OW31711   1.182   0.834  14.382 -0.1772 -0.2385 -0.1951
 6693SOL    HW131712   1.161   0.796  14.468  1.8687 -0.7923  0.0558
 6693SOL    HW231713   1.251   0.771  14.364  0.2238 -0.0725  0.7407
 6694SOL     OW31714   2.104   0.910   8.366 -0.6073  0.6371  0.3028
 6694SOL    HW131715   2.158   0.855   8.310 -0.5378  0.5704  0.4363
 6694SOL    HW231716   2.166   0.931   8.436 -0.8676  2.4745 -0.0265
 6695SOL     OW31717   4.455   1.613   4.976  0.2776 -0.1170 -0.0963
 6695SOL    HW131718   4.375   1.601   4.924 -0.5118 -1.6138  1.4344
 6695SOL    HW231719   4.436   1.579   5.064  0.2942 -0.5946 -0.2817
 6696SOL     OW31720   0.222   0.482   9.029 -0.1191 -0.0917  0.0750
 6696SOL    HW131721   0.195   0.430   8.954  1.3301 -1.2595  0.3632
 6696SOL    HW231722   0.273   0.556   8.996  0.8630 -0.5015  0.6670
 6697SOL     OW31723   3.997   2.067   3.465  0.2064  0.2283 -0.4050
 6697SOL    HW131724   3.968   2.003   3.400  0.3444 -1.1263  0.8663
 6697SOL    HW231725   4.068   2.023   3.512 -1.2502  0.4529  2.0502
 6698SOL     OW31726   1.779   2.162  15.721  0.2082 -0.0494  0.2234
 6698SOL    HW131727   1.831   2.084  15.742  0.0805 -0.6712 -1.7460
 6698SOL    HW231728   1.838   2.226  15.761  1.2367 -0.8008 -0.0943
 6699SOL     OW31729   2.388   2.890   6.529 -0.5407  0.7769 -0.1970
 6699SOL    HW131730   2.405   2.867   6.438 -0.8041  1.0168 -0.3058
 6699SOL    HW231731   2.294   2.873   6.524 -0.0610 -1.9356  0.1795
 6700SOL     OW31732   4.631   2.013  17.039  0.0839 -0.4071 -0.1861
 6700SOL    HW131733   4.621   1.949  16.968 -0.9646 -1.4072  0.8846
 6700SOL    HW231734   4.599   1.961  17.112 -2.3220 -0.1702 -1.0801
 6701SOL     OW31735   3.252   0.809   7.680 -0.4107 -0.5344  0.0092
 6701SOL    HW131736   3.228   0.787   7.770  1.3249 -3.0476 -0.1448
 6701SOL    HW231737   3.285   0.723   7.654 -0.7001 -1.2549  2.0294
 6702SOL     OW31738   1.450   4.462  12.312  0.1751 -0.2422  0.7961
 6702SOL    HW131739   1.451   4.423  12.225  0.4975  0.1981  0.6061
 6702SOL    HW231740   1.431   4.552  12.287 -0.5771 -0.3045  1.1268
 6703SOL     OW31741   1.143   0.433   0.257 -0.5675 -0.0125 -0.3307
 6703SOL    HW131742   1.219   0.379   0.234 -1.4785 -1.5627  0.3614
 6703SOL    HW231743   1.161   0.480   0.338  2.0916  0.9003 -1.4531
 6704SOL     OW31744   3.382   2.313  11.289 -0.2595 -0.2575  0.2684
 6704SOL    HW131745   3.431   2.289  11.367 -2.8126 -0.9902  1.6275
 6704SOL    HW231746   3.312   2.248  11.288  0.2414 -0.8221  1.9935
 6705SOL     OW31747   0.920   4.603  16.538 -0.6925  0.1723  0.1195
 6705SOL    HW131748   0.993   4.664  16.530  1.4210 -2.3019  0.5304
 6705SOL    HW231749   0.904   4.572  16.449 -0.2255 -0.0825  0.1226
 6706SOL     OW31750   3.142   3.517   9.891 -0.1122 -0.7001 -0.1857
 6706SOL    HW131751   3.234   3.504   9.912  0.1424  1.3389 -0.0597
 6706SOL    HW231752   3.112   3.441   9.840  0.6989 -1.2609  0.1745
 6707SOL     OW31753   0.886   0.739   6.194  0.3371 -0.3952 -0.1920
 6707SOL    HW131754   0.818   0.765   6.256 -0.3625  3.5667 -2.5848
 6707SOL    HW231755   0.935   0.822   6.193  0.3786 -0.4462 -1.6463
 6708SOL     OW31756   2.594   3.011  15.357  0.3547 -0.5015 -0.4633
 6708SOL    HW131757   2.500   3.019  15.342 -0.0570  0.6398  2.8608
 6708SOL    HW231758   2.616   3.074  15.425  0.5988 -0.1992 -0.8212
 6709SOL     OW31759   1.471   1.412  10.020 -0.0782  0.2649  0.3638
 6709SOL    HW131760   1.498   1.501   9.997 -1.0580  0.2918 -0.6734
 6709SOL    HW231761   1.436   1.442  10.104 -1.4342 -0.2933  0.0100
 6710SOL     OW31762   0.357   0.345  11.931  0.1174  0.4647 -0.3033
 6710SOL    HW131763   0.317   0.431  11.918  1.0146  1.0338  0.6942
 6710SOL    HW231764   0.407   0.333  11.851 -0.2751  0.9712 -0.6210
 6711SOL     OW31765   1.027   0.080  11.275  0.4508 -0.3490  0.1779
 6711SOL    HW131766   1.054   0.001  11.321 -0.0935 -1.1884 -0.9499
 6711SOL    HW231767   0.958   0.038  11.223 -1.0454  1.1571  0.9572
 6712SOL     OW31768   4.408   4.423   7.203  0.6839 -0.0105  0.3927
 6712SOL    HW131769   4.331   4.472   7.232  0.6281  0.7903 -1.1141
 6712SOL    HW231770   4.356   4.352   7.166 -1.3215  1.0240  1.2238
 6713SOL     OW31771   0.651   4.257  13.823  0.3913 -0.4081  0.2455
 6713SOL    HW131772   0.626   4.318  13.892 -0.2578 -0.0139 -0.3310
 6713SOL    HW231773   0.570   4.224  13.783  0.1949 -1.4054  1.4760
 6714SOL     OW31774   3.957   0.191  10.578  0.4362  0.1144  0.0379
 6714SOL    HW131775   3.876   0.242  10.579  0.7142  0.6171 -1.8439
 6714SOL    HW231776   3.933   0.104  10.610  0.4385  0.3076  0.5615
 6715SOL     OW31777   4.587   3.574   6.467  0.0789  0.1456  0.7250
 6715SOL    HW131778   4.555   3.623   6.542 -0.2854  2.1873 -0.7615
 6715SOL    HW231779   4.510   3.524   6.438 -0.5496  0.8368  1.2071
 6716SOL     OW31780   4.383   3.597   9.344 -0.1459  0.2268 -0.2193
 6716SOL    HW131781   4.350   3.658   9.277 -2.6059  0.4155  1.1639
 6716SOL    HW231782   4.455   3.557   9.296  0.0983  1.3849 -0.8179
 6717SOL     OW31783   0.773   1.616  11.386  0.9215 -0.5449 -0.2388
 6717SOL    HW131784   0.756   1.572  11.303  0.0090 -1.5599  0.4816
 6717SOL    HW231785   0.842   1.679  11.363 -0.8193 -0.4905 -5.3093
 6718SOL     OW31786   3.138   2.642   3.629  0.2503 -0.0760  0.1239
 6718SOL    HW131787   3.130   2.553   3.662 -0.2938  0.0940  0.4644
 6718SOL    HW231788   3.190   2.686   3.696  1.7228 -2.4703  0.5463
 6719SOL     OW31789   3.457   1.026  10.629  0.3195  0.1699  0.5463
 6719SOL    HW131790   3.433   0.948  10.680 -2.1594  2.2576  2.5235
 6719SOL    HW231791   3.550   1.040  10.647  0.0422  3.0208 -0.2919
 6720SOL     OW31792   3.660   1.712  14.885 -0.8870 -0.0557  0.2097
 6720SOL    HW131793   3.599   1.777  14.918 -1.1498 -0.0068 -0.3672
 6720SOL    HW231794   3.696   1.667  14.961 -0.5125  0.4410  0.3328
 6721SOL     OW31795   1.432   4.127   1.972 -0.2521  0.6585 -0.0462
 6721SOL    HW131796   1.517   4.142   1.930 -0.0615  1.0842  0.4832
 6721SOL    HW231797   1.402   4.046   1.932 -1.8617  2.1393 -1.8213
 6722SOL     OW31798   0.430   2.751   6.731  0.0590 -0.3098 -0.0180
 6722SOL    HW131799   0.496   2.739   6.799 -0.3594  1.9778  0.7875
 6722SOL    HW231800   0.447   2.667   6.688  0.0772 -0.8808  1.1116
 6723SOL     OW31801   4.153   1.054   4.637  0.2498  0.0310 -0.5760
 6723SOL    HW131802   4.153   1.114   4.712 -1.9470 -0.4957 -0.1745
 6723SOL    HW231803   4.137   0.969   4.678 -0.2299 -0.1978 -1.2490
 6724SOL     OW31804   3.318   1.167   3.053  0.5136 -0.0684  0.0719
 6724SOL    HW131805   3.376   1.144   2.980 -0.7305  1.3559 -1.3874
 6724SOL    HW231806   3.242   1.184   2.997  0.8238 -2.0104 -0.9105
 6725SOL     OW31807   2.837   1.488   6.321 -0.8668  0.4767  0.0938
 6725SOL    HW131808   2.914   1.544   6.332  0.6205 -0.9567 -3.3046
 6725SOL    HW231809   2.795   1.517   6.402  1.1584 -0.9232  1.6385
 6726SOL     OW31810   1.482   0.286   1.741  0.2041  0.2806 -0.3310
 6726SOL    HW131811   1.565   0.325   1.768  0.1895  1.0904 -1.3995
 6726SOL    HW231812   1.520   0.221   1.682 -1.7773  0.4217 -1.7612
 6727SOL     OW31813   0.094   3.902  13.162  0.1238  0.2248  0.0310
 6727SOL    HW131814   0.113   3.855  13.080 -1.2847 -0.3469  0.0314
 6727SOL    HW231815   0.025   3.965  13.141  1.0657  1.7943  1.6845
 6728SOL     OW31816   3.188   0.373   8.678  0.2484  0.6870  0.0115
 6728SOL    HW131817   3.169   0.313   8.750  0.6151  0.2189 -0.2858
 6728SOL    HW231818   3.219   0.451   8.725 -0.1794  0.9187 -0.0919
 6729SOL     OW31819   0.890   3.060   8.151 -0.2692  0.1370 -0.0047
 6729SOL    HW131820   0.838   3.133   8.186 -2.7182 -1.8731  0.5897
 6729SOL    HW231821   0.957   3.051   8.219 -0.9263  0.7157  0.7177
 6730SOL     OW31822   4.723   4.412   1.396 -0.8183  0.1070 -0.1288
 6730SOL    HW131823   4.678   4.447   1.472  1.7093  1.7552  0.5961
 6730SOL    HW231824   4.705   4.318   1.399  2.2530 -0.5298 -1.0469
 6731SOL     OW31825   2.574   1.581   0.343  0.3407  0.4759  0.6238
 6731SOL    HW131826   2.630   1.615   0.413 -0.6183  1.5291  0.8849
 6731SOL    HW231827   2.609   1.494   0.327 -0.5788  0.4598 -1.2945
 6732SOL     OW31828   3.374   0.485  15.966 -0.2516  0.1058 -0.1916
 6732SOL    HW131829   3.338   0.477  16.054  0.3362  1.5501  0.1664
 6732SOL    HW231830   3.370   0.576  15.936 -1.3802  0.2373  0.3737
 6733SOL     OW31831   1.686   4.335   6.674  0.0848  0.5545  0.2709
 6733SOL    HW131832   1.687   4.255   6.727 -1.2671  0.4957  0.1871
 6733SOL    HW231833   1.602   4.321   6.630  0.8286 -1.2382 -0.6064
 6734SOL     OW31834   0.280   3.712   9.123 -0.4939 -0.0242 -0.0739
 6734SOL    HW131835   0.258   3.645   9.188  0.2197 -0.2324 -0.0411
 6734SOL    HW231836   0.346   3.662   9.076 -1.1377 -0.5096 -0.4430
 6735SOL     OW31837   4.711   0.217  16.168 -0.5869  0.4375 -0.1759
 6735SOL    HW131838   4.663   0.278  16.112 -0.0429  0.0460 -1.0676
 6735SOL    HW231839   4.729   0.154  16.098  0.2253 -2.2021  2.4114
 6736SOL     OW31840   4.366   1.646   4.081  0.2536 -0.3193  0.8079
 6736SOL    HW131841   4.455   1.670   4.055  0.3728 -2.4251 -0.7530
 6736SOL    HW231842   4.370   1.706   4.156 -1.0143  1.1697 -0.3013
 6737SOL     OW31843   3.023   4.285   6.881  0.1568  0.9899 -0.3307
 6737SOL    HW131844   2.998   4.292   6.789  1.5744  0.1607 -0.7767
 6737SOL    HW231845   2.949   4.232   6.911 -0.7921  4.1914  3.0840
 6738SOL     OW31846   0.612   4.309  16.581 -0.4914  0.1576  0.4778
 6738SOL    HW131847   0.672   4.262  16.523 -2.3674 -0.4445 -0.9602
 6738SOL    HW231848   0.540   4.246  16.584  0.5585 -1.0230  1.0765
 6739SOL     OW31849   3.587   3.428   1.357  0.1878  0.5875  0.1781
 6739SOL    HW131850   3.631   3.393   1.434 -2.0064 -0.7458  0.8191
 6739SOL    HW231851   3.582   3.522   1.377  0.9753  0.8137 -0.7005
 6740SOL     OW31852   3.335   2.009   7.102  0.0588  0.1217  0.0751
 6740SOL    HW131853   3.345   2.062   7.023  0.3534  0.2602  0.2049
 6740SOL    HW231854   3.253   2.044   7.135  0.0996 -2.2610  2.6661
 6741SOL     OW31855   2.480   0.713   6.580 -0.4567  0.0684  0.4527
 6741SOL    HW131856   2.501   0.765   6.657 -0.7644  2.2045 -0.9169
 6741SOL    HW231857   2.444   0.776   6.518 -3.6961 -0.7049  1.5707
 6742SOL     OW31858   3.461   2.457  11.902  0.0078  0.3969 -0.3963
 6742SOL    HW131859   3.540   2.410  11.873 -0.8422 -1.2558 -0.0079
 6742SOL    HW231860   3.396   2.415  11.845 -1.3797 -1.0536  2.2811
 6743SOL     OW31861   2.061   1.090   2.950 -0.2119 -0.0333 -0.0718
 6743SOL    HW131862   1.975   1.131   2.944 -1.6106 -3.4145 -3.1441
 6743SOL    HW231863   2.093   1.109   3.038 -1.4474 -0.7635  0.5367
 6744SOL     OW31864   1.144   4.241   0.523 -0.0584 -0.0788  0.2951
 6744SOL    HW131865   1.143   4.186   0.601  0.8765  0.6752  0.8500
 6744SOL    HW231866   1.066   4.295   0.533 -0.0017  0.5123 -2.3644
 6745SOL     OW31867   4.003   3.797   6.406  0.0006  0.2893 -0.0840
 6745SOL    HW131868   4.038   3.709   6.390  1.2739  0.5947  1.0273
 6745SOL    HW231869   3.948   3.813   6.329 -0.4359  1.6724  0.5200
 6746SOL     OW31870   3.152   4.386   7.096  0.2319 -0.6349  0.8477
 6746SOL    HW131871   3.187   4.456   7.040 -2.5732 -0.7627 -1.0693
 6746SOL    HW231872   3.097   4.339   7.033 -0.8565 -0.4898  1.6898
 6747SOL     OW31873   0.003   2.428   8.468 -0.1142  0.2013  0.0743
 6747SOL    HW131874   0.013   2.334   8.457  1.5907  0.4099 -0.2663
 6747SOL    HW231875   0.070   2.433   8.536 -0.8485  0.3096  0.7906
 6748SOL     OW31876   4.020   0.242   2.712 -0.0979 -0.4212 -0.6921
 6748SOL    HW131877   3.990   0.177   2.775 -0.9065  1.0722  0.4728
 6748SOL    HW231878   3.997   0.201   2.629 -1.0809 -0.0228 -0.6159
 6749SOL     OW31879   4.159   4.605  12.494 -0.1131  0.1293 -0.5930
 6749SOL    HW131880   4.146   4.553  12.573 -1.8117  1.0516 -0.2589
 6749SOL    HW231881   4.086   4.666  12.505  0.7378  1.5178 -2.4907
 6750SOL     OW31882   1.599   2.431   3.738 -0.3522  0.2320 -1.2534
 6750SOL    HW131883   1.525   2.400   3.791  1.0341 -1.2407 -0.1994
 6750SOL    HW231884   1.564   2.454   3.652  0.2418  0.6082 -1.3946
 6751SOL     OW31885   2.018   3.987   6.608 -0.2185  0.0076 -0.5779
 6751SOL    HW131886   2.044   3.919   6.671 -0.1579  0.8985  0.3696
 6751SOL    HW231887   2.075   4.059   6.634  1.3721 -0.8691 -1.6199
 6752SOL     OW31888   3.888   3.581   7.298 -0.5538  0.4994 -0.4340
 6752SOL    HW131889   3.951   3.565   7.368 -2.5643 -0.1232  1.2412
 6752SOL    HW231890   3.838   3.500   7.300 -0.1585  0.2352 -1.5424
 6753SOL     OW31891   3.531   2.703   7.271 -0.0266  0.1640 -0.5150
 6753SOL    HW131892   3.492   2.784   7.240 -2.1987  0.3801  2.7671
 6753SOL    HW231893   3.599   2.696   7.204 -0.1578 -0.3455 -0.5955
 6754SOL     OW31894   3.381   4.205   2.091  0.2962 -0.0784 -0.3788
 6754SOL    HW131895   3.469   4.233   2.066 -0.3906  2.5028  0.1478
 6754SOL    HW231896   3.390   4.215   2.186 -1.8608 -2.3786  0.0781
 6755SOL     OW31897   2.593   0.027   5.924  0.0831 -0.0818 -0.2285
 6755SOL    HW131898   2.577   4.675   5.954  1.5382 -0.6475 -1.1407
 6755SOL    HW231899   2.631   0.010   5.838  0.8047 -2.1766  0.5075
 6756SOL     OW31900   3.737   0.116   6.430  0.0945  0.2649  0.4018
 6756SOL    HW131901   3.652   0.081   6.456  0.0927  0.4146  0.5957
 6756SOL    HW231902   3.795   0.046   6.462  1.3903  0.3843 -1.7112
 6757SOL     OW31903   3.558   3.641   9.844  0.1228  0.4289  0.4286
 6757SOL    HW131904   3.537   3.551   9.869 -2.1608  0.6807 -0.5494
 6757SOL    HW231905   3.559   3.640   9.748  1.2424  1.4254  0.4377
 6758SOL     OW31906   1.113   0.835   3.339 -0.0266 -0.9046  0.1052
 6758SOL    HW131907   1.025   0.871   3.343 -0.6466 -2.6025  1.9178
 6758SOL    HW231908   1.134   0.820   3.431  0.7692 -1.3310 -0.1441
 6759SOL     OW31909   3.616   4.532  10.214 -0.4239  0.1726  0.4513
 6759SOL    HW131910   3.533   4.519  10.262 -1.4267  1.5707 -0.9078
 6759SOL    HW231911   3.622   4.626  10.195 -1.5822  0.0451 -0.5536
 6760SOL     OW31912   2.640   3.351   8.171  0.1399  0.8876 -0.5662
 6760SOL    HW131913   2.545   3.336   8.162  0.3833 -1.3224  0.6075
 6760SOL    HW231914   2.664   3.400   8.093  0.3405  1.3996 -0.1821
 6761SOL     OW31915   3.169   1.127  15.385  1.2667  0.0564  0.3405
 6761SOL    HW131916   3.121   1.207  15.401  0.0234 -0.6225 -0.0058
 6761SOL    HW231917   3.097   1.063  15.388 -0.0540  1.5316 -0.2836
 6762SOL     OW31918   0.877   4.091   2.633 -0.2961  0.4249  0.4446
 6762SOL    HW131919   0.782   4.096   2.641 -0.3749  1.7097 -1.2650
 6762SOL    HW231920   0.896   4.032   2.706 -1.7092 -0.5516  0.0193
 6763SOL     OW31921   1.935   3.317   4.024  0.0943  0.0782 -0.2790
 6763SOL    HW131922   1.874   3.247   4.049  2.2311 -1.4237  0.7422
 6763SOL    HW231923   2.012   3.295   4.076 -0.2421 -1.6335 -0.5223
 6764SOL     OW31924   1.711   2.744   4.198  0.4459 -0.3996 -0.3318
 6764SOL    HW131925   1.766   2.699   4.135  1.1263 -0.2797  0.1811
 6764SOL    HW231926   1.686   2.677   4.263  0.4926  1.1018  1.2480
 6765SOL     OW31927   0.469   4.034   8.492  0.1730 -0.0554  0.0518
 6765SOL    HW131928   0.560   4.034   8.462  0.7961  0.6129  1.9739
 6765SOL    HW231929   0.429   4.105   8.442  0.6092  0.4710  0.4488
 6766SOL     OW31930   3.967   4.293   0.575  0.4995  0.2916  0.2487
 6766SOL    HW131931   3.897   4.338   0.623  0.9663  1.2861 -0.0016
 6766SOL    HW231932   4.023   4.370   0.564  1.7335 -0.2423  2.6963
 6767SOL     OW31933   1.326   3.741   2.616  0.0268  0.1925 -0.0808
 6767SOL    HW131934   1.298   3.693   2.538 -0.5499  0.1503  0.1547
 6767SOL    HW231935   1.317   3.829   2.578 -1.9474  0.3824  0.8742
 6768SOL     OW31936   4.016   1.558   4.139  0.0310 -0.2073  0.8924
 6768SOL    HW131937   3.990   1.606   4.218  0.5894 -0.0429  0.9764
 6768SOL    HW231938   3.938   1.586   4.092  0.5746  0.8971  0.6485
 6769SOL     OW31939   2.002   2.390   5.639  0.0375  0.0335 -0.6119
 6769SOL    HW131940   2.008   2.298   5.613  0.9101  0.4558 -1.9004
 6769SOL    HW231941   1.926   2.378   5.695  1.1655 -0.0693  0.9072
 6770SOL     OW31942   0.148   3.233   4.161  0.2520 -0.0275 -0.7659
 6770SOL    HW131943   0.104   3.148   4.162  0.7338 -0.3146 -2.3690
 6770SOL    HW231944   0.098   3.270   4.233  0.0661  0.3676 -1.1004
 6771SOL     OW31945   4.707   1.580  10.935 -0.6464 -0.0007  0.3475
 6771SOL    HW131946   0.061   1.595  10.910 -0.6505 -0.5500  0.0081
 6771SOL    HW231947   4.665   1.665  10.943 -0.9859  0.0889 -2.4214
 6772SOL     OW31948   2.095   0.104   1.912  0.7159  0.0203 -0.1227
 6772SOL    HW131949   2.042   0.092   1.834 -0.4363  0.0847  0.6490
 6772SOL    HW231950   2.052   0.043   1.972 -0.2287  3.2715  2.5104
 6773SOL     OW31951   3.519   2.502   3.939  0.6736 -0.2562  0.1993
 6773SOL    HW131952   3.432   2.462   3.934  0.8394 -0.6517  0.4566
 6773SOL    HW231953   3.527   2.534   3.849 -0.3649  1.5742  0.7562
 6774SOL     OW31954   0.290   3.073   5.995  0.3232  0.3453 -0.0189
 6774SOL    HW131955   0.295   3.077   5.900  1.2861  1.9829  0.1077
 6774SOL    HW231956   0.384   3.074   6.015  0.0895 -3.2972  1.3212
 6775SOL     OW31957   3.189   1.217   5.091 -0.7417 -0.2365  0.2342
 6775SOL    HW131958   3.209   1.185   5.003  1.7042 -0.6588  0.9261
 6775SOL    HW231959   3.096   1.194   5.093 -0.2007 -2.3693  1.2594
 6776SOL     OW31960   4.020   0.233   6.626  0.4001  0.3344 -0.2544
 6776SOL    HW131961   4.113   0.233   6.603  0.7676  2.2695  1.2386
 6776SOL    HW231962   3.982   0.288   6.558 -1.9740 -0.5971  0.3060
 6777SOL     OW31963   4.697   3.988   3.881 -0.0504  0.2847  0.1099
 6777SOL    HW131964   0.042   3.976   3.928 -1.1986  0.3567  2.1825
 6777SOL    HW231965   4.705   4.075   3.842  1.0777  1.0813  2.1390
 6778SOL     OW31966   1.175   1.765   2.049 -0.2746 -0.1689 -0.0075
 6778SOL    HW131967   1.157   1.859   2.042  1.4593  0.1109 -0.7570
 6778SOL    HW231968   1.255   1.755   1.998  0.5029  0.0527  1.1663
 6779SOL     OW31969   3.210   4.511  15.810 -0.1068 -0.4082 -0.2870
 6779SOL    HW131970   3.143   4.551  15.865 -0.6671  0.0899 -1.3279
 6779SOL    HW231971   3.229   4.568  15.736 -2.0017 -1.7109 -1.7723
 6780SOL     OW31972   4.492   3.474   2.870  0.6820 -0.2359 -0.6640
 6780SOL    HW131973   4.571   3.518   2.840 -0.9424  0.9779 -3.1761
 6780SOL    HW231974   4.449   3.544   2.920 -0.6986 -2.4749  1.3142
 6781SOL     OW31975   3.188   4.455   5.599  0.5791  0.2471  0.7259
 6781SOL    HW131976   3.246   4.513   5.549  2.2941 -0.5227  1.8196
 6781SOL    HW231977   3.237   4.372   5.598  0.7426  0.3694 -1.2927
 6782SOL     OW31978   4.205   1.416   8.523 -0.1171 -0.9828 -0.3498
 6782SOL    HW131979   4.127   1.469   8.505  1.5531  1.6301  0.2237
 6782SOL    HW231980   4.281   1.469   8.501  0.7622 -1.9251  0.4309
 6783SOL     OW31981   3.145   4.655   6.087 -0.4977 -0.3314  0.0321
 6783SOL    HW131982   3.054   4.634   6.065 -0.6512  0.9840 -0.6040
 6783SOL    HW231983   3.155   4.725   6.022 -0.1310 -0.2255  0.1986
 6784SOL     OW31984   4.576   4.083   2.741  0.7451 -0.2288  0.9353
 6784SOL    HW131985   4.562   4.133   2.821  2.3128 -0.6120  1.4558
 6784SOL    HW231986   4.504   4.110   2.684 -0.0469  2.1551  3.0535
 6785SOL     OW31987   3.655   2.746   8.884  0.2688 -0.3058  0.3804
 6785SOL    HW131988   3.632   2.801   8.809  2.9433  0.2927  0.0057
 6785SOL    HW231989   3.732   2.794   8.912  1.4699 -2.0214 -0.0268
 6786SOL     OW31990   3.211   3.600   4.244 -0.3458  0.2720  0.7802
 6786SOL    HW131991   3.297   3.558   4.244  0.5658  2.1357 -1.1816
 6786SOL    HW231992   3.231   3.685   4.206  0.0450  0.8877  2.3846
 6787SOL     OW31993   3.382   1.959   2.210 -0.1251  0.2993  0.2200
 6787SOL    HW131994   3.413   2.046   2.235 -0.3349  0.0302  1.4386
 6787SOL    HW231995   3.336   1.921   2.285 -3.2313  0.8344 -1.3994
 6788SOL     OW31996   4.628   2.851  10.710  0.3062  0.0506  0.3763
 6788SOL    HW131997   4.563   2.801  10.660  0.3719 -2.4983  2.8003
 6788SOL    HW231998   4.670   2.903  10.642  1.1606 -2.1810 -0.8359
 6789SOL     OW31999   3.798   3.845  10.627 -0.3785  0.1201 -0.0903
 6789SOL    HW132000   3.776   3.770  10.683 -0.4131  0.0751 -0.1650
 6789SOL    HW232001   3.712   3.875  10.599 -1.4965 -2.0943  0.9173
 6790SOL     OW32002   3.104   1.600   5.359 -0.3309 -0.2539 -0.3320
 6790SOL    HW132003   3.062   1.517   5.382 -0.9810 -0.5002 -2.3722
 6790SOL    HW232004   3.198   1.581   5.357 -0.2599  0.0837 -0.1992
 6791SOL     OW32005   4.690   3.062   6.580 -0.0178 -0.2258  0.2180
 6791SOL    HW132006   4.657   3.050   6.669 -0.7653  2.6531  0.3412
 6791SOL    HW232007   4.635   3.136   6.553  0.8160  0.0868 -0.6271
 6792SOL     OW32008   3.176   0.385   6.505 -0.8138  0.3163  0.1849
 6792SOL    HW132009   3.153   0.374   6.597  0.2653 -0.9407  0.3009
 6792SOL    HW232010   3.209   0.475   6.509 -1.8573  0.6818  0.5930
 6793SOL     OW32011   3.266   3.439   5.537  0.0991  0.6689 -0.1633
 6793SOL    HW132012   3.204   3.463   5.606  0.3592  1.4047 -0.1845
 6793SOL    HW232013   3.309   3.364   5.577 -0.4809  0.1789 -0.4468
 6794SOL     OW32014   3.663   3.845   7.110 -0.6981  0.3823  0.3343
 6794SOL    HW132015   3.655   3.797   7.027 -0.2950  0.6057  0.1625
 6794SOL    HW232016   3.757   3.845   7.129 -0.2935 -0.3075 -1.6867
 6795SOL     OW32017   0.769   3.786   2.465  0.2596 -0.1429  0.6954
 6795SOL    HW132018   0.747   3.719   2.530  0.3159  0.4931  1.3756
 6795SOL    HW232019   0.750   3.866   2.514 -0.9137  1.3268 -2.1867
 6796SOL     OW32020   1.798   2.076   9.436  0.3863 -0.6946 -0.4280
 6796SOL    HW132021   1.716   2.122   9.422  0.1537 -0.8436  0.4481
 6796SOL    HW232022   1.775   1.988   9.404 -1.1153 -0.5067  0.1763
 6797SOL     OW32023   0.673   4.350   3.482  0.0085 -0.6266 -0.0905
 6797SOL    HW132024   0.694   4.385   3.396 -0.5095 -0.0809  0.0118
 6797SOL    HW232025   0.649   4.262   3.455  0.6616 -0.4376 -1.2689
 6798SOL     OW32026   3.092   2.481   2.928 -0.5312  0.3052  0.1621
 6798SOL    HW132027   3.172   2.430   2.938 -0.4677  0.5393  0.8473
 6798SOL    HW232028   3.042   2.425   2.988  0.3210  0.0126  0.5987
 6799SOL     OW32029   4.636   2.780   6.738 -0.1323  0.4665  0.0835
 6799SOL    HW132030   4.627   2.874   6.751 -2.4529  0.0512  1.3957
 6799SOL    HW232031   4.728   2.766   6.760  0.2573 -1.5699 -2.7767
 6800SOL     OW32032   2.366   0.809  10.456  1.1094  0.5631 -0.0234
 6800SOL    HW132033   2.430   0.776  10.392 -0.4228  0.0015 -1.2542
 6800SOL    HW232034   2.353   0.894  10.412  0.1656 -0.5259 -1.8439
 6801SOL     OW32035   0.429   2.259   5.272  0.1418  0.4117  0.1264
 6801SOL    HW132036   0.355   2.263   5.333  0.3925  0.0834  0.4547
 6801SOL    HW232037   0.373   2.261   5.195  1.1481 -1.3909 -0.6481
 6802SOL     OW32038   1.532   1.970   8.713  0.3627  0.4747  0.1027
 6802SOL    HW132039   1.553   1.916   8.789  0.9960 -0.4245 -0.7223
 6802SOL    HW232040   1.439   1.985   8.726  0.3079  0.8066 -0.6445
 6803SOL     OW32041   4.504   1.622   2.289 -0.2309 -0.8395  0.4984
 6803SOL    HW132042   4.537   1.698   2.337 -0.0092  0.1749 -1.2513
 6803SOL    HW232043   4.471   1.571   2.363 -1.5374 -0.5322  0.1185
 6804SOL     OW32044   1.166   0.579  17.502  0.0448 -0.1664 -0.2676
 6804SOL    HW132045   1.111   0.625  17.566  0.5799  2.3536 -1.6215
 6804SOL    HW232046   1.138   0.489  17.518 -0.8548  0.5151  1.9440
 6805SOL     OW32047   3.135   1.346   6.666  0.1767  0.0390  0.0131
 6805SOL    HW132048   3.136   1.258   6.705  0.7392 -0.3517 -0.8881
 6805SOL    HW232049   3.119   1.329   6.573  0.6032 -0.0264 -0.0503
 6806SOL     OW32050   0.441   1.871   2.915  0.7332  0.1395 -0.2114
 6806SOL    HW132051   0.523   1.920   2.912  1.0699 -0.6750 -3.4008
 6806SOL    HW232052   0.433   1.875   3.011  1.5330 -1.4552 -0.0768
 6807SOL     OW32053   1.669   1.214   6.899  0.3966  0.3824 -0.1813
 6807SOL    HW132054   1.637   1.211   6.989  1.7616 -0.2355  0.2892
 6807SOL    HW232055   1.634   1.297   6.866 -1.0034  0.2631  1.0054
 6808SOL     OW32056   4.376   4.496   2.938 -0.1177  0.1667  0.0068
 6808SOL    HW132057   4.411   4.585   2.925  0.2466  0.0355  0.0838
 6808SOL    HW232058   4.285   4.522   2.926 -0.1408  0.8501  1.5798
 6809SOL     OW32059   1.928   1.652   3.064  0.4148  0.1963 -0.5530
 6809SOL    HW132060   1.878   1.683   2.988 -0.3704  1.1456  0.3546
 6809SOL    HW232061   1.933   1.559   3.040  1.0779 -0.2573  1.3749
 6810SOL     OW32062   1.493   2.717   8.061  0.1558 -0.1676 -0.1912
 6810SOL    HW132063   1.404   2.702   8.029  0.5442  2.3985 -2.5072
 6810SOL    HW232064   1.526   2.628   8.067  2.3755  0.7961  1.9964
 6811SOL     OW32065   3.895   2.619  11.051  0.9963 -0.1279 -0.1271
 6811SOL    HW132066   3.928   2.706  11.073 -1.3974  0.8377 -0.3860
 6811SOL    HW232067   3.901   2.621  10.955  2.5422 -2.8361 -0.1097
 6812SOL     OW32068   2.538   1.135   5.465 -0.5149 -0.5531  0.1166
 6812SOL    HW132069   2.452   1.106   5.495 -0.5103 -0.6613  0.0281
 6812SOL    HW232070   2.520   1.157   5.374 -1.1957  0.5921  0.5396
 6813SOL     OW32071   2.895   4.152   1.413 -0.3882  0.2661  0.1097
 6813SOL    HW132072   2.947   4.160   1.333 -1.8633  1.8231 -0.6784
 6813SOL    HW232073   2.911   4.232   1.463 -0.7233 -1.0748  2.3556
 6814SOL     OW32074   3.079   3.104   8.873  0.1450 -0.3458 -0.2223
 6814SOL    HW132075   3.032   3.114   8.791  2.0322 -1.8330 -1.4771
 6814SOL    HW232076   3.014   3.070   8.935  0.3702 -0.1593  0.1233
 6815SOL     OW32077   3.424   3.994   6.555  0.1948  0.0890 -0.0511
 6815SOL    HW132078   3.368   3.924   6.520  1.3599 -0.1614 -1.3821
 6815SOL    HW232079   3.514   3.965   6.545  0.6704  1.6708 -0.2037
 6816SOL     OW32080   2.301   4.068   7.217  0.5222 -0.1997  0.0105
 6816SOL    HW132081   2.338   4.072   7.305 -0.3451 -1.9174  0.4466
 6816SOL    HW232082   2.273   4.156   7.191 -1.3609 -0.9991 -0.6433
 6817SOL     OW32083   4.399   0.269  10.990 -0.3451 -0.1667 -0.3071
 6817SOL    HW132084   4.471   0.208  10.976  0.0163  0.4176 -0.9962
 6817SOL    HW232085   4.363   0.268  10.901 -0.5150  0.8226 -0.2562
 6818SOL     OW32086   4.538   0.843   6.619 -0.2513  0.3765  0.4386
 6818SOL    HW132087   4.594   0.853   6.542 -0.4942  1.3336  0.3894
 6818SOL    HW232088   4.450   0.862   6.586  1.2916  2.0150 -2.7832
 6819SOL     OW32089   0.122   0.474   3.476  0.3666 -0.2355 -0.1032
 6819SOL    HW132090   0.059   0.529   3.429  1.0670 -0.0648 -0.8332
 6819SOL    HW232091   0.207   0.492   3.436  1.0361 -2.3108  0.3572
 6820SOL     OW32092   2.720   2.005  14.871  0.4128 -0.4124  0.1388
 6820SOL    HW132093   2.771   2.079  14.838  0.2220 -0.1585  0.4092
 6820SOL    HW232094   2.657   1.974  14.805 -0.6896  1.8975  0.1136
 6821SOL     OW32095   4.253   0.683   5.548 -0.1538  0.3727 -0.2961
 6821SOL    HW132096   4.183   0.653   5.606  0.1308 -2.4142 -1.3830
 6821SOL    HW232097   4.313   0.607   5.551  0.5461  0.9561  0.4021
 6822SOL     OW32098   0.115   4.733  14.055 -0.0519  0.1315  0.5334
 6822SOL    HW132099   0.143   0.044  13.976 -1.6447  1.7667  0.9709
 6822SOL    HW232100   0.193   4.686  14.086 -0.3049 -2.1846 -2.3006
 6823SOL     OW32101   3.277   1.471   3.735  0.4306 -0.3288 -0.3059
 6823SOL    HW132102   3.190   1.478   3.694  0.0741 -1.1165  0.3056
 6823SOL    HW232103   3.271   1.519   3.818  0.1820 -3.8426  1.7094
 6824SOL     OW32104   0.815   2.580   4.864  0.9652  0.1532  0.4997
 6824SOL    HW132105   0.879   2.538   4.807 -0.4102 -0.9836 -0.2258
 6824SOL    HW232106   0.774   2.504   4.906  1.0279 -0.9353 -1.4051
 6825SOL     OW32107   1.274   0.047  10.856 -0.4140 -0.0626 -0.6865
 6825SOL    HW132108   1.242   0.111  10.792  0.2876 -0.8960 -1.8619
 6825SOL    HW232109   1.229   4.703  10.833  3.8960 -2.5315 -0.4257
 6826SOL     OW32110   3.753   3.282   2.924 -0.5120 -0.0580 -0.2824
 6826SOL    HW132111   3.837   3.236   2.934  0.0160  0.7402 -1.0790
 6826SOL    HW232112   3.745   3.276   2.829  0.2450 -2.5456 -0.1906
 6827SOL     OW32113   1.843   0.455  11.434  0.7178  0.1873 -0.0323
 6827SOL    HW132114   1.863   0.382  11.376  3.0284  2.6648 -2.3247
 6827SOL    HW232115   1.853   0.414  11.520 -0.7182  0.5858  0.3387
 6828SOL     OW32116   2.360   2.067  13.672  0.1469  0.9881  0.3595
 6828SOL    HW132117   2.311   2.010  13.731  2.4250  0.0741  1.3524
 6828SOL    HW232118   2.304   2.051  13.595  1.5419 -3.6536  0.3101
 6829SOL     OW32119   3.466   1.145  10.260  0.5097 -0.4491 -0.2699
 6829SOL    HW132120   3.561   1.138  10.266  0.4897  0.8187  1.3655
 6829SOL    HW232121   3.433   1.103  10.180  2.6243  1.1238 -1.9537
 6830SOL     OW32122   1.258   4.561   5.552  0.0906  0.0467 -0.1461
 6830SOL    HW132123   1.276   4.634   5.611  2.1930  0.1997 -0.9803
 6830SOL    HW232124   1.292   4.492   5.608  0.8891  0.5536 -0.0048
 6831SOL     OW32125   4.436   3.617   4.989 -0.2248 -0.3213 -0.2421
 6831SOL    HW132126   4.372   3.612   4.918  0.8736  1.3771 -1.3955
 6831SOL    HW232127   4.518   3.651   4.951 -1.3898  0.7030 -1.8565
 6832SOL     OW32128   0.500   1.268   6.407  0.8011  0.5447  0.3594
 6832SOL    HW132129   0.504   1.312   6.492 -0.2665  0.1109  0.6364
 6832SOL    HW232130   0.593   1.276   6.387  0.6505  0.5971 -0.3162
 6833SOL     OW32131   2.906   1.674   8.733 -0.1048  0.3374  0.6510
 6833SOL    HW132132   2.898   1.578   8.727  1.9915  0.0471  2.5654
 6833SOL    HW232133   2.845   1.683   8.660 -0.0708 -2.8578  0.1957
 6834SOL     OW32134   4.372   3.434   7.250 -0.3688  0.5752 -0.2097
 6834SOL    HW132135   4.374   3.338   7.257 -0.9361  0.6609  1.0961
 6834SOL    HW232136   4.429   3.443   7.326 -0.8069 -2.1925  0.4640
 6835SOL     OW32137   4.264   1.969   3.916  0.2244  0.4854 -0.0661
 6835SOL    HW132138   4.218   1.955   3.999 -1.9606  1.7920 -1.0571
 6835SOL    HW232139   4.237   2.054   3.882  1.2477  0.9543  0.2900
 6836SOL     OW32140   2.148   4.552  13.297  0.2799 -0.5881  0.0336
 6836SOL    HW132141   2.080   4.503  13.251 -0.4620 -1.1844  1.7592
 6836SOL    HW232142   2.212   4.485  13.323  2.7780  2.2269  1.1223
 6837SOL     OW32143   4.251   1.514   8.805  0.2947  0.3784 -0.3377
 6837SOL    HW132144   4.270   1.421   8.818 -0.1318  0.3157 -0.1518
 6837SOL    HW232145   4.263   1.553   8.892  0.9071 -0.0103 -0.2487
 6838SOL     OW32146   2.815   1.029  15.245  0.1906 -0.2618  0.8864
 6838SOL    HW132147   2.820   1.068  15.158 -0.1239  1.9341  1.8370
 6838SOL    HW232148   2.872   0.953  15.248  0.9750  0.2204 -2.2185
 6839SOL     OW32149   1.660   4.148   0.489  0.8218  0.4478 -0.1490
 6839SOL    HW132150   1.632   4.199   0.564  1.1065 -2.0531  1.6590
 6839SOL    HW232151   1.729   4.206   0.458 -0.5470  1.5965 -1.0287
 6840SOL     OW32152   0.804   4.353   3.886 -0.3636 -0.1195  1.0388
 6840SOL    HW132153   0.825   4.410   3.812 -0.9429 -2.5279 -0.9404
 6840SOL    HW232154   0.762   4.275   3.850  1.0180 -0.2714 -0.2429
 6841SOL     OW32155   1.257   0.255   5.985  0.0696 -0.4185  0.1626
 6841SOL    HW132156   1.186   0.193   5.967 -1.2969  1.7156 -1.8349
 6841SOL    HW232157   1.259   0.296   5.899  0.8338 -1.5096 -0.3270
 6842SOL     OW32158   2.127   1.098  12.310 -0.0923  0.6165 -0.2050
 6842SOL    HW132159   2.149   1.177  12.262  1.0167  0.5930  0.2685
 6842SOL    HW232160   2.184   1.029  12.276 -1.6351  0.3198 -2.2104
 6843SOL     OW32161   1.333   2.124   9.321  0.2184  0.1798 -0.2356
 6843SOL    HW132162   1.270   2.142   9.391  0.5325  0.6371 -0.0679
 6843SOL    HW232163   1.276   2.080   9.258 -0.0471 -0.5926  0.5464
 6844SOL     OW32164   1.169   0.436   6.189 -0.5126 -0.4414  0.6888
 6844SOL    HW132165   1.090   0.383   6.181 -0.3904 -0.2920 -1.4642
 6844SOL    HW232166   1.219   0.395   6.119  2.3264  0.7585  1.9931
 6845SOL     OW32167   3.123   3.190   0.481  0.2769 -0.0180  0.2466
 6845SOL    HW132168   3.076   3.256   0.532  0.1153 -0.6933  0.9769
 6845SOL    HW232169   3.181   3.151   0.547  0.3954 -0.2204  0.0217
 6846SOL     OW32170   3.034   1.444   1.374  0.0185 -0.1945  0.2693
 6846SOL    HW132171   3.095   1.494   1.429  0.1186 -2.0822  1.8492
 6846SOL    HW232172   2.993   1.511   1.319  0.4503  0.7322  1.0710
 6847SOL     OW32173   3.761   3.232  10.266 -0.4020 -0.0806 -0.1690
 6847SOL    HW132174   3.833   3.169  10.275  1.0108  1.3520 -1.2489
 6847SOL    HW232175   3.769   3.244  10.171  2.8202 -0.1019  0.1039
 6848SOL     OW32176   2.560   3.775   5.017  0.1404 -0.5463 -0.4099
 6848SOL    HW132177   2.582   3.781   4.924  1.0830 -0.1157 -0.1557
 6848SOL    HW232178   2.646   3.773   5.058  0.5823  0.2489 -1.3061
 6849SOL     OW32179   2.805   4.500   5.695  0.1278 -0.4319  0.7530
 6849SOL    HW132180   2.818   4.570   5.759  2.6847 -1.1092  0.9845
 6849SOL    HW232181   2.776   4.544   5.616 -1.1443 -0.7915  1.0281
 6850SOL     OW32182   0.476   1.115   6.932  0.1651  0.5137  0.0700
 6850SOL    HW132183   0.426   1.096   6.853 -1.6463  3.4062  0.5445
 6850SOL    HW232184   0.487   1.023   6.957  1.3274  0.0306 -2.2067
 6851SOL     OW32185   3.605   3.045   2.167 -0.4738  0.0717  0.6174
 6851SOL    HW132186   3.602   3.039   2.072 -3.9613 -0.0521  0.7043
 6851SOL    HW232187   3.515   3.020   2.190 -0.5735  1.1772  1.4049
 6852SOL     OW32188   2.066   1.799   3.480 -0.3134 -0.3467  0.0209
 6852SOL    HW132189   2.010   1.724   3.463 -1.9757  0.0789  3.7408
 6852SOL    HW232190   2.061   1.842   3.394 -0.2604 -1.3511 -0.4791
 6853SOL     OW32191   2.447   0.219   7.827 -0.2473 -0.1337  0.3121
 6853SOL    HW132192   2.476   0.175   7.747  0.8041  0.0123  0.6179
 6853SOL    HW232193   2.440   0.304   7.784 -2.7334 -0.4402  0.1102
 6854SOL     OW32194   0.972   1.015   5.821 -0.0404  0.0707  0.5944
 6854SOL    HW132195   0.943   0.941   5.768 -0.3776 -1.1907  2.5438
 6854SOL    HW232196   1.045   0.976   5.869  0.5780  1.3422  0.6911
 6855SOL     OW32197   4.527   4.165   8.026 -0.1184  0.7097 -0.3182
 6855SOL    HW132198   4.602   4.162   8.086 -0.9093 -1.1087  0.5479
 6855SOL    HW232199   4.549   4.097   7.963 -0.7188 -0.6435  0.9415
 6856SOL     OW32200   2.585   0.956   3.348 -0.4160 -0.1251  0.3146
 6856SOL    HW132201   2.550   1.024   3.290  2.0891 -1.1295 -2.3473
 6856SOL    HW232202   2.617   0.891   3.285 -3.2369 -0.9001 -0.3198
 6857SOL     OW32203   3.127   1.849   0.629  0.4120  0.4472 -0.6177
 6857SOL    HW132204   3.203   1.812   0.584  1.4152  3.1856 -1.1728
 6857SOL    HW232205   3.126   1.805   0.713  1.2356  0.9233 -0.3557
 6858SOL     OW32206   0.350   1.686   9.165 -0.0521  0.0499 -0.1329
 6858SOL    HW132207   0.356   1.742   9.087  0.1869 -2.3830 -1.8812
 6858SOL    HW232208   0.350   1.752   9.234  2.2008 -1.5033  1.3610
 6859SOL     OW32209   2.452   1.821   5.186  0.6699 -0.2786  0.2164
 6859SOL    HW132210   2.395   1.747   5.210  0.7770 -0.7515 -0.9718
 6859SOL    HW232211   2.386   1.884   5.157 -0.7056 -1.2591  1.2144
 6860SOL     OW32212   1.336   3.016   7.753 -0.0099  0.5107  0.5421
 6860SOL    HW132213   1.255   2.965   7.762 -0.5246  1.3131  0.4261
 6860SOL    HW232214   1.321   3.093   7.808 -0.5195  1.3960 -0.8285
 6861SOL     OW32215   0.455   0.069   4.575 -0.1338 -0.1947  0.6768
 6861SOL    HW132216   0.405   0.086   4.495  0.0223  3.3273  1.3256
 6861SOL    HW232217   0.385   0.043   4.635 -0.0286  1.1902  1.3952
 6862SOL     OW32218   1.971   1.273   4.223  0.0257  0.1896  0.3614
 6862SOL    HW132219   1.946   1.210   4.156 -0.4136  0.8033 -0.0531
 6862SOL    HW232220   2.059   1.240   4.240 -0.1474  0.1740  1.2507
 6863SOL     OW32221   3.608   1.031   7.636 -0.3529 -0.0793 -0.0643
 6863SOL    HW132222   3.589   0.992   7.722 -2.1693  0.8213 -0.0540
 6863SOL    HW232223   3.522   1.025   7.596 -0.0484 -1.1517 -0.5483
 6864SOL     OW32224   1.174   0.743   7.861  0.0367 -0.0647 -0.3329
 6864SOL    HW132225   1.083   0.729   7.885 -0.1728 -0.0522 -1.1075
 6864SOL    HW232226   1.196   0.814   7.922 -1.2759  2.5984 -2.9089
 6865SOL     OW32227   3.563   2.432   5.089  0.2848 -0.3921  0.0986
 6865SOL    HW132228   3.578   2.517   5.130 -1.0423  0.3843 -1.0253
 6865SOL    HW232229   3.564   2.453   4.996  0.0070 -1.8770 -0.2384
 6866SOL     OW32230   1.926   3.249   9.343  0.2824  0.6504 -0.4240
 6866SOL    HW132231   1.877   3.316   9.294  0.2227  0.4988 -0.5695
 6866SOL    HW232232   1.859   3.181   9.336  0.7683  0.1104  0.3310
 6867SOL     OW32233   0.255   2.517   8.858 -0.1295  0.2681 -0.1501
 6867SOL    HW132234   0.331   2.574   8.860  0.0235 -0.0382  2.1654
 6867SOL    HW232235   0.256   2.476   8.944  1.2224 -0.3407 -0.4479
 6868SOL     OW32236   3.436   3.730   7.885  0.3240  0.6750 -0.4407
 6868SOL    HW132237   3.394   3.779   7.956  0.2775 -0.2721  0.1813
 6868SOL    HW232238   3.457   3.647   7.928 -2.8791  1.5834  3.0126
 6869SOL     OW32239   3.583   0.587   9.922 -0.6893 -0.9014 -0.0182
 6869SOL    HW132240   3.634   0.548   9.851 -1.1192 -0.5147 -0.5407
 6869SOL    HW232241   3.650   0.594   9.990 -0.5755  0.3917 -0.2666
 6870SOL     OW32242   2.581   0.513  14.752 -0.1928  0.2888  0.3363
 6870SOL    HW132243   2.638   0.501  14.676  2.2785  0.5649  2.1548
 6870SOL    HW232244   2.570   0.608  14.756 -0.8620  0.1989  0.5795
 6871SOL     OW32245   3.435   0.056   4.736 -0.3155  0.0135 -0.6459
 6871SOL    HW132246   3.527   0.082   4.746 -0.3047  0.1027 -0.9985
 6871SOL    HW232247   3.441   4.726   4.668 -1.5384  0.3780 -1.1096
 6872SOL     OW32248   2.421   4.674   5.578  0.8003 -0.1069  0.4723
 6872SOL    HW132249   2.425   0.017   5.527 -1.3444  0.5004  1.2876
 6872SOL    HW232250   2.344   4.697   5.630  0.0375  0.5146 -0.9409
 6873SOL     OW32251   4.223   0.849  12.476  0.3179  0.2380  0.0682
 6873SOL    HW132252   4.296   0.788  12.484 -0.4557 -0.5446  1.1676
 6873SOL    HW232253   4.230   0.906  12.553  2.1070 -0.9101  0.7278
 6874SOL     OW32254   2.883   3.071  13.466  0.3370 -0.7363  0.4120
 6874SOL    HW132255   2.958   3.023  13.503  2.2423  0.4142 -1.9893
 6874SOL    HW232256   2.835   3.101  13.543  0.4696  2.3860 -0.7179
 6875SOL     OW32257   0.059   4.024   8.774  0.2082  0.1526  0.2220
 6875SOL    HW132258   0.088   3.985   8.856  1.3386 -1.1418 -0.7730
 6875SOL    HW232259   0.142   4.061   8.744  0.4191 -2.1114 -2.0250
 6876SOL     OW32260   0.337   1.769   5.729 -0.2689  0.0817  0.0759
 6876SOL    HW132261   0.286   1.693   5.754  1.9918 -1.9424 -1.4777
 6876SOL    HW232262   0.330   1.774   5.634 -1.3558 -0.1206  0.1545
 6877SOL     OW32263   0.685   3.157   4.661  0.1538 -0.0640 -0.2570
 6877SOL    HW132264   0.652   3.090   4.601  1.0204 -0.4130 -0.3364
 6877SOL    HW232265   0.766   3.176   4.613 -0.2455 -0.6255 -1.1667
 6878SOL     OW32266   3.854   0.044   4.163  0.3980  0.0850  0.2517
 6878SOL    HW132267   3.926   0.103   4.139  0.8234 -0.1021  1.0459
 6878SOL    HW232268   3.844   4.727   4.085  1.9659 -1.6896  1.2823
 6879SOL     OW32269   2.496   3.754  10.931 -0.6185  0.2041  0.4823
 6879SOL    HW132270   2.473   3.834  10.978 -1.7799  0.3481 -0.3290
 6879SOL    HW232271   2.591   3.765  10.932 -0.2666 -2.7692  1.0688
 6880SOL     OW32272   4.272   2.063   4.311  0.0818 -0.5768  0.2723
 6880SOL    HW132273   4.351   2.079   4.259  0.4487 -1.7008  0.4976
 6880SOL    HW232274   4.255   2.148   4.352 -1.0911 -1.1160  0.8975
 6881SOL     OW32275   4.187   0.209   8.426  0.3667  0.4561 -0.1127
 6881SOL    HW132276   4.187   0.243   8.515 -1.8114 -0.1110  0.0908
 6881SOL    HW232277   4.195   0.292   8.379 -0.6331  1.9602  2.3947
 6882SOL     OW32278   0.097   0.957   7.788  0.2352 -0.3954 -0.4679
 6882SOL    HW132279   0.161   0.990   7.725  0.2853  1.3295  0.4711
 6882SOL    HW232280   0.063   1.040   7.822 -0.5368 -1.9172  2.4463
 6883SOL     OW32281   0.448   1.761   3.438 -0.1304  0.4350  0.3928
 6883SOL    HW132282   0.527   1.707   3.442  0.4578  1.4295  2.6155
 6883SOL    HW232283   0.481   1.829   3.379  1.1944 -0.0919  0.5324
 6884SOL     OW32284   2.713   4.109   0.383 -0.5998 -0.0140  0.2464
 6884SOL    HW132285   2.800   4.131   0.414 -0.2313 -1.5668  0.3150
 6884SOL    HW232286   2.708   4.169   0.308 -0.7437 -2.4898 -1.7315
 6885SOL     OW32287   2.954   1.265  15.657  0.2622  0.1577 -0.2569
 6885SOL    HW132288   3.023   1.324  15.628  0.9124 -1.0017 -1.0645
 6885SOL    HW232289   2.911   1.247  15.573  1.1830 -1.0758 -0.4493
 6886SOL     OW32290   4.261   3.675  14.741 -0.2142  0.2976  0.1038
 6886SOL    HW132291   4.203   3.655  14.815 -0.2887 -0.1929 -0.0861
 6886SOL    HW232292   4.259   3.770  14.752  0.9900  0.3713 -0.3435
 6887SOL     OW32293   3.195   3.701  15.673 -0.0752  0.1636 -1.1027
 6887SOL    HW132294   3.232   3.614  15.656  0.0096  0.6880 -3.5832
 6887SOL    HW232295   3.105   3.691  15.643 -1.1022  0.3612  1.9362
 6888SOL     OW32296   4.680   1.720  15.633 -0.2907 -0.4082  0.1261
 6888SOL    HW132297   4.636   1.760  15.708  1.8957  2.1825  0.0059
 6888SOL    HW232298   0.016   1.680  15.680 -1.2398 -1.1685  0.9678
 6889SOL     OW32299   1.927   3.394   9.093 -0.0151 -0.1206 -0.2672
 6889SOL    HW132300   1.835   3.388   9.070  0.8292 -1.5116 -3.3269
 6889SOL    HW232301   1.945   3.486   9.070 -1.9640  1.2162  3.6145
 6890SOL     OW32302   4.028   2.522   7.536  0.3182 -0.4545 -0.7983
 6890SOL    HW132303   3.940   2.515   7.499  0.4725 -0.0675 -1.2343
 6890SOL    HW232304   4.017   2.582   7.610  2.0607 -2.1632  0.8738
 6891SOL     OW32305   4.640   4.002   5.301  1.0182 -0.6699 -0.0660
 6891SOL    HW132306   4.691   3.966   5.373 -0.1882  1.0667  1.6338
 6891SOL    HW232307   4.683   3.971   5.221 -0.7002 -0.2496 -1.1502
 6892SOL     OW32308   3.309   0.098   6.798  0.3917  0.1421 -0.1964
 6892SOL    HW132309   3.315   0.130   6.888  0.8221  0.0399 -0.1851
 6892SOL    HW232310   3.365   0.167   6.763  0.6316 -0.2696 -0.6283
 6893SOL     OW32311   1.092   4.214   0.251 -1.0967  0.5126 -0.5838
 6893SOL    HW132312   1.008   4.167   0.243 -0.3141 -0.6811 -1.8364
 6893SOL    HW232313   1.103   4.209   0.346  1.3351 -0.3832 -0.9234
 6894SOL     OW32314   3.497   0.686   5.031 -0.0777  0.1695 -0.1032
 6894SOL    HW132315   3.549   0.715   4.956  0.8168  0.9096  0.8057
 6894SOL    HW232316   3.532   0.598   5.043  2.9723  1.0041 -2.8776
 6895SOL     OW32317   1.836   3.874   6.952 -0.5367 -0.8296  0.4137
 6895SOL    HW132318   1.808   3.783   6.943 -0.5206 -0.7492 -0.5039
 6895SOL    HW232319   1.911   3.861   7.010 -0.5890  1.3653  0.9729
 6896SOL     OW32320   4.507   2.254   9.152 -0.3554  0.3183  0.0008
 6896SOL    HW132321   4.497   2.340   9.111  0.4287  0.7703  0.7380
 6896SOL    HW232322   4.418   2.230   9.176 -0.6491 -0.6059 -2.0785
 6897SOL     OW32323   0.260   0.640   7.220  0.5045 -0.6651  0.3502
 6897SOL    HW132324   0.245   0.561   7.271 -3.7608  0.9742  1.6074
 6897SOL    HW232325   0.172   0.678   7.223  1.1334  0.7511  1.0573
 6898SOL     OW32326   4.533   2.778   5.826  0.3262 -0.6845 -0.0279
 6898SOL    HW132327   4.609   2.826   5.862  0.2157 -0.8065  0.3608
 6898SOL    HW232328   4.470   2.849   5.814 -0.7776 -1.6766  0.0363
 6899SOL     OW32329   2.370   0.660   0.121 -0.4934  0.3980 -0.4024
 6899SOL    HW132330   2.445   0.711   0.090 -2.2576  2.4372 -1.3174
 6899SOL    HW232331   2.344   0.639   0.031 -1.5224 -1.0182  0.2278
 6900SOL     OW32332   1.398   0.224   0.966 -0.0797 -0.0278  0.1892
 6900SOL    HW132333   1.392   0.174   1.047 -2.0871  1.1003  0.7348
 6900SOL    HW232334   1.439   0.307   0.991  0.3097  0.6706 -2.8066
 6901SOL     OW32335   2.999   1.540   9.613 -0.5092 -0.1006  0.0609
 6901SOL    HW132336   3.027   1.498   9.531  1.8958  1.9292 -0.1279
 6901SOL    HW232337   3.012   1.631   9.587  0.1617  0.0559  0.9600
 6902SOL     OW32338   4.674   2.236   2.393  0.4238 -0.7571 -0.8094
 6902SOL    HW132339   4.635   2.322   2.381 -1.8957 -1.4384  1.7689
 6902SOL    HW232340   4.601   2.181   2.422  0.7867 -1.6683 -1.6080
 6903SOL     OW32341   0.455   3.813   6.988 -0.0257  0.0380 -0.4883
 6903SOL    HW132342   0.446   3.765   7.071 -0.3443 -1.1563 -1.2124
 6903SOL    HW232343   0.484   3.893   7.031  2.4201 -2.7762  3.0926
 6904SOL     OW32344   4.594   4.154   9.142 -0.1207  0.2744 -0.4981
 6904SOL    HW132345   4.506   4.169   9.178 -0.4752  0.8184 -1.5865
 6904SOL    HW232346   4.583   4.139   9.048 -1.7856  0.9502 -0.4075
 6905SOL     OW32347   2.081   4.716   8.636  0.2584  0.4247 -0.5053
 6905SOL    HW132348   2.063   4.622   8.640 -1.8728  0.8584 -0.0509
 6905SOL    HW232349   2.000   0.014   8.599 -0.4377  0.1935  0.8029
 6906SOL     OW32350   0.502   3.131  16.962 -0.1601 -0.2345  0.1538
 6906SOL    HW132351   0.561   3.055  16.959  1.0442  0.6919  0.4344
 6906SOL    HW232352   0.560   3.200  16.929  0.9824 -0.5216  1.5247
 6907SOL     OW32353   1.674   0.767   9.983  0.0244 -0.3843  0.7028
 6907SOL    HW132354   1.763   0.777  10.015  0.2947  0.6033 -0.3634
 6907SOL    HW232355   1.681   0.678   9.947  1.9531 -0.0635  0.2778
 6908SOL     OW32356   4.108   1.797   8.359 -0.5276 -0.3231 -0.4477
 6908SOL    HW132357   4.146   1.730   8.301 -1.2244 -0.1799 -1.0723
 6908SOL    HW232358   4.102   1.751   8.442  2.1823 -1.5360 -0.9157
 6909SOL     OW32359   2.943   3.674   8.401 -0.0421  0.4313  0.2617
 6909SOL    HW132360   2.938   3.738   8.330  1.4462  0.8292  0.5232
 6909SOL    HW232361   2.858   3.634   8.380  0.4721 -2.0588  2.8699
 6910SOL     OW32362   0.020   1.536   7.743 -0.0873 -0.1321  0.1286
 6910SOL    HW132363   0.030   1.626   7.773  1.9547  0.2429 -1.6637
 6910SOL    HW232364   0.110   1.522   7.712 -0.0338  1.1683 -0.2802
 6911SOL     OW32365   4.440   4.157   0.437 -0.6094 -0.1744 -0.2123
 6911SOL    HW132366   4.372   4.093   0.414 -0.4120 -0.6459  0.5072
 6911SOL    HW232367   4.416   4.229   0.379  1.6327 -0.9255 -2.0600
 6912SOL     OW32368   0.237   3.523   9.338 -0.4783 -0.3328 -0.4455
 6912SOL    HW132369   0.149   3.556   9.324 -0.4452 -0.3075 -0.5932
 6912SOL    HW232370   0.218   3.446   9.392  0.3034  0.9487  1.6734
 6913SOL     OW32371   0.545   3.843  11.130  0.0991 -0.1196 -0.1804
 6913SOL    HW132372   0.571   3.765  11.177  1.8473  0.8262  0.4061
 6913SOL    HW232373   0.511   3.903  11.197  1.0578 -0.8327  0.9283
 6914SOL     OW32374   0.303   4.266   9.350  0.0454  0.0561 -0.4211
 6914SOL    HW132375   0.339   4.234   9.433  2.0824  0.7637 -1.0263
 6914SOL    HW232376   0.312   4.360   9.365 -0.8096  0.0210  0.3158
 6915SOL     OW32377   3.102   0.279  14.549  0.5411 -0.1278 -0.3933
 6915SOL    HW132378   3.160   0.303  14.621  0.2766  1.0655 -0.5802
 6915SOL    HW232379   3.015   0.312  14.574  0.3747 -0.6495 -0.2737
 6916SOL     OW32380   2.623   4.436   3.947 -0.3737  0.3439 -0.7285
 6916SOL    HW132381   2.619   4.434   3.851  0.3664 -0.5981 -0.7401
 6916SOL    HW232382   2.667   4.352   3.963 -0.0922  0.8431  1.1718
 6917SOL     OW32383   1.757   2.303   5.762 -0.4178 -0.3266  0.4628
 6917SOL    HW132384   1.701   2.353   5.702 -0.7576 -0.2382  0.8555
 6917SOL    HW232385   1.717   2.335   5.842 -0.3557  0.8410  0.0224
 6918SOL     OW32386   2.390   3.588   1.709 -0.0507 -0.1523  0.0459
 6918SOL    HW132387   2.296   3.596   1.693 -0.4517 -0.9578  2.0396
 6918SOL    HW232388   2.400   3.518   1.772  0.1597  0.4028  0.6282
 6919SOL     OW32389   0.754   1.704  11.676  0.2753  0.2283 -0.3407
 6919SOL    HW132390   0.749   1.615  11.711  1.0054  0.3120 -0.0274
 6919SOL    HW232391   0.711   1.683  11.593  1.4742  3.8775 -1.9001
 6920SOL     OW32392   2.473   1.383  13.122 -0.3337  0.5399 -0.1279
 6920SOL    HW132393   2.403   1.416  13.179 -0.0773  1.1263 -0.1549
 6920SOL    HW232394   2.514   1.317  13.179  2.9515  0.1948 -2.9253
 6921SOL     OW32395   4.322   1.038   0.959  0.5687  0.2884 -0.4022
 6921SOL    HW132396   4.403   0.987   0.951  0.7161  0.3262  0.8700
 6921SOL    HW232397   4.335   1.090   1.038  2.0360 -1.8766  0.7853
 6922SOL     OW32398   1.143   4.016   5.854 -0.9751 -0.4444 -0.2212
 6922SOL    HW132399   1.086   3.959   5.803  0.6410 -2.6330  0.4237
 6922SOL    HW232400   1.221   3.966   5.831  0.0723  0.4093  1.4570
 6923SOL     OW32401   3.980   0.845   6.687  1.1633 -0.2893  0.2025
 6923SOL    HW132402   3.903   0.888   6.725  0.6130  0.5133 -1.8682
 6923SOL    HW232403   3.953   0.753   6.687 -4.4724  1.3974 -0.2126
 6924SOL     OW32404   0.716   0.519  10.793  0.0816  0.1071 -0.1864
 6924SOL    HW132405   0.793   0.473  10.759 -0.1680  0.1031 -0.7518
 6924SOL    HW232406   0.759   0.561  10.867  1.8877  2.5117 -2.5798
 6925SOL     OW32407   3.338   3.000  13.166  0.5120  0.4262  0.0481
 6925SOL    HW132408   3.245   2.978  13.171  0.6316 -0.3975 -1.3620
 6925SOL    HW232409   3.360   3.027  13.255  1.2112  0.1104 -0.0301
 6926SOL     OW32410   3.496   3.452   7.951 -0.0774  0.4411  0.4798
 6926SOL    HW132411   3.567   3.393   7.926 -1.8313 -2.7204  2.9685
 6926SOL    HW232412   3.470   3.409   8.033 -0.2953  4.4538  2.5280
 6927SOL     OW32413   1.338   0.062   7.979 -0.0649  0.3075  0.1175
 6927SOL    HW132414   1.279   0.098   8.045  0.4652 -1.5959  1.6355
 6927SOL    HW232415   1.330   0.127   7.909 -0.9927 -1.4149 -1.3781
 6928SOL     OW32416   3.759   2.596   8.409  0.4760  0.2276  0.8861
 6928SOL    HW132417   3.827   2.543   8.448 -1.6232 -3.4306 -0.4361
 6928SOL    HW232418   3.687   2.533   8.402  0.7160  0.1634 -0.9353
 6929SOL     OW32419   4.223   0.392  14.306  0.5398  0.5399 -0.0538
 6929SOL    HW132420   4.184   0.312  14.341  0.8318  0.3790 -0.1011
 6929SOL    HW232421   4.308   0.357  14.282  0.4532  0.4688 -0.2631
 6930SOL     OW32422   3.893   0.523   8.746 -0.0578  0.1481 -0.1276
 6930SOL    HW132423   3.845   0.591   8.699 -2.1916 -1.1290  0.2123
 6930SOL    HW232424   3.971   0.577   8.763  0.2789  0.0457 -1.3466
 6931SOL     OW32425   3.484   2.693  10.182  0.2056 -0.5414 -0.8391
 6931SOL    HW132426   3.435   2.658  10.256  0.4541 -1.0545 -0.9169
 6931SOL    HW232427   3.413   2.736  10.133  0.5390 -0.4016 -1.2036
 6932SOL     OW32428   0.301   1.770   6.600 -0.6273  0.2582  0.2349
 6932SOL    HW132429   0.382   1.756   6.648  0.1564  0.5697 -0.9973
 6932SOL    HW232430   0.294   1.687   6.551 -1.3168 -1.3268  3.0104
 6933SOL     OW32431   1.044   0.754   1.859  0.3121 -0.9059  0.2021
 6933SOL    HW132432   0.949   0.754   1.868  0.1770  2.9318 -1.0564
 6933SOL    HW232433   1.064   0.837   1.901  0.6697 -1.1170  0.4432
 6934SOL     OW32434   4.385   0.739   3.925 -0.4326  0.4473  0.1436
 6934SOL    HW132435   4.418   0.823   3.893 -1.1216  0.4364 -0.5777
 6934SOL    HW232436   4.301   0.739   3.879 -0.3435  3.1341  0.0025
 6935SOL     OW32437   0.568   3.333  13.403 -0.0941  0.1950 -0.1009
 6935SOL    HW132438   0.494   3.304  13.456  0.4738  0.1714  0.6796
 6935SOL    HW232439   0.605   3.407  13.451  2.6166 -1.8899  1.0105
 6936SOL     OW32440   0.721   0.525   7.243  1.1183 -0.4161  0.0242
 6936SOL    HW132441   0.653   0.554   7.182  0.8698 -2.0956 -0.4913
 6936SOL    HW232442   0.698   0.574   7.322  0.8961  0.1920 -0.4099
 6937SOL     OW32443   3.544   4.721   4.327  0.5204  0.1719 -0.3431
 6937SOL    HW132444   3.638   4.735   4.329  0.8495 -1.9522 -1.7136
 6937SOL    HW232445   3.531   4.710   4.233  0.4492 -2.2853 -0.0387
 6938SOL     OW32446   3.682   0.682  15.196 -0.2041 -0.6457 -0.6745
 6938SOL    HW132447   3.710   0.650  15.110 -2.8084 -1.3355 -1.2885
 6938SOL    HW232448   3.755   0.668  15.256 -0.2056 -0.8423 -0.7184
 6939SOL     OW32449   0.323   0.219   8.107 -0.2949 -0.3173  0.0567
 6939SOL    HW132450   0.253   0.192   8.047 -0.6848 -2.1025  1.3417
 6939SOL    HW232451   0.274   0.255   8.181 -0.0941 -0.6654  0.3576
 6940SOL     OW32452   0.706   3.839  16.892 -0.2533  0.5221 -0.2899
 6940SOL    HW132453   0.788   3.790  16.897 -0.8741 -0.5180 -0.2305
 6940SOL    HW232454   0.697   3.840  16.797 -1.6055 -1.9566 -0.1798
 6941SOL     OW32455   2.446   4.073   7.458 -0.3108  0.0703  0.0829
 6941SOL    HW132456   2.512   4.032   7.515  0.8806 -1.0752 -2.1313
 6941SOL    HW232457   2.370   4.089   7.514 -1.1842 -1.9635 -0.5393
 6942SOL     OW32458   3.288   0.722  15.836 -0.4591 -0.3891  1.5796
 6942SOL    HW132459   3.224   0.793  15.824 -0.5756 -0.5252  1.3928
 6942SOL    HW232460   3.355   0.748  15.773 -1.3709  1.0788  1.2031
 6943SOL     OW32461   3.747   1.385   3.404  0.2429 -0.2548 -0.2083
 6943SOL    HW132462   3.723   1.331   3.329 -0.0346 -2.1797  1.2503
 6943SOL    HW232463   3.816   1.445   3.375 -0.8446  1.6337  1.1908
 6944SOL     OW32464   0.268   2.348   1.943  0.4530  0.3360 -0.5628
 6944SOL    HW132465   0.242   2.364   2.034 -0.2490  0.4853 -0.7831
 6944SOL    HW232466   0.209   2.284   1.903  1.2155  1.3412 -3.2847
 6945SOL     OW32467   4.169   1.014  10.554  0.0516 -0.9062  0.1137
 6945SOL    HW132468   4.249   1.065  10.539 -0.8463 -0.4903 -3.3162
 6945SOL    HW232469   4.102   1.067  10.512  0.5366  1.2401  2.0680
 6946SOL     OW32470   0.960   4.709   7.156  0.0435  0.1108  0.1580
 6946SOL    HW132471   1.022   0.039   7.130  1.3771 -2.0904 -2.3741
 6946SOL    HW232472   0.995   4.695   7.244  1.4909 -0.0133 -0.4431
 6947SOL     OW32473   2.141   4.118   5.528  0.4598 -0.1943  0.6431
 6947SOL    HW132474   2.232   4.103   5.550 -0.2213 -1.6517  2.4834
 6947SOL    HW232475   2.114   4.036   5.568  0.1811 -0.2397  0.3680
 6948SOL     OW32476   0.291   4.714   8.745 -0.3983  0.0193 -0.2209
 6948SOL    HW132477   0.247   4.684   8.824 -0.5808 -0.5489 -0.5350
 6948SOL    HW232478   0.377   4.681   8.770 -0.0390 -0.2131 -1.7634
 6949SOL     OW32479   4.446   0.271   6.827 -0.4510  0.5306  0.5192
 6949SOL    HW132480   4.512   0.210   6.860  1.6944  0.1960 -4.3242
 6949SOL    HW232481   4.387   0.218   6.773  2.0885  0.6637 -2.3738
 6950SOL     OW32482   0.046   4.049   2.186  0.0546  0.1685 -0.0614
 6950SOL    HW132483   0.117   4.045   2.121 -0.2490 -2.1844 -0.2368
 6950SOL    HW232484   0.083   3.992   2.253 -0.3493  0.0963  0.0959
 6951SOL     OW32485   0.702   4.477  15.305  0.5916  0.3190 -0.4939
 6951SOL    HW132486   0.613   4.484  15.270 -0.4762  0.3892  2.2381
 6951SOL    HW232487   0.757   4.491  15.227 -0.7533  0.3482 -1.4375
 6952SOL     OW32488   1.484   2.442   2.433  0.0656 -0.0773 -0.3934
 6952SOL    HW132489   1.542   2.376   2.396 -1.6195 -0.5338 -2.1777
 6952SOL    HW232490   1.497   2.512   2.369  0.1222 -0.3252 -0.6504
 6953SOL     OW32491   3.311   3.180   9.980 -0.0098  0.3803  0.6230
 6953SOL    HW132492   3.242   3.167   9.915  0.7406 -1.8077  0.2598
 6953SOL    HW232493   3.386   3.131   9.948 -1.2813 -0.8345 -0.4742
 6954SOL     OW32494   0.094   0.499  12.174  0.0824 -0.9116  0.2793
 6954SOL    HW132495   0.134   0.514  12.088 -2.1790 -3.4712 -1.2516
 6954SOL    HW232496   0.001   0.488  12.153 -0.2425  0.5880  0.9614
 6955SOL     OW32497   2.741   1.515  16.200  0.2919  0.3661 -0.2285
 6955SOL    HW132498   2.735   1.463  16.280  0.0014  1.1783  0.2789
 6955SOL    HW232499   2.660   1.489  16.157 -0.6262 -0.7416  2.1837
 6956SOL     OW32500   0.712   0.678   7.483 -0.0553 -0.4983 -0.0484
 6956SOL    HW132501   0.739   0.728   7.561  0.9577 -1.3565  0.1369
 6956SOL    HW232502   0.663   0.747   7.438  2.2203  2.6808  2.3080
 6957SOL     OW32503   2.885   0.015   6.556 -0.2764 -0.0856 -0.0837
 6957SOL    HW132504   2.810   0.053   6.509 -0.6298  0.0703  0.5962
 6957SOL    HW232505   2.909   4.679   6.500 -1.6485 -0.8894  0.3701
 6958SOL     OW32506   3.017   2.286   8.657  0.0380  0.0805 -0.2528
 6958SOL    HW132507   3.065   2.231   8.719  0.5518 -0.0390 -0.7585
 6958SOL    HW232508   3.065   2.362   8.689 -0.3320 -0.2177  1.0276
 6959SOL     OW32509   1.569   0.382   8.724  0.2286 -0.1622  0.5349
 6959SOL    HW132510   1.478   0.355   8.723  0.6505 -1.3955 -2.4231
 6959SOL    HW232511   1.607   0.295   8.714 -1.9032 -1.0180 -0.1031
 6960SOL     OW32512   1.416   3.662  14.110 -0.2249 -0.2284 -0.3000
 6960SOL    HW132513   1.444   3.708  14.189 -0.4481 -0.6517  0.0272
 6960SOL    HW232514   1.332   3.621  14.131 -0.3038  0.4123  0.6402
 6961SOL     OW32515   4.268   2.440   9.969 -0.1598 -0.5105  0.4459
 6961SOL    HW132516   4.214   2.486   9.905 -0.8168 -0.8926  0.7237
 6961SOL    HW232517   4.231   2.352   9.957 -2.1710 -0.2736  4.9428
 6962SOL     OW32518   3.999   2.709   4.408 -0.4933 -0.0690 -0.1982
 6962SOL    HW132519   3.929   2.768   4.435 -0.9088 -1.3117  1.4451
 6962SOL    HW232520   4.075   2.739   4.459 -0.9334 -1.4065  1.2203
 6963SOL     OW32521   1.326   1.936   6.585 -0.5261  0.2874 -0.0045
 6963SOL    HW132522   1.329   1.979   6.671  0.0049  2.0659 -0.9056
 6963SOL    HW232523   1.410   1.966   6.549 -0.0405 -1.1891 -0.1215
 6964SOL     OW32524   0.203   0.197  16.325 -0.3867  0.1000 -1.1377
 6964SOL    HW132525   0.261   0.257  16.280  1.0397 -0.2549  0.2391
 6964SOL    HW232526   0.119   0.223  16.287 -0.9595 -0.4724 -0.2770
 6965SOL     OW32527   4.490   2.625   9.577  0.0138  0.2449  0.1392
 6965SOL    HW132528   4.546   2.682   9.629  0.7625  0.4693 -0.9062
 6965SOL    HW232529   4.493   2.546   9.630  0.9114  1.3662  1.7525
 6966SOL     OW32530   2.629   4.084   3.457  0.0320  0.2874 -0.2311
 6966SOL    HW132531   2.534   4.073   3.450  0.0706  0.0070 -0.3016
 6966SOL    HW232532   2.665   4.009   3.505 -3.9713 -0.5976  1.3801
 6967SOL     OW32533   2.286   2.445   5.508  0.0742 -0.5860 -0.4826
 6967SOL    HW132534   2.273   2.501   5.432  0.4346 -0.5697 -0.5350
 6967SOL    HW232535   2.211   2.475   5.559  0.0082  1.2312 -1.6487
 6968SOL     OW32536   1.776   2.775   6.100  0.2632 -0.4294  0.0623
 6968SOL    HW132537   1.794   2.865   6.129 -0.5367 -0.0926 -0.5035
 6968SOL    HW232538   1.815   2.727   6.174  0.4810  2.7949  2.0742
 6969SOL     OW32539   0.404   1.878   4.437  0.6983 -0.2749  0.3410
 6969SOL    HW132540   0.353   1.898   4.515  3.2242  1.4758  1.5616
 6969SOL    HW232541   0.463   1.806   4.460  0.0630 -0.7441  0.5025
 6970SOL     OW32542   3.303   2.028  11.855 -0.7198 -0.4003  0.0535
 6970SOL    HW132543   3.236   2.034  11.923  1.1099  1.1605  1.7190
 6970SOL    HW232544   3.260   1.965  11.797  0.3634 -0.2338 -0.9400
 6971SOL     OW32545   2.876   4.482   9.033  0.3155  0.4731 -0.4935
 6971SOL    HW132546   2.858   4.482   8.939 -1.1727  2.2819 -0.2074
 6971SOL    HW232547   2.847   4.570   9.058  0.1595  0.6139 -1.1650
 6972SOL     OW32548   4.120   2.546   5.461 -0.3054  0.1845  0.2192
 6972SOL    HW132549   4.177   2.553   5.384  1.5388 -3.9352  1.1853
 6972SOL    HW232550   4.101   2.453   5.472  1.8341 -0.6685 -3.4123
 6973SOL     OW32551   0.085   2.569   9.213 -0.2222 -0.5928 -0.2586
 6973SOL    HW132552   0.066   2.570   9.307  2.1936  2.2660  0.1767
 6973SOL    HW232553   0.066   2.476   9.201  1.9203 -0.5248 -4.0363
 6974SOL     OW32554   0.237   1.015   8.626 -0.0869 -0.1240 -0.1717
 6974SOL    HW132555   0.290   1.086   8.591 -2.5678  0.4516 -2.7338
 6974SOL    HW232556   0.305   0.948   8.627  1.0629  1.0679  1.2613
 6975SOL     OW32557   4.236   1.638   7.573 -0.2294  0.7310  0.4168
 6975SOL    HW132558   4.215   1.554   7.614  0.3356 -0.1097 -1.0312
 6975SOL    HW232559   4.277   1.605   7.493  1.5376 -1.1304  2.0869
 6976SOL     OW32560   4.235   3.954   4.465  0.0360  0.1254 -0.2854
 6976SOL    HW132561   4.143   3.979   4.459 -0.2304 -0.4686  1.5680
 6976SOL    HW232562   4.219   3.869   4.504 -1.8976  0.4596 -0.3730
 6977SOL     OW32563   0.054   2.010   2.978 -0.1469  0.1059 -0.0658
 6977SOL    HW132564   0.120   1.980   3.040 -0.7187 -2.5265 -0.7178
 6977SOL    HW232565   4.726   1.940   2.975 -0.1073  0.1205 -1.3284
 6978SOL     OW32566   3.961   3.956  11.937  0.5126 -0.1099  0.3914
 6978SOL    HW132567   3.991   3.865  11.932 -0.5468 -0.4459 -0.0371
 6978SOL    HW232568   4.045   3.997  11.958  0.9183 -2.0036  2.4468
 6979SOL     OW32569   3.885   1.943  10.097 -0.0582 -0.4227  0.4389
 6979SOL    HW132570   3.935   1.984  10.027  0.4702  0.1773  1.1687
 6979SOL    HW232571   3.897   2.008  10.167  3.6635 -0.2776 -0.3551
 6980SOL     OW32572   2.706   2.452   9.385  0.1841  0.5261 -0.1597
 6980SOL    HW132573   2.685   2.545   9.386 -1.9104  0.0452  1.3072
 6980SOL    HW232574   2.632   2.409   9.342 -0.0444  1.5006 -0.7238
 6981SOL     OW32575   3.042   4.282   6.610  0.5444  0.1544  0.1190
 6981SOL    HW132576   2.960   4.264   6.564  0.8549  0.3124 -0.5066
 6981SOL    HW232577   3.116   4.251   6.557 -1.4803 -1.9362 -1.4857
 6982SOL     OW32578   0.728   4.047  10.632 -0.3374  0.0820 -0.1335
 6982SOL    HW132579   0.699   3.994  10.558  0.5626 -0.6752  0.0644
 6982SOL    HW232580   0.729   3.990  10.708  1.3898  2.5114  1.6778
 6983SOL     OW32581   1.017   1.654  16.985 -0.0806  0.2121 -0.0998
 6983SOL    HW132582   0.978   1.619  16.906 -0.4478 -0.8848  0.5749
 6983SOL    HW232583   0.941   1.677  17.039 -0.9863  0.2019 -1.3821
 6984SOL     OW32584   2.202   2.316   6.711  0.9886 -0.3543 -0.4607
 6984SOL    HW132585   2.243   2.377   6.651 -1.1260  2.5106  1.0252
 6984SOL    HW232586   2.240   2.346   6.793  1.3216 -2.5607  0.1925
 6985SOL     OW32587   0.921   1.664  15.019  0.2875  0.0611 -0.2102
 6985SOL    HW132588   0.855   1.657  15.088  0.3976  2.8062  0.1789
 6985SOL    HW232589   0.875   1.625  14.945 -0.0494 -1.2190  0.6763
 6986SOL     OW32590   3.179   1.966   3.436  0.6892  0.5500  0.5630
 6986SOL    HW132591   3.253   2.026   3.428 -0.5668  1.8701 -1.1953
 6986SOL    HW232592   3.105   2.026   3.432 -0.2495 -0.6764 -0.2433
 6987SOL     OW32593   4.385   3.194   1.055 -0.2284  0.2552  0.5586
 6987SOL    HW132594   4.409   3.227   0.969 -2.7328 -0.1606 -0.3005
 6987SOL    HW232595   4.296   3.170   1.029 -0.0451  0.1177  0.0709
 6988SOL     OW32596   2.727   2.990  15.657  0.2650 -0.5397 -0.1375
 6988SOL    HW132597   2.639   2.955  15.649  0.6541 -1.0424 -2.1152
 6988SOL    HW232598   2.705   3.078  15.688 -2.3102 -1.2177 -0.0924
 6989SOL     OW32599   1.991   1.028   2.248 -0.4076 -0.1033 -0.2019
 6989SOL    HW132600   2.009   1.098   2.311  0.0352 -1.9101  1.6688
 6989SOL    HW232601   2.016   1.069   2.165 -1.7096 -2.4711 -1.7409
 6990SOL     OW32602   0.165   2.384   3.762 -0.0714  0.2705  0.1866
 6990SOL    HW132603   0.170   2.289   3.776 -2.8059  0.2300  0.8544
 6990SOL    HW232604   0.152   2.422   3.849  1.0565  0.1283  0.4240
 6991SOL     OW32605   2.418   1.427  11.876  0.1479 -0.1851  0.0331
 6991SOL    HW132606   2.375   1.511  11.892  0.9744  0.1383  0.5320
 6991SOL    HW232607   2.384   1.394  11.793  3.6314 -0.7261 -1.1776
 6992SOL     OW32608   2.051   2.067   3.961 -0.1495 -0.0121 -0.3093
 6992SOL    HW132609   2.122   2.126   3.935 -0.0487  0.1701  0.3975
 6992SOL    HW232610   1.980   2.117   3.999  0.2541 -0.0478  0.5035
 6993SOL     OW32611   1.947   3.764   3.916  0.4952  0.1183 -0.0155
 6993SOL    HW132612   1.887   3.704   3.961  0.9530  1.2765  2.1628
 6993SOL    HW232613   1.970   3.827   3.984 -0.0755 -0.3822  0.6536
 6994SOL     OW32614   0.263   2.087  14.139  0.2609 -0.0849  0.7245
 6994SOL    HW132615   0.287   2.018  14.202  0.0358 -1.5405 -0.7752
 6994SOL    HW232616   0.294   2.052  14.055  0.3923  1.4770  0.1133
 6995SOL     OW32617   3.020   3.441   1.715  0.5516  0.2591  1.2960
 6995SOL    HW132618   3.004   3.347   1.706  2.0246  0.0774  0.4005
 6995SOL    HW232619   2.930   3.470   1.706  1.3745  2.6110  0.5109
 6996SOL     OW32620   3.044   0.835   2.541 -0.9009 -0.3654 -0.2047
 6996SOL    HW132621   3.111   0.773   2.571 -1.1587 -1.0889 -1.1365
 6996SOL    HW232622   3.067   0.909   2.597 -0.2373  0.5002 -1.6345
 6997SOL     OW32623   0.305   2.766   7.040 -0.3391  0.0949 -0.0095
 6997SOL    HW132624   0.248   2.778   6.964 -0.0050  2.0339  0.0427
 6997SOL    HW232625   0.253   2.802   7.111 -2.0328  2.1182 -2.2747
 6998SOL     OW32626   0.879   2.676   7.447  0.1923 -0.0768  0.0168
 6998SOL    HW132627   0.940   2.693   7.374  0.4566 -0.2472  0.1971
 6998SOL    HW232628   0.941   2.656   7.517  1.3439  1.1702 -0.6374
 6999SOL     OW32629   1.805   0.829   2.090  0.3610  0.0075 -0.5824
 6999SOL    HW132630   1.873   0.788   2.036  1.3390 -0.2947  0.8708
 6999SOL    HW232631   1.852   0.891   2.147  0.7307 -0.2092 -0.6557
 7000SOL     OW32632   2.958   3.810  10.488 -0.4876 -0.1552  0.1292
 7000SOL    HW132633   2.875   3.777  10.453 -0.4099  1.8109 -1.9061
 7000SOL    HW232634   2.936   3.818  10.581  1.0932 -0.1841  0.5061
 7001SOL     OW32635   3.322   1.265   3.366 -0.6171  0.3927 -0.0751
 7001SOL    HW132636   3.282   1.346   3.337 -1.5452 -0.3279 -0.8024
 7001SOL    HW232637   3.249   1.206   3.384  0.9543 -1.0371  1.7253
 7002SOL     OW32638   1.827   4.425   4.317  0.1540 -0.0178 -0.3505
 7002SOL    HW132639   1.786   4.357   4.371  2.1039 -1.8272 -1.1845
 7002SOL    HW232640   1.889   4.457   4.383 -0.7422 -1.3186  1.1441
 7003SOL     OW32641   4.293   3.021  14.395  0.2597  0.2452 -0.7515
 7003SOL    HW132642   4.337   3.096  14.434  0.1415 -1.8512  3.3540
 7003SOL    HW232643   4.209   3.023  14.441  0.0275 -0.3651 -1.1485
 7004SOL     OW32644   4.724   4.561   4.230 -0.1700  0.9557 -0.3544
 7004SOL    HW132645   4.719   4.468   4.208  0.1344  1.2205 -1.5386
 7004SOL    HW232646   0.080   4.575   4.248 -0.5623 -1.9646  4.0434
 7005SOL     OW32647   1.733   0.280   8.260  0.1245 -0.8221 -0.0380
 7005SOL    HW132648   1.719   0.361   8.212  1.1151  0.0796  1.2093
 7005SOL    HW232649   1.796   0.240   8.200  2.6038 -0.2729  2.2366
 7006SOL     OW32650   3.255   4.425   7.657  0.5626 -0.1844 -0.2000
 7006SOL    HW132651   3.235   4.509   7.617 -1.5327 -1.1909 -1.3105
 7006SOL    HW232652   3.293   4.440   7.743 -0.8931 -0.0895  0.4273
 7007SOL     OW32653   0.625   0.487   7.844 -0.7980  0.4069  0.0313
 7007SOL    HW132654   0.670   0.470   7.762  0.7716 -1.1552  1.2247
 7007SOL    HW232655   0.584   0.404   7.869  1.0849 -0.4834  0.1376
 7008SOL     OW32656   1.485   3.829   3.841  0.3943  0.1326 -0.1747
 7008SOL    HW132657   1.488   3.737   3.868  1.0292 -0.2513 -1.5952
 7008SOL    HW232658   1.397   3.820   3.805  0.3115  0.4634 -0.0576
 7009SOL     OW32659   1.918   1.032   5.573 -0.0785 -0.4165  0.7374
 7009SOL    HW132660   1.936   0.943   5.602  2.8070 -0.5517 -1.5008
 7009SOL    HW232661   1.947   1.088   5.644  0.6036 -1.9731  1.6749
 7010SOL     OW32662   4.356   0.838   8.412  0.3113  0.4201  0.0717
 7010SOL    HW132663   4.286   0.827   8.477  0.0403 -0.2518 -0.3441
 7010SOL    HW232664   4.433   0.805   8.458  0.3580 -1.8476 -1.6672
 7011SOL     OW32665   3.917   3.622  11.052 -0.5770 -0.7440 -0.2839
 7011SOL    HW132666   3.923   3.715  11.075  2.9407 -1.5408  1.9475
 7011SOL    HW232667   3.957   3.589  11.132 -0.8839 -1.0425 -0.2523
 7012SOL     OW32668   1.408   0.309   6.931 -0.1987 -0.2766 -0.0770
 7012SOL    HW132669   1.397   0.340   6.841 -0.5115 -0.8838 -0.2488
 7012SOL    HW232670   1.343   0.364   6.975  0.9005  1.2141 -0.3248
 7013SOL     OW32671   0.566   4.500  10.976 -0.5283  0.7052  0.7044
 7013SOL    HW132672   0.608   4.421  11.009 -0.1098  0.2634 -0.8581
 7013SOL    HW232673   0.482   4.496  11.021 -1.3038  1.0961 -0.7231
 7014SOL     OW32674   2.309   2.035   2.724  0.3815  0.5121  0.0563
 7014SOL    HW132675   2.226   2.084   2.721 -0.3008 -0.7598 -1.7369
 7014SOL    HW232676   2.289   1.972   2.794  0.0291  0.9883  0.3861
 7015SOL     OW32677   0.963   3.377   4.807 -0.0255  0.0431  0.2956
 7015SOL    HW132678   0.907   3.409   4.737  0.0722 -3.2206 -1.2475
 7015SOL    HW232679   0.983   3.459   4.854 -0.4645  0.5513 -0.4053
 7016SOL     OW32680   2.470   4.720  16.397  0.4410  1.3324 -0.1904
 7016SOL    HW132681   2.535   4.715  16.467  0.7413  0.6602 -0.5205
 7016SOL    HW232682   2.522   0.005  16.320  1.8483  0.3421  0.4819
 7017SOL     OW32683   3.215   2.703   1.587 -0.1751  0.3884 -0.1007
 7017SOL    HW132684   3.274   2.768   1.624 -0.2922  1.4431 -1.7963
 7017SOL    HW232685   3.182   2.670   1.671  0.0043 -3.7273 -1.6672
 7018SOL     OW32686   1.465   2.006   7.195  0.3426 -0.0045 -0.1252
 7018SOL    HW132687   1.370   2.010   7.189  0.3050 -1.2840 -0.5201
 7018SOL    HW232688   1.477   1.911   7.192  1.9376  0.2338 -1.3233
 7019SOL     OW32689   4.354   4.251  17.205 -0.3543  0.1919  0.0305
 7019SOL    HW132690   4.279   4.293  17.247  1.2320 -0.3458  3.3725
 7019SOL    HW232691   4.417   4.268  17.275  0.9496 -0.0143 -1.1011
 7020SOL     OW32692   3.575   3.018   7.449 -0.9463  0.4863 -0.4339
 7020SOL    HW132693   3.522   3.089   7.485 -0.9278 -0.4476  1.4055
 7020SOL    HW232694   3.522   3.008   7.370  0.4570  0.4857 -1.3830
 7021SOL     OW32695   1.643   3.378   0.717  0.2618 -0.2949 -0.5021
 7021SOL    HW132696   1.618   3.297   0.675 -0.7143 -0.1432 -0.2016
 7021SOL    HW232697   1.570   3.434   0.690 -0.0449  0.7115  2.3662
 7022SOL     OW32698   0.896   2.046  16.664 -0.3872  1.0206  0.1476
 7022SOL    HW132699   0.836   2.071  16.734  0.2709 -1.0887  1.4477
 7022SOL    HW232700   0.832   2.027  16.594 -0.1069  1.7462 -0.3081
 7023SOL     OW32701   0.407   2.891   4.667  0.2185 -0.4077 -0.1968
 7023SOL    HW132702   0.486   2.905   4.614  2.0821 -1.1202  2.4415
 7023SOL    HW232703   0.377   2.807   4.631  0.0596  0.0039 -1.0227
 7024SOL     OW32704   4.402   0.099  11.971 -0.0580 -0.0885  0.1761
 7024SOL    HW132705   4.354   0.181  11.981  1.3177  0.7604 -0.2031
 7024SOL    HW232706   4.468   0.120  12.037 -0.3957  0.5664  0.3087
 7025SOL     OW32707   1.833   0.144   2.970  0.1712  0.4108  0.2458
 7025SOL    HW132708   1.906   0.083   2.972 -0.3299 -0.1176  1.7797
 7025SOL    HW232709   1.772   0.082   2.929  0.9348 -1.2022  1.5645
 7026SOL     OW32710   1.442   2.277   5.392 -0.0249  0.5942 -0.0140
 7026SOL    HW132711   1.356   2.245   5.421  1.2228 -1.4282  1.4140
 7026SOL    HW232712   1.421   2.369   5.411  0.8688  1.1983 -2.0257
 7027SOL     OW32713   2.090   2.347   4.327 -0.1654  0.4348 -0.5476
 7027SOL    HW132714   2.074   2.357   4.233  1.1372  1.4330 -0.6530
 7027SOL    HW232715   2.053   2.427   4.363  0.3522  0.8615 -0.9549
 7028SOL     OW32716   1.916   4.581   0.983 -0.5759 -0.4800 -0.3520
 7028SOL    HW132717   1.991   4.619   0.935 -0.7697 -1.1388 -1.1806
 7028SOL    HW232718   1.940   4.612   1.070  1.0344  0.8627 -1.2727
 7029SOL     OW32719   3.584   2.622  12.085  0.1491 -0.2591  0.3812
 7029SOL    HW132720   3.542   2.559  12.027  1.1747 -3.1783  2.8001
 7029SOL    HW232721   3.502   2.648  12.127  0.5410  1.1514  0.2711
 7030SOL     OW32722   1.000   0.596  11.498  0.1275  0.5945 -0.0623
 7030SOL    HW132723   1.064   0.667  11.500  1.3192 -0.4901  0.8429
 7030SOL    HW232724   1.045   0.527  11.547  1.8089 -0.5200 -3.1169
 7031SOL     OW32725   4.280   2.373   5.689  0.0970 -0.2225 -0.2307
 7031SOL    HW132726   4.336   2.418   5.752 -0.9240  1.3166 -0.4244
 7031SOL    HW232727   4.260   2.449   5.634  0.9900  1.6569  2.1112
 7032SOL     OW32728   2.588   2.338   6.658  0.1985 -0.8239 -0.3767
 7032SOL    HW132729   2.539   2.315   6.579  0.2421  2.7317 -1.4407
 7032SOL    HW232730   2.656   2.390   6.616  0.4454  0.0552  1.1086
 7033SOL     OW32731   1.104   0.305  10.155  0.0241  0.0078  0.3720
 7033SOL    HW132732   1.174   0.368  10.170 -1.5593  1.6572  0.9421
 7033SOL    HW232733   1.139   0.272  10.072 -1.6082 -2.2050  0.5560
 7034SOL     OW32734   0.250   0.047   7.119  0.3417  0.5394 -0.3098
 7034SOL    HW132735   0.188   4.730   7.072  1.3604  0.7776 -1.9232
 7034SOL    HW232736   0.318   4.717   7.126  0.1744  0.1490 -2.5608
 7035SOL     OW32737   3.012   3.168  15.860 -0.1632  0.7094 -0.0627
 7035SOL    HW132738   3.085   3.164  15.798 -0.5033 -0.7093 -0.3638
 7035SOL    HW232739   3.000   3.262  15.870 -0.5495  0.5510  0.9841
 7036SOL     OW32740   1.646   2.436   4.131 -0.1795  0.3859  0.3138
 7036SOL    HW132741   1.661   2.479   4.216 -1.2793  1.1291  0.1360
 7036SOL    HW232742   1.676   2.347   4.146  1.5167  0.7156 -1.2564
 7037SOL     OW32743   4.694   3.643   3.498 -0.1588  0.9602 -0.6501
 7037SOL    HW132744   4.673   3.562   3.545  0.0371  0.9425 -0.5926
 7037SOL    HW232745   4.694   3.616   3.406  1.5639  0.9308 -0.6505
 7038SOL     OW32746   3.105   0.465  11.251  0.1936  0.0367 -0.2135
 7038SOL    HW132747   3.162   0.470  11.174 -0.4982 -0.3144 -0.7426
 7038SOL    HW232748   3.028   0.516  11.230 -0.5325 -0.9256  0.1268
 7039SOL     OW32749   1.833   4.538  10.067 -0.0766  0.5476  0.2230
 7039SOL    HW132750   1.922   4.523  10.036  0.2009  1.9774  0.3058
 7039SOL    HW232751   1.837   4.633  10.080  0.5534  0.8015 -1.8762
 7040SOL     OW32752   4.163   0.070   6.866  0.2066  0.0456  0.2600
 7040SOL    HW132753   4.142   0.032   6.781  0.7713 -0.7206  0.4596
 7040SOL    HW232754   4.158   0.163   6.845 -3.5940 -0.7769 -2.3850
 7041SOL     OW32755   1.418   3.976  13.856 -0.4159 -0.3369  0.0394
 7041SOL    HW132756   1.479   3.993  13.928 -0.8792 -1.1766  0.6374
 7041SOL    HW232757   1.415   4.063  13.815  0.3728 -0.5262 -0.4166
 7042SOL     OW32758   0.151   2.463   1.103  0.3142  0.0350 -0.1381
 7042SOL    HW132759   0.116   2.387   1.150  0.1383 -0.0422 -0.3930
 7042SOL    HW232760   0.213   2.497   1.168 -0.4990  0.1007  0.6053
 7043SOL     OW32761   0.968   0.567   5.974 -0.2163  0.4895  0.2765
 7043SOL    HW132762   0.926   0.627   6.036 -3.9670  1.0058 -2.7709
 7043SOL    HW232763   1.017   0.509   6.032  0.4472 -0.4163 -1.1926
 7044SOL     OW32764   3.924   3.459   3.282 -0.0320  0.1968  0.5505
 7044SOL    HW132765   3.882   3.374   3.295 -0.4736  0.2983 -0.1809
 7044SOL    HW232766   3.901   3.513   3.358  2.3453  1.0329  0.6824
 7045SOL     OW32767   0.423   4.657   3.846 -0.3106  0.9575 -0.0670
 7045SOL    HW132768   0.503   4.625   3.804 -1.0936 -0.7862 -0.2361
 7045SOL    HW232769   0.444   0.011   3.866 -0.6260  1.4852 -2.0992
 7046SOL     OW32770   2.688   1.223  12.358 -0.2180 -0.4303  0.1709
 7046SOL    HW132771   2.608   1.170  12.357 -0.9108  0.6254  0.4142
 7046SOL    HW232772   2.743   1.169  12.301 -0.6644  1.0058 -1.6076
 7047SOL     OW32773   2.583   0.182   4.622 -0.4532  0.0149 -0.2731
 7047SOL    HW132774   2.664   0.195   4.573 -0.8319 -0.2035 -0.9461
 7047SOL    HW232775   2.523   0.135   4.564  1.9539 -2.2570 -0.8793
 7048SOL     OW32776   0.179   0.914  15.875 -0.1628 -0.3296 -0.1340
 7048SOL    HW132777   0.113   0.983  15.867 -0.0124 -0.1357  0.2940
 7048SOL    HW232778   0.188   0.901  15.969  0.3839  2.9238  0.2388
 7049SOL     OW32779   4.217   2.026  13.437 -0.0423 -0.6349  0.1628
 7049SOL    HW132780   4.128   2.060  13.444 -0.5303 -1.8387 -0.2424
 7049SOL    HW232781   4.234   2.045  13.529  2.2912  1.6495 -0.7053
 7050SOL     OW32782   0.352   2.061   0.307  0.2022 -0.7669 -0.5399
 7050SOL    HW132783   0.447   2.053   0.296  0.3377 -1.7316  1.3807
 7050SOL    HW232784   0.341   2.133   0.370 -1.2956 -0.3328 -1.2955
 7051SOL     OW32785   0.711   2.005   1.942 -0.2368  0.2354 -0.5321
 7051SOL    HW132786   0.681   1.922   1.904 -0.6385 -0.6724  1.7857
 7051SOL    HW232787   0.645   2.061   1.901 -0.4921 -0.1828 -0.7040
 7052SOL     OW32788   2.525   0.298  15.526 -0.3222 -0.4384 -0.7731
 7052SOL    HW132789   2.516   0.370  15.589 -2.3742 -1.6564  0.3341
 7052SOL    HW232790   2.528   0.218  15.578  0.7991 -0.3431 -0.6930
 7053SOL     OW32791   0.924   3.772   7.705  0.6179  0.7888  0.0037
 7053SOL    HW132792   0.852   3.714   7.729  0.4594  0.9619 -0.0492
 7053SOL    HW232793   0.958   3.722   7.631  2.3881 -0.9372  1.9737
 7054SOL     OW32794   3.278   2.411   0.263  0.3097 -0.0440 -0.1135
 7054SOL    HW132795   3.235   2.471   0.323 -0.6778 -1.4046  0.5429
 7054SOL    HW232796   3.315   2.335   0.308  2.4936  0.6125 -0.7645
 7055SOL     OW32797   2.928   3.153   7.957 -0.1806  0.0324  0.3847
 7055SOL    HW132798   2.882   3.205   8.022  0.9495 -0.7045  1.7695
 7055SOL    HW232799   3.019   3.169   7.983 -0.3154  1.2159  0.0969
 7056SOL     OW32800   1.288   1.067   1.748 -0.2415 -0.3725 -0.9740
 7056SOL    HW132801   1.337   0.999   1.703  2.3354  0.4103  0.6676
 7056SOL    HW232802   1.233   1.107   1.680 -0.3181 -0.1102 -0.7609
 7057SOL     OW32803   0.439   1.434   9.608  0.7329  0.4027  0.1040
 7057SOL    HW132804   0.392   1.428   9.525  0.0734 -0.1793  0.5175
 7057SOL    HW232805   0.528   1.436   9.574  0.9270 -1.5660  0.4914
 7058SOL     OW32806   3.338   3.622   3.188 -0.2970  0.7190 -0.0447
 7058SOL    HW132807   3.311   3.550   3.245  0.4854  0.0212 -0.5709
 7058SOL    HW232808   3.256   3.621   3.138  0.2533  1.1382 -0.9604
 7059SOL     OW32809   3.358   0.265   1.738 -0.1270 -0.4884 -0.5728
 7059SOL    HW132810   3.397   0.182   1.763  0.3017 -0.2595 -0.4925
 7059SOL    HW232811   3.383   0.293   1.650  0.9494 -1.0438 -0.4331
 7060SOL     OW32812   0.539   2.507   8.529  1.0267  0.1985 -0.2003
 7060SOL    HW132813   0.574   2.546   8.449 -1.9006 -1.2780 -2.2304
 7060SOL    HW232814   0.499   2.584   8.568 -0.2402 -0.2096 -0.6592
 7061SOL     OW32815   0.368   1.868   1.181 -0.2560  0.2181 -0.8084
 7061SOL    HW132816   0.299   1.934   1.192  0.0675  0.1082  1.9882
 7061SOL    HW232817   0.414   1.914   1.111  1.8578 -0.9857 -0.2278
 7062SOL     OW32818   3.364   1.483   6.575  0.4152 -0.3866 -0.4651
 7062SOL    HW132819   3.405   1.405   6.537  1.8807  0.6956 -1.0667
 7062SOL    HW232820   3.284   1.445   6.612  1.3096 -1.3273  0.4870
 7063SOL     OW32821   0.467   0.682  15.317 -0.5012 -0.0499  0.1351
 7063SOL    HW132822   0.399   0.625  15.354  0.8354 -0.5371  1.8482
 7063SOL    HW232823   0.486   0.736  15.394 -3.1758 -2.4902  2.5553
 7064SOL     OW32824   1.645   3.253  11.593 -0.0646 -0.2095  0.4554
 7064SOL    HW132825   1.682   3.238  11.506  2.1645 -0.5450  1.4479
 7064SOL    HW232826   1.557   3.216  11.588 -0.4451  0.4969  1.8454
 7065SOL     OW32827   4.066   2.728   0.298 -0.3976 -0.5022 -0.0513
 7065SOL    HW132828   4.003   2.670   0.256 -2.4978  2.4786 -1.0193
 7065SOL    HW232829   4.144   2.710   0.246 -0.2551  0.6589 -0.2476
 7066SOL     OW32830   2.904   4.668   7.461  0.1560 -0.4409 -0.3435
 7066SOL    HW132831   2.990   4.711   7.462 -0.5305  0.9333 -0.9081
 7066SOL    HW232832   2.915   4.609   7.386 -0.1151 -1.5569  0.4893
 7067SOL     OW32833   0.280   2.020  12.648  0.4414  0.0235 -0.1877
 7067SOL    HW132834   0.301   2.009  12.740  2.7973 -0.9315 -0.8568
 7067SOL    HW232835   0.222   1.945  12.634 -1.6840  1.2849  1.8804
 7068SOL     OW32836   4.407   1.626   5.763  0.2604 -0.2835  0.1308
 7068SOL    HW132837   4.405   1.664   5.851 -2.7164  1.4052 -0.6550
 7068SOL    HW232838   4.473   1.557   5.771  1.3868  0.4318 -3.1710
 7069SOL     OW32839   4.068   1.106   3.374 -0.5093  0.1607  0.4527
 7069SOL    HW132840   4.161   1.130   3.374 -0.2101 -1.0195  1.5855
 7069SOL    HW232841   4.034   1.195   3.368  0.7143  0.6359  0.4224
 7070SOL     OW32842   2.098   0.789   1.326 -0.1411  0.3315  0.0172
 7070SOL    HW132843   2.034   0.732   1.284  1.9764 -0.2542 -2.3817
 7070SOL    HW232844   2.183   0.750   1.304 -0.4210 -0.9859  1.2657
 7071SOL     OW32845   0.793   3.245   5.337 -0.0911  0.2219  0.1803
 7071SOL    HW132846   0.827   3.256   5.248 -1.1272 -1.5956 -0.4326
 7071SOL    HW232847   0.708   3.202   5.332 -0.5571  1.1422  0.2257
 7072SOL     OW32848   3.135   4.013   6.817 -0.1859 -0.5510  0.2258
 7072SOL    HW132849   3.093   4.091   6.853  1.0299  0.0089  0.4136
 7072SOL    HW232850   3.213   4.057   6.782 -0.9659  1.7328  1.3191
 7073SOL     OW32851   3.067   3.375  15.342 -0.2074  0.1417 -0.1342
 7073SOL    HW132852   3.091   3.287  15.311 -3.2966 -1.1278  1.0512
 7073SOL    HW232853   2.979   3.356  15.376 -0.3174  0.5084 -0.2196
 7074SOL     OW32854   1.107   4.516  10.286  0.3113  0.4865 -0.0231
 7074SOL    HW132855   1.080   4.471  10.366  1.4908  2.7321  1.6231
 7074SOL    HW232856   1.193   4.478  10.269 -0.1084 -0.7452  0.5670
 7075SOL     OW32857   4.331   3.844  16.479 -0.0561 -0.1149 -0.4373
 7075SOL    HW132858   4.345   3.880  16.567 -0.5217 -1.7347  0.2976
 7075SOL    HW232859   4.408   3.790  16.461  0.1743  0.3509 -0.8383
 7076SOL     OW32860   1.151   4.380   7.458 -0.0510 -0.1062 -0.1590
 7076SOL    HW132861   1.187   4.333   7.382  0.3310 -1.6085  0.9600
 7076SOL    HW232862   1.128   4.311   7.520  0.0852 -0.7009 -0.7548
 7077SOL     OW32863   4.323   1.451  13.379 -0.1833  0.0301 -0.2967
 7077SOL    HW132864   4.338   1.472  13.472  1.5273 -1.7878 -0.1645
 7077SOL    HW232865   4.264   1.376  13.372 -0.1377  0.0614 -0.9710
 7078SOL     OW32866   2.460   3.798  14.969 -0.3352  1.0465 -0.4524
 7078SOL    HW132867   2.456   3.841  14.883 -1.1658 -0.8386 -1.3761
 7078SOL    HW232868   2.371   3.771  14.991 -0.3377  0.2375 -1.3963
 7079SOL     OW32869   2.209   1.490   7.798 -0.2201 -0.2928 -0.1846
 7079SOL    HW132870   2.257   1.521   7.875 -0.2936 -0.8470  0.0861
 7079SOL    HW232871   2.284   1.453   7.751 -1.4287 -2.4354 -0.4465
 7080SOL     OW32872   1.408   0.589   6.005  0.1728  0.1429  0.1625
 7080SOL    HW132873   1.389   0.638   6.085  0.5376  2.0571 -0.9333
 7080SOL    HW232874   1.332   0.615   5.953 -0.3391 -0.5468  0.5718
 7081SOL     OW32875   0.048   1.233   8.981  0.3887  0.2034  0.0332
 7081SOL    HW132876   0.015   1.168   8.919  0.4800 -0.3781  0.5982
 7081SOL    HW232877   0.105   1.282   8.922 -1.0994 -2.0603 -3.2363
 7082SOL     OW32878   0.394   1.101   5.699 -0.3844  0.1290 -0.0971
 7082SOL    HW132879   0.367   1.166   5.765  1.3182  1.4011 -0.6426
 7082SOL    HW232880   0.469   1.152   5.667 -0.9155  0.9123 -0.0880
 7083SOL     OW32881   4.258   2.152   6.659  0.3024  1.0637  0.5791
 7083SOL    HW132882   4.336   2.205   6.675  0.2991  0.7591  1.5833
 7083SOL    HW232883   4.269   2.099   6.738 -0.5217 -0.7690 -0.5234
 7084SOL     OW32884   1.121   1.835   7.232  0.0122  0.0565  0.0871
 7084SOL    HW132885   1.183   1.763   7.223 -0.6697 -0.6764  1.2462
 7084SOL    HW232886   1.058   1.801   7.168  0.5200 -1.5593  0.4554
 7085SOL     OW32887   2.393   0.012   8.177 -0.1807  0.1629 -0.3163
 7085SOL    HW132888   2.335   0.016   8.254  1.3264  2.7005  0.6989
 7085SOL    HW232889   2.337   0.049   8.109  1.5620  1.8509 -0.8425
 7086SOL     OW32890   0.124   3.639   5.592 -0.0998  0.1600  0.0045
 7086SOL    HW132891   0.212   3.667   5.617  0.1259 -2.0941  1.7596
 7086SOL    HW232892   0.139   3.583   5.516  0.2501  0.5757 -0.2316
 7087SOL     OW32893   2.268   3.618  14.762  0.0024  0.6375 -0.0732
 7087SOL    HW132894   2.205   3.645  14.695  0.3937 -0.0844 -0.7270
 7087SOL    HW232895   2.216   3.563  14.821  0.9410  1.4862  1.5636
 7088SOL     OW32896   0.324   4.106   3.354  0.0444  0.6909  0.8802
 7088SOL    HW132897   0.293   4.058   3.277  0.2820 -1.4009  2.0783
 7088SOL    HW232898   0.290   4.194   3.335 -1.7597  0.0354  1.0387
 7089SOL     OW32899   2.435   3.009   7.393 -0.5505  0.1210 -0.0527
 7089SOL    HW132900   2.428   2.962   7.310 -0.8090  0.5307 -0.2586
 7089SOL    HW232901   2.417   3.100   7.372  0.5175  0.2225 -0.4860
 7090SOL     OW32902   0.801   0.553   4.824  0.0286  0.5711 -0.3471
 7090SOL    HW132903   0.879   0.520   4.780  0.2593  1.0295 -0.2822
 7090SOL    HW232904   0.752   0.604   4.760  1.4094  0.3414 -1.5905
 7091SOL     OW32905   3.096   1.279   4.121 -0.3864  0.0728 -0.9159
 7091SOL    HW132906   3.165   1.275   4.187 -2.0122  0.0438  0.7780
 7091SOL    HW232907   3.029   1.338   4.156  0.1623 -1.2327  2.2753
 7092SOL     OW32908   1.900   1.398   5.687  0.1051 -0.3054 -0.0328
 7092SOL    HW132909   1.914   1.312   5.725  0.3920 -0.5930 -0.7925
 7092SOL    HW232910   1.808   1.398   5.659  0.2868  2.0195 -0.6918
 7093SOL     OW32911   1.500   3.549   3.581 -0.2613  0.0363 -0.0064
 7093SOL    HW132912   1.500   3.645   3.578  0.8467  0.0790  1.6951
 7093SOL    HW232913   1.586   3.545   3.623 -1.0076 -2.5042  1.2355
 7094SOL     OW32914   0.794   0.229   6.322 -0.5907  0.7849 -0.2648
 7094SOL    HW132915   0.773   0.147   6.366 -0.7525  0.7070 -0.4923
 7094SOL    HW232916   0.824   0.273   6.402 -0.2439 -3.1784  1.7732
 7095SOL     OW32917   0.431   1.108   2.608  0.3760 -0.1238  0.5468
 7095SOL    HW132918   0.351   1.132   2.560  0.9988  2.3122  0.7639
 7095SOL    HW232919   0.426   1.013   2.596  1.7558 -0.3181  1.5411
 7096SOL     OW32920   1.028   0.668   8.960  0.1010  0.0436  0.4213
 7096SOL    HW132921   0.954   0.656   9.019  0.8748 -0.7136  1.2465
 7096SOL    HW232922   1.101   0.677   9.022 -0.0791 -0.4859  0.7019
 7097SOL     OW32923   0.076   1.932   3.876  0.1523 -0.3097 -0.3015
 7097SOL    HW132924   4.730   1.950   3.920  0.4833 -0.7982  0.5219
 7097SOL    HW232925   0.108   1.860   3.931  2.7063  0.0033 -1.4002
 7098SOL     OW32926   1.085   3.244   3.610  0.4809  0.1162 -0.3539
 7098SOL    HW132927   1.160   3.261   3.667  0.7874  1.5161 -1.1862
 7098SOL    HW232928   1.030   3.321   3.626 -0.3631 -0.8683  1.5072
 7099SOL     OW32929   0.108   4.370   2.845  0.0307 -0.2742 -0.2814
 7099SOL    HW132930   0.103   4.453   2.798 -2.1607  0.9869  2.1955
 7099SOL    HW232931   0.094   4.396   2.936 -0.0197  2.5473 -1.1230
 7100SOL     OW32932   4.323   4.541   1.402 -0.1461  0.2227  0.0491
 7100SOL    HW132933   4.322   4.445   1.400 -2.2432  0.2399  0.6128
 7100SOL    HW232934   4.374   4.559   1.481  0.3994 -1.8398  0.1781
 7101SOL     OW32935   1.471   3.597   6.071  0.0077 -0.0538 -0.4662
 7101SOL    HW132936   1.525   3.614   6.149 -2.9956 -1.2370  1.8729
 7101SOL    HW232937   1.429   3.519   6.109  0.5316  0.5580  1.3966
 7102SOL     OW32938   0.629   1.971   6.686 -0.7662 -0.0494 -0.2364
 7102SOL    HW132939   0.557   2.028   6.713 -0.9070  0.3283 -1.4232
 7102SOL    HW232940   0.698   2.024   6.726  0.1667 -0.7453 -0.9316
 7103SOL     OW32941   0.091   1.507   5.665 -0.3587 -0.3856  0.2682
 7103SOL    HW132942   0.086   1.552   5.750 -0.0557 -2.5966  1.4568
 7103SOL    HW232943   0.088   1.414   5.687  3.9348  0.0764  2.7586
 7104SOL     OW32944   4.096   4.619  16.671  0.0220  0.1294  0.3880
 7104SOL    HW132945   4.110   4.563  16.747  0.0552 -0.9189 -0.3833
 7104SOL    HW232946   4.183   4.595  16.639 -0.1235 -0.2017  0.2271
 7105SOL     OW32947   0.528   2.283   9.002  0.2138  0.0099 -0.3069
 7105SOL    HW132948   0.572   2.199   9.014  0.7340  0.6420  2.1919
 7105SOL    HW232949   0.554   2.304   8.912  3.3755 -2.0753  0.1111
 7106SOL     OW32950   2.135   3.849   8.016 -0.1179  0.2564  0.1076
 7106SOL    HW132951   2.108   3.757   8.027  0.2420  0.4886  2.8587
 7106SOL    HW232952   2.228   3.837   8.000 -0.2374  0.8404 -1.0314
 7107SOL     OW32953   3.968   0.328  13.296 -0.0860  0.7755  0.0679
 7107SOL    HW132954   3.993   0.272  13.223  1.1392  0.9596  0.3344
 7107SOL    HW232955   3.921   0.399  13.252  2.1569  1.8674 -0.5866
 7108SOL     OW32956   0.683   4.244   9.325 -0.1253  0.1671  0.2181
 7108SOL    HW132957   0.621   4.220   9.257  0.8283  0.5451 -0.7704
 7108SOL    HW232958   0.733   4.162   9.323 -0.8956 -0.3199  1.1726
 7109SOL     OW32959   0.272   3.729   3.249 -0.1037  0.6577 -0.6745
 7109SOL    HW132960   0.350   3.758   3.202 -0.9052 -0.3542 -2.6006
 7109SOL    HW232961   0.224   3.810   3.268  0.3498  2.0706 -5.6212
 7110SOL     OW32962   2.589   1.477  14.140  0.0725 -0.3773  0.4098
 7110SOL    HW132963   2.548   1.402  14.183  1.5727 -1.1271  0.5223
 7110SOL    HW232964   2.519   1.520  14.092  0.2118  0.0021  0.5399
 7111SOL     OW32965   0.153   1.702   0.798  0.1176  0.2322 -0.4785
 7111SOL    HW132966   0.115   1.765   0.738 -1.4646 -1.6364 -1.4496
 7111SOL    HW232967   0.235   1.743   0.826 -0.2916  1.2799 -0.8361
 7112SOL     OW32968   0.205   3.539  12.161 -0.1409 -0.1911 -0.2008
 7112SOL    HW132969   0.222   3.576  12.248  1.7419  1.5359 -1.3062
 7112SOL    HW232970   0.198   3.445  12.173  1.9712 -0.0351  2.1960
 7113SOL     OW32971   0.807   2.349   6.155 -0.9238 -0.2644  0.5703
 7113SOL    HW132972   0.844   2.422   6.204 -0.0643  0.0367 -0.5571
 7113SOL    HW232973   0.868   2.284   6.190  0.9680  1.2551  0.0320
 7114SOL     OW32974   0.565   1.475   5.690 -0.4248  0.2615  0.3859
 7114SOL    HW132975   0.586   1.385   5.667  0.5388  0.3654  0.8432
 7114SOL    HW232976   0.628   1.487   5.761  0.9993  0.0843 -0.8422
 7115SOL     OW32977   2.793   2.472   8.979 -0.0520 -0.3661  0.2989
 7115SOL    HW132978   2.817   2.542   8.919  0.9708 -1.5595 -0.6660
 7115SOL    HW232979   2.826   2.509   9.061 -1.4248 -1.2723  1.2718
 7116SOL     OW32980   3.056   2.640   1.183 -0.4121  0.0332  0.6053
 7116SOL    HW132981   2.984   2.602   1.133  0.2160  0.9264 -0.9772
 7116SOL    HW232982   3.134   2.628   1.127 -1.0442 -0.5379 -0.1566
 7117SOL     OW32983   1.684   0.959   9.769  0.8743  0.5096 -0.1404
 7117SOL    HW132984   1.663   1.028   9.833 -0.3399  1.1337 -1.1982
 7117SOL    HW232985   1.669   0.882   9.823  1.6827  0.8444  0.5672
 7118SOL     OW32986   4.020   1.437   4.959  0.0715 -0.3263  0.4886
 7118SOL    HW132987   3.946   1.498   4.956 -0.7979 -1.4360 -0.7791
 7118SOL    HW232988   3.995   1.391   5.040  0.4523  1.7233  1.7557
 7119SOL     OW32989   4.056   4.462  10.592 -0.2546 -0.0245 -0.3471
 7119SOL    HW132990   4.099   4.412  10.522  2.9718  2.0022  0.1962
 7119SOL    HW232991   4.121   4.532  10.600 -1.8163  1.3599  0.2056
 7120SOL     OW32992   1.322   4.101   2.714 -0.2565  0.0007 -0.3510
 7120SOL    HW132993   1.411   4.065   2.708 -0.2552 -0.0460 -0.0610
 7120SOL    HW232994   1.341   4.191   2.741 -1.9394 -0.3940  2.1463
 7121SOL     OW32995   1.692   1.490  16.191  0.0169 -0.1407  0.0568
 7121SOL    HW132996   1.763   1.523  16.137 -1.3820  1.4507 -0.8047
 7121SOL    HW232997   1.638   1.452  16.121  0.5233  0.0528 -0.4336
 7122SOL     OW32998   3.613   3.207   6.282  0.7432 -0.1890 -0.7033
 7122SOL    HW132999   3.658   3.192   6.199  0.3626  0.3055 -1.0004
 7122SOL    HW233000   3.642   3.135   6.338 -0.5991  1.1226  1.6414
 7123SOL     OW33001   3.197   4.370  16.066 -0.0398 -0.9010 -0.6286
 7123SOL    HW133002   3.151   4.454  16.069  0.8470 -0.4836  1.1712
 7123SOL    HW233003   3.218   4.361  15.973 -1.9561  0.2552 -1.1717
 7124SOL     OW33004   3.823   4.125   1.569  0.2518 -0.6673  0.3885
 7124SOL    HW133005   3.812   4.172   1.486 -2.2873 -2.4819 -0.3360
 7124SOL    HW233006   3.894   4.169   1.614 -0.1258 -0.8980  1.2007
 7125SOL     OW33007   3.147   4.043   4.370  0.2234 -0.6293 -0.1113
 7125SOL    HW133008   3.158   4.128   4.413 -2.0960  0.2243 -1.2239
 7125SOL    HW233009   3.144   3.991   4.451  2.5568  0.2497  0.5648
 7126SOL     OW33010   2.443   3.848  14.694 -0.0120  0.3121  0.4590
 7126SOL    HW133011   2.381   3.895  14.637  0.5912  1.9606  1.1668
 7126SOL    HW233012   2.397   3.768  14.719 -0.6883  1.1457  1.9335
 7127SOL     OW33013   0.165   4.118   7.194 -0.1538  0.0945  0.0401
 7127SOL    HW133014   0.191   4.199   7.151  1.9876 -1.7591 -2.1536
 7127SOL    HW233015   0.077   4.108   7.158 -0.7892  0.9007  1.3699
 7128SOL     OW33016   1.277   4.338   8.543 -0.3871 -0.4417  0.4022
 7128SOL    HW133017   1.344   4.330   8.611  1.5137  1.2005 -1.2895
 7128SOL    HW233018   1.215   4.394   8.591 -0.1725 -0.4565  0.6963
 7129SOL     OW33019   2.919   3.799   9.159 -0.4891  0.1071  0.2378
 7129SOL    HW133020   2.948   3.743   9.231  1.4848  0.6536 -0.1540
 7129SOL    HW233021   2.864   3.734   9.115  1.0823 -0.5961 -0.6927
 7130SOL     OW33022   0.257   1.770  16.880 -0.0921 -0.3581  0.2463
 7130SOL    HW133023   0.172   1.725  16.881 -1.2891  1.9165 -0.1403
 7130SOL    HW233024   0.278   1.747  16.789 -2.5406 -2.0283  0.1059
 7131SOL     OW33025   2.257   3.999   0.830  0.8848 -0.5794  0.0267
 7131SOL    HW133026   2.189   4.031   0.889 -0.1244 -2.4290 -0.1385
 7131SOL    HW233027   2.321   3.964   0.893  4.2864  1.4247 -2.3264
 7132SOL     OW33028   1.657   1.589   7.871 -0.1213  0.2050 -0.1653
 7132SOL    HW133029   1.738   1.575   7.920 -0.5540 -0.3824  0.3737
 7132SOL    HW233030   1.680   1.566   7.781 -0.4740  1.3649 -0.5531
 7133SOL     OW33031   0.018   4.319   4.114 -0.3610 -0.3576 -0.1848
 7133SOL    HW133032   0.097   4.300   4.165 -2.3292 -2.6048  2.0142
 7133SOL    HW233033   0.030   4.274   4.030  0.8059 -2.1686  0.9547
 7134SOL     OW33034   1.723   2.861   8.121  0.1195  0.1207  0.2827
 7134SOL    HW133035   1.706   2.950   8.089 -1.5305  0.4059  1.9953
 7134SOL    HW233036   1.635   2.827   8.106  0.2249  0.6163 -1.5328
 7135SOL     OW33037   3.063   4.474  12.170 -0.9224  0.1855  0.2612
 7135SOL    HW133038   3.033   4.403  12.226 -0.2124  0.2077  0.6646
 7135SOL    HW233039   3.079   4.544  12.233  0.6720  0.4692 -0.4506
 7136SOL     OW33040   0.367   0.158   1.355 -0.2077 -0.5482 -0.3232
 7136SOL    HW133041   0.432   0.142   1.286  0.2871 -0.0029  0.0202
 7136SOL    HW233042   0.423   0.140   1.430 -0.9705  2.6466  0.9814
 7137SOL     OW33043   2.975   0.695  13.014 -0.1791 -0.5248 -0.4238
 7137SOL    HW133044   2.941   0.720  12.928 -0.3577 -1.9598 -0.7752
 7137SOL    HW233045   3.007   0.779  13.046  2.0043 -0.9057 -1.5815
 7138SOL     OW33046   3.278   0.606   8.819  0.4259 -0.5116 -0.2606
 7138SOL    HW133047   3.351   0.617   8.880 -0.7347  0.9970  0.8782
 7138SOL    HW233048   3.257   0.698   8.799 -2.4031 -0.7991  1.3862
 7139SOL     OW33049   1.518   0.847   2.123 -0.0040  0.6217  0.4068
 7139SOL    HW133050   1.465   0.921   2.154  0.5946  1.4049 -0.4664
 7139SOL    HW233051   1.606   0.885   2.116  0.6236 -0.6801  1.1483
 7140SOL     OW33052   1.415   0.152   5.359  0.3175 -0.0656 -0.0998
 7140SOL    HW133053   1.324   0.180   5.353 -0.3929 -2.4242 -0.3632
 7140SOL    HW233054   1.443   0.197   5.439 -0.6011  0.6713 -0.1987
 7141SOL     OW33055   0.750   4.022   7.723 -0.8282  0.8344 -0.1338
 7141SOL    HW133056   0.804   4.101   7.722 -0.3264  0.4857 -1.1190
 7141SOL    HW233057   0.819   3.955   7.729  0.2309  1.7614 -1.9278
 7142SOL     OW33058   3.790   1.470   6.308  0.0564  0.3013 -0.2707
 7142SOL    HW133059   3.791   1.443   6.400 -1.4289 -1.9147 -0.9049
 7142SOL    HW233060   3.879   1.501   6.291  0.7393 -0.4000  2.0037
 7143SOL     OW33061   3.676   3.850  11.447 -0.7127  0.3945 -0.1099
 7143SOL    HW133062   3.709   3.923  11.501 -0.1627 -0.7049  1.0404
 7143SOL    HW233063   3.631   3.813  11.523  1.6510 -1.9361  0.1659
 7144SOL     OW33064   2.036   0.385   6.092 -0.3154  0.8411 -0.4452
 7144SOL    HW133065   2.096   0.313   6.115 -1.9651 -0.8381 -1.4157
 7144SOL    HW233066   2.103   0.453   6.098  0.5839 -0.2008  1.8598
 7145SOL     OW33067   4.416   0.864  11.576 -0.5250 -0.1138 -0.2566
 7145SOL    HW133068   4.340   0.919  11.561  1.0171  1.7295 -1.2858
 7145SOL    HW233069   4.389   0.773  11.565 -1.9346  0.8968 -4.8822
 7146SOL     OW33070   2.915   0.898   5.912 -0.5574  0.1629  0.8634
 7146SOL    HW133071   2.943   0.900   6.003 -1.0324  1.5598  0.9728
 7146SOL    HW233072   2.992   0.937   5.870 -0.8985 -1.7672 -1.6127
 7147SOL     OW33073   4.727   0.925   6.428  0.1931 -0.1068 -0.0641
 7147SOL    HW133074   4.679   0.896   6.350  2.0286  1.2955 -1.7007
 7147SOL    HW233075   0.073   0.931   6.382 -1.1423 -2.2458 -2.7918
 7148SOL     OW33076   0.584   1.504   8.744  0.1081  0.3302  0.2617
 7148SOL    HW133077   0.606   1.534   8.656 -1.7170  2.8034  0.6340
 7148SOL    HW233078   0.673   1.498   8.777 -1.1838 -1.2891  3.3575
 7149SOL     OW33079   3.444   2.373   1.920  0.0698 -0.2465  0.2141
 7149SOL    HW133080   3.515   2.382   1.857 -0.0053 -0.5850  0.0805
 7149SOL    HW233081   3.473   2.287   1.951  1.1721  0.1591  0.3181
 7150SOL     OW33082   2.761   4.611   1.968 -0.5493 -0.0573 -0.2056
 7150SOL    HW133083   2.843   4.578   1.932  0.9784  0.6614  2.5865
 7150SOL    HW233084   2.762   4.554   2.045  1.7880 -2.0913 -1.7459
 7151SOL     OW33085   3.937   0.606   5.353  0.0210 -0.2564  0.3122
 7151SOL    HW133086   3.953   0.514   5.336 -0.8063 -0.5446  1.0945
 7151SOL    HW233087   3.903   0.639   5.270 -1.1312 -0.3428  0.7595
 7152SOL     OW33088   0.774   3.548  11.002  0.2724 -0.1134  0.7401
 7152SOL    HW133089   0.704   3.613  10.992  0.2081 -0.2800  0.0609
 7152SOL    HW233090   0.766   3.536  11.096  3.7408 -1.3051  0.8781
 7153SOL     OW33091   1.072   2.810   2.037  0.7833  0.4646 -0.4774
 7153SOL    HW133092   1.032   2.780   2.119  2.4702  0.1218  0.2283
 7153SOL    HW233093   1.021   2.773   1.965  1.6396 -0.0565 -0.8119
 7154SOL     OW33094   0.371   2.074   2.181 -0.2264  0.0596 -0.7716
 7154SOL    HW133095   0.285   2.110   2.158 -0.8167  0.0344  1.3929
 7154SOL    HW233096   0.378   2.023   2.100  3.0283 -0.4784 -0.1412
 7155SOL     OW33097   4.058   0.433   4.551 -0.3762 -0.6348  0.3200
 7155SOL    HW133098   4.123   0.491   4.512 -1.8233  0.5657 -0.3276
 7155SOL    HW233099   4.078   0.447   4.643  1.6562  0.4297 -0.2857
 7156SOL     OW33100   2.778   0.134   7.924 -0.2084  0.2529  0.3093
 7156SOL    HW133101   2.804   0.158   7.835  3.0721  1.1422  1.5004
 7156SOL    HW233102   2.717   0.203   7.950 -1.3863 -0.1974 -1.3214
 7157SOL     OW33103   0.948   2.454   5.748  0.7485 -0.2109  0.2164
 7157SOL    HW133104   0.914   2.534   5.787  3.1528 -0.2049  2.2653
 7157SOL    HW233105   0.900   2.387   5.798 -0.1377  0.9058  0.8576
 7158SOL     OW33106   0.916   0.617   3.890 -0.2067 -0.0589 -0.4596
 7158SOL    HW133107   0.911   0.587   3.799 -0.5960 -2.4727  0.3436
 7158SOL    HW233108   1.001   0.588   3.925 -1.3468 -4.0226 -1.0142
 7159SOL     OW33109   1.535   3.593   4.892  0.1299 -0.3237 -0.3559
 7159SOL    HW133110   1.590   3.670   4.876  2.3425 -1.3070  2.6478
 7159SOL    HW233111   1.478   3.589   4.815  2.5765  1.5667 -2.2773
 7160SOL     OW33112   3.673   2.614  11.228  0.0260  0.1565  0.3801
 7160SOL    HW133113   3.729   2.576  11.296  1.4829  1.3406 -0.1418
 7160SOL    HW233114   3.734   2.630  11.156  3.0622  0.2412  2.9806
 7161SOL     OW33115   3.125   3.586   3.903 -0.1087 -0.7843 -0.0089
 7161SOL    HW133116   3.037   3.552   3.912 -0.2466 -0.1167  1.2341
 7161SOL    HW233117   3.185   3.527   3.949  0.2751  0.5064  1.1756
 7162SOL     OW33118   2.195   0.426  10.737 -0.3188 -0.0367  0.3894
 7162SOL    HW133119   2.152   0.446  10.653  0.5199 -1.5655 -0.3931
 7162SOL    HW233120   2.268   0.366  10.721 -1.3371 -0.9727 -0.7500
 7163SOL     OW33121   2.356   3.212   5.811  0.2176  0.7938  0.1577
 7163SOL    HW133122   2.320   3.145   5.869 -2.6997  1.4869 -0.8908
 7163SOL    HW233123   2.424   3.158   5.769  0.0646 -0.1187  1.0667
 7164SOL     OW33124   1.844   4.599   8.359  0.5965  0.4660 -0.2530
 7164SOL    HW133125   1.887   4.538   8.418 -0.8016 -0.7536 -0.4851
 7164SOL    HW233126   1.774   4.632   8.414  0.7270 -0.6993  0.6186
 7165SOL     OW33127   4.096   2.237   7.421 -0.6225 -0.0269 -0.0517
 7165SOL    HW133128   4.085   2.165   7.484 -2.5659  1.3584  1.1695
 7165SOL    HW233129   4.121   2.305   7.483  0.0331 -0.1124 -0.2170
 7166SOL     OW33130   1.382   3.499   5.290 -0.4504 -0.3207  0.2512
 7166SOL    HW133131   1.344   3.581   5.259  2.0501 -0.0837 -2.1894
 7166SOL    HW233132   1.443   3.476   5.220 -0.3369  0.6507  0.0383
 7167SOL     OW33133   4.644   0.729  12.749 -0.3662  0.1784 -0.3351
 7167SOL    HW133134   4.652   0.697  12.839 -3.4837  1.4510  0.3751
 7167SOL    HW233135   4.591   0.671  12.694 -1.4310  1.8281 -1.0371
 7168SOL     OW33136   3.767   1.962   3.688 -0.1692  0.0823  0.8772
 7168SOL    HW133137   3.810   1.892   3.737 -0.4539 -2.0533 -1.9016
 7168SOL    HW233138   3.807   1.958   3.601  0.4994  0.7190  1.1530
 7169SOL     OW33139   2.512   1.115   2.490  0.0677  0.3404  0.1032
 7169SOL    HW133140   2.500   1.139   2.582 -0.8538  0.4278 -0.0380
 7169SOL    HW233141   2.573   1.042   2.500 -0.8953 -0.4861 -0.0949
 7170SOL     OW33142   1.528   0.505   0.613 -0.0634 -0.0825 -0.2514
 7170SOL    HW133143   1.556   0.579   0.559  0.0495 -0.1499 -0.2872
 7170SOL    HW233144   1.547   0.432   0.554 -1.4947 -0.1026 -0.6800
 7171SOL     OW33145   1.881   1.655   4.854 -0.6349  0.2327 -0.4830
 7171SOL    HW133146   1.849   1.744   4.838 -1.9901 -0.1764 -0.0732
 7171SOL    HW233147   1.813   1.629   4.916  2.0799 -2.2198  1.4818
 7172SOL     OW33148   0.287   0.384   7.388 -0.5504  0.0751 -0.3844
 7172SOL    HW133149   0.352   0.330   7.433  1.5418  2.0936 -0.9830
 7172SOL    HW233150   0.296   0.351   7.299 -2.5979 -2.9501  0.5306
 7173SOL     OW33151   0.597   0.651   7.034  0.2871 -0.0433 -0.3492
 7173SOL    HW133152   0.667   0.649   6.969  1.1889  0.0642  0.6206
 7173SOL    HW233153   0.530   0.705   6.991 -1.3450 -0.7913  1.2279
 7174SOL     OW33154   4.255   3.212   9.606 -1.0322  0.4212 -0.5043
 7174SOL    HW133155   4.324   3.215   9.539 -1.9433 -1.4941 -1.5313
 7174SOL    HW233156   4.309   3.190   9.682  0.6146 -0.1511 -1.8093
 7175SOL     OW33157   4.469   3.360  11.717 -0.1118  0.4819  0.2977
 7175SOL    HW133158   4.420   3.411  11.651 -0.2594 -0.5469 -0.3955
 7175SOL    HW233159   4.426   3.274  11.716  0.5993  0.1388 -1.1874
 7176SOL     OW33160   4.480   0.649   7.713 -0.2534  0.8628 -0.3570
 7176SOL    HW133161   4.496   0.727   7.765 -0.4691  2.0462 -2.0743
 7176SOL    HW233162   4.542   0.593   7.760  1.0450  1.9019 -0.8536
 7177SOL     OW33163   3.229   4.548   6.324 -0.6237  0.1376 -0.0600
 7177SOL    HW133164   3.210   4.597   6.244  0.6170  0.1492 -0.3367
 7177SOL    HW233165   3.259   4.621   6.377  0.8039  0.0612 -0.7779
 7178SOL     OW33166   1.046   2.563  15.530 -0.4382  0.3782 -0.1569
 7178SOL    HW133167   0.977   2.501  15.505  0.0796  0.1432 -1.0005
 7178SOL    HW233168   0.996   2.638  15.563  0.5379  0.8893  0.1564
 7179SOL     OW33169   2.102   3.829   4.966 -0.5124  0.6756 -0.0358
 7179SOL    HW133170   2.173   3.861   5.022 -0.3368  0.8662 -0.3673
 7179SOL    HW233171   2.122   3.879   4.887  0.4239  0.1533 -0.1301
 7180SOL     OW33172   2.653   1.457  11.999 -0.4439 -0.2298 -0.3903
 7180SOL    HW133173   2.563   1.442  11.969 -0.5886  0.5793 -0.3500
 7180SOL    HW233174   2.649   1.551  12.011  1.8251 -0.0072 -1.4063
 7181SOL     OW33175   2.659   3.803   7.855  0.0233 -0.2724  0.1086
 7181SOL    HW133176   2.748   3.839   7.863 -0.4192  0.8809 -0.2388
 7181SOL    HW233177   2.635   3.854   7.777 -2.6210  2.2737  2.5935
 7182SOL     OW33178   3.477   1.319  10.748  0.3618 -0.0126 -0.2131
 7182SOL    HW133179   3.427   1.237  10.746  1.0102 -0.3525 -3.4085
 7182SOL    HW233180   3.502   1.316  10.656  0.0907 -0.5264 -0.2723
 7183SOL     OW33181   3.580   1.584   0.097 -0.4565 -0.0989 -0.3312
 7183SOL    HW133182   3.530   1.538   0.030 -1.8382 -2.2438  2.1989
 7183SOL    HW233183   3.520   1.601   0.170  0.4644  2.4232 -0.1485
 7184SOL     OW33184   4.155   2.341   7.689  0.5598 -0.1129  0.6035
 7184SOL    HW133185   4.133   2.420   7.640 -1.1773 -0.7567  0.3646
 7184SOL    HW233186   4.067   2.314   7.716  1.0744 -0.4173  1.9594
 7185SOL     OW33187   1.845   0.853  10.288  0.0065  0.0675 -0.0202
 7185SOL    HW133188   1.874   0.903  10.365  0.9322 -1.3209  0.5452
 7185SOL    HW233189   1.855   0.906  10.209  1.4520  0.7268  0.6055
 7186SOL     OW33190   1.359   0.983   2.314 -0.1247  0.3575 -0.6439
 7186SOL    HW133191   1.298   0.909   2.314  0.1758  0.1097 -0.0754
 7186SOL    HW233192   1.307   1.061   2.293 -1.3808 -1.2641 -3.6623
 7187SOL     OW33193   0.048   1.723  13.550  0.0449  0.1429 -0.3180
 7187SOL    HW133194   4.723   1.726  13.478  0.7769  0.6773 -0.9254
 7187SOL    HW233195   4.737   1.672  13.615 -1.3873  0.5934 -1.0351
 7188SOL     OW33196   2.542   1.632   1.923 -0.4148  0.4140  0.1311
 7188SOL    HW133197   2.573   1.543   1.940 -0.8878  0.3762  0.8218
 7188SOL    HW233198   2.622   1.658   1.876  0.8114 -4.6272 -0.5257
 7189SOL     OW33199   1.267   0.570  12.003 -0.1397 -0.2266  0.5471
 7189SOL    HW133200   1.297   0.641  11.947 -3.0762  1.1670  0.7466
 7189SOL    HW233201   1.190   0.532  11.961 -0.6229  3.7851 -2.1640
 7190SOL     OW33202   0.092   2.275   3.213 -0.7444 -0.4515 -0.6243
 7190SOL    HW133203   0.001   2.268   3.183 -0.4296 -0.6713 -1.5382
 7190SOL    HW233204   0.081   2.264   3.307  2.1454 -1.7216 -0.4532
 7191SOL     OW33205   2.766   0.106   3.407 -0.7956  0.3797  0.4020
 7191SOL    HW133206   2.671   0.094   3.402 -0.4284 -2.3813 -0.0828
 7191SOL    HW233207   2.775   0.171   3.338 -0.0041 -0.0758  0.0687
 7192SOL     OW33208   0.508   3.802   9.702 -0.7826 -0.4000  0.1951
 7192SOL    HW133209   0.528   3.891   9.731  0.1629 -0.7919  0.7765
 7192SOL    HW233210   0.444   3.772   9.766 -2.6286  0.4193 -1.2722
 7193SOL     OW33211   3.392   4.003  14.975  0.1257  0.2259  0.3689
 7193SOL    HW133212   3.351   4.001  15.061  0.4993  1.7192  0.5741
 7193SOL    HW233213   3.317   3.992  14.918  0.8008  1.9733 -0.8472
 7194SOL     OW33214   4.304   1.726  14.926  0.2789  0.1018  0.1977
 7194SOL    HW133215   4.354   1.667  14.983  1.0136 -0.8276 -1.4188
 7194SOL    HW233216   4.327   1.810  14.966 -1.8864  0.5432  0.5291
 7195SOL     OW33217   4.715   2.183  17.541  0.0922  0.5728  0.4601
 7195SOL    HW133218   4.659   2.107  17.560 -1.1133  1.5802  0.9101
 7195SOL    HW233219   4.656   2.236  17.488 -1.2037 -0.2653  1.0634
 7196SOL     OW33220   0.429   2.404   4.566  0.4437 -0.0383 -0.1109
 7196SOL    HW133221   0.451   2.374   4.654  2.1579 -0.3431 -0.6347
 7196SOL    HW233222   0.515   2.396   4.524  1.2079  1.2709  1.1900
 7197SOL     OW33223   0.332   4.640  14.171 -0.1906 -0.1202 -0.6549
 7197SOL    HW133224   0.345   4.616  14.263  1.0238 -0.6850 -0.9699
 7197SOL    HW233225   0.414   4.612  14.129  0.1803 -0.9501  0.6103
 7198SOL     OW33226   3.519   2.725   5.506 -0.0377 -0.3656  0.4523
 7198SOL    HW133227   3.427   2.707   5.522  0.2573 -1.8938  0.3915
 7198SOL    HW233228   3.513   2.730   5.410  0.1639 -0.9359  0.4068
 7199SOL     OW33229   2.731   2.320   7.452  0.2820  0.5583  0.2042
 7199SOL    HW133230   2.733   2.414   7.465  1.2873  0.2961  1.8861
 7199SOL    HW233231   2.789   2.286   7.520 -0.4165 -2.2022 -0.5770
 7200SOL     OW33232   3.551   4.192   9.337  0.3414 -0.0755 -0.2402
 7200SOL    HW133233   3.496   4.119   9.306  1.5408 -1.5857  1.1837
 7200SOL    HW233234   3.641   4.160   9.346  0.3959  0.0600 -0.3041
 7201SOL     OW33235   4.309   3.929  15.244  0.2034 -0.3418  0.3035
 7201SOL    HW133236   4.224   3.946  15.285  1.1178 -0.8606  2.3732
 7201SOL    HW233237   4.318   4.014  15.201  0.0781  1.0548  3.0306
 7202SOL     OW33238   1.833   0.523   5.485  0.0642 -0.2368 -0.2083
 7202SOL    HW133239   1.829   0.516   5.390  0.7901 -0.4487 -0.2227
 7202SOL    HW233240   1.804   0.614   5.495  0.6028 -0.1542  0.5877
 7203SOL     OW33241   2.596   3.911   9.369 -0.4063 -0.0395  0.1649
 7203SOL    HW133242   2.576   3.834   9.315 -3.3285 -0.6636  2.1428
 7203SOL    HW233243   2.534   3.896   9.440  0.8327  0.2276  1.3101
 7204SOL     OW33244   4.214   0.456  13.741 -0.3348  0.1831 -0.1462
 7204SOL    HW133245   4.179   0.367  13.740  0.1647 -0.0146  0.2434
 7204SOL    HW233246   4.135   0.505  13.716  0.5044  0.6148 -1.9962
 7205SOL     OW33247   1.623   0.775   0.575  0.4940 -0.4981 -0.5145
 7205SOL    HW133248   1.576   0.837   0.519 -1.8755 -0.6082  1.3769
 7205SOL    HW233249   1.579   0.803   0.655  0.4142  0.9372 -1.0549
 7206SOL     OW33250   2.680   3.235  15.814 -0.1833  0.0478 -0.5799
 7206SOL    HW133251   2.656   3.267  15.901 -1.0015  1.3051 -1.2813
 7206SOL    HW233252   2.697   3.316  15.767 -0.7201 -2.4765 -5.1876
 7207SOL     OW33253   2.971   0.284   7.399 -0.4289 -0.0729 -0.5111
 7207SOL    HW133254   2.901   0.254   7.340 -0.9796 -1.5400  0.8914
 7207SOL    HW233255   3.026   0.210   7.422 -0.3491  0.3137  0.5245
 7208SOL     OW33256   3.538   1.819  17.588  0.0816  0.2689 -0.5922
 7208SOL    HW133257   3.609   1.834  17.651 -1.9238 -0.9654  1.9552
 7208SOL    HW233258   3.472   1.887  17.595 -1.5568 -1.3329 -0.5025
 7209SOL     OW33259   1.123   1.564  14.843 -0.5327 -0.0443  0.5030
 7209SOL    HW133260   1.144   1.653  14.814 -2.4532 -0.0711 -1.0080
 7209SOL    HW233261   1.046   1.585  14.897  0.6553  0.1857  2.1040
 7210SOL     OW33262   2.668   3.242   5.037 -0.1846  0.4846 -0.0564
 7210SOL    HW133263   2.695   3.170   5.093 -0.3548 -0.3846 -1.0963
 7210SOL    HW233264   2.608   3.214   4.968  0.3486  0.1219 -0.3703
 7211SOL     OW33265   0.630   2.313  11.517 -0.2844 -0.3436 -0.1913
 7211SOL    HW133266   0.705   2.266  11.480  0.6647  1.7172 -0.8741
 7211SOL    HW233267   0.628   2.395  11.468 -1.3103  0.2075  0.7730
 7212SOL     OW33268   1.670   4.024  13.266 -0.0922 -0.5013 -0.3315
 7212SOL    HW133269   1.654   4.119  13.267  0.8312 -0.3447 -0.4218
 7212SOL    HW233270   1.742   4.022  13.202  0.6692  1.1625  0.4623
 7213SOL     OW33271   2.932   2.859   8.400 -0.0352  0.1410  0.9563
 7213SOL    HW133272   2.972   2.891   8.319  0.4354  0.7381  1.4254
 7213SOL    HW233273   2.847   2.838   8.361  0.6360 -1.1168  0.2013
 7214SOL     OW33274   3.972   4.318   1.708  0.4187 -0.3431  0.0986
 7214SOL    HW133275   3.954   4.389   1.770  0.7884 -0.5734  0.4739
 7214SOL    HW233276   4.068   4.323   1.706  0.2184  2.6164 -3.1572
 7215SOL     OW33277   1.417   4.458   6.396  0.1103 -0.6631 -0.5802
 7215SOL    HW133278   1.444   4.378   6.440 -0.6955 -0.6532 -0.0682
 7215SOL    HW233279   1.436   4.442   6.303  0.2460  0.7082 -0.7960
 7216SOL     OW33280   1.527   1.557   2.165 -0.2449  0.3981  0.7146
 7216SOL    HW133281   1.474   1.477   2.164  0.7748 -0.2674  0.5840
 7216SOL    HW233282   1.499   1.617   2.095  2.3085  1.2956  0.4766
 7217SOL     OW33283   3.153   2.138   7.536 -0.2512  0.1350  0.0771
 7217SOL    HW133284   3.246   2.154   7.553 -0.0779  0.3237 -1.0552
 7217SOL    HW233285   3.116   2.211   7.586 -2.2021 -0.4368 -0.5200
 7218SOL     OW33286   3.607   2.169   3.706  0.3590 -0.2874  0.4073
 7218SOL    HW133287   3.587   2.135   3.619  4.4867 -0.6758 -0.4185
 7218SOL    HW233288   3.649   2.088   3.736 -0.7326 -0.3597  1.7003
 7219SOL     OW33289   1.026   3.792   2.356  0.1967  0.3684  0.3228
 7219SOL    HW133290   1.037   3.885   2.376  1.0976  0.2139  0.5553
 7219SOL    HW233291   0.935   3.775   2.383  0.1252 -1.7320 -1.1915
 7220SOL     OW33292   4.031   0.475   4.056 -0.3008  0.2433 -0.0625
 7220SOL    HW133293   4.109   0.518   4.091  0.4864 -0.6678 -0.6730
 7220SOL    HW233294   3.995   0.418   4.124  0.8473  0.0314  0.3752
 7221SOL     OW33295   4.055   3.045  14.127  0.1084 -0.6891  0.3176
 7221SOL    HW133296   4.132   2.999  14.160  1.1185 -0.4955 -1.7596
 7221SOL    HW233297   4.089   3.133  14.113 -0.8368 -0.2271  0.9023
 7222SOL     OW33298   1.885   2.338  13.624 -0.5801  0.1802  0.0272
 7222SOL    HW133299   1.889   2.392  13.544  1.6729 -0.1537 -0.0929
 7222SOL    HW233300   1.814   2.284  13.591 -0.0281 -0.8001  0.4597
 7223SOL     OW33301   3.949   3.889  16.526 -0.3664  0.2404  0.1386
 7223SOL    HW133302   3.953   3.829  16.600 -2.0673 -0.3089 -0.2173
 7223SOL    HW233303   3.890   3.845  16.464 -1.9178  0.6189  1.3605
 7224SOL     OW33304   0.790   2.921   5.393  0.0269  0.2400 -0.2109
 7224SOL    HW133305   0.881   2.929   5.367 -0.1528  0.6430 -0.7185
 7224SOL    HW233306   0.735   2.971   5.332 -0.9965  0.5621  0.9755
 7225SOL     OW33307   2.122   1.626   4.580  1.0773 -0.1392 -0.0596
 7225SOL    HW133308   2.198   1.569   4.579  1.1837 -0.0019  0.2535
 7225SOL    HW233309   2.056   1.558   4.596  0.0721  0.7413 -0.4057
 7226SOL     OW33310   4.098   4.371   8.902  0.0753 -0.2381  0.2822
 7226SOL    HW133311   4.142   4.286   8.891 -2.3693 -1.5619  0.7820
 7226SOL    HW233312   4.065   4.383   8.813  1.7955 -0.8983 -0.4427
 7227SOL     OW33313   4.492   2.407   1.326 -0.1068  0.1329  0.0666
 7227SOL    HW133314   4.415   2.357   1.299 -0.8040  0.9193  0.6094
 7227SOL    HW233315   4.495   2.405   1.422 -1.5999 -0.6802  0.0908
 7228SOL     OW33316   3.474   4.394  15.887 -0.4742  0.0994 -0.0343
 7228SOL    HW133317   3.492   4.400  15.981  0.4798  0.1141 -0.2182
 7228SOL    HW233318   3.414   4.465  15.864 -0.1761  0.5306  0.5274
 7229SOL     OW33319   0.260   2.469   2.808  0.0431 -0.2505  0.1511
 7229SOL    HW133320   0.292   2.497   2.894  0.8238 -0.0247 -0.2110
 7229SOL    HW233321   0.207   2.393   2.834 -1.8245  2.0687  3.2219
 7230SOL     OW33322   1.565   2.122   3.791 -0.2957 -0.1134  0.1441
 7230SOL    HW133323   1.521   2.100   3.709  0.5378 -1.4540  0.0642
 7230SOL    HW233324   1.537   2.209   3.820 -3.2991 -0.9515 -0.2832
 7231SOL     OW33325   0.260   1.205   9.161  0.3078 -0.0186  0.4675
 7231SOL    HW133326   0.180   1.230   9.116  0.8344  1.0920  0.1239
 7231SOL    HW233327   0.298   1.140   9.102  1.7682  3.6625 -2.6428
 7232SOL     OW33328   3.794   0.089   1.135  0.1148 -0.5122  0.4425
 7232SOL    HW133329   3.750   0.032   1.197 -0.4279  1.6815  2.0720
 7232SOL    HW233330   3.717   0.131   1.097 -1.0334 -1.0418  2.2022
 7233SOL     OW33331   0.089   1.622  15.994 -0.2478 -0.1873 -0.4338
 7233SOL    HW133332   0.108   1.577  16.077 -0.4247 -2.9257 -1.8791
 7233SOL    HW233333   0.145   1.699  16.005 -2.0595  1.1920 -0.9326
 7234SOL     OW33334   3.299   4.457  16.975  0.5010  0.5527  0.1617
 7234SOL    HW133335   3.293   4.546  17.009  4.2955  0.8414  0.0823
 7234SOL    HW233336   3.266   4.409  17.050 -1.7419  1.0503 -0.5133
 7235SOL     OW33337   4.482   4.562   2.212  0.4125  0.2571 -0.1608
 7235SOL    HW133338   4.435   4.640   2.244  0.0381 -0.4890  1.1306
 7235SOL    HW233339   4.535   4.553   2.292 -0.4074 -0.4148  0.3102
 7236SOL     OW33340   1.395   2.545   5.464  0.0967 -0.5091  0.2733
 7236SOL    HW133341   1.434   2.599   5.395 -0.2486  1.2052  1.4089
 7236SOL    HW233342   1.329   2.607   5.496 -1.2002 -0.8597 -1.7809
 7237SOL     OW33343   4.542   0.755   4.188 -0.3416 -0.0059 -0.1318
 7237SOL    HW133344   4.522   0.846   4.210 -1.2205  0.0207 -1.0055
 7237SOL    HW233345   4.521   0.747   4.094  2.3290 -1.7287 -0.5781
 7238SOL     OW33346   2.102   1.890   9.065  0.0493  0.1547  0.2902
 7238SOL    HW133347   2.061   1.945   8.998 -0.6606  2.3969  2.5680
 7238SOL    HW233348   2.069   1.806   9.033  0.0480  0.8836 -1.6109
 7239SOL     OW33349   2.997   3.872   6.590 -0.3330  0.4869 -0.0508
 7239SOL    HW133350   3.008   3.926   6.668 -1.1862 -2.2404  1.9482
 7239SOL    HW233351   2.933   3.810   6.623  0.5432 -0.4572 -0.1278
 7240SOL     OW33352   1.280   2.934   8.714 -0.8269  0.2644 -0.2085
 7240SOL    HW133353   1.365   2.911   8.754  0.9915  2.7070 -2.7119
 7240SOL    HW233354   1.317   2.947   8.626 -1.5948  0.1665 -0.5403
 7241SOL     OW33355   0.853   2.797  15.317  0.1970  0.1916  0.3920
 7241SOL    HW133356   0.899   2.880  15.318 -0.8318  0.7669 -0.0581
 7241SOL    HW233357   0.769   2.817  15.275  0.0620 -0.5206  0.3141
 7242SOL     OW33358   0.694   2.264   9.467 -0.6023 -0.4498  0.4002
 7242SOL    HW133359   0.703   2.346   9.420 -1.8884 -0.5142  0.0457
 7242SOL    HW233360   0.646   2.208   9.406 -0.6645 -0.0895  0.1220
 7243SOL     OW33361   2.265   2.524   3.919 -0.1033  0.5167 -0.2242
 7243SOL    HW133362   2.212   2.602   3.902 -0.4404  0.5533  1.0095
 7243SOL    HW233363   2.344   2.565   3.955 -0.2953 -0.1321  0.9404
 7244SOL     OW33364   1.377   4.131   4.887 -0.0891 -0.2689 -0.0625
 7244SOL    HW133365   1.350   4.217   4.919  2.0862  1.1756 -2.0757
 7244SOL    HW233366   1.299   4.085   4.919  1.1687 -1.7841  0.8560
 7245SOL     OW33367   2.932   2.904  15.837  0.1576  0.2223 -0.3894
 7245SOL    HW133368   2.864   2.900  15.770  0.7777  1.4253 -1.1077
 7245SOL    HW233369   2.961   2.995  15.845 -0.7822  0.5080 -0.2975
 7246SOL     OW33370   3.011   3.955  16.101  0.1589  0.5545  0.0331
 7246SOL    HW133371   2.931   3.995  16.066  0.2568  1.5641  0.9808
 7246SOL    HW233372   3.021   4.026  16.165 -0.2664 -1.2524  2.1191
 7247SOL     OW33373   4.547   0.373  15.995 -0.5583 -0.0164  0.2077
 7247SOL    HW133374   4.514   0.416  15.916  2.4793 -1.9970 -2.1665
 7247SOL    HW233375   4.462   0.363  16.036 -0.9232  1.5237 -0.1949
 7248SOL     OW33376   3.152   2.604   6.864 -0.2203  0.5174 -0.1212
 7248SOL    HW133377   3.073   2.563   6.828  0.6294 -1.8134  0.6290
 7248SOL    HW233378   3.171   2.664   6.792  0.8298  1.3862  0.8991
 7249SOL     OW33379   2.099   3.661   3.436  0.1761 -0.3242 -0.6104
 7249SOL    HW133380   2.032   3.593   3.439 -0.8786  0.7910  0.5925
 7249SOL    HW233381   2.069   3.701   3.517 -0.8644 -2.4357  0.0495
 7250SOL     OW33382   4.677   1.362   6.096  1.0681  0.2560  0.6780
 7250SOL    HW133383   0.008   1.313   6.050  0.3247 -1.5999  1.5292
 7250SOL    HW233384   4.623   1.399   6.026  0.3871  0.0841  1.1066
 7251SOL     OW33385   1.982   2.483  11.467 -0.3066 -0.0652 -0.1941
 7251SOL    HW133386   1.942   2.497  11.381  1.7245  0.1719 -1.0974
 7251SOL    HW233387   2.001   2.573  11.493  1.4978 -1.0432  1.8611
 7252SOL     OW33388   1.460   0.940   2.940  1.2830 -0.6620 -0.3327
 7252SOL    HW133389   1.459   0.960   3.033 -0.3802  1.4302 -0.8197
 7252SOL    HW233390   1.453   0.845   2.951  0.9718 -0.2851  2.6806
 7253SOL     OW33391   3.810   4.726  12.917  0.1088 -0.2108 -0.1899
 7253SOL    HW133392   3.906   4.722  12.914  0.1992  1.0820  0.9276
 7253SOL    HW233393   3.792   4.715  13.010  4.3410 -0.6232  0.5647
 7254SOL     OW33394   1.119   0.356  12.522  0.8282  0.4451  0.5773
 7254SOL    HW133395   1.134   0.342  12.429  1.1067  0.6758  0.5886
 7254SOL    HW233396   1.139   0.449  12.531 -0.9407  0.8691  0.2532
 7255SOL     OW33397   0.251   4.361   3.330 -0.3492  0.9790 -0.1664
 7255SOL    HW133398   0.163   4.362   3.369  0.6132  2.0526  2.0136
 7255SOL    HW233399   0.284   4.409   3.406 -2.5795 -0.2172  1.5662
 7256SOL     OW33400   1.832   0.998   9.266  0.6904 -1.1345  0.6675
 7256SOL    HW133401   1.786   1.022   9.346 -0.5002  0.2506 -0.4081
 7256SOL    HW233402   1.820   0.903   9.263  0.8265 -1.2369  3.5835
 7257SOL     OW33403   0.103   2.468   7.270 -0.1643 -0.1960 -0.3776
 7257SOL    HW133404   0.017   2.485   7.309  0.0116 -0.7284  0.2534
 7257SOL    HW233405   0.156   2.456   7.349 -0.5445 -3.0061 -0.5546
 7258SOL     OW33406   0.091   4.570   7.016  0.0970 -0.1508 -0.1712
 7258SOL    HW133407   0.013   4.516   7.000 -1.0062  1.2344  0.5030
 7258SOL    HW233408   0.104   4.590   6.923  0.8327  0.3921  0.0487
 7259SOL     OW33409   0.577   4.644  15.989 -0.3476  0.4868 -0.1733
 7259SOL    HW133410   0.562   4.564  16.039  1.5729  0.3106  0.1199
 7259SOL    HW233411   0.645   4.611  15.931 -1.6270 -0.0615 -1.3445
 7260SOL     OW33412   3.754   0.165   5.112 -0.1275 -0.1899 -0.3369
 7260SOL    HW133413   3.729   0.180   5.203  0.9073 -0.8309  0.0542
 7260SOL    HW233414   3.681   0.206   5.066 -0.0893  0.0531 -0.1794
 7261SOL     OW33415   3.486   1.691   2.196  0.6698 -0.4955  0.3331
 7261SOL    HW133416   3.438   1.643   2.128 -1.5018  2.1380  0.0350
 7261SOL    HW233417   3.436   1.770   2.214  1.3259  0.5201 -2.3295
 7262SOL     OW33418   2.587   2.079  13.789  0.1617 -0.1540  0.1082
 7262SOL    HW133419   2.503   2.075  13.744 -0.0930  2.2466  0.3996
 7262SOL    HW233420   2.647   2.034  13.729  1.6145  0.3629  1.1583
 7263SOL     OW33421   0.707   3.368   2.225 -0.0691  0.7301 -0.5698
 7263SOL    HW133422   0.730   3.288   2.273  0.8654  1.0420 -0.5056
 7263SOL    HW233423   0.616   3.388   2.249  0.3483 -0.6565  2.2325
 7264SOL     OW33424   2.797   2.217   5.964 -0.3870  0.3589 -0.1215
 7264SOL    HW133425   2.846   2.197   5.885  0.3289 -0.5957  0.5730
 7264SOL    HW233426   2.859   2.181   6.027 -1.6233 -0.9928  0.3047
 7265SOL     OW33427   2.830   2.410   5.262  0.3685 -0.3164  0.3224
 7265SOL    HW133428   2.889   2.342   5.230 -1.3263 -0.8000 -1.7083
 7265SOL    HW233429   2.808   2.382   5.351 -1.4785 -0.5092 -0.1863
 7266SOL     OW33430   1.691   3.266   4.138  0.4027 -0.1337  0.2799
 7266SOL    HW133431   1.700   3.190   4.196  0.7650  1.7343  2.6511
 7266SOL    HW233432   1.694   3.327   4.211  0.1672  0.3390 -0.1047
 7267SOL     OW33433   3.850   2.311   7.699 -0.4268  0.3812  0.3928
 7267SOL    HW133434   3.771   2.266   7.728 -0.7975 -1.2412 -3.1356
 7267SOL    HW233435   3.811   2.399   7.693  0.2396  0.6319 -0.2454
 7268SOL     OW33436   0.911   4.709  10.288 -0.2853 -0.4014  0.9820
 7268SOL    HW133437   0.973   4.637  10.275  1.1171  1.0868 -0.5594
 7268SOL    HW233438   0.942   0.013  10.369 -0.8456 -1.3071  1.6603
 7269SOL     OW33439   0.703   2.501   7.323  0.6383 -0.3676 -0.6637
 7269SOL    HW133440   0.747   2.571   7.372  0.2365 -0.3751 -0.2869
 7269SOL    HW233441   0.728   2.532   7.236 -1.2061  0.4305 -0.9064
 7270SOL     OW33442   2.424   4.616  17.561  0.2299 -0.2451 -0.4432
 7270SOL    HW133443   2.362   4.677  17.600  0.8537 -0.3381  0.6818
 7270SOL    HW233444   2.372   4.536  17.570 -0.0165 -0.4642 -3.7634
 7271SOL     OW33445   0.137   4.597   8.545  0.0492 -0.3643 -0.4216
 7271SOL    HW133446   0.142   4.510   8.583 -1.6578 -0.3790 -0.2255
 7271SOL    HW233447   0.201   4.643   8.600  1.6448  0.7108 -3.1666
 7272SOL     OW33448   2.193   2.558   2.800 -0.2661  0.5362  0.4832
 7272SOL    HW133449   2.243   2.479   2.818 -0.7612  0.2494  0.5947
 7272SOL    HW233450   2.102   2.527   2.804 -0.3418  0.7039  0.0461
 7273SOL     OW33451   4.121   2.211   4.529 -1.0473  0.2952  0.2211
 7273SOL    HW133452   4.095   2.263   4.605 -0.0567  0.8193  0.2083
 7273SOL    HW233453   4.069   2.253   4.460  1.3157  1.7724 -0.6889
 7274SOL     OW33454   2.368   1.470   6.324  0.1720 -0.0212 -0.0003
 7274SOL    HW133455   2.359   1.563   6.345  1.4526 -0.0263  0.5642
 7274SOL    HW233456   2.373   1.427   6.409  2.0791  2.3159  1.0917
 7275SOL     OW33457   2.118   1.659   0.436 -0.2578 -0.0510 -0.2235
 7275SOL    HW133458   2.165   1.741   0.421 -1.2010  0.5054 -0.1008
 7275SOL    HW233459   2.077   1.650   0.350 -2.7630  2.5303  0.7211
 7276SOL     OW33460   0.796   1.694  13.285  0.4330 -0.0959  0.6990
 7276SOL    HW133461   0.843   1.772  13.256 -1.1871 -0.5699 -3.0754
 7276SOL    HW233462   0.866   1.631  13.271 -1.3816 -1.7470 -0.8596
 7277SOL     OW33463   3.843   1.015  17.221  0.1452 -0.0787 -0.0733
 7277SOL    HW133464   3.936   1.035  17.210  0.5117 -1.1672  1.0027
 7277SOL    HW233465   3.810   1.056  17.141  0.3907 -0.4546 -0.3673
 7278SOL     OW33466   4.320   1.294   8.230  0.3031 -0.6421 -0.2156
 7278SOL    HW133467   4.330   1.270   8.322 -1.2731 -0.4261  0.0008
 7278SOL    HW233468   4.398   1.349   8.217 -0.4686  0.6030  0.4301
 7279SOL     OW33469   3.528   1.187   3.930 -0.1943 -0.0957 -0.0873
 7279SOL    HW133470   3.515   1.281   3.933  0.1301 -0.1887  3.3451
 7279SOL    HW233471   3.534   1.179   3.834 -0.8548 -0.0590 -0.1362
 7280SOL     OW33472   4.392   0.075   2.413 -0.2968  0.1066 -0.0360
 7280SOL    HW133473   4.415   0.019   2.486  3.0429  0.4992 -0.8094
 7280SOL    HW233474   4.319   0.030   2.370 -0.3068 -0.7483  0.8873
 7281SOL     OW33475   2.771   3.585   9.106  0.1347  0.0283  0.0204
 7281SOL    HW133476   2.802   3.555   9.020 -1.3994  0.1398 -0.5783
 7281SOL    HW233477   2.780   3.502   9.153 -0.3095 -0.6153 -1.0358
 7282SOL     OW33478   2.797   3.289   8.864 -0.2158 -0.2728 -0.1227
 7282SOL    HW133479   2.796   3.199   8.897  0.2612 -0.2686 -0.0985
 7282SOL    HW233480   2.749   3.277   8.782 -2.9339 -1.3703  1.6024
 7283SOL     OW33481   3.948   1.709   4.740 -0.0630  0.6739  0.7802
 7283SOL    HW133482   3.896   1.783   4.708  2.0516  1.1972 -1.4207
 7283SOL    HW233483   3.895   1.688   4.817  1.8119 -0.6184  1.7106
 7284SOL     OW33484   1.215   2.572   1.836 -0.1969  0.1971  0.6017
 7284SOL    HW133485   1.188   2.652   1.790  2.1753  1.9233  2.1961
 7284SOL    HW233486   1.159   2.501   1.806 -0.1766  0.2475  0.4412
 7285SOL     OW33487   2.418   2.386   6.881 -0.1073  0.2021  0.5382
 7285SOL    HW133488   2.487   2.344   6.829 -1.2764 -0.8298 -0.1799
 7285SOL    HW233489   2.419   2.333   6.960  0.1779 -0.1940  0.2729
 7286SOL     OW33490   0.301   1.092   4.032  0.1711  0.7008 -0.1463
 7286SOL    HW133491   0.284   1.052   4.117  2.3237  0.2824  0.0993
 7286SOL    HW233492   0.216   1.096   3.989  0.7683  2.2034 -1.1850
 7287SOL     OW33493   2.113   2.942   5.677 -0.3551 -0.2268 -0.1322
 7287SOL    HW133494   2.165   2.862   5.664  1.3572  0.7563  0.7343
 7287SOL    HW233495   2.150   3.005   5.616 -0.9639  0.0572 -0.2076
 7288SOL     OW33496   1.809   3.512  17.011  0.0244  0.2085 -0.1849
 7288SOL    HW133497   1.720   3.524  17.045 -0.3644 -0.6238 -0.9041
 7288SOL    HW233498   1.797   3.502  16.917  0.8199 -1.6062 -0.0908
 7289SOL     OW33499   2.846   3.897  12.333 -0.7643 -0.1797  0.3013
 7289SOL    HW133500   2.801   3.979  12.355  0.8190  0.4757  1.0609
 7289SOL    HW233501   2.918   3.925  12.277 -0.9379 -1.8170 -0.7571
 7290SOL     OW33502   4.078   1.957   5.963 -0.6172  0.2617 -0.0159
 7290SOL    HW133503   4.037   1.891   6.019 -0.8603 -0.5422 -1.1444
 7290SOL    HW233504   4.137   1.992   6.030 -0.2746 -0.3425 -0.0081
 7291SOL     OW33505   2.337   3.975   9.035 -0.3417  0.3647 -0.4798
 7291SOL    HW133506   2.318   3.952   9.126  0.6325  0.8445 -0.1462
 7291SOL    HW233507   2.415   4.029   9.050  0.9966 -1.1832 -1.8912
 7292SOL     OW33508   1.402   3.501   1.735 -0.5962 -0.3359 -0.1411
 7292SOL    HW133509   1.434   3.575   1.787 -2.1992 -0.1844  0.6460
 7292SOL    HW233510   1.361   3.448   1.804  1.0155 -0.4154  0.7535
 7293SOL     OW33511   4.176   3.308   2.573 -0.6342 -0.1911  0.6069
 7293SOL    HW133512   4.235   3.384   2.570  0.3975 -0.9187  2.4610
 7293SOL    HW233513   4.223   3.262   2.643  1.4412  0.2622 -0.4800
 7294SOL     OW33514   3.735   4.380   2.620 -0.1912  0.2482 -0.6371
 7294SOL    HW133515   3.724   4.307   2.560  1.2495  0.0965 -0.7215
 7294SOL    HW233516   3.703   4.450   2.563  0.3796 -0.4504 -1.8078
 7295SOL     OW33517   1.590   0.963   6.361 -0.1191  0.3098 -0.0633
 7295SOL    HW133518   1.534   0.970   6.437 -1.4248  1.2769 -1.1248
 7295SOL    HW233519   1.553   0.889   6.313 -0.4204  1.8695 -2.2638
 7296SOL     OW33520   2.104   1.825   3.135  0.7705  0.5581  0.3071
 7296SOL    HW133521   2.045   1.757   3.101  1.0082 -0.6037  2.2527
 7296SOL    HW233522   2.043   1.895   3.158 -0.1315  0.3240 -1.2903
 7297SOL     OW33523   4.510   4.349   6.271  0.1167 -0.5536  0.0650
 7297SOL    HW133524   4.455   4.337   6.194  0.8029 -0.5824 -0.4185
 7297SOL    HW233525   4.484   4.277   6.329 -0.6728 -0.5984 -0.3527
 7298SOL     OW33526   1.354   2.639   8.846  0.7152  0.2521  0.3935
 7298SOL    HW133527   1.274   2.630   8.898  0.5887  1.2932  0.3652
 7298SOL    HW233528   1.319   2.618   8.759  0.7586 -0.7287  0.6152
 7299SOL     OW33529   4.036   1.813   6.566  0.1424 -0.4553  0.2899
 7299SOL    HW133530   3.944   1.827   6.546  0.1920 -1.6676 -0.7990
 7299SOL    HW233531   4.040   1.809   6.662 -2.3438  0.2348  0.4235
 7300SOL     OW33532   1.399   1.235  11.410 -0.5404 -0.1566  0.1446
 7300SOL    HW133533   1.384   1.156  11.462 -2.6291 -0.4156 -0.8211
 7300SOL    HW233534   1.450   1.285  11.473 -2.4168 -0.1689  1.6984
 7301SOL     OW33535   3.488   4.067  12.552 -0.0978 -0.0742 -0.0923
 7301SOL    HW133536   3.448   4.128  12.490  0.7955  0.6147  0.0061
 7301SOL    HW233537   3.408   4.039  12.597  0.4074  1.7794  1.9362
 7302SOL     OW33538   4.465   2.095   2.527  0.2335 -0.0036  0.1483
 7302SOL    HW133539   4.512   2.072   2.608 -1.5503 -0.2360  1.1074
 7302SOL    HW233540   4.380   2.058   2.549  0.0448 -0.8325 -1.9815
 7303SOL     OW33541   3.617   1.830  17.325  0.3157  0.2668  0.2854
 7303SOL    HW133542   3.614   1.832  17.420 -2.0456 -1.6020  0.2555
 7303SOL    HW233543   3.637   1.921  17.304 -1.5198  0.3796 -1.0060
 7304SOL     OW33544   0.461   2.787   6.018 -0.4417 -0.4869  0.1598
 7304SOL    HW133545   0.369   2.769   5.998 -0.9348  2.1951  0.0060
 7304SOL    HW233546   0.483   2.854   5.953  1.8523 -0.9485  0.4613
 7305SOL     OW33547   1.886   0.291   7.085 -0.3883 -0.2773 -0.0631
 7305SOL    HW133548   1.843   0.246   7.012 -0.2861  1.2191 -1.0396
 7305SOL    HW233549   1.816   0.356   7.097 -0.1354  0.0904 -0.5493
 7306SOL     OW33550   1.660   4.107   4.827 -0.2455 -0.2568 -0.5601
 7306SOL    HW133551   1.648   4.111   4.732  0.6380  0.4875 -0.6455
 7306SOL    HW233552   1.569   4.093   4.851  0.6099 -1.0928  2.1101
 7307SOL     OW33553   2.657   0.125   1.115 -0.3414  0.1559 -0.0420
 7307SOL    HW133554   2.691   0.208   1.081 -1.3998  1.3648  1.8418
 7307SOL    HW233555   2.733   0.089   1.158 -0.1660  0.3109 -0.2206
 7308SOL     OW33556   3.735   1.382  13.164 -0.8644  0.1640 -0.6864
 7308SOL    HW133557   3.768   1.471  13.156 -0.7079  0.3994  2.6969
 7308SOL    HW233558   3.717   1.360  13.072 -1.2227 -0.3881 -0.4877
 7309SOL     OW33559   4.528   3.288   8.826 -0.2876  0.1692  0.1864
 7309SOL    HW133560   4.614   3.283   8.784 -0.1248  3.0485  0.1425
 7309SOL    HW233561   4.478   3.316   8.749 -0.7344 -0.4835  0.2417
 7310SOL     OW33562   2.161   3.352   9.205 -0.1654 -0.5477 -0.4087
 7310SOL    HW133563   2.132   3.279   9.260  1.9941 -1.8567 -0.9914
 7310SOL    HW233564   2.085   3.370   9.151  0.3083  2.6219 -0.0257
 7311SOL     OW33565   0.341   1.621   2.850 -0.1694  0.1410  0.1509
 7311SOL    HW133566   0.376   1.710   2.857  0.3613 -0.0145 -0.4827
 7311SOL    HW233567   0.338   1.611   2.754 -0.0614 -0.0509  0.1663
 7312SOL     OW33568   1.213   1.369   2.380 -0.0150 -0.3804 -0.0944
 7312SOL    HW133569   1.124   1.393   2.354 -0.0076  1.3178  1.4395
 7312SOL    HW233570   1.195   1.300   2.443 -3.3392 -0.9964 -1.6857
 7313SOL     OW33571   2.103   0.376   0.725  0.5154  0.3088  0.2341
 7313SOL    HW133572   2.178   0.390   0.667  0.5173  1.3141  0.4742
 7313SOL    HW233573   2.097   0.453   0.782 -2.3620  0.6984 -0.6161
 7314SOL     OW33574   2.482   0.740  17.288 -0.1095 -0.1945  0.1491
 7314SOL    HW133575   2.570   0.707  17.273 -0.0893 -0.8967  1.7906
 7314SOL    HW233576   2.435   0.663  17.257  2.5089 -1.6121 -0.2675
 7315SOL     OW33577   0.292   3.484  14.255 -0.1327  0.4361  0.4902
 7315SOL    HW133578   0.307   3.575  14.232 -0.2893  0.2708 -0.2463
 7315SOL    HW233579   0.299   3.447  14.167  0.7675  0.7169  0.4404
 7316SOL     OW33580   0.531   3.480   8.286 -0.1214  0.2594  0.3717
 7316SOL    HW133581   0.611   3.496   8.236  0.1192 -0.2597  0.6001
 7316SOL    HW233582   0.510   3.568   8.317 -1.8862  0.6856 -1.9339
 7317SOL     OW33583   2.248   2.898  14.521  0.2858  0.1404  0.2338
 7317SOL    HW133584   2.248   2.959  14.448 -0.0347 -0.8632 -0.6022
 7317SOL    HW233585   2.240   2.962  14.592 -3.7982  0.9710 -0.9784
 7318SOL     OW33586   1.287   2.367   9.196  0.1245 -0.2234 -0.2654
 7318SOL    HW133587   1.260   2.295   9.253  0.6996  0.7992  1.3204
 7318SOL    HW233588   1.359   2.321   9.154  1.2796  1.3064  0.0640
 7319SOL     OW33589   3.291   0.834   0.103 -0.3012 -0.0042  0.5333
 7319SOL    HW133590   3.356   0.851   0.034 -1.8581 -1.0249 -1.1818
 7319SOL    HW233591   3.332   0.776   0.167  3.0640  1.6519 -0.0991
 7320SOL     OW33592   0.459   4.476   6.006 -0.4779 -0.0586 -0.2461
 7320SOL    HW133593   0.398   4.435   5.944  0.7196  2.3947 -3.0530
 7320SOL    HW233594   0.512   4.400   6.032 -0.2449 -0.0235 -0.6149
 7321SOL     OW33595   1.043   4.103   5.224  0.4228 -0.3669 -0.0989
 7321SOL    HW133596   1.121   4.063   5.185  0.7634 -1.8888  2.1309
 7321SOL    HW233597   0.975   4.037   5.207 -1.9048  1.7432  0.9397
 7322SOL     OW33598   3.716   4.726   9.184 -0.3072 -0.2089 -0.0830
 7322SOL    HW133599   3.652   0.050   9.147  0.0658  0.5003  0.4505
 7322SOL    HW233600   3.650   4.657   9.183  0.9768 -1.4750  2.1171
 7323SOL     OW33601   4.340   3.415   3.517  0.0489 -0.3865  0.4051
 7323SOL    HW133602   4.342   3.459   3.432 -2.3893 -1.2538 -0.1124
 7323SOL    HW233603   4.333   3.492   3.573  3.1806  0.5615 -0.5521
 7324SOL     OW33604   3.673   1.803   5.139  0.1604  0.3575 -0.0015
 7324SOL    HW133605   3.578   1.814   5.134  0.1391 -0.2541 -0.9677
 7324SOL    HW233606   3.696   1.807   5.232 -0.2897  1.8694  0.0458
 7325SOL     OW33607   3.233   0.656   6.307  0.0965  0.1658  0.1326
 7325SOL    HW133608   3.177   0.655   6.384  1.1180  0.1058  0.8663
 7325SOL    HW233609   3.289   0.732   6.323  0.3988 -0.1146  0.4018
 7326SOL     OW33610   1.205   3.156   6.727 -0.7195 -0.2499 -0.1252
 7326SOL    HW133611   1.170   3.184   6.643 -2.7948  0.6512  1.0511
 7326SOL    HW233612   1.159   3.207   6.794  1.4774  0.9447  0.4688
 7327SOL     OW33613   3.751   3.486   2.356 -0.1068  0.1042  0.3131
 7327SOL    HW133614   3.808   3.433   2.412 -3.4264 -2.6210  1.0688
 7327SOL    HW233615   3.718   3.420   2.295  0.2808  0.2005  0.0036
 7328SOL     OW33616   2.217   4.464  10.599 -0.4275  0.0396 -0.1009
 7328SOL    HW133617   2.268   4.543  10.614  0.0445 -0.1505 -0.7182
 7328SOL    HW233618   2.130   4.502  10.613 -0.7616 -0.4755 -0.7356
 7329SOL     OW33619   0.672   0.891   4.084 -0.3407 -0.5089 -0.5378
 7329SOL    HW133620   0.739   0.947   4.124  0.4747 -0.9105 -1.3317
 7329SOL    HW233621   0.630   0.873   4.168 -1.2169  1.8210 -0.4927
 7330SOL     OW33622   0.822   2.262   4.659  0.3049  0.2347 -0.1245
 7330SOL    HW133623   0.807   2.177   4.616 -1.9946 -0.7961  2.7082
 7330SOL    HW233624   0.810   2.237   4.750  1.2753  2.5630  0.6325
 7331SOL     OW33625   1.875   2.649   6.354 -0.0502  0.4523 -0.8442
 7331SOL    HW133626   1.912   2.623   6.439 -1.2642  1.9484  0.1261
 7331SOL    HW233627   1.941   2.612   6.295 -0.6445  1.0591 -1.8789
 7332SOL     OW33628   4.732   2.533   5.116 -0.1319  0.1755 -0.3041
 7332SOL    HW133629   4.663   2.468   5.134  0.5741 -0.4232  0.2213
 7332SOL    HW233630   4.736   2.585   5.197  2.4871 -0.6813  0.1026
 7333SOL     OW33631   1.868   2.954   5.065  0.5502  0.1506 -0.4094
 7333SOL    HW133632   1.888   3.020   4.998 -0.9230  0.5687 -0.4434
 7333SOL    HW233633   1.789   2.917   5.025 -0.8585  0.5582  1.9476
 7334SOL     OW33634   3.114   1.793   3.707  0.0088 -0.3799  0.4381
 7334SOL    HW133635   3.119   1.886   3.685  2.9278 -0.0128  2.7855
 7334SOL    HW233636   3.018   1.788   3.712  0.0725 -1.5982  0.4420
 7335SOL     OW33637   1.694   2.008   4.526  0.1256 -0.3109  0.3239
 7335SOL    HW133638   1.773   2.061   4.515  0.5240 -1.1165 -0.7059
 7335SOL    HW233639   1.690   1.968   4.439  1.3243  0.9413 -0.3033
 7336SOL     OW33640   1.977   2.682  16.382  0.2423  0.4246  0.4587
 7336SOL    HW133641   1.908   2.701  16.320  1.9050 -0.8776 -1.7723
 7336SOL    HW233642   1.988   2.773  16.412  0.1751  1.0466 -1.4082
 7337SOL     OW33643   4.305   0.028   8.727 -0.4182  0.1572  0.0130
 7337SOL    HW133644   4.249   0.105   8.722  0.5489  0.7514 -1.7171
 7337SOL    HW233645   4.382   0.055   8.677 -0.1089 -0.5972  0.0750
 7338SOL     OW33646   3.348   0.811  17.353  0.8355 -0.4444  0.2295
 7338SOL    HW133647   3.409   0.855  17.294 -0.1489 -1.3860 -1.4957
 7338SOL    HW233648   3.381   0.722  17.364 -1.7938 -1.7022 -1.9572
 7339SOL     OW33649   4.087   2.848   3.868  0.1056  0.6661  0.2725
 7339SOL    HW133650   4.066   2.826   3.958  0.7753  1.5277  0.6361
 7339SOL    HW233651   4.146   2.774   3.855 -2.6737 -1.4419 -0.2767
 7340SOL     OW33652   0.997   4.138   7.562  0.6213  0.6036  0.1510
 7340SOL    HW133653   1.064   4.070   7.555 -0.6777 -0.7197  0.4650
 7340SOL    HW233654   0.963   4.148   7.473  2.3415 -0.3854 -0.6144
 7341SOL     OW33655   1.444   2.343   8.578 -0.1870  0.0880 -0.1296
 7341SOL    HW133656   1.506   2.405   8.617  0.6106 -0.3767 -0.6427
 7341SOL    HW233657   1.378   2.341   8.647  0.5939 -0.4259  0.6022
 7342SOL     OW33658   1.658   4.357   7.728  0.4512  0.6882 -0.5983
 7342SOL    HW133659   1.643   4.271   7.690 -0.1972  0.9875 -1.0209
 7342SOL    HW233660   1.746   4.347   7.764  0.4638 -0.2615 -0.9000
 7343SOL     OW33661   0.152   2.595   0.607 -0.2354 -0.3116 -0.8967
 7343SOL    HW133662   0.147   2.557   0.694  1.5616 -1.3520 -1.2381
 7343SOL    HW233663   0.225   2.654   0.627 -1.3518  0.3591  1.0795
 7344SOL     OW33664   3.347   3.740   3.614  0.1354 -0.5589 -0.1243
 7344SOL    HW133665   3.270   3.691   3.586 -0.9951 -0.0100  1.9711
 7344SOL    HW233666   3.388   3.688   3.683 -0.0439  0.1410  0.5187
 7345SOL     OW33667   3.099   2.926  16.464  0.1764  0.0237  0.0115
 7345SOL    HW133668   3.131   2.974  16.540  0.8196  0.9461 -0.8511
 7345SOL    HW233669   3.014   2.971  16.464 -0.1313 -0.5898 -3.4126
 7346SOL     OW33670   3.297   1.032   1.998 -0.1627 -0.4950 -0.6108
 7346SOL    HW133671   3.286   1.063   1.909 -2.2557  0.6450  0.0357
 7346SOL    HW233672   3.389   1.055   2.011 -0.2133 -0.1549 -0.8661
 7347SOL     OW33673   1.186   1.182   1.527 -0.8149  0.2360 -0.2779
 7347SOL    HW133674   1.244   1.155   1.455 -1.3020  0.8770 -0.9066
 7347SOL    HW233675   1.123   1.233   1.476 -2.2392  0.6760  1.9700
 7348SOL     OW33676   3.077   4.353  14.210  0.6229  0.3253 -0.2596
 7348SOL    HW133677   3.129   4.280  14.244 -1.7442 -1.6225 -0.8559
 7348SOL    HW233678   3.049   4.394  14.291 -1.2161  0.6294 -1.0508
 7349SOL     OW33679   4.612   2.088   0.777  0.0941 -0.0627 -0.0072
 7349SOL    HW133680   4.551   2.072   0.705 -0.3965 -0.9305  0.6030
 7349SOL    HW233681   4.586   2.014   0.831  0.0459 -1.0721 -1.4290
 7350SOL     OW33682   3.828   2.758   4.678 -0.1289 -0.1976 -0.1229
 7350SOL    HW133683   3.741   2.719   4.678 -0.1781 -0.0896 -0.4418
 7350SOL    HW233684   3.821   2.805   4.595 -0.3667  0.7126  0.4157
 7351SOL     OW33685   2.123   4.692   7.751  0.4719 -0.1893  0.3904
 7351SOL    HW133686   2.182   4.690   7.826 -0.4567  1.2626  1.1586
 7351SOL    HW233687   2.158   4.618   7.702 -0.4856  0.1935 -0.8624
 7352SOL     OW33688   2.055   3.373   5.160  0.0692  0.4379 -0.1625
 7352SOL    HW133689   1.980   3.355   5.103  0.6864 -0.2897 -0.7501
 7352SOL    HW233690   2.043   3.468   5.161  1.9734  0.6740  0.1410
 7353SOL     OW33691   0.627   1.703   4.461 -0.1343 -0.0150  0.0624
 7353SOL    HW133692   0.647   1.750   4.542  0.6172  2.5646 -1.6136
 7353SOL    HW233693   0.626   1.610   4.483  1.7221  0.1600  0.8613
 7354SOL     OW33694   0.687   4.136   4.524 -1.0371 -0.2824  0.6486
 7354SOL    HW133695   0.649   4.152   4.438 -0.0064  0.5219  0.3426
 7354SOL    HW233696   0.776   4.166   4.504 -1.8097  2.3197  1.1193
 7355SOL     OW33697   2.956   1.987   8.636  0.2800  0.2373 -0.5478
 7355SOL    HW133698   2.923   1.922   8.699  0.0357  0.9335  0.0470
 7355SOL    HW233699   2.917   2.071   8.659  1.8522  1.0414 -0.8266
 7356SOL     OW33700   0.261   3.683   6.817  0.0876  0.4268  0.1817
 7356SOL    HW133701   0.222   3.657   6.901  0.4871  1.4400  0.6771
 7356SOL    HW233702   0.350   3.680   6.851  0.3211 -0.5205 -0.5400
 7357SOL     OW33703   0.582   4.253  14.847 -0.8190 -0.0574 -0.2055
 7357SOL    HW133704   0.648   4.200  14.802 -0.7269 -0.0983 -0.0216
 7357SOL    HW233705   0.520   4.184  14.870  0.6911 -0.6636  2.0441
 7358SOL     OW33706   0.194   3.838   8.213  0.0100 -0.0297 -0.0966
 7358SOL    HW133707   0.269   3.825   8.272  0.3792 -1.2019 -0.8193
 7358SOL    HW233708   0.169   3.930   8.221 -1.5238 -0.5829  1.4795
 7359SOL     OW33709   4.479   2.943   9.640 -0.3524 -0.0170  0.4759
 7359SOL    HW133710   4.420   2.961   9.566  1.8895 -0.6412 -1.4742
 7359SOL    HW233711   4.569   2.955   9.608 -1.5016 -0.2530 -2.8915
 7360SOL     OW33712   1.346   0.581   5.171 -0.4610  0.1315 -0.2630
 7360SOL    HW133713   1.265   0.552   5.215 -0.2380  1.9669  1.3707
 7360SOL    HW233714   1.340   0.674   5.192 -0.6831  0.3436 -1.2927
 7361SOL     OW33715   1.955   0.103   6.806 -0.3736 -0.6342 -0.1729
 7361SOL    HW133716   2.000   0.180   6.770 -1.5897  0.2065  0.0951
 7361SOL    HW233717   2.017   0.033   6.785  2.4608  2.4248 -2.0248
 7362SOL     OW33718   1.345   0.452  15.145  0.1990 -0.2991  0.8235
 7362SOL    HW133719   1.329   0.392  15.218 -3.6799 -0.4347 -0.1444
 7362SOL    HW233720   1.368   0.536  15.183  2.3615  0.0473 -1.2211
 7363SOL     OW33721   4.378   0.515   4.273 -0.0751 -0.6298  0.4163
 7363SOL    HW133722   4.305   0.540   4.330 -0.2657 -0.8789  0.2768
 7363SOL    HW233723   4.452   0.573   4.290  0.9247 -1.3272 -1.5658
 7364SOL     OW33724   3.916   3.498   8.779  0.0976 -0.1859  0.4375
 7364SOL    HW133725   3.845   3.544   8.824  0.1247 -0.5943  0.8924
 7364SOL    HW233726   3.877   3.495   8.691 -0.3693 -0.3290  0.6535
 7365SOL     OW33727   1.470   3.112   6.292 -0.3665 -0.0746 -0.6438
 7365SOL    HW133728   1.501   3.029   6.329  0.0579  1.6737  2.9749
 7365SOL    HW233729   1.417   3.078   6.220  0.7242  1.8590 -2.3580
 7366SOL     OW33730   3.992   0.474   7.429  0.4086 -0.1821  0.6260
 7366SOL    HW133731   4.014   0.522   7.508  1.1810 -1.7217  1.3426
 7366SOL    HW233732   3.944   0.542   7.382 -0.0445  0.3002  1.8008
 7367SOL     OW33733   2.633   4.434   0.597  0.3479 -0.3561  0.4349
 7367SOL    HW133734   2.683   4.355   0.618  0.3808 -0.0730  1.4093
 7367SOL    HW233735   2.690   4.463   0.526  0.5807  0.7517  1.0778
 7368SOL     OW33736   3.019   3.687   9.386  0.5472 -0.4545 -0.0424
 7368SOL    HW133737   3.112   3.698   9.406  0.9404 -0.5765 -1.7447
 7368SOL    HW233738   2.973   3.706   9.467 -0.9805  0.9163 -1.2236
 7369SOL     OW33739   3.660   4.102   4.322 -0.5052  0.2483  0.4504
 7369SOL    HW133740   3.674   4.014   4.287  0.2153  0.6168 -0.1840
 7369SOL    HW233741   3.744   4.146   4.314 -0.0814 -0.6752 -0.2162
 7370SOL     OW33742   3.289   3.467   9.433  0.5888 -0.7760 -0.0512
 7370SOL    HW133743   3.328   3.460   9.519 -0.4182 -2.7999  0.2397
 7370SOL    HW233744   3.284   3.562   9.440 -0.1234 -0.7164 -1.3482
 7371SOL     OW33745   2.331   0.654   1.260  0.2840  0.3563 -1.1764
 7371SOL    HW133746   2.347   0.594   1.188 -0.1927 -0.2759 -0.7478
 7371SOL    HW233747   2.406   0.713   1.248  1.6916 -1.2279 -0.1986
 7372SOL     OW33748   2.649   3.804   3.784 -0.2569 -0.1822  0.5375
 7372SOL    HW133749   2.707   3.833   3.714  1.2025 -1.4859  1.1876
 7372SOL    HW233750   2.715   3.777   3.848 -1.2713  2.8686  2.8803
 7373SOL     OW33751   2.904   0.711   0.903 -0.4297  0.6450  0.0215
 7373SOL    HW133752   2.875   0.784   0.958 -1.5025 -2.7992  4.0382
 7373SOL    HW233753   2.853   0.725   0.823 -2.0348 -0.4461  0.8473
 7374SOL     OW33754   2.863   0.017  14.411  0.7112 -0.2844 -0.9525
 7374SOL    HW133755   2.875   4.686  14.477 -2.4257 -0.8941 -0.9971
 7374SOL    HW233756   2.799   4.722  14.347 -1.2884  1.4527  0.1439
 7375SOL     OW33757   2.160   2.415   2.407  0.2988  0.2196  0.3225
 7375SOL    HW133758   2.084   2.473   2.406 -0.6855 -1.0913 -1.1093
 7375SOL    HW233759   2.125   2.348   2.349  1.9172 -0.5778  0.2538
 7376SOL     OW33760   2.662   2.658  16.968 -0.2580 -0.0726  0.5473
 7376SOL    HW133761   2.625   2.580  17.010  0.8131 -0.7949  0.1338
 7376SOL    HW233762   2.631   2.722  17.033  1.5282  0.5450  0.8069
 7377SOL     OW33763   2.071   0.792   8.842 -0.2110  0.1976  0.0445
 7377SOL    HW133764   1.978   0.793   8.863  0.0211 -0.5789  1.0849
 7377SOL    HW233765   2.107   0.878   8.866 -1.5042  0.8932 -0.4704
 7378SOL     OW33766   0.189   1.720   4.016  0.1153  0.3101 -0.3671
 7378SOL    HW133767   0.192   1.676   4.101  1.5693  1.7973  0.3578
 7378SOL    HW233768   0.280   1.737   3.991 -0.7483  2.4393 -2.1302
 7379SOL     OW33769   3.392   0.924   5.384 -0.5032 -0.1694 -0.3526
 7379SOL    HW133770   3.352   0.855   5.330  0.0419 -1.6897  1.2005
 7379SOL    HW233771   3.370   0.884   5.468  3.1302 -0.3477  0.5038
 7380SOL     OW33772   0.207   0.858   4.548 -0.0046 -0.4205  0.3206
 7380SOL    HW133773   0.138   0.914   4.583 -0.5000 -0.6360 -0.3136
 7380SOL    HW233774   0.156   0.807   4.485  0.9191 -0.1465 -0.6503
 7381SOL     OW33775   4.103   3.100  11.964  0.3311  0.0822 -0.2044
 7381SOL    HW133776   4.127   3.189  11.990 -0.2148  0.0975  0.2553
 7381SOL    HW233777   4.011   3.089  11.987  0.3792 -1.4653 -0.6991
 7382SOL     OW33778   2.378   4.579   3.290  0.0069 -0.3220  0.1377
 7382SOL    HW133779   2.472   4.580   3.309  0.2414 -0.4974 -1.0346
 7382SOL    HW233780   2.359   4.672   3.299 -0.4992 -0.3193 -1.0024
 7383SOL     OW33781   4.147   2.080  16.004 -0.5029 -0.3873 -0.1315
 7383SOL    HW133782   4.118   2.075  15.913 -0.1901 -0.5170 -0.2238
 7383SOL    HW233783   4.079   2.140  16.034  0.6551  1.0195 -0.3424
 7384SOL     OW33784   1.045   0.791   4.843  0.0475 -0.6667  0.5061
 7384SOL    HW133785   1.104   0.732   4.797  0.4782 -0.8873  1.3495
 7384SOL    HW233786   1.012   0.850   4.775 -0.5822  0.0490  1.4176
 7385SOL     OW33787   4.471   1.220  14.324 -0.5090 -0.3103  0.1425
 7385SOL    HW133788   4.468   1.279  14.249 -0.4651 -0.1937  0.2334
 7385SOL    HW233789   4.424   1.146  14.285 -0.3076 -1.8738  2.8393
 7386SOL     OW33790   0.234   4.634   2.358 -0.4864  0.2113 -0.1006
 7386SOL    HW133791   0.248   4.543   2.386  1.9131  0.9339  1.0699
 7386SOL    HW233792   0.140   4.641   2.373 -0.4544 -0.2163  0.3218
 7387SOL     OW33793   1.510   4.398   2.836  0.6314 -0.0051 -0.8439
 7387SOL    HW133794   1.604   4.397   2.816  1.2356 -3.5059  2.1929
 7387SOL    HW233795   1.464   4.438   2.762 -0.4948 -0.1491 -0.2162
 7388SOL     OW33796   2.863   0.191   7.648  0.3505 -0.0812 -0.9670
 7388SOL    HW133797   2.895   0.158   7.564  0.1822 -2.6885 -0.0146
 7388SOL    HW233798   2.795   0.249   7.616 -0.8061  0.0325  1.7056
 7389SOL     OW33799   0.990   1.276  12.748 -0.3460 -0.3477 -0.1122
 7389SOL    HW133800   1.045   1.200  12.770 -1.1669 -1.1906 -0.9698
 7389SOL    HW233801   0.964   1.261  12.657 -1.7720 -0.6647  0.3471
 7390SOL     OW33802   1.265   2.224   6.232 -0.1501  0.3130  0.2565
 7390SOL    HW133803   1.333   2.215   6.165 -0.2113  2.2551 -0.0598
 7390SOL    HW233804   1.317   2.273   6.296 -0.0747  0.1564  0.3169
 7391SOL     OW33805   3.147   1.301   8.595 -0.1093  0.0859  0.1685
 7391SOL    HW133806   3.218   1.276   8.536 -0.5174 -1.7038  0.4163
 7391SOL    HW233807   3.185   1.386   8.613 -1.1464  0.6268 -0.1858
 7392SOL     OW33808   2.885   1.290   8.494 -0.3698  0.3673  0.1156
 7392SOL    HW133809   2.862   1.212   8.544 -0.8381  0.7602  0.5230
 7392SOL    HW233810   2.980   1.290   8.497 -0.4284 -2.7463  2.1159
 7393SOL     OW33811   3.214   1.855   7.965 -0.2364 -0.3102 -0.2625
 7393SOL    HW133812   3.189   1.774   8.008 -1.0380 -0.5062 -1.0920
 7393SOL    HW233813   3.273   1.904   8.021 -0.1656 -0.2669 -0.3735
 7394SOL     OW33814   1.439   2.604   2.222  0.0478  0.2360  0.1305
 7394SOL    HW133815   1.365   2.664   2.210 -1.7909 -2.2956 -1.3689
 7394SOL    HW233816   1.491   2.641   2.150  1.1570 -1.0608  0.2731
 7395SOL     OW33817   1.481   4.544   9.458  0.0347 -0.1321 -0.0714
 7395SOL    HW133818   1.469   4.529   9.552 -0.6802  0.4120 -0.0782
 7395SOL    HW233819   1.423   4.478   9.420  0.7198 -0.2871 -0.8515
 7396SOL     OW33820   0.980   2.876  11.085  0.1421  0.4367  0.3173
 7396SOL    HW133821   0.931   2.957  11.069 -0.2211  0.4591  1.5462
 7396SOL    HW233822   0.955   2.863  11.177  2.0393 -0.3494  0.7322
 7397SOL     OW33823   0.979   3.399   5.681 -0.0951 -0.0459 -0.5992
 7397SOL    HW133824   1.068   3.411   5.647  0.2861 -0.3828  0.2768
 7397SOL    HW233825   0.996   3.401   5.775 -0.5669 -1.0605 -0.4927
 7398SOL     OW33826   3.955   1.664   5.306 -0.1839 -0.1323  0.0665
 7398SOL    HW133827   3.994   1.588   5.263 -0.3196 -1.4707  2.3332
 7398SOL    HW233828   3.910   1.614   5.373 -0.1781 -0.3442 -0.0880
 7399SOL     OW33829   4.197   4.028   0.409 -0.2144  0.0035  0.3261
 7399SOL    HW133830   4.164   3.941   0.386  0.7652 -0.5503  1.0263
 7399SOL    HW233831   4.146   4.053   0.486  0.1464  0.5821  0.3800
 7400SOL     OW33832   1.061   4.676   0.626 -0.2956  0.3208  0.3500
 7400SOL    HW133833   1.037   4.698   0.716 -2.1644 -0.8437  0.1395
 7400SOL    HW233834   1.048   0.018   0.573  0.1848  0.5779  0.6255
 7401SOL     OW33835   1.532   4.067   8.475 -0.3226 -0.2840 -0.2820
 7401SOL    HW133836   1.581   4.149   8.472 -2.7725  1.2199  1.4241
 7401SOL    HW233837   1.542   4.024   8.390  0.4530 -2.3037  0.8401
 7402SOL     OW33838   3.157   0.634  12.369  0.3097  0.3200  0.2390
 7402SOL    HW133839   3.126   0.595  12.451  3.0914 -0.7586  0.7768
 7402SOL    HW233840   3.216   0.705  12.394  1.8337 -0.4260 -1.2560
 7403SOL     OW33841   3.966   0.494   0.055 -1.1006  0.0663 -0.1513
 7403SOL    HW133842   4.054   0.510   0.020 -1.1019 -0.4833 -0.4175
 7403SOL    HW233843   3.969   0.401   0.079  1.3510 -0.1222 -1.1331
 7404SOL     OW33844   1.893   3.336  13.019 -0.1734 -0.0565  0.2188
 7404SOL    HW133845   1.921   3.257  12.973  0.5636  1.1805 -1.5107
 7404SOL    HW233846   1.802   3.316  13.042 -0.1106  0.3416  0.8080
 7405SOL     OW33847   3.526   3.499   3.607  0.6764  0.2440  0.1494
 7405SOL    HW133848   3.541   3.573   3.548  0.5645  0.3084  0.2030
 7405SOL    HW233849   3.557   3.531   3.692  0.8456 -1.1283  0.5952
 7406SOL     OW33850   2.770   3.955   4.664 -0.2782 -0.1792 -0.8169
 7406SOL    HW133851   2.799   4.039   4.701 -0.0403 -0.9235  0.6867
 7406SOL    HW233852   2.838   3.897   4.698  0.6774  1.8859  0.7557
 7407SOL     OW33853   4.285   2.750   3.174  0.6415 -0.3404 -0.3791
 7407SOL    HW133854   4.227   2.764   3.249  0.1005  3.0092 -1.4373
 7407SOL    HW233855   4.223   2.699   3.122 -0.9762  1.0574  0.1688
 7408SOL     OW33856   1.103   3.795  12.487 -0.1497 -0.0356 -0.4773
 7408SOL    HW133857   1.034   3.861  12.486 -0.0034  0.1131 -0.7773
 7408SOL    HW233858   1.055   3.720  12.452 -0.5863 -1.0882  2.3538
 7409SOL     OW33859   1.536   1.090   2.504 -0.1153 -0.4239 -0.1886
 7409SOL    HW133860   1.496   1.048   2.428  1.4510  0.3827 -1.4636
 7409SOL    HW233861   1.539   1.023   2.573 -1.3890  0.0585  0.3329
 7410SOL     OW33862   3.095   0.331   4.466  0.1841 -0.4521  0.4637
 7410SOL    HW133863   3.141   0.381   4.534  1.0964 -0.0155 -0.4727
 7410SOL    HW233864   3.054   0.273   4.530  1.7912  1.5373  3.3261
 7411SOL     OW33865   3.931   0.581   8.429  0.0826  0.3469  0.1854
 7411SOL    HW133866   3.885   0.635   8.364  1.9018  0.4801 -0.9873
 7411SOL    HW233867   3.919   0.495   8.389  1.2935  0.3606 -0.1991
 7412SOL     OW33868   1.851   0.895   3.024  0.3010 -0.0099 -0.0397
 7412SOL    HW133869   1.943   0.913   3.009 -0.2538  1.5217 -1.5895
 7412SOL    HW233870   1.813   0.981   3.007  0.9252  0.3417  0.3803
 7413SOL     OW33871   3.265   3.510   5.277 -0.4677 -0.7105 -0.1785
 7413SOL    HW133872   3.356   3.534   5.291 -1.0867 -0.3673  3.3269
 7413SOL    HW233873   3.249   3.480   5.367 -0.6126 -1.7634 -0.5598
 7414SOL     OW33874   3.538   2.125   1.957 -0.2304 -0.2641 -0.5475
 7414SOL    HW133875   3.511   2.049   2.008  2.3710  0.0870  1.3426
 7414SOL    HW233876   3.568   2.082   1.877  0.4315 -0.4632 -0.1874
 7415SOL     OW33877   1.467   1.082   3.439 -0.3014 -0.1480 -0.1395
 7415SOL    HW133878   1.427   1.071   3.525 -0.7761 -1.7337 -0.5495
 7415SOL    HW233879   1.478   0.990   3.415  0.0522  0.3731 -1.9619
 7416SOL     OW33880   2.450   0.677   2.670  0.0440  0.2696 -0.2876
 7416SOL    HW133881   2.477   0.598   2.717 -1.4276  0.0237  0.1481
 7416SOL    HW233882   2.421   0.627   2.594  0.4730  1.0326 -0.9627
 7417SOL     OW33883   3.255   3.993   3.533 -0.0543  0.6165 -0.4509
 7417SOL    HW133884   3.293   3.921   3.584 -1.1615  1.5405  1.6644
 7417SOL    HW233885   3.238   4.059   3.599 -0.7227  2.9050 -2.9190
 7418SOL     OW33886   4.158   3.751   3.234 -0.2193 -0.8597 -0.3053
 7418SOL    HW133887   4.077   3.757   3.183  0.0296  1.7499 -0.3919
 7418SOL    HW233888   4.126   3.713   3.316  1.4547  0.1593  0.8285
 7419SOL     OW33889   3.509   1.290   6.484  0.3661  0.8481  0.3633
 7419SOL    HW133890   3.514   1.287   6.389  0.2177  3.3529  0.2948
 7419SOL    HW233891   3.601   1.308   6.499  1.2272 -2.5772 -0.7587
 7420SOL     OW33892   1.457   1.830  17.219 -0.2896  0.4451  0.4975
 7420SOL    HW133893   1.521   1.890  17.257  2.7590 -2.9754  0.7580
 7420SOL    HW233894   1.510   1.766  17.171 -0.5013  0.7092 -0.0901
 7421SOL     OW33895   0.499   2.494   8.061  0.1588 -0.1782  0.1228
 7421SOL    HW133896   0.406   2.515   8.054  0.2325 -0.4560 -1.5703
 7421SOL    HW233897   0.534   2.486   7.972 -0.8410  2.0315 -0.4546
 7422SOL     OW33898   2.657   0.445   2.670  0.6765  0.1398 -0.4655
 7422SOL    HW133899   2.666   0.480   2.582 -1.7987  0.7059 -0.4926
 7422SOL    HW233900   2.671   0.350   2.665  1.5064  0.3150 -1.3730
 7423SOL     OW33901   1.949   1.072  10.445 -0.4335  0.2245 -0.2678
 7423SOL    HW133902   1.996   1.103  10.368  0.6526  2.9603  1.5134
 7423SOL    HW233903   1.887   1.143  10.464 -0.8210 -0.0512 -0.5025
 7424SOL     OW33904   4.138   4.462  14.812  0.4278 -0.1727 -0.1259
 7424SOL    HW133905   4.193   4.499  14.881 -0.0103  2.4276 -1.1783
 7424SOL    HW233906   4.196   4.391  14.783  1.4933  0.7574 -0.2680
 7425SOL     OW33907   1.140   1.926   6.363  0.3996  0.4167 -0.2116
 7425SOL    HW133908   1.054   1.922   6.406  0.4407  1.0651 -0.0754
 7425SOL    HW233909   1.195   1.936   6.440  0.3596  1.4532 -0.3180
 7426SOL     OW33910   2.833   0.383   3.198 -0.0209  0.4084 -0.0041
 7426SOL    HW133911   2.896   0.444   3.237  1.3037 -1.0061  0.0233
 7426SOL    HW233912   2.877   0.346   3.122  0.1238  1.3048 -0.3551
 7427SOL     OW33913   3.861   4.249   8.438 -0.1848  0.1550 -0.3191
 7427SOL    HW133914   3.881   4.341   8.422  0.7390  0.2022  1.0578
 7427SOL    HW233915   3.792   4.246   8.505 -1.3511 -2.9464 -1.6353
 7428SOL     OW33916   2.573   2.310  14.887  0.3104  0.2545  0.1958
 7428SOL    HW133917   2.482   2.323  14.915 -0.3021  1.1241 -2.1688
 7428SOL    HW233918   2.553   2.289  14.795 -0.2637 -0.1593  0.4126
 7429SOL     OW33919   3.417   4.497  15.452  0.4507 -0.1837  0.5373
 7429SOL    HW133920   3.375   4.500  15.366 -1.7860 -1.0832  1.5944
 7429SOL    HW233921   3.413   4.402  15.463 -1.9746 -0.3816 -2.2081
 7430SOL     OW33922   4.290   1.545   4.763  0.5640 -0.1076 -0.0131
 7430SOL    HW133923   4.278   1.451   4.746 -2.4853  0.1419  0.6872
 7430SOL    HW233924   4.203   1.574   4.737  0.8095 -2.2460 -3.2370
 7431SOL     OW33925   1.938   1.649  12.241 -0.6431  0.3302  0.2847
 7431SOL    HW133926   1.935   1.738  12.207 -1.4599 -0.1001 -0.7665
 7431SOL    HW233927   1.867   1.648  12.306  0.3820 -2.2061  1.3751
 7432SOL     OW33928   3.509   3.686   7.276 -0.0387 -0.4805 -0.0425
 7432SOL    HW133929   3.439   3.751   7.276 -0.5574 -1.0309  2.0345
 7432SOL    HW233930   3.568   3.737   7.221  1.0550 -1.4064  0.2749
 7433SOL     OW33931   0.739   3.040   7.284 -0.0326  0.5673 -0.0438
 7433SOL    HW133932   0.734   3.008   7.194  1.9930  0.3976 -0.0872
 7433SOL    HW233933   0.693   2.966   7.324 -1.4090  1.6021  0.2810
 7434SOL     OW33934   0.194   0.445   6.508  0.3255  0.3999  0.4717
 7434SOL    HW133935   0.227   0.420   6.422  1.1420  0.0235  0.9041
 7434SOL    HW233936   0.258   0.407   6.567  0.8708  0.1360 -0.2871
 7435SOL     OW33937   2.035   0.099   5.406  0.1023 -0.0442  0.4803
 7435SOL    HW133938   2.005   0.009   5.398 -1.8840  0.4365  2.5973
 7435SOL    HW233939   2.020   0.138   5.320 -1.6050 -2.4127 -0.2681
 7436SOL     OW33940   4.675   3.415   2.496  0.0722 -0.0326  0.3010
 7436SOL    HW133941   4.663   3.341   2.436  3.0155 -0.3530  0.1155
 7436SOL    HW233942   0.009   3.381   2.550 -1.2557 -1.3699  1.2262
 7437SOL     OW33943   2.969   2.304   9.400 -0.2107  0.2279  0.2503
 7437SOL    HW133944   2.927   2.246   9.336  0.5092  0.7067 -0.6492
 7437SOL    HW233945   2.888   2.344   9.432 -0.3332  1.1188 -1.1460
 7438SOL     OW33946   3.170   4.449   3.865 -0.1594  0.7598  0.1161
 7438SOL    HW133947   3.186   4.399   3.945  1.3825 -0.6541 -1.0777
 7438SOL    HW233948   3.252   4.490   3.838  0.3630  0.5567  1.4135
 7439SOL     OW33949   3.926   0.367  17.523 -0.1621 -0.3060 -0.3544
 7439SOL    HW133950   3.948   0.454  17.555  0.5185 -1.4798  2.3442
 7439SOL    HW233951   4.011   0.323  17.526 -0.3163 -0.5573  0.3803
 7440SOL     OW33952   2.772   2.814   7.177  0.0643  0.0059 -0.2557
 7440SOL    HW133953   2.735   2.902   7.181  3.4784  1.5452 -1.8989
 7440SOL    HW233954   2.739   2.795   7.089  0.6122 -0.5481 -0.3460
 7441SOL     OW33955   4.050   4.007  10.572 -0.3689 -0.0950  0.6539
 7441SOL    HW133956   4.102   3.939  10.530 -1.0966  0.0987 -0.5647
 7441SOL    HW233957   3.963   3.966  10.568 -0.6570  0.6104 -0.3859
 7442SOL     OW33958   4.210   0.202   6.285  0.2587  0.0395 -0.2509
 7442SOL    HW133959   4.248   0.270   6.228 -0.0458 -0.7408 -1.3716
 7442SOL    HW233960   4.121   0.237   6.279  0.8035  1.6558  0.8712
 7443SOL     OW33961   2.883   2.227  14.804 -0.2602  0.2937  0.0700
 7443SOL    HW133962   2.885   2.307  14.752  3.4471  0.0172 -0.1750
 7443SOL    HW233963   2.927   2.167  14.745  0.2313  0.1438  0.5898
 7444SOL     OW33964   0.316   1.328   7.589 -0.1185 -0.1526 -0.0679
 7444SOL    HW133965   0.359   1.380   7.521  1.6318 -0.3812  0.8745
 7444SOL    HW233966   0.385   1.303   7.650 -1.4490  1.0996  1.9290
 7445SOL     OW33967   3.657   3.216   8.183 -0.1655  0.1183 -0.4142
 7445SOL    HW133968   3.686   3.243   8.096 -0.2890 -2.0627 -1.1431
 7445SOL    HW233969   3.737   3.175   8.216 -0.2156  0.7885  0.5462
 7446SOL     OW33970   1.537   3.699   6.493 -0.0197 -0.4972  0.4662
 7446SOL    HW133971   1.539   3.691   6.588  0.4765 -0.4580  0.4631
 7446SOL    HW233972   1.465   3.638   6.480 -0.6654  0.5614 -0.8492
 7447SOL     OW33973   0.086   0.745   2.919 -0.1593  0.9018  0.4134
 7447SOL    HW133974   0.153   0.790   2.970  0.1837  1.2283 -0.3267
 7447SOL    HW233975   0.092   0.659   2.960  0.2980  0.7740  0.0793
 7448SOL     OW33976   4.120   4.614   2.924  0.0710  0.6654 -0.2224
 7448SOL    HW133977   4.080   4.616   3.011  0.2066 -0.3218 -0.1429
 7448SOL    HW233978   4.041   4.594   2.873 -1.2459  1.7318  1.3951
 7449SOL     OW33979   2.376   3.426  11.242  0.1176  0.1270 -0.5212
 7449SOL    HW133980   2.455   3.473  11.217 -0.3036 -0.6239 -3.3167
 7449SOL    HW233981   2.342   3.487  11.308 -1.1665  1.1972 -2.1627
 7450SOL     OW33982   3.321   0.838   6.661  0.2276 -0.2709 -0.3420
 7450SOL    HW133983   3.366   0.921   6.672  1.4542 -0.6398 -2.5403
 7450SOL    HW233984   3.315   0.805   6.751  0.8912  0.3263 -0.0829
 7451SOL     OW33985   1.866   2.380   3.863  0.3267 -0.3376 -0.2157
 7451SOL    HW133986   1.778   2.396   3.830  0.2224  0.4053  0.4003
 7451SOL    HW233987   1.914   2.357   3.783 -0.4265 -2.8239  0.0435
 7452SOL     OW33988   4.467   1.134  10.645 -0.0847 -0.1017  0.3439
 7452SOL    HW133989   4.541   1.161  10.699 -0.5284  0.1264  0.8339
 7452SOL    HW233990   4.478   1.039  10.639 -3.3811 -0.4137 -0.8886
 7453SOL     OW33991   2.190   0.817  13.980 -0.2987  0.0584  0.3097
 7453SOL    HW133992   2.196   0.754  14.052  1.1068 -1.8511 -1.4329
 7453SOL    HW233993   2.145   0.773  13.907 -1.0926 -0.3155  1.0234
 7454SOL     OW33994   1.614   0.611   1.682  0.3615 -0.1928 -0.2622
 7454SOL    HW133995   1.619   0.630   1.776 -0.7083 -1.0914 -0.0231
 7454SOL    HW233996   1.576   0.523   1.686  2.6615 -1.2209 -1.1574
 7455SOL     OW33997   1.951   1.477  14.806 -0.0936 -0.3149 -0.4759
 7455SOL    HW133998   1.899   1.420  14.862  0.4961  1.2939  1.7460
 7455SOL    HW233999   2.037   1.437  14.820  0.5319  0.0407 -3.2185
 7456SOL     OW34000   4.394   2.431  10.612 -0.3819  0.6013 -0.0018
 7456SOL    HW134001   4.428   2.363  10.554 -0.4514  0.4080  0.1824
 7456SOL    HW234002   4.460   2.427  10.682 -0.2184 -0.9531 -0.2544
 7457SOL     OW34003   2.694   3.207   3.097 -0.3846  0.1057 -0.1860
 7457SOL    HW134004   2.723   3.132   3.045  0.8964 -0.3713  1.2244
 7457SOL    HW234005   2.688   3.161   3.181  4.4392  0.9650  0.5985
 7458SOL     OW34006   3.489   0.605  14.691  0.2554  0.3359  0.4228
 7458SOL    HW134007   3.553   0.676  14.690  0.2140  0.3653 -1.0298
 7458SOL    HW234008   3.472   0.588  14.598  0.5412  0.2449  0.3866
 7459SOL     OW34009   0.175   1.668   4.994 -0.1297 -0.1091  0.1986
 7459SOL    HW134010   0.134   1.669   4.908  0.3965 -0.2584 -0.0570
 7459SOL    HW234011   0.127   1.742   5.032 -0.2843  0.9690 -2.1256
 7460SOL     OW34012   3.300   3.069  13.809 -0.0714 -0.5795  0.7113
 7460SOL    HW134013   3.214   3.107  13.829 -0.0160  1.6226 -3.2267
 7460SOL    HW234014   3.312   3.035  13.898 -1.1066 -1.1581  0.6359
 7461SOL     OW34015   3.546   0.715   8.028  0.3437  0.5086  0.3824
 7461SOL    HW134016   3.612   0.684   7.965  0.2453 -0.6226  0.8395
 7461SOL    HW234017   3.482   0.644   8.034 -1.4339  2.3233  2.9427
 7462SOL     OW34018   0.129   4.223   3.875 -0.0547 -0.9037  0.5112
 7462SOL    HW134019   0.143   4.159   3.805 -0.4517  0.1838 -0.5771
 7462SOL    HW234020   0.193   4.291   3.855 -3.5200  1.7112 -1.7970
 7463SOL     OW34021   2.026   4.703   4.618  0.0198 -0.7801  0.9829
 7463SOL    HW134022   2.052   0.034   4.556 -0.5461 -0.9954  0.5065
 7463SOL    HW234023   1.979   0.019   4.683 -1.8505  0.4473 -1.3858
 7464SOL     OW34024   2.934   4.334   6.051  0.0746 -0.0389 -0.3596
 7464SOL    HW134025   2.982   4.314   6.132 -1.3116  0.4125  0.5796
 7464SOL    HW234026   3.001   4.325   5.984  0.7771  1.2724  0.1546
 7465SOL     OW34027   2.670   3.425   2.671 -0.2495  0.2351 -0.3103
 7465SOL    HW134028   2.632   3.341   2.697  2.9345 -0.8821  0.8256
 7465SOL    HW234029   2.621   3.492   2.719  1.8653  1.8515 -0.4272
 7466SOL     OW34030   4.293   3.919   5.560 -0.4687  0.2670 -0.0852
 7466SOL    HW134031   4.206   3.959   5.563 -1.1945 -1.2878 -0.1465
 7466SOL    HW234032   4.275   3.835   5.517  2.1423 -0.3241  0.0015
 7467SOL     OW34033   4.239   4.217   7.114 -0.5398 -0.1811  0.5852
 7467SOL    HW134034   4.272   4.127   7.110  0.3080  0.2399 -1.7901
 7467SOL    HW234035   4.145   4.200   7.124 -0.4247 -0.7918  0.6111
 7468SOL     OW34036   4.599   0.453  11.975 -0.4739 -0.2404  0.0777
 7468SOL    HW134037   4.525   0.431  11.917 -0.9305 -1.9867  1.3210
 7468SOL    HW234038   4.589   0.545  11.995 -1.0579  0.1976 -2.1787
 7469SOL     OW34039   4.645   3.933  15.755 -0.0463 -0.2820 -0.0838
 7469SOL    HW134040   4.574   3.897  15.808 -0.0104  0.8793  0.7559
 7469SOL    HW234041   4.654   3.864  15.689 -1.3172 -1.1249  0.6259
 7470SOL     OW34042   4.695   1.789   7.802  0.2635  0.2866 -0.1797
 7470SOL    HW134043   4.629   1.787   7.733 -0.9514  0.4006  0.9575
 7470SOL    HW234044   4.685   1.871   7.850 -0.1887  0.7744 -1.1141
 7471SOL     OW34045   0.430   1.950  13.926 -1.1332  0.0149  0.3447
 7471SOL    HW134046   0.501   1.914  13.873 -2.8227 -1.3349 -1.0177
 7471SOL    HW234047   0.354   1.926  13.873  0.8142 -0.5438 -2.1969
 7472SOL     OW34048   3.050   0.879   5.159 -0.3880  0.0742 -0.1567
 7472SOL    HW134049   2.994   0.866   5.235 -1.3199 -0.8967 -1.0122
 7472SOL    HW234050   3.115   0.809   5.169  0.0134  0.4823  0.1087
 7473SOL     OW34051   2.552   2.285  13.458  0.4599  0.0379  0.4427
 7473SOL    HW134052   2.578   2.283  13.549 -1.0732  0.6341  0.8969
 7473SOL    HW234053   2.525   2.376  13.456  0.1216 -0.0579  0.8315
 7474SOL     OW34054   3.822   1.746  11.365 -0.0198 -0.6611  0.3612
 7474SOL    HW134055   3.831   1.687  11.290  2.2824  0.4183 -0.2133
 7474SOL    HW234056   3.750   1.805  11.344  0.8800  0.2650 -0.1376
 7475SOL     OW34057   2.237   3.976   6.213 -0.0432  0.3167 -0.2073
 7475SOL    HW134058   2.196   4.061   6.227 -1.1370 -0.3683  0.7186
 7475SOL    HW234059   2.314   4.005   6.163  1.0093 -0.9998  0.6477
 7476SOL     OW34060   0.030   0.079   8.427  0.5670 -0.2578  0.0756
 7476SOL    HW134061   0.032   0.138   8.502 -0.2333 -0.6983  0.4330
 7476SOL    HW234062   0.065   4.735   8.463 -0.3398 -0.0654  1.3840
 7477SOL     OW34063   1.507   1.859  11.454 -0.5417  0.3994 -0.1466
 7477SOL    HW134064   1.421   1.849  11.413 -0.8682 -1.7510  1.0686
 7477SOL    HW234065   1.534   1.767  11.456 -1.6211  0.1156  1.7030
 7478SOL     OW34066   3.977   4.217  13.748  0.0041  0.3431 -0.7288
 7478SOL    HW134067   3.907   4.237  13.686  0.1907  2.6439 -0.1998
 7478SOL    HW234068   3.937   4.210  13.834 -0.3558 -0.4051 -0.9524
 7479SOL     OW34069   4.582   4.507   1.604 -0.3832 -0.4726 -0.1618
 7479SOL    HW134070   4.613   4.573   1.666  1.6901 -2.0639  0.5325
 7479SOL    HW234071   4.553   4.433   1.658  2.6339 -1.6818 -0.1617
 7480SOL     OW34072   4.382   0.937   6.206 -0.8254 -0.1024  0.1865
 7480SOL    HW134073   4.339   0.852   6.207 -0.8856 -0.0515  1.8124
 7480SOL    HW234074   4.469   0.908   6.179  0.3525  0.6410  3.1888
 7481SOL     OW34075   0.867   1.079   2.971  0.1324  0.3398  0.2132
 7481SOL    HW134076   0.962   1.073   2.964 -0.0761 -4.0943  1.4523
 7481SOL    HW234077   0.869   1.171   2.999  0.1757  0.6246 -0.7128
 7482SOL     OW34078   2.259   4.481  14.628  0.1662 -0.5463 -0.6473
 7482SOL    HW134079   2.199   4.407  14.624  2.9159 -2.8271  0.0899
 7482SOL    HW234080   2.335   4.444  14.585  0.0658 -0.8085 -0.5962
 7483SOL     OW34081   0.203   2.780   5.923 -0.9021 -0.2194 -0.5420
 7483SOL    HW134082   0.218   2.791   5.829 -2.3149 -1.9025 -0.9902
 7483SOL    HW234083   0.135   2.846   5.936 -0.6231  0.3276 -1.8882
 7484SOL     OW34084   2.233   0.346   1.852  0.8428 -0.1713 -0.4527
 7484SOL    HW134085   2.308   0.328   1.795  1.3725 -0.8440  0.4379
 7484SOL    HW234086   2.189   0.261   1.849  0.3493  0.0759 -0.2057
 7485SOL     OW34087   1.852   4.509   5.815 -0.7121  0.4538 -0.0764
 7485SOL    HW134088   1.909   4.463   5.754  0.5246  1.2877  0.4435
 7485SOL    HW234089   1.886   4.597   5.802  1.0902 -0.3608 -0.8008
 7486SOL     OW34090   0.544   2.857   8.223  0.4708 -1.1025  0.1665
 7486SOL    HW134091   0.527   2.870   8.130 -0.1362  0.2892  0.4769
 7486SOL    HW234092   0.469   2.799   8.240  0.3735 -0.8575  0.5656
 7487SOL     OW34093   2.189   0.209   3.004 -0.0414  0.3127 -0.3524
 7487SOL    HW134094   2.170   0.255   2.923 -0.3109  2.0142  0.6770
 7487SOL    HW234095   2.128   0.137   2.992 -0.0839  0.6950 -2.3199
 7488SOL     OW34096   1.808   1.501   7.260 -0.1748 -0.3711  0.8695
 7488SOL    HW134097   1.841   1.419   7.297  0.6301  1.0300  3.2860
 7488SOL    HW234098   1.738   1.467   7.205  2.0450 -0.5957 -1.7969
 7489SOL     OW34099   1.266   0.785   2.651  0.6860 -0.5728  0.3575
 7489SOL    HW134100   1.247   0.695   2.622  0.7494 -0.0002 -1.4639
 7489SOL    HW234101   1.359   0.787   2.674  0.2374 -0.8790  2.2269
 7490SOL     OW34102   4.530   0.931  17.407 -0.2187 -0.1103 -0.4139
 7490SOL    HW134103   4.519   0.936  17.312 -1.8819  1.2865 -0.1358
 7490SOL    HW234104   4.483   0.851  17.430  0.7262 -1.4672 -3.1638
 7491SOL     OW34105   1.792   3.816   0.285 -0.3119  0.3856 -0.0957
 7491SOL    HW134106   1.875   3.841   0.244  0.1829 -3.9478 -1.6707
 7491SOL    HW234107   1.794   3.722   0.271 -1.7576  0.3752 -0.1939
 7492SOL     OW34108   4.157   3.359   5.785 -0.2957  0.1235 -0.4102
 7492SOL    HW134109   4.236   3.363   5.730  2.0674  0.2656  2.9838
 7492SOL    HW234110   4.100   3.300   5.735 -0.5840  0.4325 -0.4441
 7493SOL     OW34111   3.239   1.760   5.885  0.4429 -0.1509 -0.0629
 7493SOL    HW134112   3.241   1.698   5.812  1.0372 -0.4820  0.2295
 7493SOL    HW234113   3.327   1.796   5.893  1.2411 -2.0100 -0.3076
 7494SOL     OW34114   1.785   4.130   0.805 -0.1746  0.0011  0.4052
 7494SOL    HW134115   1.823   4.179   0.733 -2.2473  1.9424  0.6430
 7494SOL    HW234116   1.743   4.200   0.856  1.4815  1.2201  0.0955
 7495SOL     OW34117   4.494   0.245  15.118  0.6362 -0.0691  0.1110
 7495SOL    HW134118   4.533   0.332  15.107 -4.0156  2.5325  3.9129
 7495SOL    HW234119   4.577   0.197  15.110 -0.6875 -2.7018  2.3118
 7496SOL     OW34120   3.024   2.275   4.319  0.1738 -0.3157  0.1118
 7496SOL    HW134121   2.976   2.217   4.378  1.0441  0.2178  1.3544
 7496SOL    HW234122   2.970   2.260   4.242  0.9144 -1.6862 -0.1434
 7497SOL     OW34123   4.197   4.400   7.729 -0.8650  0.4625 -0.0663
 7497SOL    HW134124   4.129   4.355   7.679  1.6896 -0.5188 -2.7135
 7497SOL    HW234125   4.158   4.394   7.816 -3.2768 -0.4492 -1.2124
 7498SOL     OW34126   3.238   2.627  16.055 -0.0445 -0.5646  0.6350
 7498SOL    HW134127   3.204   2.649  15.968  1.1102  0.5316  0.4645
 7498SOL    HW234128   3.190   2.545  16.069 -0.9496 -0.1097  0.2167
 7499SOL     OW34129   4.200   0.614  13.323  0.2141  0.6412 -0.1210
 7499SOL    HW134130   4.244   0.690  13.362  1.0177 -0.5280  1.2616
 7499SOL    HW234131   4.192   0.582  13.413 -2.5679 -0.2146 -0.6675
 7500SOL     OW34132   3.330   0.492   7.650  0.3510  0.1986  0.2510
 7500SOL    HW134133   3.246   0.447   7.658  0.3461 -0.2976 -2.3638
 7500SOL    HW234134   3.397   0.429   7.675 -0.7929 -1.3513 -0.5671
 7501SOL     OW34135   4.638   1.178  10.856  0.4107 -0.3911 -0.3593
 7501SOL    HW134136   4.730   1.156  10.870 -0.6778 -2.0659  4.2598
 7501SOL    HW234137   4.593   1.170  10.940  1.0785  0.1132  0.0422
 7502SOL     OW34138   0.227   0.800   8.942  0.1636 -0.5313  0.2689
 7502SOL    HW134139   0.309   0.759   8.915 -0.1388 -1.6020  0.9656
 7502SOL    HW234140   0.260   0.884   8.973  0.2549 -0.5887  0.3280
 7503SOL     OW34141   4.607   1.969  13.507  0.5691  0.2402  0.0029
 7503SOL    HW134142   4.669   1.977  13.580 -0.2284 -0.5124  0.7543
 7503SOL    HW234143   4.627   1.884  13.468 -1.0403 -0.3726  0.5106
 7504SOL     OW34144   1.196   0.937   8.542  0.3905  0.1142  0.5230
 7504SOL    HW134145   1.248   0.858   8.526  1.2118  1.2198 -2.4146
 7504SOL    HW234146   1.106   0.907   8.525  0.9838 -2.7399  2.3409
 7505SOL     OW34147   0.761   1.983  12.892  0.0328 -0.0170 -0.0073
 7505SOL    HW134148   0.725   1.910  12.841  0.4433  1.0874 -1.8929
 7505SOL    HW234149   0.815   2.005  12.816  0.1105 -0.9849 -0.2333
 7506SOL     OW34150   3.285   0.828   7.291  0.2283  0.1083 -0.2883
 7506SOL    HW134151   3.202   0.785   7.274  0.2268 -0.4143  1.0578
 7506SOL    HW234152   3.268   0.903   7.234 -0.8886 -0.1880 -0.3339
 7507SOL     OW34153   2.404   2.998   9.706 -0.2165 -0.2484 -0.3846
 7507SOL    HW134154   2.366   2.912   9.690 -0.8321  0.4817 -2.9009
 7507SOL    HW234155   2.341   3.049   9.757 -3.4765 -1.7842 -2.8688
 7508SOL     OW34156   2.273   3.299   5.339 -0.4543 -0.6061  0.0520
 7508SOL    HW134157   2.215   3.336   5.273  0.5927 -0.7160 -0.9151
 7508SOL    HW234158   2.327   3.240   5.287 -0.6564  0.7327 -1.6744
 7509SOL     OW34159   3.622   3.750   8.558  0.5886  0.3040 -0.6283
 7509SOL    HW134160   3.602   3.686   8.627 -1.7681 -2.3336 -3.7469
 7509SOL    HW234161   3.657   3.817   8.616  5.2833 -1.5169 -1.2911
 7510SOL     OW34162   1.001   0.568   4.475 -0.0673  0.1822 -0.5966
 7510SOL    HW134163   0.927   0.577   4.416 -0.3209  2.4336  0.0603
 7510SOL    HW234164   1.053   0.634   4.430 -0.7789  0.2428 -1.3253
 7511SOL     OW34165   2.819   1.138   7.873  0.5002 -0.7981 -0.7437
 7511SOL    HW134166   2.826   1.171   7.784 -0.0831  0.3615 -0.3576
 7511SOL    HW234167   2.764   1.207   7.911  0.6503 -0.2657 -1.5071
 7512SOL     OW34168   2.816   2.612   4.275  0.3450 -0.7844  0.0504
 7512SOL    HW134169   2.896   2.618   4.222  1.7942 -1.4026  2.2044
 7512SOL    HW234170   2.768   2.689   4.243 -0.3807 -1.0659  0.4821
 7513SOL     OW34171   1.575   2.643   6.369 -0.0002  0.1663 -0.9861
 7513SOL    HW134172   1.566   2.734   6.396  0.6186  0.6247 -2.3187
 7513SOL    HW234173   1.666   2.622   6.390  0.1210  0.4952 -1.1880
 7514SOL     OW34174   3.586   1.837   8.368  0.0159 -0.1418 -0.0285
 7514SOL    HW134175   3.591   1.815   8.275  2.0509 -2.3924  0.6290
 7514SOL    HW234176   3.498   1.876   8.371  0.2986  0.6111 -1.3207
 7515SOL     OW34177   3.400   4.295   2.340  0.1095  0.2163  0.5609
 7515SOL    HW134178   3.339   4.369   2.338  0.1682  0.2600  0.2719
 7515SOL    HW234179   3.425   4.275   2.430 -0.5339  1.5501  1.0388
 7516SOL     OW34180   0.452   4.596  12.713 -0.9022  0.2322  0.1614
 7516SOL    HW134181   0.537   4.611  12.672 -1.8868  0.6471 -1.6988
 7516SOL    HW234182   0.426   4.520  12.663 -3.4290  1.3138 -0.1436
 7517SOL     OW34183   2.658   3.228  15.141 -0.1564  0.2611 -0.3825
 7517SOL    HW134184   2.640   3.170  15.216 -1.4050  1.0685 -0.0540
 7517SOL    HW234185   2.715   3.179  15.082  2.8136  3.1850  0.0888
 7518SOL     OW34186   1.234   3.142   7.109  0.1007 -0.9589 -0.4193
 7518SOL    HW134187   1.217   3.092   7.030 -1.4018 -0.3288 -0.5005
 7518SOL    HW234188   1.232   3.227   7.065 -0.2307 -1.0190 -0.5202
 7519SOL     OW34189   0.229   1.712   8.539 -0.7205  0.0912  0.0607
 7519SOL    HW134190   0.320   1.733   8.519 -1.7431  2.2171 -2.3542
 7519SOL    HW234191   0.181   1.746   8.464  0.8673  1.0913 -0.4961
 7520SOL     OW34192   2.893   3.250   4.470  0.3899  0.0936 -0.4847
 7520SOL    HW134193   2.896   3.301   4.551 -0.7008 -1.0509  0.2869
 7520SOL    HW234194   2.942   3.304   4.408 -0.3593  0.2612 -0.9330
 7521SOL     OW34195   2.162   1.644   1.911  0.2277  0.2614 -0.5192
 7521SOL    HW134196   2.190   1.721   1.862 -2.6271  1.1012 -0.8377
 7521SOL    HW234197   2.208   1.664   1.992 -1.1942 -1.4365  0.7115
 7522SOL     OW34198   0.122   4.489   4.525  0.2947 -0.1760  0.1530
 7522SOL    HW134199   0.068   4.415   4.499 -1.0670  0.5723  0.8884
 7522SOL    HW234200   0.154   4.471   4.613  0.5085  2.5470  0.6442
 7523SOL     OW34201   4.369   4.311   9.193 -0.0292 -0.5233 -0.3548
 7523SOL    HW134202   4.389   4.287   9.284 -0.6676 -0.7790 -0.2762
 7523SOL    HW234203   4.316   4.389   9.213  0.0815 -1.2825  2.9511
 7524SOL     OW34204   3.068   3.988  12.236  0.2233 -0.6400 -0.3186
 7524SOL    HW134205   3.059   4.081  12.253  2.8595 -1.0137  3.0992
 7524SOL    HW234206   3.115   3.974  12.318 -0.5712  2.1818  0.5904
 7525SOL     OW34207   4.604   2.292  16.215  0.5565 -0.4435  0.0422
 7525SOL    HW134208   4.610   2.224  16.282 -1.3311 -1.3194 -0.6733
 7525SOL    HW234209   4.513   2.283  16.186  0.4100 -1.2713  0.7511
 7526SOL     OW34210   1.115   2.722   4.891 -0.0697  0.2507 -0.2844
 7526SOL    HW134211   1.026   2.749   4.914 -0.7158 -3.4264  1.5065
 7526SOL    HW234212   1.093   2.660   4.822  0.1486  0.3092 -0.4056
 7527SOL     OW34213   3.281   2.720   6.259  0.0827 -0.2772 -0.1296
 7527SOL    HW134214   3.275   2.676   6.344 -0.2924 -1.5791 -0.8254
 7527SOL    HW234215   3.297   2.643   6.204  2.3942 -0.0647  0.2309
 7528SOL     OW34216   3.818   0.874   8.413  0.2028  0.1534  0.0530
 7528SOL    HW134217   3.882   0.931   8.371  0.1705  0.0352 -0.1595
 7528SOL    HW234218   3.798   0.814   8.341  0.4213 -0.8295  0.8092
 7529SOL     OW34219   1.994   3.821   7.670 -0.1567  0.1299 -0.4662
 7529SOL    HW134220   2.069   3.780   7.626 -0.0818 -0.9295  0.6382
 7529SOL    HW234221   1.946   3.858   7.596 -0.4303 -1.0727 -0.8943
 7530SOL     OW34222   2.993   2.402   6.300  0.7564  0.0562  0.1606
 7530SOL    HW134223   2.983   2.454   6.220 -1.1941  1.3717  1.2653
 7530SOL    HW234224   3.070   2.450   6.329  0.4502  0.3211  0.5454
 7531SOL     OW34225   4.434   0.507  13.013 -0.2252  0.0681  0.0945
 7531SOL    HW134226   4.486   0.462  12.946  2.8801  0.2208  2.3838
 7531SOL    HW234227   4.473   0.595  13.021 -1.8805  0.5958  2.3765
 7532SOL     OW34228   1.746   3.663   2.159  0.0783 -0.6755  0.3583
 7532SOL    HW134229   1.786   3.682   2.074  0.3851 -2.8673  0.0156
 7532SOL    HW234230   1.712   3.575   2.141  0.7076 -0.8482  0.0026
 7533SOL     OW34231   3.622   2.746   6.163 -0.4477 -0.4292 -1.0476
 7533SOL    HW134232   3.549   2.806   6.179 -0.5447 -0.7469 -0.2765
 7533SOL    HW234233   3.604   2.720   6.073  0.2902 -0.3933 -1.2069
 7534SOL     OW34234   2.571   3.757  10.537  0.3199  0.0593  0.5059
 7534SOL    HW134235   2.481   3.740  10.564  0.1310 -2.4844 -1.7433
 7534SOL    HW234236   2.562   3.848  10.509  0.4612  0.1343  0.7011
 7535SOL     OW34237   0.025   0.325  12.382 -0.0546 -0.2806 -0.2013
 7535SOL    HW134238   0.093   0.386  12.353 -0.1275 -1.6380 -3.2371
 7535SOL    HW234239   0.078   0.247  12.399  1.2424  0.6987  0.2181
 7536SOL     OW34240   1.036   1.256   2.601 -0.1319  0.6464 -0.1854
 7536SOL    HW134241   0.974   1.318   2.638 -0.8371 -0.6822  0.8503
 7536SOL    HW234242   0.968   1.191   2.582  1.3814 -1.1426  0.4976
 7537SOL     OW34243   1.287   1.385   7.705  0.5294 -0.4695  0.2751
 7537SOL    HW134244   1.293   1.460   7.764 -0.2748  0.2398 -0.5310
 7537SOL    HW234245   1.199   1.387   7.666 -0.2082  2.4299  2.1316
 7538SOL     OW34246   2.200   1.758  14.059  0.2011 -0.1014 -0.2583
 7538SOL    HW134247   2.179   1.801  13.976  0.9581  1.7102  0.4981
 7538SOL    HW234248   2.123   1.768  14.116  1.0695 -0.7936  1.0387
 7539SOL     OW34249   1.968   4.295   8.051 -0.3684  0.4654 -0.4575
 7539SOL    HW134250   1.909   4.371   8.052 -1.0312 -0.0513 -0.2035
 7539SOL    HW234251   2.050   4.331   8.085 -0.2483  0.1310 -0.3935
 7540SOL     OW34252   0.296   2.115   1.678 -0.5063  0.0756 -0.3361
 7540SOL    HW134253   0.244   2.193   1.656 -0.9861 -0.8374 -2.4319
 7540SOL    HW234254   0.241   2.049   1.638 -0.9639  1.5343 -2.1026
 7541SOL     OW34255   3.826   3.651   9.014  0.4696  0.1469  0.1372
 7541SOL    HW134256   3.751   3.598   9.042 -0.1903  2.0137  1.8870
 7541SOL    HW234257   3.859   3.685   9.098 -1.8661  2.4865  0.1050
 7542SOL     OW34258   2.598   2.599   2.369 -0.0891 -0.0078 -0.6940
 7542SOL    HW134259   2.628   2.586   2.279  3.0293 -1.8695  0.6081
 7542SOL    HW234260   2.681   2.590   2.415 -0.3619  1.0385 -0.0111
 7543SOL     OW34261   1.494   0.317   5.142 -0.0301  0.1705 -0.1459
 7543SOL    HW134262   1.472   0.241   5.196  1.9080  0.8224  1.5252
 7543SOL    HW234263   1.431   0.374   5.186  3.0371  2.2706  1.4712
 7544SOL     OW34264   3.739   4.267   2.895 -0.3069 -0.3510 -0.6358
 7544SOL    HW134265   3.711   4.278   2.804  1.7307  0.6220 -1.1414
 7544SOL    HW234266   3.669   4.209   2.926 -0.1818 -0.0822  0.1638
 7545SOL     OW34267   4.345   3.874  10.142  0.2492 -0.1675  0.3270
 7545SOL    HW134268   4.314   3.796  10.096 -1.0321 -1.2243  2.9504
 7545SOL    HW234269   4.270   3.933  10.137 -0.5848 -1.3526 -1.0983
 7546SOL     OW34270   1.919   3.504   9.736 -0.0040 -0.0144 -0.0142
 7546SOL    HW134271   1.856   3.512   9.807  1.7180  0.2511  1.4750
 7546SOL    HW234272   1.997   3.477   9.784  0.3628  1.9082  0.4581
 7547SOL     OW34273   3.268   0.140   7.131  0.0657  0.4291  0.1145
 7547SOL    HW134274   3.311   0.055   7.125 -3.5548 -1.2018 -3.0268
 7547SOL    HW234275   3.175   0.117   7.141  0.2922 -0.7210 -0.4198
 7548SOL     OW34276   1.838   3.305   3.065 -0.4612 -0.0878 -0.2623
 7548SOL    HW134277   1.908   3.254   3.023  0.0156 -0.8957  1.5330
 7548SOL    HW234278   1.795   3.239   3.119 -0.5992 -1.2404 -1.7551
 7549SOL     OW34279   1.947   4.563   6.277  0.0208 -0.3121  0.4575
 7549SOL    HW134280   1.906   4.621   6.213  2.8006  1.6064  0.4002
 7549SOL    HW234281   1.887   4.572   6.350  1.0499  0.6528  1.1946
 7550SOL     OW34282   1.292   1.082   8.781  0.2023  0.2746 -0.5083
 7550SOL    HW134283   1.278   1.032   8.700  1.1291 -0.0825 -0.4410
 7550SOL    HW234284   1.198   1.100   8.790  0.0492 -1.8357  1.7976
 7551SOL     OW34285   0.461   0.633   2.736 -0.3406  0.1742  0.0966
 7551SOL    HW134286   0.379   0.640   2.687 -1.2169  0.6069  1.6025
 7551SOL    HW234287   0.491   0.724   2.730  1.9671 -0.7308 -1.8466
 7552SOL     OW34288   4.001   2.473  11.465 -0.3672  0.4117  0.5197
 7552SOL    HW134289   4.006   2.561  11.429  1.0807  0.1395  0.0349
 7552SOL    HW234290   3.916   2.438  11.438  0.1658  0.0124 -0.6737
 7553SOL     OW34291   3.052   2.601   9.623 -0.8268 -0.1153  0.2247
 7553SOL    HW134292   3.038   2.507   9.629 -0.3557 -0.1145  1.3513
 7553SOL    HW234293   2.979   2.624   9.681  0.2541  1.0969  1.0886
 7554SOL     OW34294   3.824   3.520   8.506 -0.1400  0.3012 -0.4263
 7554SOL    HW134295   3.886   3.496   8.437 -1.9498 -2.6279 -1.0453
 7554SOL    HW234296   3.806   3.605   8.466  2.6658  1.6717  1.2901
 7555SOL     OW34297   1.290   3.431   2.060 -0.3519 -0.5873  0.3278
 7555SOL    HW134298   1.291   3.526   2.071  0.1109 -0.8603  2.5155
 7555SOL    HW234299   1.215   3.424   2.002  1.1351  0.6621 -1.7688
 7556SOL     OW34300   1.661   4.417   8.669 -0.1620 -0.2111  0.1952
 7556SOL    HW134301   1.659   4.510   8.645 -4.7142 -0.1453  0.8249
 7556SOL    HW234302   1.666   4.381   8.580 -0.1566  0.0859  0.0757
 7557SOL     OW34303   3.840   3.997   5.672 -0.7571  0.2102  0.0056
 7557SOL    HW134304   3.781   4.066   5.643 -1.5978 -0.8869 -0.8824
 7557SOL    HW234305   3.804   3.993   5.761  0.1977  1.6274  0.4603
 7558SOL     OW34306   4.386   2.714  11.223  0.0668  0.3082  0.3564
 7558SOL    HW134307   4.457   2.686  11.281  1.2290  1.8672 -0.3206
 7558SOL    HW234308   4.305   2.712  11.274 -0.3053 -1.8724 -0.2918
 7559SOL     OW34309   0.067   1.379   1.507 -0.5479  0.5319  0.0396
 7559SOL    HW134310   0.061   1.364   1.601  2.7256  0.7205  0.2881
 7559SOL    HW234311   0.148   1.330   1.492 -0.4248  1.2939 -1.7846
 7560SOL     OW34312   3.704   1.189   0.018 -0.2122  0.2578  0.0163
 7560SOL    HW134313   3.729   1.229   0.102  0.0153  1.1282 -0.4588
 7560SOL    HW234314   3.611   1.205   0.005 -0.4817 -1.2274  0.0795
 7561SOL     OW34315   4.522   0.626   3.001  0.0942 -0.7449  0.4159
 7561SOL    HW134316   4.599   0.602   3.053  0.6082 -1.8749 -0.8758
 7561SOL    HW234317   4.559   0.608   2.915  1.3542 -0.3470  0.8745
 7562SOL     OW34318   2.972   4.192   5.462 -0.6040 -0.1164  0.3954
 7562SOL    HW134319   2.906   4.252   5.427  0.0786 -0.4145 -1.3871
 7562SOL    HW234320   2.956   4.203   5.556 -2.3368 -0.4846  0.1544
 7563SOL     OW34321   0.763   4.196   6.374 -0.0279  0.8366  0.0137
 7563SOL    HW134322   0.771   4.262   6.442 -1.8820  2.4085 -1.2975
 7563SOL    HW234323   0.736   4.115   6.418  1.7069  0.4879  0.4321
 7564SOL     OW34324   3.330   0.547   6.750  0.3572 -0.1236  0.1848
 7564SOL    HW134325   3.387   0.563   6.825  1.7573  3.1322 -1.5761
 7564SOL    HW234326   3.242   0.557   6.786  0.1064 -0.2452 -0.3975
 7565SOL     OW34327   4.213   0.380  17.569 -0.0479 -0.1825 -0.6358
 7565SOL    HW134328   4.206   0.471  17.541 -1.2643  0.0165  0.3012
 7565SOL    HW234329   4.255   0.384  17.655  0.6658 -0.3217 -0.9857
 7566SOL     OW34330   2.893   4.158   2.046 -0.2414 -0.1442 -0.4190
 7566SOL    HW134331   2.979   4.118   2.055 -0.3620  0.3508  3.1875
 7566SOL    HW234332   2.895   4.218   2.121  1.6543  0.3013 -0.8322
 7567SOL     OW34333   0.151   3.850   3.995  0.0451 -0.2905 -0.5158
 7567SOL    HW134334   0.202   3.844   4.076  1.3700 -2.0490 -1.4818
 7567SOL    HW234335   0.132   3.758   3.978  1.0601 -0.7494  0.7802
 7568SOL     OW34336   3.179   2.293   9.640  0.2361  0.5572 -0.6763
 7568SOL    HW134337   3.254   2.235   9.630 -0.1595  0.0542 -0.7008
 7568SOL    HW234338   3.212   2.353   9.707  1.0221  0.8628 -1.3393
 7569SOL     OW34339   0.020   2.004   8.991  0.1329  0.7164  0.0227
 7569SOL    HW134340   4.734   2.000   8.898  4.0217 -2.0001 -0.8036
 7569SOL    HW234341   0.096   2.061   8.997  0.5352  0.2186 -0.3678
 7570SOL     OW34342   3.882   0.178   3.695  0.2250  0.6332 -0.2457
 7570SOL    HW134343   3.915   0.259   3.734  1.1226 -0.2714  0.8805
 7570SOL    HW234344   3.942   0.156   3.623 -0.4885  0.0293 -0.6594
 7571SOL     OW34345   3.090   0.957   0.286 -0.2270  0.6077  0.2060
 7571SOL    HW134346   3.147   1.026   0.321  1.4068 -1.1527  0.9561
 7571SOL    HW234347   3.142   0.912   0.220  0.1155  0.2397  0.7322
 7572SOL     OW34348   0.272   2.617  16.853  0.1476 -0.5717  0.2768
 7572SOL    HW134349   0.294   2.680  16.922  0.7969  0.5298 -0.9372
 7572SOL    HW234350   0.177   2.621  16.841  0.2407  0.0290 -0.2541
 7573SOL     OW34351   0.728   0.727  13.029 -0.1512  0.0727 -0.0392
 7573SOL    HW134352   0.795   0.683  12.977 -1.3786 -0.6206 -1.0264
 7573SOL    HW234353   0.735   0.820  13.011 -0.1656  0.1342  0.2644
 7574SOL     OW34354   3.220   0.606  17.678  0.4295  0.3818 -0.6196
 7574SOL    HW134355   3.179   0.669  17.619 -1.1820  0.6527  0.7812
 7574SOL    HW234356   3.176   0.635   0.011  1.2146  1.5719 -0.6301
 7575SOL     OW34357   3.393   0.697   9.746  0.0107  0.3800 -0.1849
 7575SOL    HW134358   3.385   0.634   9.674 -2.9546 -1.6169  1.8800
 7575SOL    HW234359   3.464   0.659   9.797 -0.3439 -1.4097 -1.0117
 7576SOL     OW34360   4.463   4.016   3.659 -0.2611 -0.6048 -0.3730
 7576SOL    HW134361   4.445   4.048   3.747 -3.0158 -0.8454 -0.8263
 7576SOL    HW234362   4.382   4.016   3.607  0.3083  0.3636 -1.2597
 7577SOL     OW34363   4.536   0.985  13.111 -0.1786  0.0210  0.2479
 7577SOL    HW134364   4.556   1.063  13.059  1.1393 -1.4790 -1.4875
 7577SOL    HW234365   4.508   1.030  13.191 -1.7734  1.5553 -1.1495
 7578SOL     OW34366   2.025   4.239   5.270 -0.4975  0.3420  0.2071
 7578SOL    HW134367   2.108   4.254   5.225  0.1701 -1.0260  0.9884
 7578SOL    HW234368   2.042   4.259   5.362 -0.6238 -1.5485  0.6339
 7579SOL     OW34369   4.063   0.511   7.685 -0.6379 -0.1361  0.0097
 7579SOL    HW134370   4.145   0.506   7.734 -1.1187 -2.4998  0.5626
 7579SOL    HW234371   4.001   0.473   7.746  1.7549 -3.0901  0.6124
 7580SOL     OW34372   0.373   0.414  15.909 -0.0080  0.5862 -0.0125
 7580SOL    HW134373   0.288   0.376  15.883 -0.1083  1.9136 -1.5503
 7580SOL    HW234374   0.421   0.394  15.829  0.5792  0.8436  0.2809
 7581SOL     OW34375   1.982   4.636  15.317 -0.5195 -0.2388 -0.5079
 7581SOL    HW134376   2.001   4.564  15.377  0.2605  0.4760  0.1060
 7581SOL    HW234377   2.069   4.672  15.299  0.1446 -1.9794 -0.7524
 7582SOL     OW34378   0.699   2.365   2.082 -0.2299  0.5096  0.2027
 7582SOL    HW134379   0.733   2.285   2.043 -1.6168  1.3219 -2.6743
 7582SOL    HW234380   0.749   2.372   2.163 -1.2563 -0.6413  0.9199
 7583SOL     OW34381   0.474   1.197   7.200 -0.2963  0.1301 -0.6792
 7583SOL    HW134382   0.470   1.199   7.104  1.4059 -2.5048 -0.8034
 7583SOL    HW234383   0.437   1.283   7.220  0.0246  0.0370  0.2606
 7584SOL     OW34384   3.557   4.295   7.685 -0.1484 -1.1977 -0.2553
 7584SOL    HW134385   3.598   4.332   7.607 -0.7804  1.0767  0.4765
 7584SOL    HW234386   3.632   4.243   7.711 -0.0052 -1.5761 -1.4251
 7585SOL     OW34387   0.639   0.041   5.204 -0.4381 -0.5302  0.6000
 7585SOL    HW134388   0.700   0.101   5.161  0.0199 -0.4463  1.3609
 7585SOL    HW234389   0.651   4.706   5.143 -0.5374 -0.4948  0.5386
 7586SOL     OW34390   3.086   0.174   9.606 -0.7495  0.4475  0.1815
 7586SOL    HW134391   3.102   0.227   9.684  2.3335  0.6868 -0.6124
 7586SOL    HW234392   3.044   0.091   9.628 -1.0224  0.3163 -0.8379
 7587SOL     OW34393   1.165   2.512   8.995 -0.1389 -0.0242 -0.3890
 7587SOL    HW134394   1.207   2.483   9.075 -3.9438 -0.0652  1.6292
 7587SOL    HW234395   1.099   2.564   9.042 -0.2093 -1.4294  1.0522
 7588SOL     OW34396   1.378   0.051   7.570 -0.2812 -0.2002  0.6973
 7588SOL    HW134397   1.294   0.046   7.617  0.2148 -1.3451  1.4615
 7588SOL    HW234398   1.408   4.699   7.554  2.9238  0.9463  0.4748
 7589SOL     OW34399   2.226   0.519   4.182  0.3415  0.1984  0.0293
 7589SOL    HW134400   2.150   0.507   4.125  0.4821 -0.2189 -0.0710
 7589SOL    HW234401   2.219   0.447   4.244 -0.0470 -0.5225 -0.8550
 7590SOL     OW34402   2.461   2.151   7.895  0.1828 -0.1950  0.2527
 7590SOL    HW134403   2.407   2.095   7.951  0.8350 -0.8479  0.2236
 7590SOL    HW234404   2.547   2.129   7.931  0.1276 -0.6465  0.0993
 7591SOL     OW34405   1.646   0.199   7.018  0.8765 -0.3324 -0.0337
 7591SOL    HW134406   1.623   0.232   7.105  2.3741  0.4869  0.0444
 7591SOL    HW234407   1.567   0.226   6.972  0.6893 -1.0186 -0.1253
 7592SOL     OW34408   2.308   4.347   2.610 -0.3632 -0.0672 -0.3908
 7592SOL    HW134409   2.403   4.350   2.613 -0.5055  1.3073  2.6169
 7592SOL    HW234410   2.297   4.256   2.638  0.1813  0.2204  0.7398
 7593SOL     OW34411   4.283   0.478   7.848 -0.2577 -0.5920 -0.4409
 7593SOL    HW134412   4.290   0.502   7.940  0.4969 -0.7194 -0.4644
 7593SOL    HW234413   4.356   0.525   7.806 -0.3922  2.1497  2.3893
 7594SOL     OW34414   2.052   3.274   4.633 -0.3666  0.3925 -0.1133
 7594SOL    HW134415   2.102   3.334   4.688 -0.0518  0.4981 -0.5154
 7594SOL    HW234416   2.112   3.232   4.572  1.0837  0.1933  1.4483
 7595SOL     OW34417   2.108   2.705   3.795  0.3537 -0.8781 -0.5086
 7595SOL    HW134418   2.032   2.759   3.812 -0.0569 -0.8578 -2.3329
 7595SOL    HW234419   2.166   2.764   3.746  1.9699 -0.1190  2.3451
 7596SOL     OW34420   3.216   0.788  13.694 -0.0521  0.2142  0.2689
 7596SOL    HW134421   3.136   0.773  13.645 -1.2860  0.2021  2.2979
 7596SOL    HW234422   3.286   0.760  13.635 -1.8054  1.1969 -2.3055
 7597SOL     OW34423   4.477   2.940   8.188 -0.2621  0.7988  0.1939
 7597SOL    HW134424   4.500   2.967   8.277 -0.7534  1.9613 -0.0215
 7597SOL    HW234425   4.447   3.023   8.150  0.8157  1.3681  0.5966
 7598SOL     OW34426   0.439   4.009   5.615  0.8133 -0.0308  0.3877
 7598SOL    HW134427   0.414   4.051   5.697  1.4877 -1.5989  1.3842
 7598SOL    HW234428   0.501   4.082   5.603  1.5415 -0.7129  0.0193
 7599SOL     OW34429   3.385   4.432  17.444  0.0737  0.5115  0.2487
 7599SOL    HW134430   3.354   4.359  17.390  1.9916  1.8114 -2.5835
 7599SOL    HW234431   3.347   4.411  17.529  0.4108  0.5559  0.4094
 7600SOL     OW34432   1.790   0.410   9.286 -0.2727 -0.4474 -0.3034
 7600SOL    HW134433   1.860   0.446   9.340  0.8596 -0.8735 -1.5133
 7600SOL    HW234434   1.723   0.400   9.354 -0.5378 -0.3831 -0.5573
 7601SOL     OW34435   0.858   3.933   2.889  0.2474 -0.0011 -0.5087
 7601SOL    HW134436   0.771   3.895   2.893 -0.1523  1.0234  0.6346
 7601SOL    HW234437   0.906   3.853   2.870 -0.9173 -1.1199  1.2155
 7602SOL     OW34438   2.287   0.762  12.685  0.2884 -0.7753  0.0047
 7602SOL    HW134439   2.368   0.786  12.730 -1.4969  1.6556  1.9534
 7602SOL    HW234440   2.268   0.846  12.643 -2.6671 -0.3133  2.2096
 7603SOL     OW34441   1.868   2.509   8.460  0.4844  0.0785 -0.1208
 7603SOL    HW134442   1.865   2.421   8.422  0.5876  0.1684 -0.3421
 7603SOL    HW234443   1.963   2.519   8.464  0.3791  0.5285  1.0354
 7604SOL     OW34444   2.711   3.518   4.600  0.3548 -0.0584  0.2176
 7604SOL    HW134445   2.710   3.534   4.505  0.7625 -1.1794  0.0271
 7604SOL    HW234446   2.800   3.485   4.608  0.4692  0.2292  0.1478
 7605SOL     OW34447   3.828   3.744   2.025 -0.1011 -0.0426  0.0206
 7605SOL    HW134448   3.750   3.708   1.984 -1.3949  0.5869  1.9108
 7605SOL    HW234449   3.890   3.737   1.953 -1.5309 -0.9125 -1.1085
 7606SOL     OW34450   2.574   2.140   1.809 -0.0650 -0.1602  0.0141
 7606SOL    HW134451   2.630   2.068   1.839 -0.3223 -0.5253 -0.3820
 7606SOL    HW234452   2.636   2.213   1.815 -0.7149  0.5779 -2.2118
 7607SOL     OW34453   3.898   4.573   2.737 -0.4767  0.1130  0.2726
 7607SOL    HW134454   3.956   4.596   2.664  0.5759 -0.6518  0.8585
 7607SOL    HW234455   3.851   4.502   2.693 -0.7713  0.0238  0.7350
 7608SOL     OW34456   1.279   1.761   5.077  0.7350  0.2822 -0.0949
 7608SOL    HW134457   1.288   1.747   4.983  0.1249  0.3235 -0.1604
 7608SOL    HW234458   1.230   1.680   5.095 -0.4386  0.9218 -0.3827
 7609SOL     OW34459   4.151   2.991   6.415  0.4111 -0.6711 -0.6881
 7609SOL    HW134460   4.090   2.993   6.341 -0.0472 -1.3767 -0.3301
 7609SOL    HW234461   4.193   3.077   6.416 -1.4310  0.2834 -4.1190
 7610SOL     OW34462   3.505   1.302   0.552 -0.2877  0.1508  0.5712
 7610SOL    HW134463   3.479   1.322   0.642  2.5610 -1.5292  1.7719
 7610SOL    HW234464   3.600   1.295   0.563  0.0267  0.3062 -2.0262
 7611SOL     OW34465   4.364   3.575  17.425  0.2334 -0.4099  0.8982
 7611SOL    HW134466   4.408   3.617  17.352 -1.0936 -0.7011 -0.0813
 7611SOL    HW234467   4.308   3.645  17.458  0.5937 -0.5018  1.7084
 7612SOL     OW34468   3.783   2.215  14.987  0.6148 -0.3093  0.0949
 7612SOL    HW134469   3.810   2.304  14.965 -1.9227  0.3006 -0.5417
 7612SOL    HW234470   3.795   2.166  14.906  1.3117 -0.0237  0.0267
 7613SOL     OW34471   0.788   0.985   3.815  0.4692 -0.1670  0.1449
 7613SOL    HW134472   0.796   0.889   3.814 -2.7739 -0.4158 -0.8169
 7613SOL    HW234473   0.727   1.005   3.885 -0.0362 -1.3144  0.0369
 7614SOL     OW34474   0.547   1.474   6.627  0.0718  0.7059 -0.2576
 7614SOL    HW134475   0.461   1.486   6.588  0.2578  0.7085 -0.6644
 7614SOL    HW234476   0.565   1.567   6.644  0.2131  1.0421 -2.2495
 7615SOL     OW34477   2.725   0.693   2.037 -0.4991 -0.1741 -0.0063
 7615SOL    HW134478   2.771   0.769   2.001 -1.1650  0.3303  0.1821
 7615SOL    HW234479   2.736   0.628   1.968 -0.0297  2.0812 -2.0430
 7616SOL     OW34480   4.099   0.788   8.503 -0.0615 -0.5958 -0.4386
 7616SOL    HW134481   4.027   0.728   8.485 -0.7483 -0.8541  3.0739
 7616SOL    HW234482   4.076   0.871   8.463  2.5148 -0.8070 -2.3306
 7617SOL     OW34483   3.160   0.113   7.451 -0.5883 -0.1013 -0.4582
 7617SOL    HW134484   3.212   0.180   7.407 -0.5810 -1.5779 -2.7136
 7617SOL    HW234485   3.224   0.042   7.458 -1.3037 -0.4168  2.7682
 7618SOL     OW34486   0.242   1.760   9.866  0.2305  0.4327 -0.0606
 7618SOL    HW134487   0.264   1.673   9.900  0.4898  0.2240 -0.7615
 7618SOL    HW234488   0.266   1.743   9.775 -0.0028 -0.8114  0.1076
 7619SOL     OW34489   0.715   4.018  16.480  1.0226 -0.2120 -0.3380
 7619SOL    HW134490   0.682   3.931  16.499  2.3434 -0.4370  0.9785
 7619SOL    HW234491   0.782   4.031  16.547  1.9144 -1.3940 -1.0073
 7620SOL     OW34492   1.247   3.464   8.845 -0.3195  0.1233  0.6174
 7620SOL    HW134493   1.280   3.475   8.935  1.4569  0.5590 -0.0935
 7620SOL    HW234494   1.178   3.402   8.868 -0.5624 -0.5285 -1.9145
 7621SOL     OW34495   0.703   1.938   3.221  0.9986 -0.3423  0.6103
 7621SOL    HW134496   0.714   1.981   3.136  2.2410  0.2041  1.0532
 7621SOL    HW234497   0.629   1.878   3.207  0.0119  0.9733  0.1924
 7622SOL     OW34498   4.122   3.983   3.812 -0.0278 -0.1266 -0.2052
 7622SOL    HW134499   4.099   4.066   3.770  1.6535 -0.5703 -2.0118
 7622SOL    HW234500   4.216   3.991   3.832  0.3739  1.8517 -2.8413
 7623SOL     OW34501   1.362   2.337  14.911  0.1153  0.8609  0.3002
 7623SOL    HW134502   1.383   2.281  14.836 -0.5836  0.9964 -0.0015
 7623SOL    HW234503   1.270   2.342  14.885 -0.4860 -2.9614  1.7663
 7624SOL     OW34504   0.869   2.096   9.619 -0.1815 -0.2298 -0.0256
 7624SOL    HW134505   0.819   2.172   9.589  1.5111  0.6962 -0.4387
 7624SOL    HW234506   0.873   2.043   9.540 -1.6364 -0.1635 -0.1499
 7625SOL     OW34507   1.275   3.513   2.733  0.2052  0.0137  0.3659
 7625SOL    HW134508   1.316   3.590   2.694  0.3793 -0.4153 -0.3135
 7625SOL    HW234509   1.330   3.437   2.714  0.9524  1.0668 -1.6211
 7626SOL     OW34510   2.100   4.216   9.178  0.8333 -0.5053  0.7680
 7626SOL    HW134511   2.067   4.145   9.232  0.8271  0.8490  2.5553
 7626SOL    HW234512   2.024   4.275   9.182  0.6601 -0.5540 -2.2447
 7627SOL     OW34513   0.478   3.028  14.467  0.4371  0.0549  0.1825
 7627SOL    HW134514   0.444   3.111  14.435  0.1442 -0.1188  0.0431
 7627SOL    HW234515   0.573   3.037  14.462  0.3210  1.1918  0.0482
 7628SOL     OW34516   4.016   0.337   5.372 -0.2745  0.5692 -0.1757
 7628SOL    HW134517   4.103   0.301   5.394  0.1139  1.0046 -0.9885
 7628SOL    HW234518   3.962   0.278   5.425 -0.9021  1.3824  0.0843
 7629SOL     OW34519   4.547   1.624   1.770  0.3616 -0.3198 -0.3600
 7629SOL    HW134520   4.530   1.592   1.859  1.6959 -0.9690 -0.3323
 7629SOL    HW234521   4.490   1.700   1.762  1.1396  0.0722 -2.2456
 7630SOL     OW34522   3.325   3.814   4.906 -0.2263  0.1079 -0.1716
 7630SOL    HW134523   3.281   3.778   4.983 -0.6785 -1.2981 -1.0864
 7630SOL    HW234524   3.363   3.737   4.865  1.7836  1.2830 -0.5107
 7631SOL     OW34525   4.328   1.185   8.476  0.3139  0.5686  0.3230
 7631SOL    HW134526   4.271   1.254   8.512  0.2332  0.2243  0.8647
 7631SOL    HW234527   4.303   1.118   8.540 -0.8770 -0.6056 -1.3753
 7632SOL     OW34528   2.160   4.015   3.862 -0.2944  0.1908 -0.0540
 7632SOL    HW134529   2.084   4.010   3.804 -2.7259 -2.2982  3.4007
 7632SOL    HW234530   2.215   3.953   3.813  1.8402  0.6337  1.7757
 7633SOL     OW34531   0.820   1.493   2.443  0.2014 -0.0882  0.3787
 7633SOL    HW134532   0.740   1.440   2.435 -0.9487  1.5798  0.8120
 7633SOL    HW234533   0.835   1.502   2.537  3.3641  1.8459 -0.3206
 7634SOL     OW34534   4.357   2.487   4.478  0.6669 -0.0524 -0.2427
 7634SOL    HW134535   4.293   2.488   4.407  1.5280 -1.9538 -1.0466
 7634SOL    HW234536   4.438   2.507   4.430 -0.9144  0.3393 -2.7628
 7635SOL     OW34537   0.045   3.620   3.885 -0.4804 -0.3023  0.1843
 7635SOL    HW134538   0.126   3.605   3.836 -0.7940  4.5141 -1.7833
 7635SOL    HW234539   0.020   3.530   3.906  2.1252 -0.9560  0.5376
 7636SOL     OW34540   0.371   0.264   6.018 -0.0959 -0.3423  0.1007
 7636SOL    HW134541   0.463   0.272   6.043 -1.7142  4.2172  4.7725
 7636SOL    HW234542   0.339   0.213   6.092 -0.0739  0.7006  0.8392
 7637SOL     OW34543   1.774   1.775  15.947 -0.5056  0.2592 -0.2836
 7637SOL    HW134544   1.833   1.826  15.892 -2.2255  1.4408 -1.0568
 7637SOL    HW234545   1.829   1.722  16.003  1.2025  2.3592  0.0155
 7638SOL     OW34546   4.651   4.256   1.773  0.0267 -0.2608  0.1394
 7638SOL    HW134547   4.602   4.257   1.856 -1.4147 -0.3863 -0.7090
 7638SOL    HW234548   4.626   4.170   1.739 -0.7337  0.8134 -2.0331
 7639SOL     OW34549   2.564   4.627  11.286  0.4469 -0.5402  0.2824
 7639SOL    HW134550   2.500   4.681  11.332  0.1749  1.8073 -2.8019
 7639SOL    HW234551   2.539   4.546  11.329 -2.3471  0.1343 -0.0645
 7640SOL     OW34552   3.565   2.753   5.871 -0.4182  0.0292 -0.0065
 7640SOL    HW134553   3.535   2.835   5.833  0.7835  0.9783  1.1000
 7640SOL    HW234554   3.652   2.741   5.834 -0.5672 -0.0583 -0.3289
 7641SOL     OW34555   2.482   3.067   4.918 -0.0664  0.0114 -0.0894
 7641SOL    HW134556   2.420   3.127   4.960 -1.8437 -2.2936  0.6195
 7641SOL    HW234557   2.432   3.033   4.844  1.6357  0.3013 -1.3495
 7642SOL     OW34558   0.336   1.837  14.321 -0.6286  0.8335 -0.5024
 7642SOL    HW134559   0.330   1.760  14.378 -0.3160  0.0454 -1.5389
 7642SOL    HW234560   0.281   1.894  14.375 -0.0380  0.4483  0.4974
 7643SOL     OW34561   4.471   0.081   1.980  0.2880  0.3148  0.0960
 7643SOL    HW134562   4.433   0.162   1.946  2.5489  0.4270 -2.2106
 7643SOL    HW234563   4.521   0.098   2.059 -0.7685  2.8287  0.2206
 7644SOL     OW34564   4.187   3.796  17.554  0.2742  0.4242  0.0232
 7644SOL    HW134565   4.151   3.840  17.631  1.9508  0.7607  0.6228
 7644SOL    HW234566   4.103   3.766  17.519  0.1975 -1.4807  1.8342
 7645SOL     OW34567   2.777   3.427  15.352  0.2773  0.2368  0.4667
 7645SOL    HW134568   2.796   3.519  15.334 -1.3829  0.7344  1.2325
 7645SOL    HW234569   2.741   3.402  15.267  1.8051  1.9709 -0.6721
 7646SOL     OW34570   0.891   2.174  13.220  0.7364  0.3683 -0.8686
 7646SOL    HW134571   0.865   2.234  13.290 -0.8559 -1.5075  0.1316
 7646SOL    HW234572   0.892   2.232  13.144 -1.0847 -0.4666 -1.5144
 7647SOL     OW34573   2.377   3.935   1.936 -0.2256  0.2263  0.0414
 7647SOL    HW134574   2.469   3.962   1.936  0.2567 -1.4067  3.0247
 7647SOL    HW234575   2.353   3.964   1.848 -3.7118 -0.5031  0.7193
 7648SOL     OW34576   3.309   1.215   0.919 -0.4121  0.0795 -0.4186
 7648SOL    HW134577   3.253   1.145   0.954 -0.4317  0.7108  0.8164
 7648SOL    HW234578   3.290   1.281   0.985 -2.2495  0.4042 -1.2580
 7649SOL     OW34579   1.743   0.600   8.690  0.4353  0.0509  0.3255
 7649SOL    HW134580   1.687   0.670   8.657 -0.2206 -0.9935 -0.8039
 7649SOL    HW234581   1.682   0.528   8.707 -0.1185  0.5005  0.2240
 7650SOL     OW34582   0.594   2.242  17.631 -0.1420  0.4489  0.2179
 7650SOL    HW134583   0.552   2.248  17.717 -2.0189 -1.2538 -0.5700
 7650SOL    HW234584   0.538   2.174  17.593 -0.3379  1.2848 -0.9895
 7651SOL     OW34585   1.891   4.251   6.503 -0.0904 -0.1795 -0.0019
 7651SOL    HW134586   1.827   4.307   6.547 -0.2960 -0.3662 -0.0641
 7651SOL    HW234587   1.864   4.165   6.533 -0.7317 -0.6925 -2.0111
 7652SOL     OW34588   2.199   1.693   6.313  0.4652 -0.1030  0.0085
 7652SOL    HW134589   2.188   1.718   6.221  3.1388 -2.2596 -0.8959
 7652SOL    HW234590   2.155   1.608   6.317 -1.7761  0.9795 -2.2813
 7653SOL     OW34591   1.779   3.597   3.665 -0.1787 -0.5454  0.2118
 7653SOL    HW134592   1.771   3.582   3.760 -2.1388  0.8285  0.2668
 7653SOL    HW234593   1.854   3.656   3.663 -0.8808  0.2839 -1.5258
 7654SOL     OW34594   0.475   4.427  16.112  0.4824 -0.1085 -0.1102
 7654SOL    HW134595   0.442   4.351  16.064  3.0507 -0.8051 -0.7463
 7654SOL    HW234596   0.421   4.431  16.192  1.6730 -0.7058  0.7199
 7655SOL     OW34597   1.748   0.259   5.103 -0.2039  0.4149 -0.2532
 7655SOL    HW134598   1.761   0.169   5.131 -0.3333 -0.3785 -2.7143
 7655SOL    HW234599   1.654   0.271   5.118  0.6664  2.1892  3.7947
 7656SOL     OW34600   0.666   1.969   3.528  0.0226  0.3992  0.6545
 7656SOL    HW134601   0.737   1.938   3.584  1.2686 -0.1840 -1.2224
 7656SOL    HW234602   0.713   1.970   3.445  1.5603  1.1637  1.5250
 7657SOL     OW34603   3.058   1.146   3.652  0.4262 -0.0226  0.2158
 7657SOL    HW134604   3.064   1.225   3.598  3.6211  0.3245  1.0331
 7657SOL    HW234605   3.099   1.179   3.731  1.2975 -1.5767  0.4247
 7658SOL     OW34606   3.889   2.618   5.296 -0.0862  0.6490  0.0846
 7658SOL    HW134607   3.907   2.526   5.278 -2.0863  0.3916 -0.6368
 7658SOL    HW234608   3.940   2.659   5.226 -0.9319 -0.0215 -0.9153
 7659SOL     OW34609   1.165   3.749   6.124  0.1913 -0.1537  0.1119
 7659SOL    HW134610   1.089   3.693   6.108 -0.1970 -0.0830  1.6755
 7659SOL    HW234611   1.137   3.824   6.072 -0.0057  0.3688  0.9758
 7660SOL     OW34612   3.699   2.561   7.656  0.1017  0.0648 -0.2457
 7660SOL    HW134613   3.700   2.643   7.607  0.9102 -0.2031 -0.6883
 7660SOL    HW234614   3.626   2.522   7.608 -0.3958  0.2329  0.3779
 7661SOL     OW34615   1.617   1.595   3.502  0.1586 -0.1662  0.3112
 7661SOL    HW134616   1.635   1.642   3.421  2.5554 -2.4934 -0.4825
 7661SOL    HW234617   1.690   1.630   3.553 -1.2770  0.5618  1.8671
 7662SOL     OW34618   4.676   1.591   8.049  0.1184  0.2079 -0.7794
 7662SOL    HW134619   0.008   1.526   8.054  0.2511  0.5650  1.9847
 7662SOL    HW234620   4.673   1.618   7.957  2.6036  0.8352 -0.6741
 7663SOL     OW34621   3.049   1.726   3.147 -0.2227 -0.2495 -0.3618
 7663SOL    HW134622   2.983   1.795   3.150 -0.6104 -0.7182  2.4144
 7663SOL    HW234623   3.108   1.743   3.074 -1.1682 -0.7084 -1.2222
 7664SOL     OW34624   0.332   2.843  16.996  0.3651 -0.2692 -0.1305
 7664SOL    HW134625   0.333   2.888  16.911  1.2439 -1.5186 -0.7813
 7664SOL    HW234626   0.311   2.911  17.060  0.8233  2.2351 -2.6260
 7665SOL     OW34627   0.925   2.450   7.006 -0.3747  0.6350 -0.3862
 7665SOL    HW134628   0.947   2.539   7.033  1.4884 -0.4236  1.6411
 7665SOL    HW234629   1.010   2.414   6.979 -1.4927 -1.9067 -0.5430
 7666SOL     OW34630   1.834   0.794  10.682  0.3975 -0.3956  0.5198
 7666SOL    HW134631   1.807   0.703  10.695 -0.5092  0.3458  3.7844
 7666SOL    HW234632   1.747   0.834  10.684  0.6031 -0.1072  2.9314
 7667SOL     OW34633   0.998   0.259   7.686  0.8627 -0.3158  0.2459
 7667SOL    HW134634   0.980   0.319   7.758 -0.5731 -0.6735  0.1815
 7667SOL    HW234635   0.915   0.211   7.688  0.9579 -0.4506  1.1709
 7668SOL     OW34636   0.252   0.433  12.953  0.4869 -0.4553  0.0451
 7668SOL    HW134637   0.172   0.425  12.902  0.1678 -0.4117  0.5472
 7668SOL    HW234638   0.322   0.400  12.897  0.5968  1.2615 -0.8392
 7669SOL     OW34639   0.478   0.799   2.368 -0.4042 -0.5701 -0.1722
 7669SOL    HW134640   0.396   0.837   2.399 -1.6523 -1.6543 -2.1385
 7669SOL    HW234641   0.531   0.795   2.448  0.2251  0.1764 -0.5603
 7670SOL     OW34642   2.862   2.002   8.947  0.0394  0.0369  0.2752
 7670SOL    HW134643   2.866   2.095   8.926 -0.2127  0.2355  1.0995
 7670SOL    HW234644   2.800   1.964   8.885 -1.1017  3.6035 -0.7371
 7671SOL     OW34645   3.326   0.005   3.845  0.1106 -0.4347  0.0065
 7671SOL    HW134646   3.323   4.688   3.766 -0.5727 -0.3370 -0.0285
 7671SOL    HW234647   3.236   4.736   3.877 -0.5639 -2.9609 -2.3397
 7672SOL     OW34648   0.357   0.184   9.009 -0.3366  0.6537  0.2106
 7672SOL    HW134649   0.277   0.178   9.062 -0.3027  1.3991  0.3399
 7672SOL    HW234650   0.312   0.193   8.925  1.1905 -0.7585 -0.7449
 7673SOL     OW34651   4.508   3.907   1.203  0.9078  0.0717  0.2768
 7673SOL    HW134652   4.475   3.964   1.273  2.5901  0.6105  0.6129
 7673SOL    HW234653   4.495   3.818   1.237 -0.4051  0.3613  0.5513
 7674SOL     OW34654   3.275   0.824   5.614 -0.4909 -0.0460 -0.3458
 7674SOL    HW134655   3.217   0.759   5.653  0.3895 -0.9221 -0.4857
 7674SOL    HW234656   3.244   0.894   5.672 -0.1970  0.1713 -0.4435
 7675SOL     OW34657   0.738   1.498   9.062 -0.2452 -0.2053  0.3739
 7675SOL    HW134658   0.798   1.431   9.096 -0.4302 -0.2149  0.6802
 7675SOL    HW234659   0.662   1.479   9.117  1.3979 -2.2001  1.9586
 7676SOL     OW34660   4.152   2.165   1.909  0.9242 -0.6440  0.3607
 7676SOL    HW134661   4.146   2.072   1.888  0.8976 -0.9173  1.5702
 7676SOL    HW234662   4.232   2.195   1.865  0.6690  2.0720  1.7246
 7677SOL     OW34663   3.233   0.057   5.865 -0.1695  0.2884  0.0049
 7677SOL    HW134664   3.152   0.091   5.826  0.2410  0.3219 -0.8144
 7677SOL    HW234665   3.276   0.133   5.903 -2.5895  1.2025  0.9177
 7678SOL     OW34666   0.349   0.907   5.930 -0.2570  0.1489  0.0576
 7678SOL    HW134667   0.383   0.937   5.845 -0.7523 -1.7270 -0.8084
 7678SOL    HW234668   0.259   0.940   5.923  0.3134  1.0835 -2.8671
 7679SOL     OW34669   2.982   1.481   3.883 -0.4775  1.0952  0.1119
 7679SOL    HW134670   2.963   1.395   3.921  1.9028  0.9083  0.9218
 7679SOL    HW234671   3.076   1.486   3.900 -0.1355  0.0256 -1.4477
 7680SOL     OW34672   2.331   2.360   8.456  0.3821  0.1600 -0.1901
 7680SOL    HW134673   2.311   2.407   8.375  0.3168 -2.0622 -1.4501
 7680SOL    HW234674   2.413   2.404   8.478  1.1418  0.0449 -2.8465
 7681SOL     OW34675   1.049   4.057   5.516  0.2918  0.5838  0.1048
 7681SOL    HW134676   0.960   4.056   5.548  0.7161  2.8931  1.2864
 7681SOL    HW234677   1.030   4.078   5.424 -0.4251  2.4483  0.6990
 7682SOL     OW34678   1.306   1.566  12.337 -0.3072 -0.7272 -0.2922
 7682SOL    HW134679   1.364   1.503  12.378  2.0443  2.0102  0.5968
 7682SOL    HW234680   1.238   1.570  12.405 -0.6213 -0.3639 -0.6256
 7683SOL     OW34681   3.810   4.195  10.507 -0.3252 -0.4855  0.2095
 7683SOL    HW134682   3.861   4.211  10.587 -0.5386 -2.2975  0.7142
 7683SOL    HW234683   3.722   4.178  10.539  0.1174 -0.4896  1.4367
 7684SOL     OW34684   4.498   3.972   4.767  0.0500 -0.1856  0.6847
 7684SOL    HW134685   4.582   4.017   4.765 -1.1147  1.9705  0.6532
 7684SOL    HW234686   4.526   3.881   4.783 -1.3460 -0.3787  2.0993
 7685SOL     OW34687   3.155   3.307  11.968 -0.2850 -0.5579  0.3708
 7685SOL    HW134688   3.108   3.388  11.988 -2.5498 -2.4700  2.8605
 7685SOL    HW234689   3.234   3.334  12.014  0.2353 -1.1835 -0.1529
 7686SOL     OW34690   0.190   4.209   1.786 -0.0110  0.1381  0.2060
 7686SOL    HW134691   0.217   4.285   1.734 -0.4978  0.1057 -0.1028
 7686SOL    HW234692   0.098   4.228   1.806 -0.6763 -0.5564 -2.1535
 7687SOL     OW34693   2.843   0.055  15.871  0.0535 -0.2246 -0.2800
 7687SOL    HW134694   2.843   0.091  15.783 -1.7644 -1.6726 -0.8678
 7687SOL    HW234695   2.888   4.708  15.864  1.0714  0.2708  0.2919
 7688SOL     OW34696   4.232   0.415   6.106 -0.2790 -0.0335 -0.0375
 7688SOL    HW134697   4.308   0.440   6.053  0.3788 -0.0320  0.9095
 7688SOL    HW234698   4.162   0.401   6.042  1.5355 -0.6123 -1.8692
 7689SOL     OW34699   0.861   0.717  12.088  0.9317  0.4675 -0.3213
 7689SOL    HW134700   0.865   0.753  11.999 -0.8457 -0.8258 -0.9313
 7689SOL    HW234701   0.771   0.744  12.108 -0.1056 -3.8067  0.6740
 7690SOL     OW34702   1.997   2.206   2.337  0.9462  0.3552  0.4155
 7690SOL    HW134703   1.990   2.131   2.396  0.2565  0.3019  0.2649
 7690SOL    HW234704   2.005   2.148   2.262  0.1056 -1.9683  2.1237
 7691SOL     OW34705   0.298   1.608   8.074 -0.0213 -0.6373  0.5742
 7691SOL    HW134706   0.224   1.547   8.067  0.3248 -0.8690 -1.1775
 7691SOL    HW234707   0.288   1.651   7.989  0.8505 -0.0075  0.7841
 7692SOL     OW34708   4.589   1.696  13.380  0.0590 -0.4769  0.3945
 7692SOL    HW134709   4.506   1.708  13.427  0.6676  1.5424  0.9422
 7692SOL    HW234710   4.553   1.640  13.312  1.1907  1.5794 -1.8970
 7693SOL     OW34711   1.147   2.281  14.407  0.3099  0.0063 -0.7382
 7693SOL    HW134712   1.096   2.289  14.488 -0.9093  0.8073 -1.5905
 7693SOL    HW234713   1.098   2.208  14.370 -0.1218  0.0629 -0.2849
 7694SOL     OW34714   3.970   3.943   3.360 -0.0281 -0.7343 -0.1032
 7694SOL    HW134715   3.924   4.018   3.398 -1.1115 -0.5932 -1.7275
 7694SOL    HW234716   3.892   3.901   3.325 -0.3573  0.1955 -0.5033
 7695SOL     OW34717   4.104   1.492   5.637  0.6130 -0.3995  0.4832
 7695SOL    HW134718   4.138   1.425   5.696 -0.1989 -2.1412 -1.0513
 7695SOL    HW234719   4.116   1.575   5.684 -0.3183 -0.9126  1.6427
 7696SOL     OW34720   1.077   0.325  17.587 -0.1030  0.6488 -0.3759
 7696SOL    HW134721   1.059   0.315  17.680 -0.0802  0.7872 -0.3574
 7696SOL    HW234722   1.039   0.243  17.555  0.1792  0.2495  0.3102
 7697SOL     OW34723   3.419   3.371   4.647 -0.5393  0.2985 -0.0209
 7697SOL    HW134724   3.505   3.330   4.638  0.0548  1.7598 -0.9254
 7697SOL    HW234725   3.373   3.296   4.609  2.1278 -1.0184 -0.6471
 7698SOL     OW34726   4.440   4.123   7.415  0.4271  0.0775 -0.4289
 7698SOL    HW134727   4.395   4.177   7.350 -0.8713 -1.6251 -0.9285
 7698SOL    HW234728   4.369   4.104   7.476  0.9444  0.7715  0.3811
 7699SOL     OW34729   2.278   1.990  11.205  0.2926  0.3763  0.5922
 7699SOL    HW134730   2.236   2.072  11.232 -0.5843  0.0969  0.0676
 7699SOL    HW234731   2.368   2.001  11.236  1.4210 -0.5084 -2.3282
 7700SOL     OW34732   4.289   0.491   9.981 -0.6042  0.1106  1.1543
 7700SOL    HW134733   4.220   0.483  10.048  1.6599 -1.0046  3.3545
 7700SOL    HW234734   4.357   0.462  10.041  0.3953  0.8351  0.3695
 7701SOL     OW34735   2.367   4.364   4.814  0.1295  0.8100 -0.1970
 7701SOL    HW134736   2.403   4.438   4.765  0.3028 -0.1114 -1.4436
 7701SOL    HW234737   2.295   4.410   4.858  1.2594  1.5495  0.8650
 7702SOL     OW34738   4.342   1.952   5.574 -0.2760  0.3915 -0.1339
 7702SOL    HW134739   4.306   1.864   5.561  2.6413 -0.6173 -1.2806
 7702SOL    HW234740   4.290   1.993   5.505  0.0948  0.2748 -0.4844
 7703SOL     OW34741   3.055   3.732   4.573  0.1526  0.0620  0.9419
 7703SOL    HW134742   3.043   3.737   4.667  2.3299 -2.0911  1.3336
 7703SOL    HW234743   3.115   3.657   4.568  0.7341  0.6808 -1.6932
 7704SOL     OW34744   4.210   0.250   9.841  0.0815  0.4598 -0.1312
 7704SOL    HW134745   4.195   0.252   9.746 -0.4887  0.7789 -0.0302
 7704SOL    HW234746   4.244   0.335   9.870 -0.0056  0.4418  0.0231
 7705SOL     OW34747   3.088   4.209  11.242 -0.2908 -0.3672 -0.1660
 7705SOL    HW134748   3.183   4.195  11.248 -0.2207  0.0682 -0.2408
 7705SOL    HW234749   3.064   4.139  11.303 -2.9835  0.0518 -0.7573
 7706SOL     OW34750   0.908   2.076   9.190  0.0489 -0.0941 -0.2043
 7706SOL    HW134751   0.916   2.136   9.116  1.3991 -2.1264 -1.6955
 7706SOL    HW234752   0.833   2.117   9.236 -0.2406 -1.3967  0.4809
 7707SOL     OW34753   2.414   1.243   0.482  0.1657  0.5035  0.6197
 7707SOL    HW134754   2.480   1.264   0.416 -0.0481  0.2553  0.3271
 7707SOL    HW234755   2.420   1.318   0.542  1.4488  0.0984  0.9910
 7708SOL     OW34756   2.128   4.202   1.525  0.0355 -0.9043 -0.1336
 7708SOL    HW134757   2.053   4.238   1.479 -0.7637 -0.8212  1.2280
 7708SOL    HW234758   2.199   4.193   1.462  1.4061  1.8057  1.0266
 7709SOL     OW34759   1.657   3.875  15.659 -0.0858 -0.2750  0.0810
 7709SOL    HW134760   1.579   3.927  15.677  1.2057  1.7472 -0.1625
 7709SOL    HW234761   1.712   3.927  15.718 -0.0614 -0.3550  0.1294
 7710SOL     OW34762   1.815   0.867   7.340 -0.5143  0.0348  0.1784
 7710SOL    HW134763   1.851   0.821   7.416 -2.5240 -0.0649  1.0569
 7710SOL    HW234764   1.740   0.812   7.320 -0.2515 -0.8863  1.6937
 7711SOL     OW34765   2.052   1.458   6.242 -0.4154 -0.2049 -0.5558
 7711SOL    HW134766   1.990   1.490   6.177  0.0394 -3.0356 -2.3488
 7711SOL    HW234767   2.129   1.442   6.188 -0.9091  0.3191 -1.4161
 7712SOL     OW34768   1.756   4.675   7.038  0.0707  0.3993 -0.0577
 7712SOL    HW134769   1.717   4.628   7.111  0.4154  0.0279 -0.1099
 7712SOL    HW234770   1.717   0.024   7.050 -1.2742 -0.3091  0.6056
 7713SOL     OW34771   4.141   0.524   0.423 -0.2658  0.4478 -0.0170
 7713SOL    HW134772   4.128   0.574   0.504  1.0881  2.2253 -0.8911
 7713SOL    HW234773   4.154   0.434   0.452 -1.1129  0.2441 -0.2784
 7714SOL     OW34774   0.792   3.097  11.062  0.1438 -0.1466 -0.3876
 7714SOL    HW134775   0.785   3.184  11.100  1.8591 -1.1754  2.2285
 7714SOL    HW234776   0.717   3.069  11.115 -0.1130  0.1343 -0.6032
 7715SOL     OW34777   3.201   0.019  14.538 -0.7674  0.0729  0.3004
 7715SOL    HW134778   3.178   0.112  14.540 -0.3598  0.1740  0.1826
 7715SOL    HW234779   3.284   0.023  14.492 -0.6854 -0.9722  0.3566
 7716SOL     OW34780   3.808   2.062  16.286  0.1396  0.0535  0.3824
 7716SOL    HW134781   3.721   2.063  16.326 -0.2563  2.0489 -0.5700
 7716SOL    HW234782   3.838   1.978  16.320  0.6879  0.8512  1.8572
 7717SOL     OW34783   2.499   3.553   6.588 -0.0582 -0.2904 -0.0447
 7717SOL    HW134784   2.479   3.617   6.657  1.0238  0.8872 -0.8151
 7717SOL    HW234785   2.418   3.554   6.537 -1.0076  2.6855  1.5207
 7718SOL     OW34786   2.436   3.075   3.304 -0.0765  0.3978 -0.3000
 7718SOL    HW134787   2.427   3.080   3.399  0.6462  1.1334 -0.2647
 7718SOL    HW234788   2.530   3.091   3.291  0.3373 -0.6259  1.4147
 7719SOL     OW34789   4.175   1.982   0.780  0.5096  0.3242  0.5287
 7719SOL    HW134790   4.239   1.955   0.714  0.3139 -2.9792  1.7299
 7719SOL    HW234791   4.220   2.038   0.844  0.8330 -0.2383  0.7927
 7720SOL     OW34792   2.095   3.491   2.699  0.0834  0.0970 -0.6346
 7720SOL    HW134793   2.088   3.531   2.786 -1.7166 -1.9622  0.1718
 7720SOL    HW234794   2.001   3.475   2.684  0.1319 -3.0122  2.3188
 7721SOL     OW34795   3.899   4.056   7.365 -0.4817 -0.0670  0.1502
 7721SOL    HW134796   3.961   3.985   7.352 -0.8524 -0.2291 -0.7337
 7721SOL    HW234797   3.910   4.087   7.455  3.6417 -2.7908  0.5683
 7722SOL     OW34798   3.811   1.756   6.396 -0.1339 -0.3516 -0.0432
 7722SOL    HW134799   3.805   1.661   6.396 -1.4081 -0.2708 -0.1015
 7722SOL    HW234800   3.777   1.784   6.482 -0.0253 -1.3493  0.3161
 7723SOL     OW34801   1.393   4.332   3.910  0.1215 -0.1352 -0.4759
 7723SOL    HW134802   1.326   4.342   3.843  0.0472  2.2312 -0.0353
 7723SOL    HW234803   1.446   4.409   3.891 -0.5669  0.6346  0.7318
 7724SOL     OW34804   3.322   4.277   7.451 -0.1745  0.1621 -0.3039
 7724SOL    HW134805   3.294   4.319   7.532 -2.5983 -0.0181 -1.0526
 7724SOL    HW234806   3.366   4.197   7.481 -3.1059 -1.1485  0.4577
 7725SOL     OW34807   2.861   4.193  15.310  0.5605  0.4382  0.5087
 7725SOL    HW134808   2.877   4.106  15.345  0.9339 -0.6249 -2.2914
 7725SOL    HW234809   2.947   4.203  15.269  0.7161 -1.8901  0.2993
 7726SOL     OW34810   2.703   2.399  11.019 -0.0344 -0.3946 -0.0635
 7726SOL    HW134811   2.789   2.386  11.060 -0.3311  0.7806  0.9477
 7726SOL    HW234812   2.707   2.331  10.952 -1.3838 -1.4328  0.8993
 7727SOL     OW34813   1.449   0.922  12.125 -0.7435 -0.1214  0.5527
 7727SOL    HW134814   1.495   0.839  12.139  0.2567  0.3768  0.2101
 7727SOL    HW234815   1.398   0.915  12.205  1.1616 -2.4002  1.5679
 7728SOL     OW34816   3.669   4.469  15.404  0.2520 -0.0605 -0.4429
 7728SOL    HW134817   3.574   4.471  15.399  0.2181 -1.3757 -0.2655
 7728SOL    HW234818   3.672   4.519  15.485  1.2918 -1.2558  0.2557
 7729SOL     OW34819   2.930   0.384  15.496  0.1613 -0.4003 -0.1073
 7729SOL    HW134820   2.869   0.314  15.520 -1.4913  1.1283  0.1792
 7729SOL    HW234821   3.009   0.341  15.528  1.0217  1.6651  0.5359
 7730SOL     OW34822   1.334   0.876   7.401 -0.0299  0.2573 -0.2191
 7730SOL    HW134823   1.421   0.916   7.407 -0.5029  1.3325 -0.6032
 7730SOL    HW234824   1.343   0.806   7.465  0.3001 -0.3308 -0.9139
 7731SOL     OW34825   3.190   2.723   3.353 -0.0541 -0.4406 -0.6138
 7731SOL    HW134826   3.205   2.715   3.447 -3.5339 -1.5662 -0.1439
 7731SOL    HW234827   3.133   2.648   3.334 -1.9520 -0.3761  4.8246
 7732SOL     OW34828   3.363   2.970   7.242  0.0074  0.1082 -0.6488
 7732SOL    HW134829   3.294   2.989   7.306  0.7784 -0.3276  0.3125
 7732SOL    HW234830   3.312   2.979   7.161  0.6111  0.2401 -1.0120
 7733SOL     OW34831   2.893   2.102  16.381 -0.1179  0.5322 -0.1174
 7733SOL    HW134832   2.868   2.089  16.290  1.8844 -0.8672 -0.4603
 7733SOL    HW234833   2.986   2.083  16.393 -0.2729 -0.2238 -0.1067
 7734SOL     OW34834   3.119   2.800  10.424  0.1752  0.9360  0.0930
 7734SOL    HW134835   3.089   2.835  10.340  0.3027  0.6692 -0.0647
 7734SOL    HW234836   3.148   2.885  10.456 -0.0407  1.2260 -0.4861
 7735SOL     OW34837   4.476   1.664   6.393  0.5253 -0.5157  0.3549
 7735SOL    HW134838   4.494   1.589   6.337 -0.4597 -1.2050  0.9523
 7735SOL    HW234839   4.510   1.735   6.338 -0.5486  0.3465  0.8099
 7736SOL     OW34840   2.674   2.911   8.276 -0.2797  0.3482 -0.2795
 7736SOL    HW134841   2.587   2.872   8.283  0.4232 -1.2951 -0.7751
 7736SOL    HW234842   2.704   2.890   8.187  1.1225  0.2812  0.2147
 7737SOL     OW34843   3.559   1.035   8.899 -0.3638  0.4252  0.4568
 7737SOL    HW134844   3.579   1.113   8.950  1.2512 -0.0363  0.5229
 7737SOL    HW234845   3.642   1.015   8.856 -0.0323  2.2777  0.2542
 7738SOL     OW34846   4.601   0.533   3.794 -0.3827  0.3919  0.2462
 7738SOL    HW134847   4.536   0.490   3.737  1.9737 -1.2481 -1.1828
 7738SOL    HW234848   4.559   0.523   3.880 -4.3293 -1.2104 -1.8367
 7739SOL     OW34849   0.701   0.011  13.497  0.5355 -0.1635 -0.0498
 7739SOL    HW134850   0.663   4.663  13.519 -2.7654  1.4471  0.4254
 7739SOL    HW234851   0.792   4.727  13.472  0.9338  0.5026  0.8414
 7740SOL     OW34852   4.569   4.701  16.915 -0.0363 -0.4754 -0.2317
 7740SOL    HW134853   4.538   0.040  16.964  1.1535 -0.1057 -0.0516
 7740SOL    HW234854   4.582   4.638  16.986  0.7554 -1.5073 -1.2963
 7741SOL     OW34855   4.241   4.089  17.515 -0.4314 -0.2952 -0.3540
 7741SOL    HW134856   4.221   4.083  17.422 -1.4005 -0.0436 -0.1610
 7741SOL    HW234857   4.230   3.998  17.539  0.5871  0.2012  2.0153
 7742SOL     OW34858   3.740   0.360   0.250  0.2015  0.1844 -0.2832
 7742SOL    HW134859   3.774   0.357   0.340 -1.5798  1.5622  0.4362
 7742SOL    HW234860   3.817   0.330   0.202 -0.8318 -2.7276 -0.1558
 7743SOL     OW34861   3.645   4.402   0.472  0.3561 -0.0418  0.5533
 7743SOL    HW134862   3.725   4.399   0.420  1.1609 -2.5141  1.8909
 7743SOL    HW234863   3.573   4.436   0.420  0.6939 -1.1584 -0.6391
 7744SOL     OW34864   3.336   3.858  13.884 -0.2514 -0.6081 -0.2741
 7744SOL    HW134865   3.394   3.889  13.954 -0.1746 -1.6390  0.1158
 7744SOL    HW234866   3.368   3.773  13.854 -2.0404 -1.7143  1.0312
 7745SOL     OW34867   1.766   4.725   5.201  0.7046  0.2818 -0.6232
 7745SOL    HW134868   1.848   4.709   5.155  0.5721 -2.4229  0.0872
 7745SOL    HW234869   1.794   4.698   5.288 -2.8322 -0.8291  0.1667
 7746SOL     OW34870   3.465   0.289  15.324  0.1132 -0.7022  0.1859
 7746SOL    HW134871   3.550   0.333  15.315  0.6307 -1.6202  0.6564
 7746SOL    HW234872   3.473   0.204  15.281 -2.1237 -0.9794  0.3145
 7747SOL     OW34873   3.418   1.908   5.487 -0.5928 -0.1489 -0.5698
 7747SOL    HW134874   3.462   1.864   5.559 -0.6054  0.1469 -0.3816
 7747SOL    HW234875   3.482   1.975   5.464 -0.6740  0.4366  0.9210
 7748SOL     OW34876   0.760   0.928  17.417 -0.0387  0.4116  0.3352
 7748SOL    HW134877   0.772   0.880  17.336 -1.3655  1.3698 -0.4353
 7748SOL    HW234878   0.814   1.005  17.399  0.2276 -0.3549 -2.0450
 7749SOL     OW34879   2.150   0.879  16.754 -0.1013  0.8803 -1.1592
 7749SOL    HW134880   2.078   0.941  16.748  0.5678  1.8486  0.7362
 7749SOL    HW234881   2.172   0.877  16.661  0.0069  2.5879 -1.1676
 7750SOL     OW34882   1.132   4.690  10.072  0.0148 -0.3230  0.0346
 7750SOL    HW134883   1.144   4.627  10.144 -0.6975 -0.1898  0.2694
 7750SOL    HW234884   1.046   4.663  10.041  0.6925 -2.7512  0.3008
 7751SOL     OW34885   2.287   2.293   4.522  0.7781  0.5979  0.1095
 7751SOL    HW134886   2.218   2.295   4.455  1.4973 -0.1675 -0.6539
 7751SOL    HW234887   2.252   2.336   4.600 -0.5317 -0.7808  0.2896
 7752SOL     OW34888   3.922   2.160  10.246 -0.2194 -0.1254  0.5259
 7752SOL    HW134889   3.996   2.173  10.187  0.0647  0.1137  0.9319
 7752SOL    HW234890   3.898   2.249  10.270  0.7923 -0.3616  2.4732
 7753SOL     OW34891   4.556   1.404   5.797  0.3315  0.2741  0.4444
 7753SOL    HW134892   4.596   1.317   5.793 -1.7320 -0.7343  1.7545
 7753SOL    HW234893   4.610   1.447   5.731 -0.5280 -2.1868 -1.8283
 7754SOL     OW34894   0.267   2.140   3.793 -0.1183  0.4518 -0.1406
 7754SOL    HW134895   0.204   2.072   3.817  1.7787 -1.1634  0.2669
 7754SOL    HW234896   0.349   2.093   3.810 -1.8405 -1.6283  2.3872
 7755SOL     OW34897   3.301   0.813   6.934  0.1682  1.1363  0.0264
 7755SOL    HW134898   3.270   0.879   6.996 -0.7807 -0.0543  0.8196
 7755SOL    HW234899   3.349   0.753   6.991  0.9880 -1.3887 -3.2836
 7756SOL     OW34900   1.309   4.527   3.464 -0.0671 -0.5361  0.0209
 7756SOL    HW134901   1.368   4.460   3.496 -0.2981 -1.3140 -1.1674
 7756SOL    HW234902   1.341   4.605   3.509 -0.8053 -0.6091  0.6621
 7757SOL     OW34903   2.083   0.166   7.316 -0.0472  0.4942 -0.2282
 7757SOL    HW134904   2.111   0.113   7.242 -0.6413 -0.8669  0.5243
 7757SOL    HW234905   2.008   0.205   7.270 -0.6994  0.1359  0.5301
 7758SOL     OW34906   3.347   1.453   2.788 -0.6345  0.3665  0.1040
 7758SOL    HW134907   3.423   1.415   2.832  0.7593  0.7047 -2.0156
 7758SOL    HW234908   3.331   1.528   2.846  3.0356  0.1368  1.3972
 7759SOL     OW34909   3.625   4.653   5.331  0.2136 -0.2415 -0.0905
 7759SOL    HW134910   3.604   0.007   5.309  2.8503  0.1009 -1.1455
 7759SOL    HW234911   3.715   4.654   5.362 -0.0492  0.4872  0.6441
 7760SOL     OW34912   3.044   4.331  16.423  0.0151 -0.1083  0.7217
 7760SOL    HW134913   3.018   4.411  16.377  0.9629 -0.2644 -0.0928
 7760SOL    HW234914   3.021   4.358  16.512  0.5584  2.8215 -0.0247
 7761SOL     OW34915   1.525   3.255   3.536  0.2667 -0.0716 -0.4944
 7761SOL    HW134916   1.612   3.216   3.525  0.4438  0.3546 -0.6210
 7761SOL    HW234917   1.556   3.343   3.513  0.8926 -0.5518 -1.4969
 7762SOL     OW34918   2.811   2.892   3.822 -0.0572  0.0394 -0.2565
 7762SOL    HW134919   2.729   2.931   3.790  0.5890  0.3954 -1.4666
 7762SOL    HW234920   2.859   2.968   3.854 -0.9374  1.6262 -2.6882
 7763SOL     OW34921   0.338   3.906  13.660  0.0553  0.1513 -0.0390
 7763SOL    HW134922   0.400   3.850  13.613  0.4687  1.0565 -0.5743
 7763SOL    HW234923   0.369   3.894  13.750  0.9403 -1.9386 -0.6180
 7764SOL     OW34924   1.998   1.204   2.029 -0.2611 -0.0738 -0.4103
 7764SOL    HW134925   2.009   1.279   1.970 -0.6309  0.1521 -0.1924
 7764SOL    HW234926   2.092   1.191   2.042 -0.8189 -3.0705  0.6091
 7765SOL     OW34927   1.479   1.419  16.879 -0.1416 -0.1645 -0.0571
 7765SOL    HW134928   1.436   1.496  16.841 -0.3096  0.4437  1.3824
 7765SOL    HW234929   1.473   1.438  16.972  1.7400 -1.6584  0.3541
 7766SOL     OW34930   2.980   1.109   3.036 -0.2704  0.0393 -0.5335
 7766SOL    HW134931   2.994   1.040   2.971  0.3067 -0.9989  0.6838
 7766SOL    HW234932   3.009   1.196   3.011 -1.0624 -0.0059 -1.6381
 7767SOL     OW34933   0.897   2.312   4.077 -0.7669 -0.1593 -0.8288
 7767SOL    HW134934   0.846   2.233   4.062 -1.3045 -0.3890  2.2628
 7767SOL    HW234935   0.981   2.282   4.041 -0.7203 -0.9732 -0.0267
 7768SOL     OW34936   0.490   1.736   5.223 -0.0840  0.3864 -0.1633
 7768SOL    HW134937   0.537   1.681   5.286 -1.6268 -0.6033  0.1255
 7768SOL    HW234938   0.528   1.706   5.139  0.3482  1.4759 -0.3523
 7769SOL     OW34939   2.493   0.122   3.439 -0.2108  0.1035 -0.0717
 7769SOL    HW134940   2.489   0.213   3.468 -0.1586 -0.6016  2.1012
 7769SOL    HW234941   2.431   0.133   3.367  2.3439  0.8846 -2.1451
 7770SOL     OW34942   2.259   4.305   5.101 -0.2307  0.3957 -0.4050
 7770SOL    HW134943   2.329   4.240   5.089 -1.7134 -1.4540  0.9871
 7770SOL    HW234944   2.312   4.383   5.117  3.0248 -1.9859  0.5309
 7771SOL     OW34945   4.124   3.477   1.544 -0.3777  0.2270 -0.3369
 7771SOL    HW134946   4.123   3.571   1.527 -1.3116  1.1240  4.8175
 7771SOL    HW234947   4.031   3.460   1.554 -0.4249  0.1975 -0.8211
 7772SOL     OW34948   4.418   4.681  16.155 -0.5944 -0.0770 -0.0874
 7772SOL    HW134949   4.477   0.006  16.197  0.5928 -1.6510  0.5599
 7772SOL    HW234950   4.472   4.604  16.171 -0.6198  0.2817  1.6854
 7773SOL     OW34951   3.121   0.740   4.561  0.0321 -0.1893  0.8226
 7773SOL    HW134952   3.131   0.699   4.475  1.0932  1.0656  0.3571
 7773SOL    HW234953   3.175   0.684   4.617  0.0756 -0.1681  0.8014
 7774SOL     OW34954   1.674   0.666   6.359  0.5150  0.0732 -0.2443
 7774SOL    HW134955   1.723   0.608   6.416  1.7036  0.4370 -0.8972
 7774SOL    HW234956   1.737   0.728   6.322 -0.0682 -1.1592 -3.3284
 7775SOL     OW34957   2.232   3.940  14.561 -1.0659 -0.1217 -0.2407
 7775SOL    HW134958   2.151   3.988  14.539  0.0978  1.4428 -1.1213
 7775SOL    HW234959   2.195   3.852  14.567  1.5637 -1.3282 -1.8896
 7776SOL     OW34960   4.373   3.486   8.464 -0.5489  0.3382  0.4913
 7776SOL    HW134961   4.401   3.440   8.385 -1.9108  0.2397  0.0588
 7776SOL    HW234962   4.451   3.537   8.485  0.1641 -0.3011 -0.6274
 7777SOL     OW34963   4.516   0.590   6.383  0.0192 -0.0168  0.6337
 7777SOL    HW134964   4.423   0.573   6.400  0.1045 -2.0366 -0.8553
 7777SOL    HW234965   4.567   0.514   6.411  0.1986 -0.3826 -0.7050
 7778SOL     OW34966   0.345   1.305   3.122 -0.0763  0.4226  0.7429
 7778SOL    HW134967   0.400   1.384   3.123 -1.3660  1.3384 -0.3252
 7778SOL    HW234968   0.365   1.276   3.033  0.2886 -1.5682  1.4932
 7779SOL     OW34969   4.578   2.748   9.808 -0.0447 -0.2451 -0.6806
 7779SOL    HW134970   4.644   2.772   9.873 -1.7473  0.1996  0.8582
 7779SOL    HW234971   4.541   2.826   9.767  0.0969 -0.5794 -1.4636
 7780SOL     OW34972   1.774   1.039   1.911 -0.3820  0.4411  0.4286
 7780SOL    HW134973   1.780   0.964   1.970  3.1263  1.2739  1.1166
 7780SOL    HW234974   1.681   1.061   1.910 -0.5033 -0.0635  0.5729
 7781SOL     OW34975   4.463   4.103  16.190 -0.1356 -0.5823  0.0724
 7781SOL    HW134976   4.409   4.085  16.114 -2.3647 -0.2353  1.5709
 7781SOL    HW234977   4.411   4.154  16.253  1.7883 -0.4909  1.6183
 7782SOL     OW34978   4.172   4.249   4.663 -0.0667 -0.0086  0.6058
 7782SOL    HW134979   4.233   4.254   4.590  0.1981 -0.1848  0.8159
 7782SOL    HW234980   4.203   4.317   4.723  0.5578 -1.4492  1.9209
 7783SOL     OW34981   3.470   0.656   7.457 -0.2708  0.4015 -0.2469
 7783SOL    HW134982   3.419   0.581   7.488 -0.2763 -0.1225 -1.5206
 7783SOL    HW234983   3.492   0.628   7.368  0.4693  0.0132  0.0640
 7784SOL     OW34984   1.804   1.424   8.937 -0.8319 -0.3332  0.1080
 7784SOL    HW134985   1.827   1.371   8.860 -1.8627  0.6263 -0.8638
 7784SOL    HW234986   1.789   1.356   9.002 -1.7902 -1.2654 -1.0796
 7785SOL     OW34987   0.220   4.646  10.546  0.4590  0.3863  0.5307
 7785SOL    HW134988   0.219   4.677  10.637  2.3035  0.0107  0.6753
 7785SOL    HW234989   0.276   4.569  10.556  1.4566  0.9426 -0.9202
 7786SOL     OW34990   4.332   0.642  12.071  0.8474 -0.5553  0.0460
 7786SOL    HW134991   4.378   0.691  12.139 -3.1803  0.1873  2.2536
 7786SOL    HW234992   4.345   0.702  11.997 -1.1435 -0.1706 -0.0102
 7787SOL     OW34993   4.701   2.962  10.027  0.0002  0.1580  0.2981
 7787SOL    HW134994   4.698   2.961  10.122  0.8761 -0.2717  0.3246
 7787SOL    HW234995   4.652   3.041  10.005  1.1341  0.6206 -0.6252
 7788SOL     OW34996   1.056   0.394   9.161  0.1940  0.0762  1.2624
 7788SOL    HW134997   1.035   0.485   9.141  0.7781 -0.0955 -0.1867
 7788SOL    HW234998   1.125   0.398   9.227 -0.0257  1.1008  1.4226
 7789SOL     OW34999   3.631   0.796  14.291 -0.3001  0.4254 -0.5161
 7789SOL    HW135000   3.646   0.745  14.211  3.1313 -2.6848  2.1314
 7789SOL    HW235001   3.568   0.747  14.343  0.5561  1.2729  1.3161
 7790SOL     OW35002   3.166   1.241   4.575  0.2181  0.1977  0.1717
 7790SOL    HW135003   3.087   1.187   4.575  0.1829  0.2300  1.5837
 7790SOL    HW235004   3.203   1.209   4.493  0.9595  1.2591  0.0970
 7791SOL     OW35005   2.282   0.013   5.001  0.2688 -0.1496 -0.2587
 7791SOL    HW135006   2.284   0.008   4.905 -2.2892 -0.4026 -0.2952
 7791SOL    HW235007   2.257   0.105   5.010 -1.7127 -0.7435  0.4652
 7792SOL     OW35008   3.729   1.816   6.003  0.2161  0.5953 -0.0624
 7792SOL    HW135009   3.811   1.818   6.053  1.5058 -0.2990 -2.1402
 7792SOL    HW235010   3.765   1.794   5.917  2.0399 -0.6707  1.0259
 7793SOL     OW35011   0.462   0.469  11.499  0.0161  0.0668  0.4342
 7793SOL    HW135012   0.372   0.481  11.531 -0.2428 -1.4157  0.2552
 7793SOL    HW235013   0.507   0.447  11.581  1.4299 -0.3155 -0.4636
 7794SOL     OW35014   3.578   2.821   3.855  0.1419 -0.3856 -0.8729
 7794SOL    HW135015   3.633   2.884   3.902  1.3799 -2.1361  0.0595
 7794SOL    HW235016   3.573   2.748   3.918  2.3260 -0.7018 -1.0634
 7795SOL     OW35017   4.013   2.727  13.942 -0.6994 -0.2121 -0.1727
 7795SOL    HW135018   4.089   2.677  13.972 -1.2137  1.0510  3.2018
 7795SOL    HW235019   3.947   2.717  14.009  0.4935 -0.1163  1.0124
 7796SOL     OW35020   1.900   4.656   1.980  0.4090 -0.0017 -0.4351
 7796SOL    HW135021   1.894   4.570   2.022  0.7607  0.3778  0.3896
 7796SOL    HW235022   1.958   4.644   1.904 -1.0620 -1.3057 -1.3441
 7797SOL     OW35023   0.736   2.078   4.154  0.8697  0.4057 -0.2157
 7797SOL    HW135024   0.645   2.058   4.175  0.7935  1.6031  0.6471
 7797SOL    HW235025   0.779   2.018   4.214  0.7348  1.2622  0.7429
 7798SOL     OW35026   1.539   3.862   9.435  0.3097 -0.1696 -0.2987
 7798SOL    HW135027   1.478   3.852   9.362  2.3947 -3.7903 -1.5718
 7798SOL    HW235028   1.611   3.916   9.403 -1.7092  1.0032 -2.7669
 7799SOL     OW35029   2.826   3.448   4.103 -0.1798  0.1156 -0.0958
 7799SOL    HW135030   2.752   3.417   4.155  0.0509  1.6582  1.1287
 7799SOL    HW235031   2.897   3.457   4.166 -0.4501 -1.9291  0.4999
 7800SOL     OW35032   4.606   2.420   1.567  0.1077  0.8751 -0.2805
 7800SOL    HW135033   4.568   2.382   1.647 -0.0117  2.2563  0.3138
 7800SOL    HW235034   4.698   2.393   1.569 -0.7994 -2.3345 -1.4505
 7801SOL     OW35035   1.879   0.392   4.910 -0.5597 -0.3873 -0.0378
 7801SOL    HW135036   1.840   0.355   4.990 -2.9863  0.6050 -0.7506
 7801SOL    HW235037   1.809   0.448   4.878 -1.4525 -2.9923 -2.6088
 7802SOL     OW35038   4.696   4.479  15.738 -0.0813  0.7656  0.4226
 7802SOL    HW135039   4.662   4.404  15.690  2.5160 -0.5916  0.6650
 7802SOL    HW235040   0.041   4.437  15.766 -1.3779 -1.9987  0.0814
 7803SOL     OW35041   2.667   1.476   3.901 -0.1279 -0.0280 -0.0685
 7803SOL    HW135042   2.744   1.469   3.845  0.6980  1.7336  0.8386
 7803SOL    HW235043   2.658   1.571   3.913 -0.2884 -0.0061 -0.3424
 7804SOL     OW35044   1.823   2.358   8.156  0.2986 -0.3413  0.1245
 7804SOL    HW135045   1.734   2.376   8.188 -0.1785  0.2868 -1.5627
 7804SOL    HW235046   1.836   2.426   8.090 -0.0682  1.0225  1.4377
 7805SOL     OW35047   0.416   2.544   1.789 -0.1026  0.3078 -0.2009
 7805SOL    HW135048   0.406   2.481   1.860  1.6201 -0.6614 -0.8214
 7805SOL    HW235049   0.340   2.599   1.811  1.3240  1.9014  0.7937
 7806SOL     OW35050   2.178   0.914  10.100  0.7619 -0.5106 -0.2830
 7806SOL    HW135051   2.246   0.890  10.037 -0.0277 -0.6780 -1.0731
 7806SOL    HW235052   2.228   0.941  10.177 -0.4244  0.4220  0.1562
 7807SOL     OW35053   4.103   1.021   9.155 -0.5738  0.3944 -0.2641
 7807SOL    HW135054   4.163   1.094   9.168 -0.3099  0.3641 -1.3558
 7807SOL    HW235055   4.083   0.992   9.244  2.0532 -1.4505 -0.2869
 7808SOL     OW35056   2.630   1.446   2.792 -0.0246 -0.2712 -0.0810
 7808SOL    HW135057   2.546   1.402   2.799  0.1689 -0.6241  0.0132
 7808SOL    HW235058   2.623   1.493   2.709  1.7169  0.2981  0.0846
 7809SOL     OW35059   0.339   4.268   8.446 -0.7745  0.2301 -0.5946
 7809SOL    HW135060   0.390   4.345   8.419 -1.5322  0.5133 -1.2075
 7809SOL    HW235061   0.259   4.310   8.477 -0.1486  0.3647  0.8680
 7810SOL     OW35062   4.658   0.040   6.049  0.4459 -0.3962 -0.2701
 7810SOL    HW135063   4.648   0.097   6.124 -0.7696 -1.9322  0.7395
 7810SOL    HW235064   4.684   4.693   6.086  0.2008  0.7096  2.3919
 7811SOL     OW35065   1.661   3.086   5.649  0.5746  0.2863 -0.2256
 7811SOL    HW135066   1.626   3.089   5.739  1.5389 -0.1555  0.1685
 7811SOL    HW235067   1.747   3.127   5.656  1.1152 -0.8622 -0.2350
 7812SOL     OW35068   2.855   4.214   3.430 -0.3667 -0.3282  0.4253
 7812SOL    HW135069   2.825   4.275   3.497  3.4122  0.3785  1.5091
 7812SOL    HW235070   2.785   4.149   3.425 -1.0600  0.5618 -1.5124
 7813SOL     OW35071   3.418   0.739   2.952  0.2262  0.7879  0.2127
 7813SOL    HW135072   3.483   0.800   2.986  2.2080 -1.4674  0.5283
 7813SOL    HW235073   3.376   0.707   3.032 -1.4194  0.1541 -0.9136
 7814SOL     OW35074   3.330   3.932  10.342 -0.0377 -0.4750 -0.8166
 7814SOL    HW135075   3.341   3.839  10.323  0.0502 -0.5142 -0.5652
 7814SOL    HW235076   3.239   3.949  10.316  0.2525 -3.1731 -3.5327
 7815SOL     OW35077   3.022   1.014   4.617 -0.0983  0.2357 -0.4312
 7815SOL    HW135078   3.024   1.024   4.712 -0.8970  1.7705 -0.5715
 7815SOL    HW235079   3.079   0.937   4.615  2.1177  1.8596 -0.1783
 7816SOL     OW35080   0.231   4.145   4.293  0.1798 -0.0543 -0.5157
 7816SOL    HW135081   0.294   4.119   4.226  1.0537  0.7098  0.0174
 7816SOL    HW235082   0.290   4.188   4.354  1.0621 -0.0473 -1.3706
 7817SOL     OW35083   1.479   3.737  14.380  0.4530 -0.5681  0.1198
 7817SOL    HW135084   1.553   3.798  14.374 -0.6897  0.8450  0.5969
 7817SOL    HW235085   1.514   3.648  14.373  0.4106 -0.3977 -2.4678
 7818SOL     OW35086   2.227   2.760  12.221  0.3122  0.0915  0.8953
 7818SOL    HW135087   2.295   2.758  12.155 -0.9014  0.3287 -0.3675
 7818SOL    HW235088   2.268   2.738  12.305 -2.2315 -1.5148  1.7307
 7819SOL     OW35089   2.702   0.816   5.782 -0.7777  0.5368  0.0921
 7819SOL    HW135090   2.778   0.846   5.832 -0.3303 -0.4803  0.0245
 7819SOL    HW235091   2.730   0.833   5.692  1.4184 -0.4604  0.5791
 7820SOL     OW35092   2.099   1.205   3.611  0.2103  0.0112 -0.0263
 7820SOL    HW135093   2.031   1.271   3.615  1.0827  0.9543 -0.7968
 7820SOL    HW235094   2.182   1.248   3.633  0.5824  0.8678 -3.0852
 7821SOL     OW35095   4.339   2.438  12.095  0.1576 -0.2224 -0.5433
 7821SOL    HW135096   4.355   2.458  12.187 -1.7533  1.4992 -0.5534
 7821SOL    HW235097   4.313   2.525  12.063 -3.7412 -1.2021 -0.0850
 7822SOL     OW35098   2.142   4.252   8.640  0.0254  0.5615 -0.1415
 7822SOL    HW135099   2.220   4.289   8.681  0.9936 -0.6219 -0.9239
 7822SOL    HW235100   2.143   4.160   8.665  2.0339 -0.2748 -3.2777
 7823SOL     OW35101   2.190   4.106   1.101 -0.5531  0.4617 -0.0856
 7823SOL    HW135102   2.274   4.134   1.139  0.5133 -0.3289 -1.8651
 7823SOL    HW235103   2.157   4.187   1.062 -0.2978  1.6918  2.2792
 7824SOL     OW35104   0.901   0.587   4.216  0.0405 -0.1485  0.0768
 7824SOL    HW135105   0.835   0.529   4.178 -2.2812  2.9951 -0.6545
 7824SOL    HW235106   0.967   0.561   4.151  0.4312  1.6015 -0.2043
 7825SOL     OW35107   0.749   2.985  10.774 -0.2019 -0.8311  0.0718
 7825SOL    HW135108   0.744   3.058  10.836  1.1030  1.5196 -2.6472
 7825SOL    HW235109   0.820   2.925  10.797  1.2159  1.5555  1.9408
 7826SOL     OW35110   2.682   2.516   4.760 -0.0429 -0.3351  0.0914
 7826SOL    HW135111   2.763   2.565   4.777 -0.5133  1.4494 -2.7456
 7826SOL    HW235112   2.688   2.480   4.671  0.4909  2.0097 -0.8276
 7827SOL     OW35113   3.746   1.453   2.192  0.2055 -0.1610 -0.3247
 7827SOL    HW135114   3.687   1.511   2.143  0.9190  0.1688 -0.7792
 7827SOL    HW235115   3.826   1.505   2.190  2.1380 -3.0734  1.8085
 7828SOL     OW35116   1.967   4.001   3.245  0.2052 -0.6213  0.1962
 7828SOL    HW135117   1.988   3.913   3.214 -1.0280 -0.3756 -1.3584
 7828SOL    HW235118   1.975   4.057   3.168  1.0380  1.0499  1.5036
 7829SOL     OW35119   2.068   1.355  11.427 -0.0902 -0.5789 -0.5419
 7829SOL    HW135120   2.042   1.293  11.495 -0.3423  1.2915  1.0597
 7829SOL    HW235121   2.118   1.309  11.359  1.1137  0.1397 -0.1209
 7830SOL     OW35122   4.063   1.687   1.387 -0.0142  0.1403 -0.8626
 7830SOL    HW135123   4.085   1.644   1.305 -1.2588 -2.8321  0.3530
 7830SOL    HW235124   3.968   1.696   1.376 -0.1628 -2.1052 -1.2724
 7831SOL     OW35125   4.639   4.670   4.449 -0.0648 -0.2591  0.3722
 7831SOL    HW135126   4.649   4.638   4.359 -0.7871  2.4373 -0.6440
 7831SOL    HW235127   4.720   4.628   4.480 -1.1295 -2.0508  0.7576
 7832SOL     OW35128   1.884   3.566   0.239 -0.8196  0.0347 -0.9502
 7832SOL    HW135129   1.906   3.509   0.313 -0.2787  0.3734 -0.8505
 7832SOL    HW235130   1.889   3.510   0.162 -0.0109 -3.5291  1.6866
 7833SOL     OW35131   3.791   0.362   1.962  0.0617  0.1704  0.5298
 7833SOL    HW135132   3.883   0.336   1.964  0.1489  0.5088  0.8837
 7833SOL    HW235133   3.796   0.457   1.951 -0.7764 -0.0369 -1.5351
 7834SOL     OW35134   0.787   3.929   7.195  0.2495 -0.1434  0.2737
 7834SOL    HW135135   0.746   4.009   7.227  0.6268  1.0193 -2.1298
 7834SOL    HW235136   0.760   3.856   7.250  2.4204 -0.0895  1.4020
 7835SOL     OW35137   3.677   1.819   2.017 -0.0313  0.3245 -0.8263
 7835SOL    HW135138   3.596   1.827   2.067  1.0469  1.4980  0.7173
 7835SOL    HW235139   3.662   1.743   1.960 -1.6583  1.1862 -1.5547
 7836SOL     OW35140   0.758   1.673   2.243 -0.4328 -0.3243 -0.2035
 7836SOL    HW135141   0.667   1.689   2.267  0.5364 -1.3108  4.1334
 7836SOL    HW235142   0.785   1.618   2.316 -1.8404 -1.1128 -0.2790
 7837SOL     OW35143   0.330   1.307   5.834  0.1277 -0.2338 -0.3348
 7837SOL    HW135144   0.276   1.322   5.912 -1.0668 -1.8865 -0.8546
 7837SOL    HW235145   0.302   1.388   5.791 -0.3460  0.4046  1.1379
 7838SOL     OW35146   4.375   3.073   4.700 -0.3345  0.2501 -0.5632
 7838SOL    HW135147   4.402   3.013   4.630 -1.5059  1.3869 -1.9924
 7838SOL    HW235148   4.298   3.113   4.659 -1.2260 -1.3436 -0.4234
 7839SOL     OW35149   4.668   1.412   2.817  0.1200 -0.1705  0.5566
 7839SOL    HW135150   4.622   1.345   2.869  1.0453 -1.6063 -0.4763
 7839SOL    HW235151   0.015   1.410   2.863  0.4341 -3.1816 -0.1522
 7840SOL     OW35152   4.499   1.055  12.427  0.3899  0.0638 -0.2386
 7840SOL    HW135153   4.583   1.089  12.397  1.7946 -2.5438  0.8091
 7840SOL    HW235154   4.519   1.023  12.515  2.6818  0.4668 -0.6168
 7841SOL     OW35155   3.828   4.240   9.464 -0.4860  0.1061  0.2352
 7841SOL    HW135156   3.908   4.255   9.413 -1.3792 -0.7017 -1.3860
 7841SOL    HW235157   3.826   4.323   9.512  0.9058  0.4111 -0.2406
 7842SOL     OW35158   1.398   2.389  17.377 -0.2187  0.1990  0.5527
 7842SOL    HW135159   1.415   2.422  17.289  1.8614 -1.0496  0.5015
 7842SOL    HW235160   1.380   2.299  17.349  0.1609  0.5914 -0.9144
 7843SOL     OW35161   1.842   4.311   1.730 -0.2470 -0.0121 -0.6842
 7843SOL    HW135162   1.875   4.399   1.714 -1.9880  0.7981  0.2582
 7843SOL    HW235163   1.920   4.258   1.711 -0.4875 -0.8362  0.5816
 7844SOL     OW35164   0.493   3.962   8.874  0.2414 -0.2972  0.4398
 7844SOL    HW135165   0.562   4.028   8.884 -0.0939 -0.0516  1.1618
 7844SOL    HW235166   0.454   3.951   8.961 -0.0121  0.6681  0.4485
 7845SOL     OW35167   2.691   3.318   6.933 -0.0422  0.5167 -0.0274
 7845SOL    HW135168   2.755   3.327   7.004 -1.2868  2.1361  0.8817
 7845SOL    HW235169   2.719   3.231   6.902 -2.9250 -0.1327 -0.8206
 7846SOL     OW35170   3.307   3.634   2.147 -0.1808 -1.0819  0.0521
 7846SOL    HW135171   3.275   3.641   2.237 -1.1617 -0.1740 -0.3737
 7846SOL    HW235172   3.241   3.667   2.086  0.3125 -0.8940 -0.3826
 7847SOL     OW35173   1.059   0.403   6.705 -0.4384 -0.6076  0.0376
 7847SOL    HW135174   1.121   0.474   6.724  0.5509 -1.4849  0.0854
 7847SOL    HW235175   1.089   0.337   6.768  2.1330 -0.8753 -1.4643
 7848SOL     OW35176   2.885   0.118  14.041  0.0546  0.1649 -0.3923
 7848SOL    HW135177   2.874   0.209  14.069 -1.0271  0.0721 -0.5016
 7848SOL    HW235178   2.812   0.071  14.083  0.8098  0.7298  1.5547
 7849SOL     OW35179   4.416   4.239  13.034 -0.1825  0.6499 -0.0712
 7849SOL    HW135180   4.403   4.328  13.002 -2.6128 -0.2261 -1.5470
 7849SOL    HW235181   4.337   4.194  13.003  0.5321 -0.9408  0.4212
 7850SOL     OW35182   2.851   1.761   8.299 -0.3403 -0.0194 -0.0133
 7850SOL    HW135183   2.822   1.672   8.321 -1.0471  0.0407 -0.7273
 7850SOL    HW235184   2.776   1.809   8.333 -0.8124 -0.9664  0.2746
 7851SOL     OW35185   3.449   4.590   4.564  0.3034 -0.1988  0.0042
 7851SOL    HW135186   3.535   4.554   4.585 -0.8934 -4.1047 -1.7793
 7851SOL    HW235187   3.466   4.634   4.481 -1.5287  1.7431  0.6417
 7852SOL     OW35188   2.719   3.148   6.583 -0.0417 -0.1549 -0.1937
 7852SOL    HW135189   2.777   3.111   6.516 -0.2751  0.7306 -0.8819
 7852SOL    HW235190   2.638   3.153   6.533 -0.4867 -3.2595  0.1764
 7853SOL     OW35191   1.669   0.533   1.423 -0.0827  0.3536  0.2238
 7853SOL    HW135192   1.637   0.573   1.503  0.0482 -1.1003  1.0167
 7853SOL    HW235193   1.630   0.581   1.350  0.1790  1.4112  0.7887
 7854SOL     OW35194   1.021   3.336   2.839 -0.2413 -0.3728  0.5525
 7854SOL    HW135195   1.092   3.391   2.806 -0.7163 -0.3476 -0.4589
 7854SOL    HW235196   1.060   3.289   2.912 -2.6370 -2.9353  0.2002
 7855SOL     OW35197   4.668   1.050  17.101 -0.1404  0.4450 -0.3747
 7855SOL    HW135198   4.723   0.983  17.141 -1.9998 -1.4276 -1.0090
 7855SOL    HW235199   4.585   1.003  17.105 -1.3284  2.7407  1.5631
 7856SOL     OW35200   0.588   4.418  15.066  0.2361 -0.3776 -0.6954
 7856SOL    HW135201   0.571   4.365  14.988 -1.3521  0.3433 -0.8301
 7856SOL    HW235202   0.666   4.469  15.047 -0.0315 -0.6081 -2.4677
 7857SOL     OW35203   4.647   4.589   2.433 -0.1995  0.0466  0.1575
 7857SOL    HW135204   4.619   4.573   2.523  0.8003 -0.6809  0.3544
 7857SOL    HW235205   4.655   4.684   2.438 -1.8556  0.2344 -1.0144
 7858SOL     OW35206   3.378   3.922   4.631 -0.3828  0.0955  0.0168
 7858SOL    HW135207   3.355   3.838   4.670 -0.8908  0.9688  1.6235
 7858SOL    HW235208   3.309   3.985   4.656  0.6201  0.4556  1.8693
 7859SOL     OW35209   0.337   2.274   6.506 -0.1431 -0.9736 -0.5877
 7859SOL    HW135210   0.283   2.196   6.517 -1.6749  0.3256  1.1896
 7859SOL    HW235211   0.411   2.243   6.454  1.2745 -1.3979  1.6729
 7860SOL     OW35212   0.889   2.172   3.673 -0.3263 -0.1667 -0.4521
 7860SOL    HW135213   0.859   2.122   3.749  1.7969 -0.5341  0.1681
 7860SOL    HW235214   0.809   2.216   3.645 -0.6490  0.1858  1.0212
 7861SOL     OW35215   1.040   1.395  17.383  0.1214 -0.1059 -0.1525
 7861SOL    HW135216   1.055   1.431  17.295 -3.5824 -1.7222 -1.4411
 7861SOL    HW235217   1.109   1.438  17.434 -0.0727 -0.4288  0.3758
 7862SOL     OW35218   3.961   0.028   7.367  0.6196 -1.0434  0.5131
 7862SOL    HW135219   3.910   0.049   7.289  0.4603 -0.8439  0.6713
 7862SOL    HW235220   3.960   4.670   7.354 -1.4697 -1.1995  1.6663
 7863SOL     OW35221   1.945   3.315   8.114 -0.2650  0.0298  0.2821
 7863SOL    HW135222   1.970   3.341   8.203  1.5495 -0.6805 -0.0048
 7863SOL    HW235223   1.997   3.384   8.073 -2.2955  1.8664  0.8305
 7864SOL     OW35224   0.498   2.059   4.250 -0.1507 -0.2804  0.7933
 7864SOL    HW135225   0.465   1.978   4.289  0.0303 -1.0948 -0.7461
 7864SOL    HW235226   0.418   2.111   4.247  1.2295  1.8313  0.3120
 7865SOL     OW35227   3.039   2.555   1.459 -0.1536 -0.3309  0.0580
 7865SOL    HW135228   3.043   2.589   1.370 -1.8264 -0.8085 -0.2055
 7865SOL    HW235229   3.091   2.621   1.505  2.6450 -1.3244 -1.6936
 7866SOL     OW35230   2.938   2.754   6.491 -0.3320  0.1021 -0.4590
 7866SOL    HW135231   2.847   2.732   6.511  0.3974 -1.7045  0.8615
 7866SOL    HW235232   2.939   2.849   6.476  0.2398  0.1004 -0.3952
 7867SOL     OW35233   0.379   1.053   1.022 -0.0961 -0.1366  0.4153
 7867SOL    HW135234   0.353   1.137   0.985  3.1131  0.4752 -0.4571
 7867SOL    HW235235   0.458   1.087   1.065 -0.7520  1.0535  0.6802
 7868SOL     OW35236   3.768   3.621  10.806 -0.4598 -0.5222 -1.0708
 7868SOL    HW135237   3.721   3.551  10.851  1.7795  0.1547  2.3333
 7868SOL    HW235238   3.828   3.651  10.875 -0.1522  0.3018 -1.6922
 7869SOL     OW35239   0.321   1.789   5.434  0.1119 -0.8026 -0.4815
 7869SOL    HW135240   0.381   1.762   5.364  0.7763  1.0628 -0.6287
 7869SOL    HW235241   0.236   1.778   5.392  0.2157 -0.0923 -0.8732
 7870SOL     OW35242   3.298   1.821   2.428  0.2159  0.1291 -0.5755
 7870SOL    HW135243   3.326   1.731   2.441  1.7352  0.4933 -1.2351
 7870SOL    HW235244   3.261   1.844   2.513  0.5888 -0.6188 -0.2104
 7871SOL     OW35245   3.026   2.394   3.656 -0.1825 -0.3914  1.2058
 7871SOL    HW135246   3.010   2.320   3.714  0.1461 -0.1472  1.6121
 7871SOL    HW235247   2.979   2.373   3.576  1.6171 -0.3719  0.1335
 7872SOL     OW35248   1.661   4.433   5.397 -0.1114 -0.0639  0.0347
 7872SOL    HW135249   1.637   4.387   5.477  0.3274 -0.0697  0.1620
 7872SOL    HW235250   1.591   4.498   5.387  0.6708  0.8316  0.3245
 7873SOL     OW35251   4.235   2.943  12.912  0.4041  0.0640 -0.0267
 7873SOL    HW135252   4.184   2.901  12.842 -1.2062  3.1461 -0.7334
 7873SOL    HW235253   4.286   3.002  12.856  0.2417  0.2429  0.0131
 7874SOL     OW35254   1.119   0.553   3.348  0.6523 -0.1211  0.2870
 7874SOL    HW135255   1.213   0.559   3.364  0.9376 -0.2536 -1.3049
 7874SOL    HW235256   1.102   0.646   3.338  1.6974  0.0929  0.4750
 7875SOL     OW35257   0.461   0.241   7.848 -0.2293 -0.4675  0.6973
 7875SOL    HW135258   0.443   0.228   7.941  0.9157 -0.4799  0.9169
 7875SOL    HW235259   0.384   0.221   7.795  0.3744  0.0905 -0.3896
 7876SOL     OW35260   1.129   2.033  11.574 -0.1154  0.0456  1.2282
 7876SOL    HW135261   1.191   1.961  11.570 -2.1097 -1.6145  0.6127
 7876SOL    HW235262   1.041   1.995  11.575 -0.9623  1.8751 -3.1993
 7877SOL     OW35263   2.198   2.858   2.186 -0.1530  0.0721 -0.2632
 7877SOL    HW135264   2.133   2.877   2.253  0.1079 -2.5631  0.7555
 7877SOL    HW235265   2.258   2.837   2.258  2.7189  0.5118 -2.5107
 7878SOL     OW35266   2.897   3.493  14.338  0.1577 -0.2022 -0.4521
 7878SOL    HW135267   2.993   3.491  14.343  0.0675 -1.8690  0.7809
 7878SOL    HW235268   2.877   3.524  14.250  0.9550 -1.0501 -0.9305
 7879SOL     OW35269   1.215   2.990  12.668  0.0476 -0.3197  0.1232
 7879SOL    HW135270   1.225   3.062  12.731  0.7759  0.0214 -0.3786
 7879SOL    HW235271   1.285   3.010  12.606 -0.3541 -3.6237 -1.3724
 7880SOL     OW35272   3.054   3.927   5.151  0.5427 -0.2044 -0.1208
 7880SOL    HW135273   3.125   3.863   5.143  1.6752  1.0967 -0.3592
 7880SOL    HW235274   3.042   3.936   5.245  0.5557  1.6941 -0.3013
 7881SOL     OW35275   2.853   4.488   2.491 -0.3681 -0.5316  0.5504
 7881SOL    HW135276   2.947   4.490   2.507 -0.5829  1.0606  1.6665
 7881SOL    HW235277   2.823   4.431   2.563 -1.1843 -0.1193  0.5427
 7882SOL     OW35278   4.724   0.192   5.819 -0.2893 -0.1922  0.0716
 7882SOL    HW135279   4.705   0.141   5.898  1.0316  0.5276  0.8639
 7882SOL    HW235280   4.676   0.143   5.753  1.9620 -0.1993 -1.5596
 7883SOL     OW35281   1.379   2.184   1.903  0.1839  0.1526  0.9936
 7883SOL    HW135282   1.409   2.274   1.891 -1.7536  0.5101 -1.1211
 7883SOL    HW235283   1.383   2.146   1.815  1.3140  2.0807  0.2217
 7884SOL     OW35284   2.826   3.491   5.927  0.1576 -0.3011 -0.3841
 7884SOL    HW135285   2.848   3.512   6.017  2.0899 -0.6949 -0.7618
 7884SOL    HW235286   2.795   3.401   5.936 -1.4622  0.2086 -0.8283
 7885SOL     OW35287   3.192   2.667  14.857  0.7137 -0.2009  0.0156
 7885SOL    HW135288   3.114   2.618  14.884 -0.2235  1.6328  0.6372
 7885SOL    HW235289   3.241   2.607  14.801  2.8251  1.4623  0.0633
 7886SOL     OW35290   2.773   2.540  10.416  0.1930  0.0163  0.0285
 7886SOL    HW135291   2.720   2.474  10.461  2.8333 -0.1592  2.8960
 7886SOL    HW235292   2.776   2.512  10.325  2.4825 -0.1224  0.1426
 7887SOL     OW35293   3.161   2.609   0.478 -0.0255 -0.2942 -0.3268
 7887SOL    HW135294   3.174   2.701   0.453  0.6563  0.0378  1.2132
 7887SOL    HW235295   3.102   2.623   0.553 -0.0419  1.9775 -0.7651
 7888SOL     OW35296   0.124   1.426   9.873 -0.0354  0.0771 -0.4709
 7888SOL    HW135297   0.090   1.371   9.802 -2.0611 -0.2767  0.7793
 7888SOL    HW235298   0.219   1.425   9.861 -0.1655 -0.6077 -1.4915
 7889SOL     OW35299   2.192   0.645   7.152 -0.4843  0.4945  0.2375
 7889SOL    HW135300   2.103   0.656   7.188 -1.4625 -0.0981 -2.0138
 7889SOL    HW235301   2.193   0.559   7.110  2.2952 -0.1755  1.7207
 7890SOL     OW35302   0.487   0.580   6.366  0.1830  0.5807 -1.0078
 7890SOL    HW135303   0.522   0.573   6.277  1.3732  1.6404 -0.6236
 7890SOL    HW235304   0.401   0.545   6.343  1.0125 -0.0570 -3.1287
 7891SOL     OW35305   0.735   0.610   0.029  0.2983 -0.3123  0.7103
 7891SOL    HW135306   0.724   0.701   0.002  1.2414 -1.0239 -2.0245
 7891SOL    HW235307   0.806   0.630   0.090  0.9459  4.5778 -1.6469
 7892SOL     OW35308   2.209   2.917   2.741  0.7099 -0.2462 -0.2482
 7892SOL    HW135309   2.252   3.002   2.738 -2.3824  1.3014 -0.9983
 7892SOL    HW235310   2.254   2.879   2.816  0.4272  2.2044  1.1814
 7893SOL     OW35311   3.680   2.147   0.819  0.3316 -0.0071 -0.1111
 7893SOL    HW135312   3.768   2.163   0.784  0.8882  1.7104  2.0589
 7893SOL    HW235313   3.672   2.225   0.874 -0.0834 -1.3866  1.7939
 7894SOL     OW35314   4.631   3.364   9.370  0.5560  0.0631 -0.0662
 7894SOL    HW135315   4.682   3.310   9.310  1.8899  2.7889 -1.3893
 7894SOL    HW235316   4.681   3.445   9.358 -0.7632  1.0394  1.1683
 7895SOL     OW35317   4.288   3.408   4.635 -0.2263 -0.2543 -0.4350
 7895SOL    HW135318   4.240   3.346   4.580  1.0236  0.2617 -2.1066
 7895SOL    HW235319   4.268   3.375   4.722 -1.5629  0.7399 -0.3802
 7896SOL     OW35320   1.270   0.259  15.376  0.2089  0.0225 -0.3851
 7896SOL    HW135321   1.209   0.319  15.420 -1.2932  0.0764 -2.5465
 7896SOL    HW235322   1.347   0.279  15.428 -0.9339  0.7304  1.0505
 7897SOL     OW35323   2.942   3.574   6.783  0.4255  0.5451 -0.5072
 7897SOL    HW135324   2.947   3.496   6.727 -0.7658 -1.1517  1.7765
 7897SOL    HW235325   2.865   3.627   6.762 -0.0181 -0.1049 -0.5462
 7898SOL     OW35326   0.827   0.776   3.148 -0.1916 -0.5825  0.1159
 7898SOL    HW135327   0.802   0.683   3.141  1.7136 -1.1111  0.2426
 7898SOL    HW235328   0.891   0.787   3.077  2.9770 -2.4905  2.6843
 7899SOL     OW35329   2.568   3.910   7.158  0.3600  0.6731 -0.5040
 7899SOL    HW135330   2.616   3.992   7.171  0.2984  0.3214  1.9095
 7899SOL    HW235331   2.551   3.915   7.064  0.4634 -1.2190 -0.6183
 7900SOL     OW35332   3.230   3.973   8.375 -0.1642 -0.4149 -0.0366
 7900SOL    HW135333   3.181   3.988   8.294  0.1641  1.7667  0.1534
 7900SOL    HW235334   3.175   4.019   8.439  0.0906  0.7332 -0.6341
 7901SOL     OW35335   2.061   3.414   6.444  0.0522  0.3610  0.1676
 7901SOL    HW135336   2.090   3.343   6.502 -0.2570  0.5994  0.6104
 7901SOL    HW235337   2.144   3.439   6.403 -1.8787  2.2977 -2.5066
 7902SOL     OW35338   4.082   0.878   9.415 -0.1120  0.4341  0.5623
 7902SOL    HW135339   4.044   0.947   9.469  0.3442  0.7659  0.4581
 7902SOL    HW235340   4.000   0.833   9.396  1.1382 -1.5649 -0.1323
 7903SOL     OW35341   3.119   2.610   7.825 -0.3183  0.2022 -0.8105
 7903SOL    HW135342   3.195   2.664   7.805 -0.9762  1.4190 -0.0919
 7903SOL    HW235343   3.058   2.659   7.770 -0.4730  0.1614 -0.6774
 7904SOL     OW35344   2.452   1.469   4.258  0.1220  0.3427  0.6837
 7904SOL    HW135345   2.497   1.551   4.239 -0.2025  0.2639 -0.4305
 7904SOL    HW235346   2.478   1.403   4.193 -0.1294 -0.6318  1.5696
 7905SOL     OW35347   0.365   4.346   2.220  0.3049  0.3038  0.6794
 7905SOL    HW135348   0.408   4.414   2.169  1.5291 -0.4522  0.7105
 7905SOL    HW235349   0.440   4.287   2.227  0.2346  0.1434  0.1150
 7906SOL     OW35350   3.195   0.336   3.507  0.1030  0.2042  0.3258
 7906SOL    HW135351   3.200   0.317   3.413  0.5929  1.1796  0.1654
 7906SOL    HW235352   3.258   0.275   3.545 -0.6387 -0.9861 -0.3167
 7907SOL     OW35353   4.712   3.413   6.678  0.6090 -0.4199 -0.7568
 7907SOL    HW135354   4.721   3.499   6.635 -0.3523  1.1432  2.1532
 7907SOL    HW235355   4.669   3.353   6.618  3.5270 -2.0271 -1.2174
 7908SOL     OW35356   2.929   3.709   4.344  0.4587  0.1835  0.1065
 7908SOL    HW135357   2.957   3.720   4.435 -0.3971  0.2649  0.3563
 7908SOL    HW235358   2.994   3.665   4.289  2.2988  3.0588 -0.0004
 7909SOL     OW35359   0.317   1.081  15.617  0.0735  0.2939 -0.1726
 7909SOL    HW135360   0.402   1.107  15.582 -0.1252 -0.6430 -1.3251
 7909SOL    HW235361   0.313   1.142  15.691  0.9670  0.2595 -0.0874
 7910SOL     OW35362   2.301   0.562   3.348 -0.3919  0.2850  0.4584
 7910SOL    HW135363   2.291   0.596   3.259 -0.2276 -1.1694 -0.1124
 7910SOL    HW235364   2.297   0.646   3.394 -3.6758  0.2806  0.1637
 7911SOL     OW35365   0.325   2.722   8.298  0.3224  0.8360  0.2874
 7911SOL    HW135366   0.259   2.759   8.239 -0.6759  1.4623  1.8039
 7911SOL    HW235367   0.295   2.631   8.300  2.2870  0.1887  0.4720
 7912SOL     OW35368   1.057   4.723   0.897  0.0861  0.1983  0.7868
 7912SOL    HW135369   1.099   4.661   0.957  1.2945 -0.1192 -0.3934
 7912SOL    HW235370   1.002   0.045   0.948  1.2901 -0.1958  2.5567
 7913SOL     OW35371   0.821   0.124   5.576  0.5991 -0.2123  0.4916
 7913SOL    HW135372   0.820   0.151   5.668  1.2636  0.3928  0.3271
 7913SOL    HW235373   0.836   0.029   5.581  1.0979 -0.1305  0.5947
 7914SOL     OW35374   4.465   0.769   5.347 -0.0177  0.0612  0.3658
 7914SOL    HW135375   4.521   0.745   5.421  0.8727 -0.3993 -0.4596
 7914SOL    HW235376   4.491   0.732   5.263 -1.1546  0.4711 -0.1758
 7915SOL     OW35377   4.294   1.304  10.508 -0.5048 -0.1949 -0.2659
 7915SOL    HW135378   4.358   1.255  10.559  1.3313  1.0824 -1.3515
 7915SOL    HW235379   4.257   1.357  10.579 -0.3910  0.4943 -0.7194
 7916SOL     OW35380   3.871   1.894  14.616  0.2328  0.1040 -0.7789
 7916SOL    HW135381   3.937   1.921  14.553 -1.2997  1.7593 -1.6919
 7916SOL    HW235382   3.932   1.877  14.688 -0.1916  2.7048  0.1880
 7917SOL     OW35383   1.611   0.716  11.687 -0.5075 -0.1333  0.2374
 7917SOL    HW135384   1.540   0.737  11.748 -0.6413 -1.0746  0.4090
 7917SOL    HW235385   1.681   0.773  11.718 -0.8185 -0.2803  1.2063
 7918SOL     OW35386   3.675   4.428   6.199  0.2824  0.2461 -0.3265
 7918SOL    HW135387   3.668   4.498   6.134 -1.2347  0.5588  0.1733
 7918SOL    HW235388   3.747   4.463   6.252 -0.5876  0.5012  0.6879
 7919SOL     OW35389   3.499   4.223   8.334 -0.2600  0.1500  0.2245
 7919SOL    HW135390   3.483   4.216   8.240  0.4685 -0.3683  0.1395
 7919SOL    HW235391   3.502   4.129   8.352  0.4213  0.2432  0.5857
 7920SOL     OW35392   4.631   3.059  16.962  0.1994 -0.0322  0.4147
 7920SOL    HW135393   4.548   3.054  16.915 -0.2272  0.4861  1.1061
 7920SOL    HW235394   4.684   3.105  16.897  2.5153 -0.1724  2.2166
 7921SOL     OW35395   4.009   0.964  15.976  0.3782  0.2181  0.0898
 7921SOL    HW135396   4.066   1.036  16.003 -1.6878  1.9847 -0.3786
 7921SOL    HW235397   3.951   1.018  15.923  0.9175 -0.7924 -1.5521
 7922SOL     OW35398   1.701   4.019  11.562 -0.7804  0.9511 -0.0481
 7922SOL    HW135399   1.785   4.027  11.607 -0.6697 -2.2212  0.2675
 7922SOL    HW235400   1.683   3.927  11.579 -2.5941  1.5436  1.1931
 7923SOL     OW35401   1.707   3.589   0.964 -0.5427 -0.2333  0.4373
 7923SOL    HW135402   1.719   3.669   1.015 -2.7847 -0.6238  1.5226
 7923SOL    HW235403   1.612   3.576   0.962 -0.1815 -2.9291  0.2694
 7924SOL     OW35404   0.186   2.629   2.568  0.1888 -0.5090 -0.9779
 7924SOL    HW135405   0.223   2.577   2.639 -1.8362 -0.6751 -0.0221
 7924SOL    HW235406   0.257   2.634   2.505  1.1604  0.7633  0.1991
 7925SOL     OW35407   1.026   4.019  14.734  0.0014  0.0048  0.6484
 7925SOL    HW135408   1.093   4.028  14.802 -0.7949  0.2741  1.3931
 7925SOL    HW235409   1.073   4.025  14.651 -0.4198 -0.4840  0.3687
 7926SOL     OW35410   2.395   3.612   2.164  0.4232  0.8183  0.0983
 7926SOL    HW135411   2.473   3.560   2.180  1.8000  2.8363 -0.1384
 7926SOL    HW235412   2.327   3.579   2.223  0.6940  0.2154  0.0728
 7927SOL     OW35413   3.857   2.834   2.951  0.2634 -0.3464 -0.0388
 7927SOL    HW135414   3.951   2.849   2.941  0.0780  1.9879  1.7602
 7927SOL    HW235415   3.842   2.900   3.019  0.6085 -0.5169  0.2041
 7928SOL     OW35416   2.193   1.899   2.362  0.0272  0.3696 -0.0469
 7928SOL    HW135417   2.101   1.908   2.341  0.7782  1.8438 -2.6674
 7928SOL    HW235418   2.229   1.950   2.290  0.0637 -0.8887 -0.9294
 7929SOL     OW35419   1.693   0.083  16.118  0.4181 -0.0461  0.2406
 7929SOL    HW135420   1.624   0.088  16.051  1.0418 -1.4124 -0.4918
 7929SOL    HW235421   1.643   0.037  16.185  4.1178 -0.5919  2.6150
 7930SOL     OW35422   4.030   3.806   0.396 -0.1898 -0.0710  0.1050
 7930SOL    HW135423   3.981   3.725   0.382  0.2651 -0.1960 -0.7864
 7930SOL    HW235424   3.956   3.866   0.408  1.0107  1.5816 -0.6888
 7931SOL     OW35425   2.589   3.643  15.925  0.9587  0.7128 -0.0744
 7931SOL    HW135426   2.523   3.582  15.893 -0.3846  2.2905 -0.3472
 7931SOL    HW235427   2.568   3.719  15.870 -0.1519  0.6046  0.2117
 7932SOL     OW35428   1.649   3.904   2.269  0.4463 -0.0835 -0.6624
 7932SOL    HW135429   1.670   3.824   2.221 -0.9698 -0.5751 -0.4561
 7932SOL    HW235430   1.707   3.895   2.345 -2.0514 -1.2288  1.1211
 7933SOL     OW35431   0.179   3.070   4.714 -0.0150  0.2364  0.4207
 7933SOL    HW135432   0.105   3.026   4.672  2.8040 -1.6500 -2.5466
 7933SOL    HW235433   0.245   3.001   4.721 -1.8270 -1.5362 -0.2249
 7934SOL     OW35434   4.256   0.443   6.890  0.6743  0.2405  0.0341
 7934SOL    HW135435   4.300   0.505   6.949  0.3929  0.3285  0.1526
 7934SOL    HW235436   4.317   0.370   6.881  0.4630  0.1508 -0.6412
 7935SOL     OW35437   2.705   3.234   5.871  0.3467 -0.0870 -0.2135
 7935SOL    HW135438   2.790   3.192   5.863  1.2994  1.7858  0.1397
 7935SOL    HW235439   2.668   3.195   5.792 -2.0148  0.2162  0.7167
 7936SOL     OW35440   2.632   2.398  10.607 -0.3967 -0.1167 -0.3219
 7936SOL    HW135441   2.668   2.328  10.552 -0.4000 -0.0749 -0.3771
 7936SOL    HW235442   2.689   2.393  10.684 -1.3948  0.0605  0.4180
 7937SOL     OW35443   0.923   3.804   0.342 -0.1323 -0.6738  0.1129
 7937SOL    HW135444   0.885   3.888   0.368 -0.6545 -0.8195 -0.1731
 7937SOL    HW235445   1.008   3.803   0.386  0.2758  3.7716 -0.6167
 7938SOL     OW35446   2.698   1.615   5.230  0.3832 -0.2587  0.3658
 7938SOL    HW135447   2.740   1.529   5.239  0.6189  0.0898  2.5557
 7938SOL    HW235448   2.614   1.600   5.274  0.8923  0.2589  1.5184
 7939SOL     OW35449   1.877   2.752  11.520  0.3776  0.0499  0.3636
 7939SOL    HW135450   1.872   2.801  11.438  1.1798  0.6283  0.6641
 7939SOL    HW235451   1.931   2.812  11.571  0.9344 -1.1461  1.1883
 7940SOL     OW35452   0.544   4.545   5.518 -0.4418  0.0724 -0.7228
 7940SOL    HW135453   0.630   4.535   5.559 -0.5476 -0.3216 -0.5901
 7940SOL    HW235454   0.545   4.640   5.524 -0.5311  0.0744 -0.7372
 7941SOL     OW35455   2.941   2.355   3.100 -0.1744 -0.3053 -0.2712
 7941SOL    HW135456   2.867   2.353   3.160 -1.1392 -0.4986 -1.4576
 7941SOL    HW235457   2.942   2.263   3.074  4.2400 -0.6880  1.1507
 7942SOL     OW35458   4.700   2.520   5.982 -0.3571  0.0497 -0.3205
 7942SOL    HW135459   0.049   2.518   5.940  0.5777  2.1199  1.5242
 7942SOL    HW235460   4.727   2.550   6.069  0.3689  1.0219 -0.8782
 7943SOL     OW35461   2.018   3.529  12.258  0.5608  0.1254  0.0123
 7943SOL    HW135462   2.063   3.601  12.215 -0.6402  0.9942  0.2253
 7943SOL    HW235463   1.954   3.516  12.188 -1.1790  3.2217  1.0153
 7944SOL     OW35464   2.020   3.602  11.825 -0.1495  0.0265  0.2563
 7944SOL    HW135465   2.043   3.542  11.896 -1.7171 -0.1531  0.6124
 7944SOL    HW235466   2.079   3.582  11.752  0.0333  1.6950 -0.0548
 7945SOL     OW35467   3.536   1.788  11.672  0.0232 -0.2282 -0.0947
 7945SOL    HW135468   3.549   1.725  11.602 -0.7848 -0.8309  0.2917
 7945SOL    HW235469   3.509   1.721  11.735  2.7475 -2.1616 -1.0328
 7946SOL     OW35470   4.111   2.722   4.743 -0.0142 -0.0462 -0.3244
 7946SOL    HW135471   4.020   2.749   4.736  0.4881  1.9923  0.8623
 7946SOL    HW235472   4.106   2.629   4.722  0.6051 -0.1837  0.1222
 7947SOL     OW35473   4.658   3.740   6.185 -0.3998 -0.9936  0.5158
 7947SOL    HW135474   4.603   3.695   6.122  0.9446  1.3876 -2.3406
 7947SOL    HW235475   4.663   3.675   6.255 -2.7777 -0.2547  1.3464
 7948SOL     OW35476   3.938   4.545   9.625 -0.3224  0.1305  0.0456
 7948SOL    HW135477   4.008   4.495   9.583 -0.2910  1.6362 -1.6994
 7948SOL    HW235478   3.878   4.553   9.551 -0.2787  1.6990  0.1797
 7949SOL     OW35479   2.239   3.970   6.948 -0.1390  0.0891  0.0942
 7949SOL    HW135480   2.204   4.054   6.918  1.2316  0.2841 -0.9836
 7949SOL    HW235481   2.246   3.984   7.042 -0.2695 -0.3240  0.1664
 7950SOL     OW35482   0.830   3.942   4.289  0.2851  0.3650  0.2506
 7950SOL    HW135483   0.921   3.941   4.321  0.0627 -2.1357  0.7896
 7950SOL    HW235484   0.784   3.901   4.362 -1.7813 -0.0425 -1.2991
 7951SOL     OW35485   1.088   0.156   0.459 -0.3775 -0.2490  0.5515
 7951SOL    HW135486   1.156   0.126   0.398 -0.1422  0.8068  0.2896
 7951SOL    HW235487   1.011   0.152   0.402  2.1284 -0.6457 -2.8214
 7952SOL     OW35488   0.174   1.269  17.671  0.1236 -0.3900  0.0433
 7952SOL    HW135489   0.128   1.236  17.594 -2.5740  0.8572  1.1097
 7952SOL    HW235490   0.244   1.323  17.633 -1.0791  2.0691  1.3038
 7953SOL     OW35491   3.269   0.384   2.661  0.5552 -0.5017  0.0387
 7953SOL    HW135492   3.281   0.371   2.567  0.2682 -1.8279  0.1802
 7953SOL    HW235493   3.357   0.390   2.697  0.7485  0.3302 -0.6034
 7954SOL     OW35494   0.771   2.772   6.184 -0.7109 -0.2643  0.0718
 7954SOL    HW135495   0.688   2.812   6.158  0.3514  1.7481 -0.2241
 7954SOL    HW235496   0.812   2.844   6.231 -0.5016  0.5126 -1.3211
 7955SOL     OW35497   3.361   0.866  16.778  0.2568  0.2600 -0.2816
 7955SOL    HW135498   3.440   0.881  16.830  0.6678 -1.4183 -0.4121
 7955SOL    HW235499   3.399   0.843  16.693 -2.3614  1.4525 -1.7868
 7956SOL     OW35500   0.078   2.245   4.218  0.3222 -0.5474 -0.5780
 7956SOL    HW135501   0.098   2.154   4.196  1.6352 -0.7681  1.5972
 7956SOL    HW235502   0.144   2.258   4.286 -1.1303  3.2561  0.0703
 7957SOL     OW35503   0.657   4.332  12.388 -0.0813 -0.3694  0.1115
 7957SOL    HW135504   0.647   4.427  12.378 -0.0779 -0.4931 -1.0895
 7957SOL    HW235505   0.750   4.324  12.409  0.4296 -2.1747 -2.9291
 7958SOL     OW35506   3.082   2.907   1.181  0.0578 -0.7220 -0.2112
 7958SOL    HW135507   3.148   2.920   1.248  0.9122 -0.6171 -1.0720
 7958SOL    HW235508   3.081   2.812   1.178 -1.1793 -0.6983 -0.4192
 7959SOL     OW35509   3.588   1.433   1.037 -0.5774  0.3986  0.2904
 7959SOL    HW135510   3.614   1.342   1.051  1.0568  0.6018 -1.3558
 7959SOL    HW235511   3.596   1.470   1.124  1.1865  0.7874 -0.0290
 7960SOL     OW35512   3.097   0.054   5.319  0.5554  0.0282  0.1766
 7960SOL    HW135513   3.055   4.713   5.357 -2.1255 -0.0937 -3.0625
 7960SOL    HW235514   3.032   0.075   5.252 -0.7205  1.8104  1.9709
 7961SOL     OW35515   3.935   2.029   9.497  0.0205 -0.4659  0.0197
 7961SOL    HW135516   3.896   2.116   9.504 -2.0949 -1.2825 -1.6075
 7961SOL    HW235517   3.963   2.028   9.405 -2.5438  1.3596 -0.7641
 7962SOL     OW35518   1.702   3.535   8.335  0.6351 -0.2862  0.3204
 7962SOL    HW135519   1.715   3.482   8.414 -2.8400 -1.3130  0.2193
 7962SOL    HW235520   1.631   3.486   8.293 -1.3085  1.5264  1.4977
 7963SOL     OW35521   0.740   4.600  15.539 -0.6046 -0.4987  0.3867
 7963SOL    HW135522   0.724   4.543  15.464  1.7977 -1.5956  0.7017
 7963SOL    HW235523   0.673   4.578  15.604 -0.3587 -1.2412  0.3858
 7964SOL     OW35524   4.057   1.749   2.965  0.7970 -0.2625 -0.3510
 7964SOL    HW135525   4.109   1.813   3.014 -0.6356  1.3647 -0.9285
 7964SOL    HW235526   4.106   1.675   3.000 -0.0734 -0.5244  0.3193
 7965SOL     OW35527   1.075   3.718   2.088  0.0613  0.2010  0.0745
 7965SOL    HW135528   1.071   3.748   2.179  0.7794  0.1472  0.1211
 7965SOL    HW235529   0.981   3.703   2.080  0.1532 -0.7698  0.7582
 7966SOL     OW35530   0.956   3.345  15.652 -0.0877  0.7540  0.4800
 7966SOL    HW135531   0.939   3.435  15.677  1.6302  0.7217  1.7099
 7966SOL    HW235532   0.877   3.332  15.599  0.6341 -1.2798 -0.1199
 7967SOL     OW35533   2.346   3.125   3.583  0.2105 -0.5997 -0.3776
 7967SOL    HW135534   2.419   3.154   3.637  0.0320  0.4986 -0.7295
 7967SOL    HW235535   2.327   3.197   3.523  2.6479  0.7419  0.4957
 7968SOL     OW35536   1.300   1.542   2.762  0.4357 -0.0120  0.1700
 7968SOL    HW135537   1.300   1.582   2.675 -1.2280 -0.2404  0.0535
 7968SOL    HW235538   1.388   1.555   2.797  1.1873  0.2558 -1.8206
 7969SOL     OW35539   1.898   2.858   3.936 -0.2084  0.2228  0.0081
 7969SOL    HW135540   1.821   2.914   3.927 -0.8806 -0.5835  0.7441
 7969SOL    HW235541   1.859   2.771   3.938 -0.2842  0.2589  0.0544
 7970SOL     OW35542   3.057   1.756   4.683  0.0283  0.2187  0.6627
 7970SOL    HW135543   3.145   1.757   4.721  0.4101  1.0736 -0.2592
 7970SOL    HW235544   3.078   1.831   4.628  0.6507  0.0357  0.6509
 7971SOL     OW35545   4.079   2.698   2.495 -0.1107  0.0808  0.4255
 7971SOL    HW135546   4.165   2.670   2.525  1.4800  3.1554 -1.3666
 7971SOL    HW235547   4.023   2.620   2.485 -0.3507  0.2010  0.8467
 7972SOL     OW35548   3.837   0.740   9.383 -0.2225  0.1417  0.8619
 7972SOL    HW135549   3.816   0.789   9.462  1.3782  0.6293  0.9918
 7972SOL    HW235550   3.776   0.666   9.393  1.6880 -1.5753 -0.1158
 7973SOL     OW35551   2.685   2.512  15.260  0.1311  0.3526  0.1689
 7973SOL    HW135552   2.736   2.488  15.184 -1.1901  0.0613 -0.6254
 7973SOL    HW235553   2.674   2.604  15.238 -1.2163 -0.0291 -0.7479
 7974SOL     OW35554   3.730   1.710   3.510 -0.0531 -0.0225  0.0204
 7974SOL    HW135555   3.720   1.621   3.545  2.4712  0.6050  2.3212
 7974SOL    HW235556   3.643   1.749   3.521 -1.1673 -1.6643 -3.2161
 7975SOL     OW35557   4.512   2.755   2.311 -0.3160  0.3106  0.0325
 7975SOL    HW135558   4.479   2.774   2.399  0.8412 -0.9173  0.7334
 7975SOL    HW235559   4.570   2.831   2.308  0.8775 -0.6096 -0.6103
 7976SOL     OW35560   2.614   4.290   3.236  0.0570  0.1563  0.1578
 7976SOL    HW135561   2.600   4.214   3.293 -0.6900 -1.2516 -1.9370
 7976SOL    HW235562   2.626   4.365   3.295  1.3520  0.3661 -0.3530
 7977SOL     OW35563   1.451   0.525   6.356 -0.2981  0.2980 -0.2383
 7977SOL    HW135564   1.535   0.571   6.359  0.8196 -1.7772  0.6928
 7977SOL    HW235565   1.396   0.564   6.288 -1.9919 -0.3756  0.7258
 7978SOL     OW35566   3.036   1.333   5.394 -0.0757  0.0552  0.2214
 7978SOL    HW135567   3.085   1.252   5.380  0.6900  0.5103  0.2667
 7978SOL    HW235568   3.057   1.339   5.487 -0.1924 -3.2417  0.4745
 7979SOL     OW35569   4.215   4.529   9.290 -0.0631 -0.1937 -0.3634
 7979SOL    HW135570   4.188   4.579   9.213  0.5900 -0.8680 -1.0339
 7979SOL    HW235571   4.276   4.592   9.327 -1.5350  1.5441 -0.9326
 7980SOL     OW35572   1.947   0.373  12.819  0.1358  0.2545 -0.2935
 7980SOL    HW135573   2.040   0.358  12.801  0.2219 -0.3450  0.6659
 7980SOL    HW235574   1.932   0.452  12.767 -0.2581  0.0765 -0.4522
 7981SOL     OW35575   3.343   0.469   1.530 -0.9263  0.2838 -0.2752
 7981SOL    HW135576   3.306   0.461   1.442  1.3979  0.2093 -1.2479
 7981SOL    HW235577   3.265   0.489   1.581  0.5256  2.5395  1.0667
 7982SOL     OW35578   2.898   3.918   1.018  0.1491 -0.0388  0.1195
 7982SOL    HW135579   2.847   3.862   1.075 -0.1115  0.0144 -0.0618
 7982SOL    HW235580   2.938   3.859   0.953 -0.5286 -0.6217  0.2438
 7983SOL     OW35581   0.028   0.380  12.795  0.2988  0.6351  0.5695
 7983SOL    HW135582   4.700   0.433  12.750  1.7531 -1.0155 -3.4529
 7983SOL    HW235583   0.042   0.305  12.737  0.9152  1.9880 -1.0293
 7984SOL     OW35584   1.858   1.106  12.399  0.3247  0.4045  0.5139
 7984SOL    HW135585   1.834   1.185  12.350 -0.6949 -1.0102 -1.2887
 7984SOL    HW235586   1.947   1.094  12.365  0.6571 -0.3742  1.6548
 7985SOL     OW35587   0.840   4.705   5.925 -0.4460 -0.0710 -0.3750
 7985SOL    HW135588   0.923   4.729   5.966 -0.7175 -0.2020  0.2437
 7985SOL    HW235589   0.860   4.632   5.866 -0.7510  1.2301 -2.1006
 7986SOL     OW35590   0.693   2.529   5.501 -0.8813 -0.1437 -0.5826
 7986SOL    HW135591   0.716   2.554   5.411  1.1237  0.7943  0.1990
 7986SOL    HW235592   0.709   2.434   5.504  0.7033  0.2116  2.3589
 7987SOL     OW35593   1.222   1.481   5.149  0.5250 -0.4990 -0.6660
 7987SOL    HW135594   1.190   1.450   5.064  1.2560 -1.8491 -0.4410
 7987SOL    HW235595   1.199   1.409   5.209  1.5848 -0.2743  0.0064
 7988SOL     OW35596   3.493   2.347  12.211 -0.4293  0.4852  0.5230
 7988SOL    HW135597   3.569   2.289  12.215 -0.8396 -0.2485 -1.9867
 7988SOL    HW235598   3.504   2.395  12.129  2.9149 -2.1126 -0.5292
 7989SOL     OW35599   3.116   4.585   8.619 -0.8158 -0.3747 -0.1942
 7989SOL    HW135600   3.026   4.580   8.649 -0.7018 -1.7665 -0.0744
 7989SOL    HW235601   3.153   4.655   8.673 -0.7402  0.6230 -1.5344
 7990SOL     OW35602   3.824   1.559  10.774  0.1262  0.3792 -0.3879
 7990SOL    HW135603   3.860   1.637  10.815  0.5648 -0.5133  0.9207
 7990SOL    HW235604   3.742   1.558  10.824  0.7365 -1.0632  0.5943
 7991SOL     OW35605   1.126   4.510   2.638  0.1820 -0.0100  0.1615
 7991SOL    HW135606   1.054   4.449   2.622 -0.1602  0.6323 -0.7835
 7991SOL    HW235607   1.088   4.598   2.642  0.1460 -0.0312  0.2837
 7992SOL     OW35608   1.967   4.309   1.144  0.7243 -0.1912 -0.2796
 7992SOL    HW135609   2.056   4.331   1.118  0.9358 -0.0051  0.5911
 7992SOL    HW235610   1.921   4.388   1.118 -0.7144 -0.7831  0.4639
 7993SOL     OW35611   4.500   0.572   4.583 -0.4618  0.6434 -0.2318
 7993SOL    HW135612   4.518   0.637   4.650  4.0018 -0.1480 -0.6602
 7993SOL    HW235613   4.587   0.532   4.571 -1.1626 -0.2355 -2.4689
 7994SOL     OW35614   0.241   2.132   4.625 -0.5311  0.1649  0.1074
 7994SOL    HW135615   0.154   2.134   4.583  0.1043  0.8589 -1.1850
 7994SOL    HW235616   0.291   2.155   4.546 -1.7198  2.7760  0.1076
 7995SOL     OW35617   2.080   4.212   7.409 -0.5141  0.0464 -0.1828
 7995SOL    HW135618   2.131   4.180   7.483  1.0491  0.1257 -1.2166
 7995SOL    HW235619   2.146   4.248   7.350 -2.0278  1.1261 -1.2349
 7996SOL     OW35620   0.471   2.302   0.124  0.0630 -0.2898 -0.2575
 7996SOL    HW135621   0.492   2.345   0.207  1.8328 -1.0305 -0.3209
 7996SOL    HW235622   0.417   2.368   0.081  0.6668 -0.6989 -1.6501
 7997SOL     OW35623   1.508   2.283  10.277 -0.1153 -0.3399 -0.3315
 7997SOL    HW135624   1.501   2.348  10.346  0.7019 -0.2773 -0.3013
 7997SOL    HW235625   1.603   2.286  10.263 -0.2068 -1.0666 -1.1059
 7998SOL     OW35626   2.920   1.108   5.089 -0.4131  0.1108 -0.0546
 7998SOL    HW135627   2.882   1.088   5.004  0.8630  1.6161 -0.9890
 7998SOL    HW235628   2.967   1.027   5.109 -0.2906  0.4641  1.1412
 7999SOL     OW35629   4.030   3.823   2.633 -0.9436  0.2703 -0.0864
 7999SOL    HW135630   4.107   3.767   2.620  0.1489  1.4238  1.3935
 7999SOL    HW235631   3.964   3.772   2.679 -1.6581  1.4922  0.2235
 8000SOL     OW35632   0.517   4.061   7.091  0.5499 -0.1524  0.4593
 8000SOL    HW135633   0.468   4.122   7.146 -0.3468 -0.1461 -0.3411
 8000SOL    HW235634   0.556   4.116   7.022  0.2504  1.8756  1.9294
 8001SOL     OW35635   0.754   4.544   1.637  0.0622 -0.0747  0.6447
 8001SOL    HW135636   0.770   4.477   1.571  0.5901 -1.3072  2.0371
 8001SOL    HW235637   0.781   4.622   1.587 -3.6585  1.2896  0.8003
 8002SOL     OW35638   4.375   0.726   8.847  0.4711  0.1913 -0.0563
 8002SOL    HW135639   4.461   0.767   8.857  1.4799 -1.2567 -2.7645
 8002SOL    HW235640   4.328   0.755   8.925 -1.2831  0.3732 -1.1861
 8003SOL     OW35641   4.451   3.713   6.671 -0.0772 -0.0371  0.4403
 8003SOL    HW135642   4.412   3.772   6.607 -0.5459 -1.5323 -0.6764
 8003SOL    HW235643   4.451   3.766   6.750 -0.8539 -0.1587  0.5291
 8004SOL     OW35644   4.482   0.659  13.431 -0.3148 -0.5373  0.0181
 8004SOL    HW135645   4.459   0.749  13.453 -0.6928 -0.5344 -0.3988
 8004SOL    HW235646   4.506   0.670  13.339 -0.0917 -0.7803  0.0478
 8005SOL     OW35647   2.037   2.302   7.530  0.1990  0.0939  0.0381
 8005SOL    HW135648   2.089   2.258   7.597  1.4370  0.3338 -0.7487
 8005SOL    HW235649   1.952   2.267   7.556  0.0228  0.2749 -0.2893
 8006SOL     OW35650   4.728   2.872   3.189  0.1773  0.1585  0.5022
 8006SOL    HW135651   4.665   2.839   3.253 -0.4034 -0.1923 -0.2432
 8006SOL    HW235652   0.006   2.962   3.219 -2.6869  0.1728  1.9333
 8007SOL     OW35653   1.160   1.867   2.740  0.0573  0.1406  0.0007
 8007SOL    HW135654   1.223   1.922   2.788  2.5203 -0.5109 -2.4721
 8007SOL    HW235655   1.120   1.921   2.672 -0.5763  1.8751  1.7488
 8008SOL     OW35656   3.242   1.942   6.674  0.5899 -0.5271 -0.3060
 8008SOL    HW135657   3.164   1.924   6.727  0.8782 -2.1411 -0.4022
 8008SOL    HW235658   3.235   1.885   6.597  0.7220 -0.3188 -0.4688
 8009SOL     OW35659   0.503   0.090   1.594 -0.0238 -0.3385  0.0488
 8009SOL    HW135660   0.546   0.008   1.617  0.6291  0.8271  2.9570
 8009SOL    HW235661   0.419   0.071   1.637 -0.8929  3.7586  0.2201
 8010SOL     OW35662   3.890   1.230   5.735  0.3010 -0.1807 -0.0261
 8010SOL    HW135663   3.968   1.224   5.680  1.5823  0.8194  1.6883
 8010SOL    HW235664   3.904   1.158   5.798  0.2934 -1.6104 -1.6459
 8011SOL     OW35665   1.511   4.144   3.275 -0.0570 -0.5137 -0.0599
 8011SOL    HW135666   1.590   4.093   3.293 -0.2229 -0.3448  1.2001
 8011SOL    HW235667   1.490   4.122   3.185  2.3504 -2.7772 -0.0514
 8012SOL     OW35668   2.881   1.082  12.228  0.3298  0.6905 -0.1636
 8012SOL    HW135669   2.861   1.142  12.157 -2.0068 -1.1183 -1.0312
 8012SOL    HW235670   2.976   1.078  12.217  0.2621  0.0140 -0.4943
 8013SOL     OW35671   4.002   1.340  12.931 -0.2080 -0.0759 -0.3642
 8013SOL    HW135672   3.969   1.429  12.917 -0.5984 -0.1323  0.1971
 8013SOL    HW235673   4.045   1.318  12.849 -1.3543  0.1448 -1.0318
 8014SOL     OW35674   0.897   1.736   0.928 -0.6809 -0.1402 -0.7350
 8014SOL    HW135675   0.945   1.668   0.974 -0.0408  0.1507 -0.9639
 8014SOL    HW235676   0.949   1.809   0.961 -2.1128  0.6471 -0.1857
 8015SOL     OW35677   1.482   4.402   6.154  0.8688  0.6692  0.1281
 8015SOL    HW135678   1.537   4.428   6.080  0.1965  1.0115 -0.2543
 8015SOL    HW235679   1.466   4.316   6.115  0.8506  0.2493  1.0804
 8016SOL     OW35680   2.316   0.827   6.999  0.4868  0.0687 -0.2616
 8016SOL    HW135681   2.363   0.861   7.075  2.7697 -1.5677 -0.9764
 8016SOL    HW235682   2.268   0.757   7.043 -0.4657  1.3734  0.7989
 8017SOL     OW35683   4.081   1.778   7.358 -0.5124  0.0117 -0.3095
 8017SOL    HW135684   4.106   1.862   7.319 -0.2658  0.1852  0.2159
 8017SOL    HW235685   4.161   1.765   7.408 -1.8733  0.5662  1.9996
 8018SOL     OW35686   2.644   4.189   9.405 -0.0922  0.0010 -0.2586
 8018SOL    HW135687   2.687   4.218   9.324 -2.5446 -0.1494 -1.6174
 8018SOL    HW235688   2.623   4.097   9.394 -1.4171  0.1853  0.8048
 8019SOL     OW35689   4.246   3.461   3.899 -0.0194 -0.1078  0.4923
 8019SOL    HW135690   4.241   3.488   3.991  1.3488  0.3926  0.4174
 8019SOL    HW235691   4.157   3.426   3.890  0.0649 -0.1008 -0.3258
 8020SOL     OW35692   0.597   4.307   6.188 -0.0693 -0.1007  0.0052
 8020SOL    HW135693   0.536   4.350   6.248  0.5563 -1.1764  1.4149
 8020SOL    HW235694   0.623   4.245   6.256 -0.2035 -1.3310 -1.0685
 8021SOL     OW35695   4.263   1.539   0.831 -0.2991  0.2508 -0.6673
 8021SOL    HW135696   4.212   1.616   0.856  1.1552  0.2522  2.3303
 8021SOL    HW235697   4.350   1.579   0.838 -1.0262  1.8462 -0.6733
 8022SOL     OW35698   1.556   3.701   1.918  0.6931 -0.5161 -0.2991
 8022SOL    HW135699   1.644   3.740   1.914  0.2625  0.5642  0.8792
 8022SOL    HW235700   1.504   3.776   1.891 -2.0442 -2.7952 -1.3641
 8023SOL     OW35701   2.757   0.980   1.241 -0.3830  0.2756  0.5769
 8023SOL    HW135702   2.803   1.054   1.281  1.0514 -0.0526 -0.4573
 8023SOL    HW235703   2.815   0.960   1.168 -0.0983  1.1559  0.5668
 8024SOL     OW35704   0.160   2.248   7.128  0.1852 -0.1524 -0.1596
 8024SOL    HW135705   0.081   2.194   7.114  0.2776 -0.7360  1.5326
 8024SOL    HW235706   0.129   2.327   7.171 -0.0516  0.6445 -1.8093
 8025SOL     OW35707   4.017   3.925   7.923 -0.0884 -0.1015 -0.3081
 8025SOL    HW135708   3.973   3.871   7.989 -1.0976 -1.5040 -2.1035
 8025SOL    HW235709   4.105   3.891   7.935  0.4900  1.3431 -0.6007
 8026SOL     OW35710   0.487   0.016   6.387  0.1846  0.0829  0.1300
 8026SOL    HW135711   0.471   0.029   6.294  0.4223  0.6146  0.1679
 8026SOL    HW235712   0.582   0.002   6.390  0.3830  1.3368 -0.5355
 8027SOL     OW35713   1.214   2.412   2.329 -0.0257  0.7156  0.4612
 8027SOL    HW135714   1.209   2.344   2.262  1.5405  0.1188  0.9461
 8027SOL    HW235715   1.304   2.438   2.311 -0.5940  2.1766 -0.2282
 8028SOL     OW35716   1.503   1.704   9.312  0.2297 -0.2935 -0.3993
 8028SOL    HW135717   1.452   1.623   9.307  2.1296 -1.6281  2.4028
 8028SOL    HW235718   1.564   1.700   9.238 -0.4673 -1.5789 -0.9206
 8029SOL     OW35719   3.171   3.951   9.061 -0.2646  0.2118  0.0269
 8029SOL    HW135720   3.105   3.893   9.098  0.5945 -1.0704 -0.4762
 8029SOL    HW235721   3.198   3.906   8.981  1.4860  1.1392  0.0987
 8030SOL     OW35722   3.089   1.076  10.845  0.4352  0.5482  0.2823
 8030SOL    HW135723   3.154   1.141  10.871  1.1150 -0.6681  1.6380
 8030SOL    HW235724   3.073   1.096  10.753  3.2493  1.5492  0.0113
 8031SOL     OW35725   2.382   4.463   8.323  0.3269 -0.2473 -0.7119
 8031SOL    HW135726   2.424   4.381   8.350  0.9228 -0.1664 -1.4252
 8031SOL    HW235727   2.456   4.520   8.342  0.0642 -0.3875  0.7868
 8032SOL     OW35728   2.262   0.987   0.428  0.1189  0.6881  0.6699
 8032SOL    HW135729   2.298   0.997   0.340  0.1073 -0.6671  0.5079
 8032SOL    HW235730   2.262   1.078   0.458 -0.2085  0.9115 -0.0145
 8033SOL     OW35731   3.018   4.164  15.671  0.1497  0.1583 -0.6641
 8033SOL    HW135732   3.100   4.212  15.660 -0.1519  0.7302 -0.3984
 8033SOL    HW235733   2.970   4.219  15.733 -1.8633 -2.2283 -0.0939
 8034SOL     OW35734   0.820   3.222   6.788 -0.2118  0.3869  0.5144
 8034SOL    HW135735   0.899   3.191   6.833  1.0349  2.0367 -0.5366
 8034SOL    HW235736   0.789   3.293   6.844  1.1622 -0.2591  2.0991
 8035SOL     OW35737   3.140   2.512   8.725 -0.1401  0.0487  0.5141
 8035SOL    HW135738   3.148   2.606   8.706 -1.4717 -0.9487 -5.0339
 8035SOL    HW235739   3.203   2.505   8.796  1.9753 -2.5604 -1.6361
 8036SOL     OW35740   1.234   1.755  16.048  0.0124  0.2267  0.1565
 8036SOL    HW135741   1.214   1.669  16.010  1.0922 -0.0564  0.2292
 8036SOL    HW235742   1.324   1.769  16.017 -0.9976 -0.7574 -3.2349
 8037SOL     OW35743   2.161   0.261  17.479 -0.0266  0.1115 -0.1983
 8037SOL    HW135744   2.087   0.236  17.424  0.3893 -0.3873 -0.5291
 8037SOL    HW235745   2.134   0.349  17.507 -1.5362  0.0119 -1.3531
 8038SOL     OW35746   0.869   4.511   8.788 -0.2589  0.2423  0.0434
 8038SOL    HW135747   0.850   4.505   8.694  0.3774 -1.1873  0.0192
 8038SOL    HW235748   0.883   4.606   8.796  1.3775 -0.1200  1.5049
 8039SOL     OW35749   3.710   3.562  13.424 -0.4629  0.1491  0.1976
 8039SOL    HW135750   3.664   3.480  13.403 -1.2934  1.0718 -1.5182
 8039SOL    HW235751   3.700   3.598  13.336  0.0603 -0.4028 -0.0907
 8040SOL     OW35752   3.115   0.468  17.405 -0.4729 -0.1635 -0.3048
 8040SOL    HW135753   3.137   0.407  17.476 -1.1449 -1.3912 -1.1554
 8040SOL    HW235754   3.103   0.554  17.445  0.5784  0.4950 -1.4188
 8041SOL     OW35755   1.402   4.403   3.216  0.8250 -0.0423  0.8512
 8041SOL    HW135756   1.367   4.416   3.304  0.7787  2.5220  0.4644
 8041SOL    HW235757   1.446   4.321   3.237  1.6302  0.2639  0.3283
 8042SOL     OW35758   1.063   2.493   1.347 -0.0388 -0.1692  0.2469
 8042SOL    HW135759   1.020   2.437   1.283 -2.1024  2.0797 -0.3336
 8042SOL    HW235760   0.990   2.548   1.375  0.1776  0.1397  0.2061
 8043SOL     OW35761   3.603   4.353   1.946  0.0116  0.4098  0.4978
 8043SOL    HW135762   3.671   4.290   1.924 -0.1363  0.4783 -0.1339
 8043SOL    HW235763   3.546   4.357   1.870  2.6834  0.9233 -1.4888
 8044SOL     OW35764   3.047   4.091   9.939 -0.0865 -0.1214 -0.3387
 8044SOL    HW135765   3.138   4.100   9.910  0.8948 -3.2004  1.7523
 8044SOL    HW235766   3.042   4.127  10.027 -1.3909  1.3108 -1.0061
 8045SOL     OW35767   0.854   3.712   6.369 -0.4941  0.4808  0.2301
 8045SOL    HW135768   0.781   3.652   6.381 -0.1380  0.1857  0.9430
 8045SOL    HW235769   0.807   3.795   6.357 -1.0970  0.2057  0.6679
 8046SOL     OW35770   0.411   3.159  14.159  0.4417  0.6547  1.1697
 8046SOL    HW135771   0.393   3.209  14.239  0.3667 -0.7880  2.0537
 8046SOL    HW235772   0.322   3.146  14.127  0.4282  0.2213  1.3921
 8047SOL     OW35773   3.299   3.624   0.163 -0.0368  0.1670 -0.1655
 8047SOL    HW135774   3.315   3.529   0.166 -0.7260  0.0792  0.5798
 8047SOL    HW235775   3.210   3.631   0.197  0.8474  0.2066  2.0936
 8048SOL     OW35776   2.255   0.553   6.648 -0.3169 -0.5496  0.0062
 8048SOL    HW135777   2.304   0.622   6.602 -1.4181  0.5969  0.5384
 8048SOL    HW235778   2.329   0.504   6.682 -1.5225 -2.4716 -0.1432
 8049SOL     OW35779   4.570   0.100  16.392  0.0603 -0.2615 -0.4877
 8049SOL    HW135780   4.640   0.121  16.330 -1.1207  2.2535 -0.9641
 8049SOL    HW235781   4.616   0.121  16.474  0.0445  1.5118 -0.9314
 8050SOL     OW35782   3.726   2.837   3.617  0.6477  0.0765 -0.4784
 8050SOL    HW135783   3.714   2.763   3.558 -0.0165 -0.6452  0.5522
 8050SOL    HW235784   3.659   2.819   3.683 -1.4061  3.9841 -1.4454
 8051SOL     OW35785   4.415   0.480   3.999 -0.1595  0.7946 -0.1994
 8051SOL    HW135786   4.399   0.478   4.093  1.9009  0.8782  0.1537
 8051SOL    HW235787   4.412   0.574   3.981 -1.1692  0.6776 -0.6270
 8052SOL     OW35788   4.173   1.239   2.896 -0.2978 -0.2871 -0.3569
 8052SOL    HW135789   4.235   1.181   2.852  1.1468 -0.2813  1.6785
 8052SOL    HW235790   4.183   1.200   2.983  3.6009 -1.9177 -1.5708
 8053SOL     OW35791   0.798   1.727  11.972  0.5343  0.1044  0.0822
 8053SOL    HW135792   0.794   1.823  11.970 -0.5950  0.0844  1.3290
 8053SOL    HW235793   0.792   1.718  11.877  1.8803  0.7850 -0.0739
 8054SOL     OW35794   3.676   3.105   9.135 -0.2180 -0.0619  0.6839
 8054SOL    HW135795   3.615   3.033   9.146 -0.0690 -0.5360 -1.4948
 8054SOL    HW235796   3.737   3.045   9.092 -0.9953  0.5493 -1.2863
 8055SOL     OW35797   1.479   3.192   4.968 -0.1598  1.3235  0.3542
 8055SOL    HW135798   1.469   3.106   5.009  2.0933  0.3249 -1.1858
 8055SOL    HW235799   1.540   3.169   4.898 -1.4971  1.1774 -0.7511
 8056SOL     OW35800   3.957   2.645   8.220 -0.1168 -0.3078 -0.1670
 8056SOL    HW135801   3.901   2.638   8.297 -1.3904  0.5744 -1.0396
 8056SOL    HW235802   3.968   2.551   8.203 -1.4548 -0.2752 -1.1898
 8057SOL     OW35803   3.974   3.603   5.392 -0.1558  0.3311 -0.5680
 8057SOL    HW135804   3.906   3.562   5.445 -0.2494 -0.8830 -1.6399
 8057SOL    HW235805   3.936   3.634   5.310 -3.1455 -2.2050 -0.1529
 8058SOL     OW35806   1.769   1.881   9.209  0.0735 -0.1596  0.5753
 8058SOL    HW135807   1.760   1.809   9.272 -1.3391 -0.2470  0.2694
 8058SOL    HW235808   1.727   1.845   9.131  1.6674 -0.7659 -0.0096
 8059SOL     OW35809   1.030   0.729  17.689  0.4508  0.5086 -0.1760
 8059SOL    HW135810   1.010   0.685   0.025 -0.5702  1.9891  0.3529
 8059SOL    HW235811   1.039   0.820  17.715 -1.8899  0.4278  0.9275
 8060SOL     OW35812   2.073   1.169   7.151 -0.0470 -0.0600 -0.5149
 8060SOL    HW135813   2.061   1.196   7.060 -2.4112 -2.8575 -1.0309
 8060SOL    HW235814   2.049   1.077   7.142  0.8679 -0.5352  1.9425
 8061SOL     OW35815   1.110   0.834   2.413  0.5063 -0.4290  0.5401
 8061SOL    HW135816   1.167   0.831   2.490  1.2343  0.2056  0.0250
 8061SOL    HW235817   1.026   0.854   2.453 -0.1804 -2.3044  0.0618
 8062SOL     OW35818   1.094   1.813  12.882  0.2102 -0.1511  0.3610
 8062SOL    HW135819   1.066   1.782  12.796  1.2215 -1.3426  0.4699
 8062SOL    HW235820   1.160   1.873  12.848  0.5589 -0.3922  0.6181
 8063SOL     OW35821   2.113   4.379   8.373 -0.2010 -0.2947  0.5392
 8063SOL    HW135822   2.186   4.435   8.349 -0.7827 -0.4579 -1.6275
 8063SOL    HW235823   2.141   4.340   8.456  1.3003 -0.4780 -0.0665
 8064SOL     OW35824   1.187   3.686   8.684 -0.7799  0.0228  0.2896
 8064SOL    HW135825   1.205   3.625   8.756  2.2813  0.0728 -0.4448
 8064SOL    HW235826   1.191   3.623   8.612  0.9543 -3.1636  3.1323
 8065SOL     OW35827   3.753   1.170  13.913 -0.0778  0.2111 -0.5320
 8065SOL    HW135828   3.702   1.251  13.909  1.6552  1.3667  0.5208
 8065SOL    HW235829   3.768   1.156  14.007  3.2384 -1.2662 -1.2530
 8066SOL     OW35830   4.325   2.378  11.778  0.2045 -0.1853  0.5254
 8066SOL    HW135831   4.316   2.351  11.870  1.1353  1.8257  1.2029
 8066SOL    HW235832   4.344   2.290  11.744 -1.3447 -0.3676  0.0965
 8067SOL     OW35833   3.767   2.804  11.969 -0.2714 -0.8360 -0.0161
 8067SOL    HW135834   3.711   2.730  11.993  0.3160 -1.9738 -2.1288
 8067SOL    HW235835   3.811   2.825  12.051 -0.9358  0.5816 -0.0167
 8068SOL     OW35836   0.628   2.937   3.327  0.0671  0.3171 -0.1959
 8068SOL    HW135837   0.633   2.909   3.236  0.8224  0.5339 -0.2220
 8068SOL    HW235838   0.532   2.941   3.331  0.1303  1.2912  0.4537
 8069SOL     OW35839   2.224   2.629   5.325 -0.3954  0.4011 -0.1217
 8069SOL    HW135840   2.140   2.637   5.279 -0.1402  0.7062 -0.5352
 8069SOL    HW235841   2.243   2.722   5.336 -0.3849  0.5464 -1.3388
 8070SOL     OW35842   2.594   4.563   0.013  0.0725  0.0192  0.0080
 8070SOL    HW135843   2.544   4.585  17.682 -1.6986 -0.7392  0.9378
 8070SOL    HW235844   2.542   4.499   0.062  1.4659 -2.2699 -1.5039
 8071SOL     OW35845   4.309   3.597   8.946  0.0877  0.4138  0.3193
 8071SOL    HW135846   4.361   3.647   8.882 -0.4560 -0.6746 -0.9615
 8071SOL    HW235847   4.372   3.564   9.011  0.2528  1.0542  0.4886
 8072SOL     OW35848   2.042   3.041   7.055  0.1846  0.4308 -0.1825
 8072SOL    HW135849   2.094   2.992   6.991 -1.3761 -1.5813  0.0837
 8072SOL    HW235850   2.057   2.988   7.133 -0.0469 -0.7881 -0.9502
 8073SOL     OW35851   3.025   1.591  15.367  0.3720 -0.5364 -0.0546
 8073SOL    HW135852   3.023   1.650  15.292 -1.5683  0.3562  0.7063
 8073SOL    HW235853   3.026   1.646  15.445  3.3626 -1.9808  0.9390
 8074SOL     OW35854   1.136   2.894  13.342  0.3071  0.0287  0.1168
 8074SOL    HW135855   1.181   2.978  13.354 -0.9453  0.4886  1.6166
 8074SOL    HW235856   1.144   2.894  13.247  2.0112 -0.6326  0.2630
 8075SOL     OW35857   0.988   0.491   8.775 -0.1426 -0.2899 -0.7325
 8075SOL    HW135858   1.009   0.555   8.842 -0.6986 -1.6791  0.7645
 8075SOL    HW235859   0.912   0.533   8.735 -0.3186 -1.6854 -1.8601
 8076SOL     OW35860   2.970   1.229   6.933 -0.1254  0.2807  0.1435
 8076SOL    HW135861   2.975   1.187   7.019 -0.6251  0.1588  0.1098
 8076SOL    HW235862   3.020   1.174   6.872  1.4816  2.8351 -0.8284
 8077SOL     OW35863   4.674   0.745   1.893 -0.6969  0.2963  0.3637
 8077SOL    HW135864   4.727   0.825   1.894  0.9053 -0.7430 -0.3716
 8077SOL    HW235865   4.735   0.673   1.909 -0.2467  0.4193 -0.7615
 8078SOL     OW35866   4.449   1.885   3.249 -0.2668  0.1858 -0.0217
 8078SOL    HW135867   4.421   1.826   3.319 -1.0429  0.5083 -0.0590
 8078SOL    HW235868   4.362   1.904   3.215  0.5611  1.4642 -1.4346
 8079SOL     OW35869   2.561   2.992   3.749  0.0786  0.0086  0.1364
 8079SOL    HW135870   2.571   3.072   3.697 -1.6789 -0.1021 -0.3680
 8079SOL    HW235871   2.510   3.020   3.825  0.1041 -0.0646  0.1807
 8080SOL     OW35872   0.725   3.483   5.578 -0.4455  0.3719 -0.2086
 8080SOL    HW135873   0.732   3.488   5.483 -1.2607 -0.2410 -0.3028
 8080SOL    HW235874   0.808   3.441   5.599 -0.7148 -1.2967 -2.4675
 8081SOL     OW35875   3.795   0.754  11.926 -0.4282  0.2823  0.2681
 8081SOL    HW135876   3.742   0.821  11.882  0.6528  0.1451 -1.2402
 8081SOL    HW235877   3.882   0.793  11.926 -0.3228  0.0574  2.3558
 8082SOL     OW35878   3.312   1.621  13.354  0.0616 -0.3595  0.0236
 8082SOL    HW135879   3.343   1.667  13.276 -2.6784  0.6849 -0.4516
 8082SOL    HW235880   3.376   1.631  13.425 -1.5843  1.3030  1.2650
 8083SOL     OW35881   2.231   2.886   3.642  0.0204  0.5295 -0.0116
 8083SOL    HW135882   2.276   2.969   3.627  1.4564 -0.3290 -0.5317
 8083SOL    HW235883   2.162   2.881   3.575  0.9316 -1.0321 -0.8284
 8084SOL     OW35884   4.001   2.979  13.804  0.5077 -0.3170  0.0475
 8084SOL    HW135885   4.017   2.967  13.897 -2.2823  3.1743  0.9594
 8084SOL    HW235886   4.091   2.968  13.772  1.1323  0.2837  1.5901
 8085SOL     OW35887   0.248   1.185   1.618  0.0109  0.6218  0.2877
 8085SOL    HW135888   0.299   1.212   1.542  1.3186  0.0544  0.9652
 8085SOL    HW235889   0.278   1.252   1.679 -1.5098  0.6735  0.9838
 8086SOL     OW35890   3.692   4.165   4.621 -0.7051 -0.6438 -0.3327
 8086SOL    HW135891   3.751   4.101   4.581  0.5482  0.0802  0.3599
 8086SOL    HW235892   3.626   4.163   4.551  0.5339 -4.0252 -1.3936
 8087SOL     OW35893   1.945   4.069   3.712 -0.2988  0.0464  0.4643
 8087SOL    HW135894   2.005   4.109   3.649  0.0113 -1.4577 -0.1933
 8087SOL    HW235895   1.908   4.149   3.750  1.2491  0.3876  1.2259
 8088SOL     OW35896   3.459   3.744  15.218  0.3998 -0.5831  0.4535
 8088SOL    HW135897   3.408   3.822  15.240 -1.3852 -1.6131 -0.0499
 8088SOL    HW235898   3.397   3.682  15.256  1.2539 -1.4026  0.5050
 8089SOL     OW35899   1.107   0.180   3.709  0.3782 -0.4781  0.0285
 8089SOL    HW135900   1.025   0.216   3.741  0.2033 -0.6161 -0.2695
 8089SOL    HW235901   1.115   0.228   3.627 -0.5869  2.3544  1.5870
 8090SOL     OW35902   0.891   3.423   8.036  0.2134 -0.0904 -0.1229
 8090SOL    HW135903   0.859   3.339   8.003  1.5931 -0.4416 -0.5629
 8090SOL    HW235904   0.858   3.478   7.965  1.3310 -1.7529 -1.9312
 8091SOL     OW35905   3.242   2.713   5.526  0.1899  0.4958 -0.2975
 8091SOL    HW135906   3.193   2.790   5.557  1.4276  0.5570  1.5337
 8091SOL    HW235907   3.169   2.661   5.495  0.0457  2.3584 -3.0784
 8092SOL     OW35908   2.355   3.365   8.731 -0.3935 -0.0388 -0.1596
 8092SOL    HW135909   2.399   3.430   8.785 -0.7444  0.7958 -0.8746
 8092SOL    HW235910   2.382   3.283   8.772 -1.0498  0.7300  1.7728
 8093SOL     OW35911   2.332   1.439   2.225  0.0270 -0.1479 -0.3482
 8093SOL    HW135912   2.335   1.534   2.215 -0.6480 -0.2934 -1.9900
 8093SOL    HW235913   2.281   1.425   2.304  0.0454 -0.7164 -0.4349
 8094SOL     OW35914   4.507   0.627   7.989  0.1847 -0.0191  0.5044
 8094SOL    HW135915   4.524   0.645   8.082 -1.0409 -0.3441  0.7902
 8094SOL    HW235916   4.527   0.714   7.953  0.3459 -0.4226 -0.3710
 8095SOL     OW35917   0.156   1.414   2.919 -0.2590  0.2276 -0.3144
 8095SOL    HW135918   0.234   1.452   2.879 -0.6553  0.1854 -1.1259
 8095SOL    HW235919   0.179   1.322   2.906 -0.3576  0.2970 -0.9942
 8096SOL     OW35920   2.281   2.324  13.823  0.5077  0.3648 -0.2059
 8096SOL    HW135921   2.282   2.253  13.759  2.3654 -1.0416  1.4156
 8096SOL    HW235922   2.312   2.285  13.904  3.6930  1.4794 -0.8753
 8097SOL     OW35923   3.162   1.096  15.076  0.4766 -0.7449 -0.0722
 8097SOL    HW135924   3.170   1.100  15.172  1.0127  1.4319 -0.2107
 8097SOL    HW235925   3.104   1.170  15.064 -0.4877 -1.2538  1.4854
 8098SOL     OW35926   3.199   2.854   7.009  0.4697 -0.6685  0.1951
 8098SOL    HW135927   3.204   2.764   6.978  1.8854 -0.5718  0.1236
 8098SOL    HW235928   3.272   2.889   6.958  0.4739 -0.4685  0.3376
 8099SOL     OW35929   3.315   2.273   6.701  0.1338  0.1511  0.6714
 8099SOL    HW135930   3.258   2.346   6.723  0.8816  0.4807  1.5188
 8099SOL    HW235931   3.260   2.230   6.636  0.5745  1.0653 -0.2922
 8100SOL     OW35932   2.907   3.827   7.962 -0.1580 -0.4418 -0.7364
 8100SOL    HW135933   2.953   3.744   7.951  0.0689 -0.4032 -0.0689
 8100SOL    HW235934   2.976   3.889   7.936 -1.5270  0.8544 -1.2752
 8101SOL     OW35935   2.407   1.042   5.893 -0.1031 -0.7298 -0.0437
 8101SOL    HW135936   2.433   1.093   5.817 -0.0932 -0.9510 -0.1901
 8101SOL    HW235937   2.486   1.025   5.944 -0.6256 -2.3641  0.2343
 8102SOL     OW35938   3.963   2.579  15.487  0.2077 -0.1906 -0.5630
 8102SOL    HW135939   3.937   2.669  15.509  1.6545  1.0289 -3.6398
 8102SOL    HW235940   4.059   2.580  15.480  0.4246  0.2151  2.6937
 8103SOL     OW35941   2.033   0.976   7.788 -0.4055  0.1953 -0.3019
 8103SOL    HW135942   2.029   0.981   7.884 -0.2343 -1.3312 -0.2241
 8103SOL    HW235943   2.112   0.925   7.774  1.0923  2.6534 -0.8172
 8104SOL     OW35944   1.420   1.301   3.304  0.2405  0.4186  0.1505
 8104SOL    HW135945   1.435   1.211   3.334  0.4842  0.6995  0.8814
 8104SOL    HW235946   1.356   1.331   3.369  1.4906  3.2116  0.0743
 8105SOL     OW35947   3.923   3.161   3.389 -0.3892 -0.5037 -0.1201
 8105SOL    HW135948   3.959   3.206   3.466  1.2874 -0.3597 -0.9919
 8105SOL    HW235949   3.834   3.143   3.421 -0.8683  0.8510 -0.6995
 8106SOL     OW35950   0.048   3.917  14.413  0.3641  0.1437 -0.3126
 8106SOL    HW135951   0.044   3.888  14.322 -1.0612  0.8431 -0.4876
 8106SOL    HW235952   0.012   4.005  14.401 -0.6902  0.3642  4.4401
 8107SOL     OW35953   2.164   3.632   4.124 -0.5713 -0.0546  0.5225
 8107SOL    HW135954   2.187   3.555   4.072 -2.6709  1.2150 -2.2848
 8107SOL    HW235955   2.149   3.700   4.058 -1.7153 -1.2233 -0.4216
 8108SOL     OW35956   3.085   4.259  12.358 -0.6122 -1.0028 -0.1574
 8108SOL    HW135957   3.055   4.317  12.429 -1.0849  0.5304 -1.6051
 8108SOL    HW235958   3.179   4.261  12.376 -0.4453 -3.4506 -0.8282
 8109SOL     OW35959   1.097   2.607   3.186 -0.0192 -0.2518 -0.0701
 8109SOL    HW135960   1.088   2.685   3.240  0.6520 -0.2369  0.0147
 8109SOL    HW235961   1.008   2.595   3.153  0.5465 -2.4426 -0.7971
 8110SOL     OW35962   3.088   0.632   1.966  0.9737  0.0034 -0.5562
 8110SOL    HW135963   3.147   0.630   2.040 -0.4695  0.8370  0.6142
 8110SOL    HW235964   3.042   0.714   1.982 -0.4939 -0.4122 -2.5107
 8111SOL     OW35965   0.571   0.440  11.739 -1.5289  0.9592  0.7681
 8111SOL    HW135966   0.590   0.497  11.813 -0.5979  4.7787 -2.3563
 8111SOL    HW235967   0.656   0.396  11.734 -1.1199  1.9156 -0.9685
 8112SOL     OW35968   4.405   2.043   7.046 -0.4343 -0.1667  0.1098
 8112SOL    HW135969   4.392   2.137   7.057  0.6313  0.0494 -0.4942
 8112SOL    HW235970   4.320   2.003   7.064 -1.4626  2.3224  0.7794
 8113SOL     OW35971   3.712   3.968   9.146 -0.3193  0.0826  0.0460
 8113SOL    HW135972   3.630   3.939   9.106 -0.8975  2.4484 -0.4527
 8113SOL    HW235973   3.745   4.017   9.071  1.5295 -0.6980  0.3466
 8114SOL     OW35974   1.576   2.252   9.365  0.1590 -0.4069 -0.4128
 8114SOL    HW135975   1.573   2.293   9.278  0.3438  0.3780 -0.0406
 8114SOL    HW235976   1.496   2.198   9.360 -1.1812  1.3714  1.9871
 8115SOL     OW35977   4.152   2.834   7.163 -0.1349 -0.1254  0.0874
 8115SOL    HW135978   4.217   2.816   7.095 -0.8236 -2.6196  0.0654
 8115SOL    HW235979   4.166   2.772   7.235 -0.6977 -0.2375  0.1005
 8116SOL     OW35980   4.118   2.436   2.142  0.7287  0.1229  0.2770
 8116SOL    HW135981   4.199   2.467   2.184  0.0272 -0.3384  1.9588
 8116SOL    HW235982   4.134   2.464   2.051 -2.5722 -0.1402 -0.3657
 8117SOL     OW35983   3.758   4.131   7.780 -0.4894  0.0573  0.3401
 8117SOL    HW135984   3.776   4.164   7.868 -2.1417  1.0786  0.3030
 8117SOL    HW235985   3.845   4.104   7.751 -0.3048  1.2131 -0.2074
 8118SOL     OW35986   0.228   2.380   8.635 -0.5565 -0.1860 -0.5853
 8118SOL    HW135987   0.267   2.298   8.668 -1.1726  0.5122  1.8733
 8118SOL    HW235988   0.241   2.435   8.713 -0.4215 -0.8783 -0.1117
 8119SOL     OW35989   0.686   1.926   6.436  0.4298 -0.5964 -0.1472
 8119SOL    HW135990   0.666   1.840   6.399  2.5101 -0.5888 -1.2801
 8119SOL    HW235991   0.642   1.923   6.521  2.1784 -0.1087  0.7655
 8120SOL     OW35992   4.369   2.574  12.850 -0.4416  0.0589  0.0716
 8120SOL    HW135993   4.385   2.503  12.912  0.4354 -1.3519 -1.7713
 8120SOL    HW235994   4.411   2.651  12.888  3.8695 -2.8219  1.1312
 8121SOL     OW35995   2.127   2.609  14.438 -0.5322 -0.7958 -0.5250
 8121SOL    HW135996   2.190   2.657  14.384  0.3672  2.3003  3.2504
 8121SOL    HW235997   2.062   2.678  14.452 -1.3057 -1.3667 -1.2996
 8122SOL     OW35998   0.446   2.180   7.757 -0.2069  0.1575  0.0371
 8122SOL    HW135999   0.506   2.114   7.724 -1.1986  0.1183 -1.6510
 8122SOL    HW236000   0.376   2.128   7.796  0.7166 -0.8470  0.3566
 8123SOL     OW36001   3.585   3.593   1.949 -0.3249 -0.4170  0.4423
 8123SOL    HW136002   3.531   3.631   1.879  1.3781 -1.1071 -1.2690
 8123SOL    HW236003   3.522   3.582   2.020  1.9328 -1.1638  2.3380
 8124SOL     OW36004   3.365   4.300   8.910  0.0682 -0.1995 -0.1621
 8124SOL    HW136005   3.424   4.273   8.980  0.6177 -0.4992 -0.7356
 8124SOL    HW236006   3.302   4.358   8.951  1.9088  0.7560  1.2957
 8125SOL     OW36007   0.303   0.950   1.769 -0.6007 -0.1850  0.3819
 8125SOL    HW136008   0.219   0.943   1.815 -0.9451  1.8321  0.0670
 8125SOL    HW236009   0.285   1.025   1.713 -0.6419 -0.7417 -0.3440
 8126SOL     OW36010   0.894   0.361  13.071 -0.0514  0.0079  0.0462
 8126SOL    HW136011   0.936   0.432  13.024  1.1061 -0.7943 -0.1268
 8126SOL    HW236012   0.957   0.349  13.143  0.5094  2.1901 -0.0718
 8127SOL     OW36013   3.157   0.453   7.322  0.0226 -0.3162  0.5337
 8127SOL    HW136014   3.084   0.398   7.349  0.0770  0.1639  1.6659
 8127SOL    HW236015   3.226   0.422   7.380  0.5262  0.7420  0.5096
 8128SOL     OW36016   1.703   2.716   8.367 -0.9952  0.0624  0.5540
 8128SOL    HW136017   1.762   2.644   8.388 -0.2267  0.3479 -0.6040
 8128SOL    HW236018   1.723   2.738   8.276 -1.8322  1.2540  0.6584
 8129SOL     OW36019   3.652   3.114   4.185  0.7948  0.1219 -0.5758
 8129SOL    HW136020   3.609   3.045   4.237  0.0230 -0.5683 -2.1314
 8129SOL    HW236021   3.572   3.156   4.153 -0.3002 -1.4035  0.1250
 8130SOL     OW36022   3.122   0.263   0.537  0.3790 -0.1474 -0.0915
 8130SOL    HW136023   3.207   0.249   0.494 -0.4341 -0.2980 -1.6440
 8130SOL    HW236024   3.088   0.175   0.546 -0.8902  0.2039 -1.4402
 8131SOL     OW36025   1.547   1.756   6.859  0.2922 -0.0098 -0.3644
 8131SOL    HW136026   1.500   1.839   6.851  0.2778 -0.0157 -0.3435
 8131SOL    HW236027   1.628   1.772   6.907  1.3932 -2.4870 -1.3943
 8132SOL     OW36028   3.143   0.241  15.679 -0.1442 -1.0309  0.3357
 8132SOL    HW136029   3.121   0.148  15.665 -0.3705 -0.6900 -1.5894
 8132SOL    HW236030   3.159   0.238  15.773  0.7903 -1.2643  0.1671
 8133SOL     OW36031   1.082   4.323   4.759  0.0884  0.5428  0.1115
 8133SOL    HW136032   1.047   4.260   4.821 -0.7820  0.4668 -0.4540
 8133SOL    HW236033   1.028   4.305   4.682 -0.0505  1.6007 -0.0370
 8134SOL     OW36034   3.987   3.006   5.811 -0.1286  0.4604  0.1259
 8134SOL    HW136035   3.980   2.943   5.882  1.1708  0.9618  0.6982
 8134SOL    HW236036   3.902   3.047   5.821 -1.2101 -1.8426  0.3606
 8135SOL     OW36037   0.641   2.613   8.294  0.2959 -0.1878 -0.3628
 8135SOL    HW136038   0.629   2.705   8.269  1.6504  0.1713  0.2606
 8135SOL    HW236039   0.581   2.577   8.229 -0.6403 -0.3980  0.6224
 8136SOL     OW36040   1.871   1.375   8.007 -0.2991  0.3483  0.3588
 8136SOL    HW136041   1.829   1.420   8.081 -2.6190  1.4063 -1.6082
 8136SOL    HW236042   1.955   1.415   8.028  0.3050 -0.9364  0.3553
 8137SOL     OW36043   0.534   0.980  13.423  0.0921 -0.0727  0.6492
 8137SOL    HW136044   0.467   1.048  13.428 -1.2263 -1.3342  0.3071
 8137SOL    HW236045   0.503   0.933  13.345 -0.8565 -0.3461  1.1965
 8138SOL     OW36046   4.517   3.970   6.796  0.3833  0.3748  0.4530
 8138SOL    HW136047   4.519   3.962   6.701  0.6254  1.4609  0.3624
 8138SOL    HW236048   4.548   4.060   6.808  0.9903  0.3613 -1.0250
 8139SOL     OW36049   2.515   1.924   6.351  0.4031  0.6683 -0.5606
 8139SOL    HW136050   2.460   1.999   6.328 -0.1811  0.9220  1.6074
 8139SOL    HW236051   2.531   1.937   6.445  0.8252  0.9833 -0.6769
 8140SOL     OW36052   2.938   1.959  17.198  0.2035  0.9583  0.2993
 8140SOL    HW136053   2.869   1.992  17.141  0.5292 -0.5089 -0.9210
 8140SOL    HW236054   3.003   1.932  17.133 -0.4469 -1.3978  0.6266
 8141SOL     OW36055   2.015   2.057   0.255  0.1103  0.0888  0.0474
 8141SOL    HW136056   2.010   2.125   0.322  1.1473  0.7076 -0.4986
 8141SOL    HW236057   2.056   1.982   0.297 -1.4434 -1.1440 -0.6502
 8142SOL     OW36058   0.878   2.974   3.767 -0.0266  0.4554  0.5523
 8142SOL    HW136059   0.827   2.919   3.707  1.3727 -1.6330  1.2871
 8142SOL    HW236060   0.811   3.042   3.778  0.8766  1.4437 -0.1365
 8143SOL     OW36061   2.812   3.972  15.627 -0.3185 -0.3008  0.6746
 8143SOL    HW136062   2.839   3.971  15.535 -1.3696  3.0247  0.3078
 8143SOL    HW236063   2.879   4.035  15.653  0.1933  0.0487 -1.4896
 8144SOL     OW36064   3.568   2.352   6.933  0.5169  0.8321 -0.1110
 8144SOL    HW136065   3.541   2.262   6.918 -1.4207  0.7173  4.2791
 8144SOL    HW236066   3.496   2.377   6.991  0.9926  1.6160  0.1393
 8145SOL     OW36067   1.856   2.879   5.584  0.0901  0.2173  0.0556
 8145SOL    HW136068   1.931   2.898   5.640  0.3406 -2.1109  0.5087
 8145SOL    HW236069   1.788   2.938   5.616 -0.7173 -2.0751  2.5916
 8146SOL     OW36070   2.551   1.124  11.655  0.0601 -0.3597  0.1703
 8146SOL    HW136071   2.559   1.054  11.589 -0.4852  1.2848 -1.6566
 8146SOL    HW236072   2.487   1.186  11.620  0.4563  1.1523  2.1392
 8147SOL     OW36073   4.136   1.894   5.311  0.4511 -0.2585  0.4062
 8147SOL    HW136074   4.077   1.819   5.325 -0.4310  0.2646 -0.4606
 8147SOL    HW236075   4.203   1.844   5.266  0.9109 -0.1417  0.9635
 8148SOL     OW36076   2.059   4.118   1.770 -0.3939  0.2978  0.6361
 8148SOL    HW136077   2.024   4.037   1.734  0.3307 -0.4476  1.6307
 8148SOL    HW236078   2.102   4.151   1.691  0.3702 -2.0817  0.0625
 8149SOL     OW36079   1.998   4.581  10.730  0.2119 -0.6038 -0.5684
 8149SOL    HW136080   1.919   4.618  10.692 -1.4387 -2.7771  0.7759
 8149SOL    HW236081   2.046   4.660  10.755 -0.4164 -0.3741 -0.0832
 8150SOL     OW36082   3.291   2.686   2.968  0.8318  0.1539  0.6123
 8150SOL    HW136083   3.324   2.704   2.880  0.9123 -0.6799  0.4727
 8150SOL    HW236084   3.222   2.622   2.951  1.7695 -0.2564 -1.6890
 8151SOL     OW36085   1.594   0.488   5.801  0.3876 -0.3431 -0.2087
 8151SOL    HW136086   1.641   0.549   5.743  1.7722 -0.4188  0.8449
 8151SOL    HW236087   1.527   0.553   5.822 -1.3672 -2.2014 -0.0668
 8152SOL     OW36088   3.588   1.774   3.832  0.3882  0.0747 -0.4492
 8152SOL    HW136089   3.553   1.756   3.744 -2.5281  2.2863  0.2545
 8152SOL    HW236090   3.522   1.835   3.866  1.1436  0.6155  0.0302
 8153SOL     OW36091   0.477   4.541  15.649 -0.2200  0.0415  0.2397
 8153SOL    HW136092   0.401   4.561  15.595  0.6125  2.3628 -0.0617
 8153SOL    HW236093   0.454   4.593  15.726  1.7219  2.1829 -0.6195
 8154SOL     OW36094   0.340   0.957   5.347  0.5132  0.6129 -0.0776
 8154SOL    HW136095   0.272   0.944   5.281  0.8096  3.6198 -1.0159
 8154SOL    HW236096   0.306   0.908   5.421 -0.9737 -0.0075 -1.1882
 8155SOL     OW36097   4.200   0.645   6.698 -0.1120 -0.7470 -0.4493
 8155SOL    HW136098   4.239   0.569   6.740 -0.6890 -0.5603  0.4327
 8155SOL    HW236099   4.105   0.633   6.696 -0.3512  1.1839 -0.5229
 8156SOL     OW36100   3.922   3.487   9.444 -0.5956  0.4902 -0.2081
 8156SOL    HW136101   3.995   3.468   9.502 -0.9214 -1.3411 -0.4100
 8156SOL    HW236102   3.949   3.429   9.373  2.3790  1.6494 -0.0265
 8157SOL     OW36103   0.005   1.661  15.367  0.0781  0.0622  0.1671
 8157SOL    HW136104   4.701   1.747  15.353 -0.0976  0.1481  1.2528
 8157SOL    HW236105   4.731   1.670  15.462  0.8755 -0.4524  0.3068
 8158SOL     OW36106   2.850   0.028  17.156 -0.0169  0.3534  0.4757
 8158SOL    HW136107   2.850   4.696  17.223 -2.8890  0.9305  1.0806
 8158SOL    HW236108   2.804   4.726  17.082  0.0010  3.2756 -1.0736
 8159SOL     OW36109   0.089   0.199   4.492  0.4588 -0.9602 -0.4237
 8159SOL    HW136110   0.133   0.144   4.557 -0.7000  0.6587  1.7061
 8159SOL    HW236111   0.018   0.150   4.450  0.4045  0.2423 -1.7266
 8160SOL     OW36112   0.789   1.015  13.313  0.0448 -0.1235  0.1476
 8160SOL    HW136113   0.817   0.923  13.318 -1.1163 -0.3251  3.3807
 8160SOL    HW236114   0.708   0.993  13.359  0.0971 -1.1911 -0.2789
 8161SOL     OW36115   2.982   2.507  14.859  0.2829 -0.2058  0.5337
 8161SOL    HW136116   2.946   2.498  14.771 -0.7838  1.5723  0.7922
 8161SOL    HW236117   3.006   2.416  14.877  0.1057 -0.0651  1.5131
 8162SOL     OW36118   0.704   2.572   3.751 -0.7019  0.0094 -0.1055
 8162SOL    HW136119   0.683   2.549   3.842 -0.0968 -0.5401 -0.1036
 8162SOL    HW236120   0.653   2.502   3.710 -1.4397  0.4540  0.0544
 8163SOL     OW36121   3.911   2.063  13.958 -0.6462  0.6262  0.0408
 8163SOL    HW136122   3.944   2.010  14.030 -1.6394 -0.9588 -0.6731
 8163SOL    HW236123   3.867   2.127  14.014 -4.3939 -0.9394 -1.0601
 8164SOL     OW36124   2.831   1.312   2.426 -0.1144 -0.8112  0.0634
 8164SOL    HW136125   2.744   1.327   2.388 -0.0899 -0.8062  0.0091
 8164SOL    HW236126   2.829   1.219   2.450  0.1555 -1.2642 -1.7030
 8165SOL     OW36127   3.151   2.000   4.626  0.5262  0.2458  0.3097
 8165SOL    HW136128   3.101   2.079   4.604  0.8242  0.4538  0.3880
 8165SOL    HW236129   3.166   2.018   4.718  0.7897 -0.2087  0.3542
 8166SOL     OW36130   1.901   2.110  13.247 -0.4200 -0.4040  0.4582
 8166SOL    HW136131   1.886   2.034  13.192 -1.3418  1.9898 -2.6418
 8166SOL    HW236132   1.994   2.096  13.264 -0.3558 -1.8809 -1.1953
 8167SOL     OW36133   2.310   1.726  11.103 -0.3603  0.3539  0.0470
 8167SOL    HW136134   2.296   1.817  11.129  0.4448  0.8056 -1.0841
 8167SOL    HW236135   2.366   1.699  11.176  0.3365  0.8571 -0.2970
 8168SOL     OW36136   3.513   3.947   8.400 -0.3788 -0.7359  0.0636
 8168SOL    HW136137   3.423   3.912   8.396 -0.9458  0.6573  0.5639
 8168SOL    HW236138   3.555   3.877   8.450 -1.9210 -1.8741 -0.2021
 8169SOL     OW36139   2.919   0.947   7.412  0.3619 -0.0935  0.5881
 8169SOL    HW136140   2.927   0.931   7.506  0.3523  1.4892  0.8486
 8169SOL    HW236141   2.939   0.855   7.396  0.0561  0.0567 -0.6228
 8170SOL     OW36142   0.973   2.504   3.724 -0.2350  0.3718  0.1046
 8170SOL    HW136143   0.976   2.460   3.638 -3.3997  0.8349 -0.2211
 8170SOL    HW236144   0.880   2.507   3.746  0.0872  0.3053  1.4777
 8171SOL     OW36145   1.286   0.769  11.158 -0.4320  0.9602  0.4928
 8171SOL    HW136146   1.326   0.793  11.242  1.5063 -0.8645  0.0964
 8171SOL    HW236147   1.334   0.832  11.105  1.0178  0.0711  0.7539
 8172SOL     OW36148   0.458   2.831  14.294 -0.1683 -0.2456  0.2380
 8172SOL    HW136149   0.524   2.866  14.234  0.1443  0.7405  1.1517
 8172SOL    HW236150   0.448   2.900  14.360 -0.3082 -0.1378  0.1018
 8173SOL     OW36151   3.872   1.991   2.129 -0.0869  0.5327 -0.1614
 8173SOL    HW136152   3.802   1.941   2.087  0.2581 -1.5581  1.7430
 8173SOL    HW236153   3.899   2.054   2.063  1.4478  0.9038  0.8090
 8174SOL     OW36154   4.013   3.796   7.530  0.0752  0.0847 -0.0218
 8174SOL    HW136155   3.941   3.764   7.584 -1.5097  2.1836 -0.9149
 8174SOL    HW236156   4.077   3.726   7.546  0.0032 -0.3140 -1.4631
 8175SOL     OW36157   2.976   1.779   5.828  0.3825  0.7048 -0.0094
 8175SOL    HW136158   2.985   1.752   5.737  1.3925  0.7529  0.0756
 8175SOL    HW236159   3.069   1.783   5.853  0.8300 -0.5909 -1.4350
 8176SOL     OW36160   3.190   0.551  16.431  0.0066 -0.2617  1.1174
 8176SOL    HW136161   3.173   0.640  16.398  0.7218 -0.5975 -0.1817
 8176SOL    HW236162   3.165   0.554  16.523  1.7016  1.8655  1.5168
 8177SOL     OW36163   2.076   2.445   3.678  0.2201 -0.8479 -0.0884
 8177SOL    HW136164   2.081   2.517   3.741 -1.1907 -1.0404  0.2618
 8177SOL    HW236165   2.119   2.484   3.603 -0.0661 -0.4353 -0.0362
 8178SOL     OW36166   4.155   4.654   6.299  0.9736 -0.4655  0.4214
 8178SOL    HW136167   4.238   4.633   6.256  0.4300  0.0030 -0.8538
 8178SOL    HW236168   4.165   0.011   6.289  0.4476 -0.6637 -1.8406
 8179SOL     OW36169   1.271   1.255   2.752 -0.3926 -0.4818 -0.5096
 8179SOL    HW136170   1.300   1.345   2.763  1.0857 -1.4287  3.2571
 8179SOL    HW236171   1.198   1.277   2.694  0.0369 -1.8558 -1.5950
 8180SOL     OW36172   2.618   0.650   4.371 -0.2679 -0.4834 -0.0843
 8180SOL    HW136173   2.672   0.578   4.403  0.6453  0.9153  1.4965
 8180SOL    HW236174   2.685   0.691   4.317 -1.0253  1.7907  0.7255
 8181SOL     OW36175   0.263   1.138   8.058  1.1200  0.1093  0.0588
 8181SOL    HW136176   0.265   1.055   8.011  1.9882  1.0975 -1.6708
 8181SOL    HW236177   0.312   1.189   7.993  0.7605 -1.3470 -1.3436
 8182SOL     OW36178   1.559   4.468   9.086 -0.1530 -0.0560 -0.1580
 8182SOL    HW136179   1.466   4.488   9.096 -0.3760 -1.9301  1.5849
 8182SOL    HW236180   1.606   4.503   9.161 -1.1373 -0.1852  0.5161
 8183SOL     OW36181   1.990   4.205   4.592 -0.3110 -0.2385 -0.0392
 8183SOL    HW136182   1.895   4.211   4.579 -0.1417  0.7480 -0.8024
 8183SOL    HW236183   2.019   4.294   4.574  1.6305 -0.5384  1.6894
 8184SOL     OW36184   3.604   1.724   8.112  0.3064 -0.0424 -0.6398
 8184SOL    HW136185   3.642   1.751   8.028 -1.3524  1.8784 -0.7840
 8184SOL    HW236186   3.524   1.677   8.092  0.5521  0.4754 -2.8553
 8185SOL     OW36187   4.096   0.608   9.011  0.6366 -0.1815 -0.1985
 8185SOL    HW136188   4.006   0.634   9.034  0.5536  0.1692 -0.9118
 8185SOL    HW236189   4.143   0.690   9.021 -1.6379  0.7986  2.5575
 8186SOL     OW36190   4.726   1.459  16.580 -0.2001  0.5723  0.0660
 8186SOL    HW136191   0.036   1.438  16.499 -0.9379  2.4870 -0.8716
 8186SOL    HW236192   0.041   1.420  16.650 -0.3199  0.2097 -0.0474
 8187SOL     OW36193   3.295   1.966  12.766 -0.0252  0.1993  0.5682
 8187SOL    HW136194   3.352   1.913  12.710  0.3574  1.0821  0.1102
 8187SOL    HW236195   3.209   1.951  12.728  0.2578  2.0387 -0.8264
 8188SOL     OW36196   4.261   0.203   9.038 -0.0739  0.6434  0.0222
 8188SOL    HW136197   4.184   0.257   9.060 -1.5893 -1.7491  0.6102
 8188SOL    HW236198   4.224   0.118   9.015 -1.3668  1.4517 -0.9410
 8189SOL     OW36199   1.555   4.734   9.706 -0.0921 -0.1225 -0.2480
 8189SOL    HW136200   1.535   0.032   9.793 -0.6492 -1.8094  0.2968
 8189SOL    HW236201   1.537   4.643   9.728 -2.1858 -0.1556 -2.0910
 8190SOL     OW36202   2.852   0.137   6.254  0.2542  0.3957  0.2083
 8190SOL    HW136203   2.857   0.195   6.178  1.1448  2.9367  2.2070
 8190SOL    HW236204   2.927   0.171   6.303 -0.3559  0.0264  1.4055
 8191SOL     OW36205   4.023   2.911   8.422  0.1879  0.3012  0.4332
 8191SOL    HW136206   4.102   2.868   8.454 -0.6681 -3.7563 -2.9306
 8191SOL    HW236207   3.958   2.872   8.481 -0.6812  0.9409 -0.1046
 8192SOL     OW36208   3.434   3.518  13.224  0.1069 -0.0407  0.1045
 8192SOL    HW136209   3.462   3.433  13.258  3.1638  1.1249  0.4364
 8192SOL    HW236210   3.483   3.512  13.142 -1.0392  0.6846 -0.6421
 8193SOL     OW36211   4.670   2.897   8.573  0.0383  0.1375 -0.0117
 8193SOL    HW136212   4.578   2.870   8.576  0.4773 -1.3713 -0.3983
 8193SOL    HW236213   4.714   2.828   8.622 -0.1861 -0.7451 -1.0578
 8194SOL     OW36214   4.092   2.128   5.753 -0.3088 -0.1553  0.7925
 8194SOL    HW136215   4.142   2.194   5.802 -1.7556  1.7077 -0.2679
 8194SOL    HW236216   4.110   2.051   5.807  0.7573 -1.6674 -1.7120
 8195SOL     OW36217   4.507   3.280  12.488 -0.3363 -0.0695 -0.2612
 8195SOL    HW136218   4.580   3.312  12.434  0.2952 -0.6478  0.2416
 8195SOL    HW236219   4.463   3.246  12.410 -0.5962 -1.0293  0.3087
 8196SOL     OW36220   1.975   1.459   3.326  0.1212 -0.2359  0.4512
 8196SOL    HW136221   1.950   1.453   3.418  0.8434  1.8073  0.7765
 8196SOL    HW236222   2.030   1.536   3.317 -0.7643  0.6429  2.5828
 8197SOL     OW36223   2.059   4.671   8.201 -0.5737  0.5537  0.0652
 8197SOL    HW136224   2.105   4.717   8.271  3.2452  1.2817 -2.9705
 8197SOL    HW236225   1.987   4.627   8.247 -1.1192  0.1021 -1.2211
 8198SOL     OW36226   2.950   3.467   8.610  0.0007  0.3010 -0.1111
 8198SOL    HW136227   2.949   3.548   8.559  0.0353  0.5664  0.3063
 8198SOL    HW236228   2.877   3.419   8.570  0.7075 -0.7607 -0.1048
 8199SOL     OW36229   4.206   0.473   3.265 -0.3007  0.3786 -0.0475
 8199SOL    HW136230   4.297   0.490   3.241  0.1741  0.2312  1.5987
 8199SOL    HW236231   4.204   0.380   3.241  0.2868  0.4340 -0.3050
 8200SOL     OW36232   4.214   4.018   3.454  0.1378 -0.2818  0.4754
 8200SOL    HW136233   4.288   3.958   3.444 -0.5263 -0.7247 -1.8457
 8200SOL    HW236234   4.142   3.968   3.416 -0.0761  0.2192  0.2286
 8201SOL     OW36235   4.634   3.911   8.581  0.2569 -0.6958 -1.1261
 8201SOL    HW136236   4.555   3.906   8.635  1.3282  0.9176  0.6263
 8201SOL    HW236237   4.698   3.940   8.646 -2.4355  1.4434  0.5552
 8202SOL     OW36238   1.671   4.134   7.584  0.1905 -0.2321  0.2730
 8202SOL    HW136239   1.627   4.080   7.519 -0.6539 -3.0236  3.2006
 8202SOL    HW236240   1.763   4.112   7.572  0.1685  0.0000 -0.3121
 8203SOL     OW36241   2.849   2.484   4.524 -0.5285 -0.0008 -0.2763
 8203SOL    HW136242   2.889   2.397   4.526  0.4214  0.4353 -0.1401
 8203SOL    HW236243   2.838   2.506   4.432 -0.5837  1.3221  0.0422
 8204SOL     OW36244   3.831   2.887   8.216 -0.1404 -0.3114 -0.3000
 8204SOL    HW136245   3.861   2.797   8.202  0.7012 -0.3412  1.7127
 8204SOL    HW236246   3.905   2.917   8.269  0.1745  0.5621 -1.2238
 8205SOL     OW36247   4.460   3.666  11.280 -0.1125 -0.7051 -0.0064
 8205SOL    HW136248   4.535   3.609  11.268  1.0662  1.2009 -1.6197
 8205SOL    HW236249   4.437   3.673  11.187  0.7107  1.3780 -0.0623
 8206SOL     OW36250   1.905   0.842   6.372  0.1286  0.1861 -0.5967
 8206SOL    HW136251   1.957   0.844   6.292  0.6250  2.0649 -0.2205
 8206SOL    HW236252   1.917   0.930   6.408  4.9795 -1.7622  2.4637
 8207SOL     OW36253   4.440   2.186  10.501  0.3675 -0.1218 -0.8744
 8207SOL    HW136254   4.474   2.107  10.459  0.7726 -0.7241  0.5652
 8207SOL    HW236255   4.474   2.173  10.590  2.6625  0.9030 -1.6119
 8208SOL     OW36256   1.163   3.982   4.985  0.0269  0.1518 -0.1231
 8208SOL    HW136257   1.091   3.998   4.924 -0.6510  1.4331  1.0193
 8208SOL    HW236258   1.190   3.893   4.960  1.0032  0.9466 -1.9029
 8209SOL     OW36259   3.726   1.444  13.674  0.3039  0.2477  0.1590
 8209SOL    HW136260   3.684   1.420  13.757 -1.2935  1.2674 -0.3500
 8209SOL    HW236261   3.677   1.522  13.648 -2.2400 -2.3779 -2.8577
 8210SOL     OW36262   0.929   4.043   1.964 -0.2911 -0.2870 -0.4013
 8210SOL    HW136263   0.879   4.078   1.890 -0.6831  1.6422  0.7620
 8210SOL    HW236264   0.891   3.957   1.982  1.7327 -0.9374  0.7881
 8211SOL     OW36265   3.585   3.703  10.120 -0.2606  0.3013 -0.2098
 8211SOL    HW136266   3.617   3.615  10.139 -2.0841 -0.8289 -2.3655
 8211SOL    HW236267   3.578   3.707  10.025  0.8473 -2.0006 -0.3802
 8212SOL     OW36268   4.391   0.068   5.229  0.3172 -0.1821  0.0194
 8212SOL    HW136269   4.484   0.056   5.209  0.5453  0.7183  0.5463
 8212SOL    HW236270   4.367   0.128   5.159  2.7974 -0.2994 -0.9489
 8213SOL     OW36271   0.092   3.115   7.397 -0.1932 -0.6929 -0.0309
 8213SOL    HW136272   0.093   3.088   7.489 -1.0658 -2.4015 -0.5223
 8213SOL    HW236273   0.135   3.043   7.352 -0.8704 -0.9668 -0.2494
 8214SOL     OW36274   0.042   1.933   2.640  0.0642  0.0139 -0.3079
 8214SOL    HW136275   0.133   1.960   2.624 -0.0632  1.0059  0.6962
 8214SOL    HW236276   0.043   1.842   2.609  0.9008  0.2633 -1.0167
 8215SOL     OW36277   2.600   1.880   4.748  0.1966  0.0065  0.6144
 8215SOL    HW136278   2.531   1.824   4.785  0.4612 -0.5277  0.3081
 8215SOL    HW236279   2.677   1.834   4.781  0.9643  0.8832  0.0164
 8216SOL     OW36280   1.711   1.805   7.088 -0.4572  0.4675 -0.3387
 8216SOL    HW136281   1.643   1.767   7.145  0.6755 -1.7700 -0.4569
 8216SOL    HW236282   1.771   1.834   7.157 -1.8386  2.9852 -0.2109
 8217SOL     OW36283   4.279   2.423   7.286 -0.2339  0.2025  0.1278
 8217SOL    HW136284   4.230   2.345   7.311  0.7910 -0.0723  1.3253
 8217SOL    HW236285   4.209   2.476   7.249 -1.5123 -1.0733  0.7436
 8218SOL     OW36286   0.193   2.480   8.091 -0.1971  0.7665  0.5541
 8218SOL    HW136287   0.119   2.422   8.077 -0.1178  0.1955  2.4906
 8218SOL    HW236288   0.206   2.466   8.184  2.0875  0.5983  0.2054
 8219SOL     OW36289   3.257   2.408   4.265 -0.3288 -0.4571  0.3289
 8219SOL    HW136290   3.163   2.389   4.259 -0.4123  0.6948 -1.8949
 8219SOL    HW236291   3.279   2.353   4.339 -0.9119 -0.1271  0.7447
 8220SOL     OW36292   3.518   2.464   2.768 -0.4672  0.3572 -0.2378
 8220SOL    HW136293   3.592   2.405   2.757  0.6412  2.0523 -1.8984
 8220SOL    HW236294   3.455   2.412   2.818 -1.2538  1.1457 -0.4081
 8221SOL     OW36295   2.667   0.964   5.234  0.3942  0.0769 -0.0963
 8221SOL    HW136296   2.712   1.048   5.249  2.2396 -0.8685 -0.3512
 8221SOL    HW236297   2.713   0.940   5.154  2.3933  0.7097  0.8660
 8222SOL     OW36298   0.265   4.530   9.355  0.2766  0.0131 -0.1009
 8222SOL    HW136299   0.176   4.561   9.370 -0.1098  0.1470 -2.5683
 8222SOL    HW236300   0.315   4.587   9.412  0.8113 -2.6259  2.0856
 8223SOL     OW36301   1.231   4.012   3.717 -0.0561 -0.1973  0.3736
 8223SOL    HW136302   1.326   4.025   3.713  0.2091 -2.4716 -0.5533
 8223SOL    HW236303   1.188   4.095   3.695 -0.2970 -0.3521  0.2593
 8224SOL     OW36304   3.939   1.381  13.382 -0.2064 -0.0399  0.7236
 8224SOL    HW136305   3.880   1.317  13.342 -2.3857  1.3319  1.7573
 8224SOL    HW236306   3.882   1.455  13.363  0.7139  0.5487  0.2675
 8225SOL     OW36307   1.524   4.298  16.754  0.0032  0.4310  0.2730
 8225SOL    HW136308   1.575   4.360  16.806  0.4791 -0.2210  0.5822
 8225SOL    HW236309   1.582   4.253  16.693  2.0652  3.6412 -0.1188
 8226SOL     OW36310   1.716   1.150   9.065 -0.0460 -0.1945  0.2033
 8226SOL    HW136311   1.778   1.097   9.116  1.4960  0.3154 -1.1496
 8226SOL    HW236312   1.742   1.113   8.981  1.9562  1.5524  0.0610
 8227SOL     OW36313   0.903   3.518   9.077  0.4435 -0.0334  0.3483
 8227SOL    HW136314   0.922   3.585   9.011  2.7737  0.1793  1.2272
 8227SOL    HW236315   0.956   3.445   9.045  1.1789  0.3987  0.5812
 8228SOL     OW36316   3.929   4.295  10.747  0.2775  0.8080 -0.1941
 8228SOL    HW136317   3.890   4.367  10.796 -0.3724  1.0186 -1.0468
 8228SOL    HW236318   3.985   4.344  10.686 -0.7143  0.3522 -1.4661
 8229SOL     OW36319   1.202   3.910   3.449  0.3745  0.0987 -0.3196
 8229SOL    HW136320   1.192   3.927   3.543 -0.5521 -1.4323 -0.1241
 8229SOL    HW236321   1.123   3.861   3.423  2.8586 -3.1966 -1.6402
 8230SOL     OW36322   1.702   4.691   2.804 -0.0463  0.0209 -0.5965
 8230SOL    HW136323   1.730   4.608   2.765  1.3925  0.8492 -1.2879
 8230SOL    HW236324   1.668   0.001   2.728 -0.4347 -0.3818 -0.6730
 8231SOL     OW36325   3.251   0.443   2.177 -0.6009  0.2308  0.1845
 8231SOL    HW136326   3.279   0.384   2.107 -1.6446 -0.6559  0.5246
 8231SOL    HW236327   3.162   0.409   2.186 -0.3986  0.1111  1.7464
 8232SOL     OW36328   2.097   4.427   3.527 -0.1467 -0.1455  0.0491
 8232SOL    HW136329   2.042   4.374   3.585  1.0055  0.2667  1.5416
 8232SOL    HW236330   2.036   4.437   3.454  0.6755  0.9336 -0.4899
 8233SOL     OW36331   2.504   0.423   6.643 -0.4547  0.1766  0.0651
 8233SOL    HW136332   2.563   0.394   6.574  0.5861 -0.9412  1.4087
 8233SOL    HW236333   2.547   0.505   6.667  0.7738 -1.0532  2.0538
 8234SOL     OW36334   0.043   0.623  15.410  0.1132 -0.3348 -0.0287
 8234SOL    HW136335   0.123   0.620  15.463  0.1613 -0.2100 -0.0934
 8234SOL    HW236336   0.085   0.673  15.340 -0.6858  1.0205  0.4685
 8235SOL     OW36337   3.391   1.442  15.769 -0.0223 -0.5018  0.2713
 8235SOL    HW136338   3.299   1.453  15.794 -0.2236 -2.2299  0.3198
 8235SOL    HW236339   3.391   1.470  15.678  0.3757 -1.8055 -0.1281
 8236SOL     OW36340   1.414   1.035  11.606 -0.3677 -0.0109 -0.0452
 8236SOL    HW136341   1.452   0.960  11.559 -0.5400 -1.8295  2.7245
 8236SOL    HW236342   1.374   0.989  11.680 -0.9399 -0.2342 -0.4936
 8237SOL     OW36343   4.731   4.139   1.381 -0.2939 -0.2701  0.1855
 8237SOL    HW136344   0.083   4.145   1.347  0.8420  0.9457  3.3713
 8237SOL    HW236345   4.731   4.056   1.428 -0.1125  1.4932  3.2778
 8238SOL     OW36346   1.368   2.815   3.446 -0.3767  0.5226  1.0726
 8238SOL    HW136347   1.365   2.779   3.357  0.3148  0.7493  0.9536
 8238SOL    HW236348   1.359   2.909   3.430 -2.7841  0.1651  0.3147
 8239SOL     OW36349   3.959   2.986   3.663 -0.0020  0.5537 -0.2560
 8239SOL    HW136350   4.007   2.943   3.733  0.7320  2.0488  0.1531
 8239SOL    HW236351   3.885   2.926   3.653 -0.7627  1.5968 -0.8675
 8240SOL     OW36352   4.412   3.590   7.012 -0.2079 -0.0672 -0.0432
 8240SOL    HW136353   4.421   3.534   7.089  2.1879 -1.4909 -1.3784
 8240SOL    HW236354   4.412   3.674   7.058 -0.9949 -1.4207  2.4206
 8241SOL     OW36355   3.646   3.188   4.729 -0.2068  0.9756 -0.3604
 8241SOL    HW136356   3.643   3.093   4.743 -0.8695  0.8147 -1.5247
 8241SOL    HW236357   3.594   3.224   4.801 -0.5924 -0.7788  0.2637
 8242SOL     OW36358   4.601   3.901   8.312 -0.0409 -0.2737  0.1115
 8242SOL    HW136359   4.648   3.976   8.274  2.4566 -2.8461 -1.8375
 8242SOL    HW236360   4.629   3.909   8.403  2.7503  0.9188 -0.8392
 8243SOL     OW36361   0.720   3.305  14.187  0.0616 -0.3605  0.0365
 8243SOL    HW136362   0.713   3.390  14.144 -1.8151 -0.3653  0.3099
 8243SOL    HW236363   0.630   3.271  14.189 -0.4925  1.1032  0.1713
 8244SOL     OW36364   1.110   3.763   5.724  0.6674  0.2284  0.5886
 8244SOL    HW136365   1.070   3.676   5.718 -1.6264  1.7126 -5.2682
 8244SOL    HW236366   1.199   3.738   5.747  0.1684 -2.0969  0.0147
 8245SOL     OW36367   4.628   3.748   4.874  0.7571 -0.6344 -0.0705
 8245SOL    HW136368   4.722   3.756   4.889  0.1526 -0.3024  3.6718
 8245SOL    HW236369   4.628   3.678   4.809 -0.4156  0.4880 -1.2831
 8246SOL     OW36370   2.466   1.717   5.901  0.4222 -0.3691  0.3023
 8246SOL    HW136371   2.542   1.716   5.959  0.6684  1.6908 -0.0126
 8246SOL    HW236372   2.393   1.739   5.959 -0.5108  1.0853 -1.4358
 8247SOL     OW36373   3.708   4.355  15.766  0.4044  0.4139  0.3923
 8247SOL    HW136374   3.616   4.360  15.793 -0.0289  0.6732 -1.1037
 8247SOL    HW236375   3.738   4.441  15.796 -2.8455  0.5115  3.3692
 8248SOL     OW36376   2.819   4.318   2.697  0.0058  0.0317 -0.2208
 8248SOL    HW136377   2.890   4.253   2.696  0.1264  0.1729 -1.6058
 8248SOL    HW236378   2.831   4.336   2.790  1.5031  3.4133 -1.0808
 8249SOL     OW36379   3.409   1.511   3.079  0.2097  0.8830 -0.2114
 8249SOL    HW136380   3.446   1.422   3.071  0.7736  1.3408 -2.7213
 8249SOL    HW236381   3.480   1.559   3.121  0.1633  0.8719 -0.1188
 8250SOL     OW36382   3.862   4.262  15.034  0.2028 -0.2498 -0.3732
 8250SOL    HW136383   3.858   4.301  14.946 -0.8717  1.2080  0.3182
 8250SOL    HW236384   3.797   4.316  15.080  1.5887  0.5303  0.6681
 8251SOL     OW36385   3.396   3.134   5.314  0.2172 -0.2397  0.1096
 8251SOL    HW136386   3.457   3.203   5.338  0.0930  0.0707 -0.4584
 8251SOL    HW236387   3.354   3.168   5.235 -1.9678  0.2404  1.4563
 8252SOL     OW36388   2.655   2.309  13.977 -0.3093  0.1540  0.1879
 8252SOL    HW136389   2.639   2.252  13.902  2.7700 -0.0624 -0.2825
 8252SOL    HW236390   2.707   2.246  14.027  0.3489 -0.0685 -0.7915
 8253SOL     OW36391   2.527   3.910   2.815  0.0331  0.0331 -0.0248
 8253SOL    HW136392   2.578   3.947   2.743 -1.8576  0.7007 -1.0274
 8253SOL    HW236393   2.450   3.967   2.811  0.2755  0.5070  2.5418
 8254SOL     OW36394   0.609   1.332   2.369  0.0069 -0.2522 -0.0806
 8254SOL    HW136395   0.513   1.332   2.366  0.0294  0.1208 -0.8251
 8254SOL    HW236396   0.631   1.246   2.333  1.1426 -0.3156  0.7724
 8255SOL     OW36397   2.480   3.469  14.895  0.4203  0.4001 -0.1589
 8255SOL    HW136398   2.423   3.531  14.849  0.4640  0.8730  0.4211
 8255SOL    HW236399   2.500   3.513  14.978  2.0169 -1.9175  0.6851
 8256SOL     OW36400   0.914   3.616  12.461 -0.1794 -0.7955 -0.4811
 8256SOL    HW136401   0.831   3.582  12.426  0.2358  0.9941 -3.1877
 8256SOL    HW236402   0.894   3.623  12.554 -1.3410 -1.1447 -0.6993
 8257SOL     OW36403   0.710   3.595   2.646 -0.0763  0.5264  0.1305
 8257SOL    HW136404   0.794   3.636   2.669  0.7537 -0.5615 -0.9325
 8257SOL    HW236405   0.698   3.531   2.716  0.2116 -2.1422 -2.2408
 8258SOL     OW36406   4.286   3.907   1.743  0.2504  0.0057 -0.2693
 8258SOL    HW136407   4.298   3.926   1.836 -2.0619  1.6906 -0.3146
 8258SOL    HW236408   4.256   3.817   1.751 -1.0730  0.6108  1.5058
 8259SOL     OW36409   0.786   2.580   9.032 -0.1158 -0.3468  0.3912
 8259SOL    HW136410   0.705   2.528   9.034  0.1878 -0.7650  1.6132
 8259SOL    HW236411   0.792   2.603   8.939 -1.7956 -0.7905  0.1611
 8260SOL     OW36412   3.075   0.007   8.384 -0.2893  0.2256  0.2216
 8260SOL    HW136413   3.010   4.674   8.389  1.7287 -1.6409 -0.3207
 8260SOL    HW236414   3.127   4.705   8.454  1.3224  2.5457  0.3201
 8261SOL     OW36415   1.510   1.747   3.883  0.3239 -0.1031 -0.3237
 8261SOL    HW136416   1.483   1.658   3.858 -2.4013  1.3680 -2.6542
 8261SOL    HW236417   1.525   1.776   3.793  0.2990 -3.2960 -1.3631
 8262SOL     OW36418   2.037   3.615   2.933 -0.0726  0.0154 -0.1455
 8262SOL    HW136419   1.943   3.600   2.930  0.1301 -0.9742 -1.8261
 8262SOL    HW236420   2.052   3.637   3.024 -0.8073 -0.5941  0.1258
 8263SOL     OW36421   0.633   3.746  12.750  0.4282 -0.6001 -0.4140
 8263SOL    HW136422   0.712   3.694  12.764  0.9117 -0.2564 -1.8700
 8263SOL    HW236423   0.625   3.784  12.837  0.1409 -2.0148  0.1672
 8264SOL     OW36424   2.974   2.488   6.668 -0.0605  0.2189  0.7984
 8264SOL    HW136425   3.026   2.499   6.588  1.5936  1.7054  2.1026
 8264SOL    HW236426   2.964   2.393   6.659  1.3690  0.2145 -0.7311
 8265SOL     OW36427   3.253   0.375   5.496  0.4211  0.3168 -0.2844
 8265SOL    HW136428   3.323   0.339   5.549 -0.4888 -1.1516 -0.0862
 8265SOL    HW236429   3.267   0.316   5.422  0.8147 -0.3528  0.3370
 8266SOL     OW36430   2.844   4.230   9.820  0.4408 -0.4400 -0.8559
 8266SOL    HW136431   2.777   4.166   9.794  1.5462 -1.6749 -0.7015
 8266SOL    HW236432   2.920   4.178   9.847  1.5963  1.9198  0.4549
 8267SOL     OW36433   0.248   2.294  14.612  0.0357  0.4371  0.0874
 8267SOL    HW136434   0.278   2.383  14.630 -1.5652  0.6568  1.7779
 8267SOL    HW236435   0.324   2.268  14.561  0.6600 -0.3899  1.4132
 8268SOL     OW36436   1.596   1.008   1.536 -0.2737 -0.6311  1.2162
 8268SOL    HW136437   1.594   1.092   1.491 -2.1313 -1.0952  0.4167
 8268SOL    HW236438   1.690   1.004   1.552 -0.4984 -0.5467  2.5445
 8269SOL     OW36439   3.343   0.192   4.973 -0.2714 -0.1216 -0.0641
 8269SOL    HW136440   3.325   0.130   5.043  2.3954 -0.3014  0.4519
 8269SOL    HW236441   3.362   0.132   4.901 -0.4660 -0.9307  0.5603
 8270SOL     OW36442   2.568   2.625  12.563 -0.3504  0.2584  0.2689
 8270SOL    HW136443   2.657   2.644  12.533  0.2910  0.0084  1.9861
 8270SOL    HW236444   2.585   2.619  12.657  1.1191 -0.9112 -0.0693
 8271SOL     OW36445   2.535   0.148   2.280  0.0044  0.4297  0.2060
 8271SOL    HW136446   2.550   0.055   2.294  0.9038  0.3055 -1.7024
 8271SOL    HW236447   2.621   0.188   2.271  0.3947 -0.5994 -0.5295
 8272SOL     OW36448   1.698   4.459  16.881 -0.8646 -0.4075  0.2621
 8272SOL    HW136449   1.767   4.491  16.823 -0.0132 -0.2306  1.3688
 8272SOL    HW236450   1.631   4.527  16.880  0.3329  0.7657  0.6026
 8273SOL     OW36451   1.472   1.458   8.408 -0.1360  0.3364 -0.2977
 8273SOL    HW136452   1.560   1.422   8.422  0.1976  1.4752  0.5520
 8273SOL    HW236453   1.426   1.393   8.354  0.5029 -0.6495  0.3365
 8274SOL     OW36454   2.409   1.723   4.882  0.0277  0.2471 -0.1449
 8274SOL    HW136455   2.325   1.745   4.924 -1.0788 -1.2482 -1.5612
 8274SOL    HW236456   2.408   1.628   4.890  2.9641  0.0863 -1.9042
 8275SOL     OW36457   4.055   2.588  15.187  0.1043 -0.6031  0.1069
 8275SOL    HW136458   4.106   2.528  15.243 -0.7572 -2.4643 -1.0903
 8275SOL    HW236459   4.015   2.535  15.118 -0.4734  0.0278 -0.0383
 8276SOL     OW36460   2.709   0.791  17.545  0.3431 -0.0690 -0.0782
 8276SOL    HW136461   2.684   0.739  17.621  0.6252 -1.2636 -0.7980
 8276SOL    HW236462   2.658   0.872  17.546  2.6419  1.3766  1.4385
 8277SOL     OW36463   1.290   4.253   6.689  0.8318 -0.2995 -0.6848
 8277SOL    HW136464   1.359   4.193   6.660  2.7324  1.9807 -0.8837
 8277SOL    HW236465   1.235   4.257   6.611  1.8940  1.0709 -1.3431
 8278SOL     OW36466   1.400   1.600  13.742 -0.4983 -0.1693  0.7903
 8278SOL    HW136467   1.367   1.533  13.681 -1.3922  0.8169  0.1867
 8278SOL    HW236468   1.317   1.619  13.785  0.0869 -1.4569  2.4598
 8279SOL     OW36469   0.121   2.280   2.936 -0.5378 -0.1651  0.0530
 8279SOL    HW136470   0.158   2.284   3.024  2.3767 -1.1144 -1.1207
 8279SOL    HW236471   0.084   2.192   2.939 -0.3118 -0.3047 -1.1764
 8280SOL     OW36472   1.199   2.487   8.230  0.5033 -0.1557  0.0951
 8280SOL    HW136473   1.201   2.405   8.278 -0.4890  0.6747  1.5402
 8280SOL    HW236474   1.116   2.522   8.263  0.8484  1.6283 -0.9134
 8281SOL     OW36475   3.010   0.378  10.873  0.2547  0.4476  0.7647
 8281SOL    HW136476   3.096   0.384  10.916  1.7061  0.9509 -2.1978
 8281SOL    HW236477   3.035   0.300  10.823  2.2260  1.3462  0.3139
 8282SOL     OW36478   2.767   4.437  10.378 -0.3067  0.4996 -0.0186
 8282SOL    HW136479   2.817   4.392  10.445  1.3615  3.1677  0.5061
 8282SOL    HW236480   2.677   4.434  10.412  0.2435 -0.1782  1.3296
 8283SOL     OW36481   1.927   3.026   0.782 -0.4628  0.0140  0.5358
 8283SOL    HW136482   1.928   2.970   0.859  0.4599 -1.7750 -0.7632
 8283SOL    HW236483   1.991   2.981   0.726 -1.1591 -0.2045 -0.0887
 8284SOL     OW36484   3.601   3.357  16.882 -0.0823  0.5321  0.6943
 8284SOL    HW136485   3.677   3.335  16.936  0.0041  1.1485  0.8307
 8284SOL    HW236486   3.636   3.433  16.834  2.4103 -0.3988  1.0103
 8285SOL     OW36487   2.602   1.192   5.728 -0.2495  0.4305  0.6107
 8285SOL    HW136488   2.571   1.171   5.640 -1.2514 -0.0802  1.0825
 8285SOL    HW236489   2.696   1.207   5.720 -0.2419 -1.5287 -2.7824
 8286SOL     OW36490   2.746   1.990   4.170 -0.0737 -0.1875  0.1265
 8286SOL    HW136491   2.719   1.981   4.261  1.8493 -1.5248  0.5750
 8286SOL    HW236492   2.675   1.944   4.127 -0.3065 -0.4451  0.7789
 8287SOL     OW36493   4.554   0.873   7.830 -0.0440 -0.1195 -1.1722
 8287SOL    HW136494   4.508   0.944   7.786  1.2691  1.3712 -0.1192
 8287SOL    HW236495   4.643   0.906   7.836 -0.5855  1.0018  0.5015
 8288SOL     OW36496   0.519   2.893   7.895 -0.0123  0.5060  0.5165
 8288SOL    HW136497   0.432   2.875   7.860  0.7614 -1.4663 -0.3951
 8288SOL    HW236498   0.576   2.838   7.841 -2.1924 -0.0252 -1.2357
 8289SOL     OW36499   0.863   3.708   0.857  0.3981 -0.0474 -0.1762
 8289SOL    HW136500   0.843   3.693   0.765 -1.3335 -1.7750  0.4635
 8289SOL    HW236501   0.956   3.684   0.858  0.4391  0.1361  2.2619
 8290SOL     OW36502   2.339   3.142  15.321 -0.0252  0.0709 -0.1503
 8290SOL    HW136503   2.325   3.182  15.235  0.5915 -0.4177 -0.4785
 8290SOL    HW236504   2.355   3.218  15.376 -0.3368 -0.4583  0.6729
 8291SOL     OW36505   3.026   1.325  12.344  0.1607  0.2248  0.0977
 8291SOL    HW136506   3.053   1.288  12.428 -3.4219  1.8349  1.9426
 8291SOL    HW236507   3.096   1.289  12.289  0.1121  0.1248  0.1019
 8292SOL     OW36508   3.523   1.478   7.512  0.3428  0.3649 -0.3013
 8292SOL    HW136509   3.536   1.499   7.420  1.3766  4.5661  0.7638
 8292SOL    HW236510   3.480   1.394   7.501  0.6307 -0.2725  3.3914
 8293SOL     OW36511   0.265   0.117  15.628 -0.2506  0.2114  0.3099
 8293SOL    HW136512   0.231   0.038  15.586  1.3294 -0.5356  0.4350
 8293SOL    HW236513   0.301   0.080  15.708  1.5761  1.9683  0.3040
 8294SOL     OW36514   1.021   1.939   1.065  0.3219 -0.1916  0.1673
 8294SOL    HW136515   1.086   1.953   1.134  1.2508 -0.9948 -0.5427
 8294SOL    HW236516   1.037   2.012   1.005  0.0056  1.1449  1.7071
 8295SOL     OW36517   0.968   4.240   8.839 -0.2586  0.2122 -0.6138
 8295SOL    HW136518   1.061   4.259   8.848 -0.1355 -1.0002  0.5922
 8295SOL    HW236519   0.924   4.325   8.830 -0.2027  0.4207  1.2393
 8296SOL     OW36520   3.757   4.397  14.808 -0.1947 -0.4365  0.1288
 8296SOL    HW136521   3.805   4.480  14.815  0.8950 -0.9692 -1.1528
 8296SOL    HW236522   3.681   4.421  14.755  0.7486 -1.6919 -1.7720
 8297SOL     OW36523   4.533   4.173   4.162  1.0293 -0.0883 -0.4442
 8297SOL    HW136524   4.571   4.126   4.237 -2.4336 -1.2475  0.5484
 8297SOL    HW236525   4.582   4.255   4.160  0.5978  0.1149 -2.5382
 8298SOL     OW36526   1.809   2.768  16.170  0.3493  0.0058 -0.2049
 8298SOL    HW136527   1.815   2.824  16.093  0.7752  0.9131  0.4877
 8298SOL    HW236528   1.713   2.771  16.180  0.1504 -2.1570 -1.5362
 8299SOL     OW36529   3.497   3.452   7.148  0.6669 -0.5138 -0.1407
 8299SOL    HW136530   3.405   3.425   7.147  0.1301  1.2895 -1.3741
 8299SOL    HW236531   3.505   3.530   7.203  0.8945  0.6173 -1.7900
 8300SOL     OW36532   4.666   1.616   8.599 -0.3487 -0.0002  1.1495
 8300SOL    HW136533   4.710   1.682   8.654  0.4947  0.2586  0.1659
 8300SOL    HW236534   4.695   1.632   8.510 -0.2146 -1.6098  0.9032
 8301SOL     OW36535   2.233   0.549  11.882  0.6254  0.1932 -0.1541
 8301SOL    HW136536   2.186   0.622  11.922  0.2807 -0.4408  0.5851
 8301SOL    HW236537   2.322   0.585  11.875 -0.1125  1.7647 -1.4640
 8302SOL     OW36538   0.559   1.232   3.648 -0.0701 -0.0492  0.1497
 8302SOL    HW136539   0.498   1.167   3.684  0.6439 -1.2351 -0.7994
 8302SOL    HW236540   0.518   1.306   3.693 -2.0402 -1.1184  0.1040
 8303SOL     OW36541   1.911   1.062   2.543  0.2476 -0.3123 -0.1156
 8303SOL    HW136542   1.933   0.982   2.495  1.1516 -0.5060  0.6198
 8303SOL    HW236543   1.886   1.024   2.628 -1.9464  0.2000 -0.5458
 8304SOL     OW36544   1.266   1.658   7.036  0.7044 -0.3691  0.4937
 8304SOL    HW136545   1.234   1.701   6.957 -0.4460  2.1173  2.3412
 8304SOL    HW236546   1.208   1.582   7.044  1.3271 -0.7561  1.3093
 8305SOL     OW36547   0.559   0.265  12.267 -0.1292  0.5524 -0.1162
 8305SOL    HW136548   0.601   0.314  12.337  0.8866  1.9464 -1.7163
 8305SOL    HW236549   0.477   0.312  12.250 -0.1072  0.5127 -0.3236
 8306SOL     OW36550   2.505   0.693   4.601 -0.2003 -0.1508 -0.3711
 8306SOL    HW136551   2.528   0.706   4.509  0.3791 -2.3469 -0.5394
 8306SOL    HW236552   2.471   0.770   4.647 -0.8927 -0.3460 -0.5583
 8307SOL     OW36553   4.140   2.447   4.734  0.1690 -0.5204  0.3457
 8307SOL    HW136554   4.184   2.376   4.780  0.1468 -0.1411  0.9478
 8307SOL    HW236555   4.210   2.457   4.670 -1.6753  0.1104 -1.5872
 8308SOL     OW36556   1.507   3.389  17.227  0.1894 -0.7787  0.0715
 8308SOL    HW136557   1.418   3.404  17.257 -0.5014 -0.9121 -1.9046
 8308SOL    HW236558   1.506   3.304  17.271 -0.7895  0.2302  1.9735
 8309SOL     OW36559   2.660   0.325   5.891  0.0381  0.3195 -0.7368
 8309SOL    HW136560   2.627   0.240   5.919  0.8993  0.3651  0.3701
 8309SOL    HW236561   2.687   0.378   5.965 -1.0680 -0.4397  0.2033
 8310SOL     OW36562   1.089   2.945  15.224 -0.0512 -0.0407 -0.0329
 8310SOL    HW136563   1.118   2.857  15.248 -0.9654  0.0583  1.4639
 8310SOL    HW236564   1.089   2.937  15.129  0.7183 -1.4667  0.0880
 8311SOL     OW36565   3.586   1.339  10.475  0.6478  0.2234  0.2094
 8311SOL    HW136566   3.513   1.380  10.429  1.4650 -1.0391 -2.2538
 8311SOL    HW236567   3.610   1.275  10.408  0.3643  0.2548  0.0786
 8312SOL     OW36568   2.506   4.080   4.312  0.2274 -0.2677 -0.6262
 8312SOL    HW136569   2.597   4.050   4.321  0.1678 -0.2319  0.0767
 8312SOL    HW236570   2.486   4.045   4.226 -1.8696  0.9813 -0.6497
 8313SOL     OW36571   0.213   1.582   5.912 -0.0959  0.4810 -0.5241
 8313SOL    HW136572   0.139   1.636   5.938 -0.3637  0.5429 -1.4196
 8313SOL    HW236573   0.264   1.567   5.992  1.4377  0.6134 -1.4807
 8314SOL     OW36574   4.706   0.835  11.576 -0.2036  0.1505 -0.5759
 8314SOL    HW136575   0.015   0.899  11.522 -0.0209 -0.1064 -0.7212
 8314SOL    HW236576   4.612   0.851  11.562 -0.5869 -0.3932  1.3776
 8315SOL     OW36577   3.231   2.622   7.523  0.1318 -0.1109 -0.1786
 8315SOL    HW136578   3.256   2.641   7.433 -3.2128 -1.8377 -1.4396
 8315SOL    HW236579   3.242   2.703   7.573  0.5556  0.1189 -0.6434
 8316SOL     OW36580   2.566   4.317   2.547  0.2584  0.1443  0.3374
 8316SOL    HW136581   2.601   4.259   2.480  0.2857  0.1255  0.3675
 8316SOL    HW236582   2.640   4.306   2.607  0.5611  0.8493  0.0947
 8317SOL     OW36583   2.052   2.147  12.326  0.0273  0.7671 -0.0394
 8317SOL    HW136584   2.128   2.096  12.354 -0.8896 -1.6644 -1.9428
 8317SOL    HW236585   2.100   2.229  12.318  2.2602 -0.4501  0.8495
 8318SOL     OW36586   0.896   2.783  13.371 -0.2665 -0.3941  0.0244
 8318SOL    HW136587   0.907   2.796  13.277  0.4391 -3.8392 -0.3560
 8318SOL    HW236588   0.983   2.816  13.394  0.8930 -1.9364 -2.1743
 8319SOL     OW36589   3.556   1.256   4.329  0.3813  1.0353  0.1906
 8319SOL    HW136590   3.643   1.218   4.327  0.0592  0.2148  1.8535
 8319SOL    HW236591   3.538   1.258   4.423  0.5096 -0.0454  0.2297
 8320SOL     OW36592   0.246   0.294   5.804  0.0178 -0.5198  0.3578
 8320SOL    HW136593   0.154   0.273   5.824  0.6889 -0.0338  3.8680
 8320SOL    HW236594   0.291   0.272   5.885 -0.0888 -0.6545  0.3810
 8321SOL     OW36595   0.894   2.261   8.977 -0.3496 -0.0348  0.0655
 8321SOL    HW136596   0.963   2.323   8.952  1.2183 -1.7542  0.1789
 8321SOL    HW236597   0.825   2.303   8.924 -0.7313 -1.0398 -0.2328
 8322SOL     OW36598   1.446   0.214  12.157  0.1384  0.2401  0.5465
 8322SOL    HW136599   1.472   0.286  12.213 -0.0712  1.4453 -0.9111
 8322SOL    HW236600   1.479   0.250  12.075 -1.7781  3.3461  1.1428
 8323SOL     OW36601   4.088   1.473   6.957 -0.0901 -0.0188  0.3870
 8323SOL    HW136602   4.151   1.418   7.004 -0.0781 -0.4778 -0.1682
 8323SOL    HW236603   4.091   1.552   7.011  1.0023  0.6789 -0.7179
 8324SOL     OW36604   0.147   1.292  11.363 -0.0943 -0.3104 -0.0557
 8324SOL    HW136605   0.083   1.306  11.294 -0.2678 -0.9817 -0.0305
 8324SOL    HW236606   0.232   1.309  11.322 -0.2999 -1.0607 -0.7848
 8325SOL     OW36607   3.429   0.425   6.315 -0.8045 -0.3611 -0.2840
 8325SOL    HW136608   3.380   0.348   6.342  0.7559 -1.5646 -0.8939
 8325SOL    HW236609   3.350   0.475   6.293 -1.1597 -0.4512  0.7916
 8326SOL     OW36610   1.052   3.658   8.063  0.0188 -0.1033  0.0373
 8326SOL    HW136611   1.026   3.571   8.032 -1.3196  0.4305 -0.3588
 8326SOL    HW236612   1.129   3.629   8.112  0.4481  1.3539  0.2214
 8327SOL     OW36613   2.446   2.784   8.305 -0.1299  0.5500 -0.1237
 8327SOL    HW136614   2.353   2.797   8.284 -1.0804 -2.9527  2.0033
 8327SOL    HW236615   2.448   2.689   8.311 -0.7048  0.4090 -2.3997
 8328SOL     OW36616   0.912   2.124   2.380 -0.0643 -0.6121  0.0609
 8328SOL    HW136617   0.885   2.214   2.363 -1.9051 -0.9010  1.5501
 8328SOL    HW236618   0.869   2.075   2.310  1.7283  1.7800 -2.7347
 8329SOL     OW36619   3.224   2.437  14.096  0.4127 -0.0822  0.1291
 8329SOL    HW136620   3.304   2.468  14.140  0.2264 -1.3039  1.3341
 8329SOL    HW236621   3.225   2.506  14.030  1.7972  0.2665  0.4981
 8330SOL     OW36622   2.971   0.662   3.702 -0.2136 -0.1448 -0.4105
 8330SOL    HW136623   2.926   0.661   3.786 -1.4857 -1.2339 -1.0947
 8330SOL    HW236624   3.016   0.745   3.716  1.5222 -1.0803 -0.5241
 8331SOL     OW36625   0.887   1.279  16.639  0.1436 -0.0411 -0.6388
 8331SOL    HW136626   0.819   1.213  16.644  0.5463 -0.5287 -1.5984
 8331SOL    HW236627   0.951   1.232  16.586  1.8853  0.4609  1.0253
 8332SOL     OW36628   2.462   0.299   6.877  0.5446  0.0806 -0.0560
 8332SOL    HW136629   2.465   0.330   6.787  1.0316 -0.9242 -0.3898
 8332SOL    HW236630   2.381   0.250   6.860  1.7157 -2.5603  1.8830
 8333SOL     OW36631   3.588   3.991   5.832  0.1122  0.2544  0.0024
 8333SOL    HW136632   3.507   3.991   5.780  0.9618 -1.1910 -1.3121
 8333SOL    HW236633   3.560   4.049   5.903  0.1177 -1.3403  1.3143
 8334SOL     OW36634   3.072   3.050  11.932  0.5044 -0.4558 -0.2696
 8334SOL    HW136635   3.139   3.030  11.997  0.1369 -0.7903  0.0019
 8334SOL    HW236636   3.087   3.145  11.924 -0.0699 -0.3239  0.2064
 8335SOL     OW36637   2.417   2.218   1.040  0.3650  0.0475 -0.3247
 8335SOL    HW136638   2.344   2.262   1.085 -0.4184 -0.7081 -0.8456
 8335SOL    HW236639   2.367   2.189   0.964 -1.1454  0.5706  0.4517
 8336SOL     OW36640   0.912   1.284   7.442 -0.1257 -0.1863 -0.6349
 8336SOL    HW136641   0.936   1.285   7.534  0.1962 -2.3695 -0.7002
 8336SOL    HW236642   0.997   1.298   7.401  0.3548  2.0276  1.1492
 8337SOL     OW36643   4.074   3.549   6.326 -0.7185 -0.2707 -0.0671
 8337SOL    HW136644   4.119   3.531   6.244 -0.3261  1.3606 -0.2159
 8337SOL    HW236645   4.048   3.469   6.370 -3.4733  0.1022 -0.9809
 8338SOL     OW36646   3.244   0.779   2.101  0.3057 -0.3101  0.4434
 8338SOL    HW136647   3.286   0.777   2.188 -0.2861 -3.0411  0.6889
 8338SOL    HW236648   3.282   0.854   2.057  0.1261 -1.1902 -1.2073
 8339SOL     OW36649   3.295   3.815  14.723 -0.1355  0.1019  0.2423
 8339SOL    HW136650   3.250   3.809  14.808 -1.6702  0.7167 -0.5290
 8339SOL    HW236651   3.382   3.778  14.738  0.6908  1.7393 -0.5786
 8340SOL     OW36652   1.862   3.227   7.481 -0.3883  0.1111 -0.3499
 8340SOL    HW136653   1.856   3.167   7.407 -1.4410  1.4516 -1.3302
 8340SOL    HW236654   1.773   3.257   7.497 -0.1627 -0.6492  2.4524
 8341SOL     OW36655   1.852   4.209  17.562 -0.0792  0.3403 -0.0311
 8341SOL    HW136656   1.797   4.158  17.502 -0.8986 -1.0047  1.8527
 8341SOL    HW236657   1.931   4.156  17.571  0.5911  0.7956 -3.2982
 8342SOL     OW36658   3.961   1.399   0.787  0.0109  0.0824  0.5430
 8342SOL    HW136659   4.021   1.416   0.714 -1.6658 -0.3717 -0.9349
 8342SOL    HW236660   3.871   1.401   0.755  0.4957  0.1579 -0.8185
 8343SOL     OW36661   2.739   2.799   1.340  0.5658  0.3555  0.3139
 8343SOL    HW136662   2.726   2.705   1.330  0.0605  0.3166  1.3187
 8343SOL    HW236663   2.788   2.812   1.422 -0.0288 -2.9241  1.1757
 8344SOL     OW36664   2.332   2.217   5.640  0.9166 -0.3668  0.0401
 8344SOL    HW136665   2.307   2.304   5.610  0.2296 -0.3396  0.6911
 8344SOL    HW236666   2.409   2.244   5.690 -0.1403 -0.9688  1.9776
 8345SOL     OW36667   2.507   1.842  11.683  0.3548 -0.7721  0.0399
 8345SOL    HW136668   2.442   1.863  11.615  2.7541 -2.2581 -2.6919
 8345SOL    HW236669   2.518   1.930  11.720 -1.8663 -0.8996  1.0119
 8346SOL     OW36670   2.567   3.904  13.200 -0.0792  0.4168 -0.0502
 8346SOL    HW136671   2.514   3.983  13.208  1.4783  1.5480 -0.9206
 8346SOL    HW236672   2.550   3.866  13.114  1.2116 -0.8721  0.2686
 8347SOL     OW36673   2.229   4.154   7.640  0.1530  0.2117  0.8200
 8347SOL    HW136674   2.208   4.239   7.680  2.3730  0.0012  2.4734
 8347SOL    HW236675   2.176   4.098   7.697  0.1615  1.3668  1.9713
 8348SOL     OW36676   4.641   2.357  15.334 -0.1279  0.2056  0.6145
 8348SOL    HW136677   4.570   2.409  15.373  0.7109 -0.4491  3.0034
 8348SOL    HW236678   4.675   2.312  15.412 -1.1972 -0.2993  0.7921
 8349SOL     OW36679   0.026   0.108   2.444 -0.0893  0.6257 -0.4907
 8349SOL    HW136680   0.092   0.176   2.433  1.4526 -1.4014 -3.9826
 8349SOL    HW236681   4.701   0.162   2.493  0.3482 -0.5704  1.4301
 8350SOL     OW36682   3.348   2.698  11.869 -0.4025 -0.4677 -0.0730
 8350SOL    HW136683   3.426   2.727  11.822 -0.7528 -3.7624 -2.6958
 8350SOL    HW236684   3.370   2.607  11.890  0.3691 -0.7202 -2.0223
 8351SOL     OW36685   2.826   3.589   3.533  0.5143  0.2547 -0.1097
 8351SOL    HW136686   2.735   3.559   3.541  0.5416  0.0162 -0.6693
 8351SOL    HW236687   2.822   3.635   3.449  3.0892  0.7565  0.0592
 8352SOL     OW36688   0.062   0.368   1.597 -0.0343  0.3330 -0.3498
 8352SOL    HW136689   0.099   0.369   1.508 -2.3639  0.2969 -1.3001
 8352SOL    HW236690   0.133   0.407   1.648 -1.8120  2.1433  0.7109
 8353SOL     OW36691   4.304   3.205  17.680 -0.1978  0.1790 -0.4199
 8353SOL    HW136692   4.337   3.293  17.700 -0.7514  0.3779 -0.3904
 8353SOL    HW236693   4.285   3.230  17.590  1.9321  0.2339 -0.8603
 8354SOL     OW36694   1.680   0.191   7.478 -0.0424  0.1372 -0.1712
 8354SOL    HW136695   1.711   0.101   7.473  0.4690  0.2104  1.9096
 8354SOL    HW236696   1.649   0.201   7.568 -0.0273 -1.0916 -0.0353
 8355SOL     OW36697   1.559   3.648   0.671  0.2796  0.2177 -0.6902
 8355SOL    HW136698   1.646   3.676   0.699  0.7786  0.0513 -2.0553
 8355SOL    HW236699   1.499   3.648   0.746  0.5770  0.7519 -0.4543
 8356SOL     OW36700   0.312   3.584   3.834  0.7364  0.0092 -0.1973
 8356SOL    HW136701   0.380   3.616   3.894  0.0365 -1.5827  1.4535
 8356SOL    HW236702   0.295   3.505   3.884  2.0940 -0.0210  0.2246
 8357SOL     OW36703   3.507   3.048   9.828 -0.8288 -0.1221 -0.0140
 8357SOL    HW136704   3.442   3.064   9.760  0.2412  1.9689 -0.5147
 8357SOL    HW236705   3.584   3.033   9.774 -1.2459  1.5628 -1.0619
 8358SOL     OW36706   4.368   3.814   2.339 -0.5749 -0.4143  0.2476
 8358SOL    HW136707   4.282   3.855   2.329  1.2532  3.1320 -1.0893
 8358SOL    HW236708   4.350   3.725   2.311 -0.3522 -0.4821  0.3206
 8359SOL     OW36709   2.656   4.547   3.337 -0.4078  0.6379  0.0233
 8359SOL    HW136710   2.676   4.581   3.424 -0.8031 -1.6266  1.0031
 8359SOL    HW236711   2.733   4.574   3.286 -0.4715 -1.4615 -1.2077
 8360SOL     OW36712   0.889   1.918  11.615  0.1247  1.1658  0.4821
 8360SOL    HW136713   0.870   1.828  11.642 -0.8756  1.5942  1.1859
 8360SOL    HW236714   0.807   1.954  11.582  0.6043  0.4867 -1.4765
 8361SOL     OW36715   3.795   1.603  15.108 -0.0630 -0.1616  0.0915
 8361SOL    HW136716   3.861   1.552  15.062  2.0835  0.5104  2.4359
 8361SOL    HW236717   3.843   1.633  15.185 -0.6317 -0.1832  0.4561
 8362SOL     OW36718   0.750   4.364   2.021  0.7365  0.2290 -0.0181
 8362SOL    HW136719   0.720   4.450   1.991 -2.1044 -0.7588 -0.0096
 8362SOL    HW236720   0.837   4.364   1.980  1.0246 -0.1845  0.5942
 8363SOL     OW36721   1.010   4.031   6.139  0.7165  0.5834 -0.3192
 8363SOL    HW136722   0.979   4.036   6.049 -2.7464  0.0724  0.8341
 8363SOL    HW236723   1.097   4.071   6.132  0.7431  0.5559 -0.1446
 8364SOL     OW36724   0.533   4.201   3.114 -0.4319 -0.2733 -0.0416
 8364SOL    HW136725   0.545   4.205   3.209  0.5653  0.7618 -0.2031
 8364SOL    HW236726   0.438   4.210   3.103 -0.2984  1.6898  0.4705
 8365SOL     OW36727   3.441   3.301   3.249  0.2156  0.2986  0.3581
 8365SOL    HW136728   3.498   3.378   3.257  0.6817 -0.2614  2.4360
 8365SOL    HW236729   3.369   3.328   3.305 -0.9746 -2.3374  0.0842
 8366SOL     OW36730   3.299   3.777   9.453  0.0009  0.2978  0.7405
 8366SOL    HW136731   3.376   3.834   9.448  1.5013 -1.8316 -0.1362
 8366SOL    HW236732   3.286   3.783   9.548  2.8504 -0.5088  1.1774
 8367SOL     OW36733   2.289   2.700   5.989  0.1270 -0.6356  0.0701
 8367SOL    HW136734   2.282   2.756   5.912  0.9522 -0.3771  0.1838
 8367SOL    HW236735   2.306   2.616   5.947  2.2007 -0.7513  1.1161
 8368SOL     OW36736   0.907   2.665  16.239 -0.6973  0.0577 -0.5087
 8368SOL    HW136737   0.949   2.705  16.315  3.7962  0.1828 -3.0777
 8368SOL    HW236738   0.860   2.743  16.210 -0.9073 -0.5394 -1.7601
 8369SOL     OW36739   4.613   3.765   8.871  0.3388  0.1013 -0.0345
 8369SOL    HW136740   4.706   3.787   8.876  0.8462 -1.8208 -1.1032
 8369SOL    HW236741   4.582   3.762   8.961  0.7152  0.1255  0.0977
 8370SOL     OW36742   0.480   0.893   6.175 -0.0434  0.0005  0.4079
 8370SOL    HW136743   0.444   0.890   6.086 -0.9409 -2.4223  0.8424
 8370SOL    HW236744   0.533   0.813   6.168 -0.0584 -0.1864  2.5349
 8371SOL     OW36745   3.330   3.947   5.676 -0.0263  0.2890  0.1877
 8371SOL    HW136746   3.361   3.857   5.663 -2.4956 -0.8290  2.0473
 8371SOL    HW236747   3.239   3.955   5.705 -1.1963  1.9513 -3.9050
 8372SOL     OW36748   2.234   0.849   2.495  0.4105 -0.1814 -0.2173
 8372SOL    HW136749   2.278   0.867   2.578  1.4048 -0.6740 -0.6468
 8372SOL    HW236750   2.279   0.766   2.483  0.7797  0.1438 -1.0560
 8373SOL     OW36751   3.271   0.764   1.758  0.2146  0.3761 -0.0435
 8373SOL    HW136752   3.240   0.733   1.843  1.1540  0.5371  0.3609
 8373SOL    HW236753   3.214   0.721   1.694  1.7445  1.6651 -2.2983
 8374SOL     OW36754   2.598   2.708   9.377  0.3592 -0.0631 -0.3965
 8374SOL    HW136755   2.660   2.755   9.433  0.2396 -0.8288  0.3722
 8374SOL    HW236756   2.539   2.781   9.357  1.8964  1.6028  1.1154
 8375SOL     OW36757   3.021   1.527   7.321 -0.7117 -0.1244 -0.4112
 8375SOL    HW136758   2.959   1.542   7.249 -0.9191  0.4233 -0.1200
 8375SOL    HW236759   3.084   1.592   7.288 -1.2906  1.1929  1.0801
 8376SOL     OW36760   3.221   3.403   7.179 -0.2608  0.1404  0.4288
 8376SOL    HW136761   3.188   3.454   7.105 -0.6226 -1.2260 -0.3506
 8376SOL    HW236762   3.160   3.420   7.250  0.2282 -0.2915  0.9529
 8377SOL     OW36763   0.181   1.189  13.822 -0.3926 -0.1645 -0.2896
 8377SOL    HW136764   0.262   1.152  13.788  0.2110 -0.0203  0.9944
 8377SOL    HW236765   0.175   1.269  13.770 -1.3327  0.6471  1.0586
 8378SOL     OW36766   4.066   0.049  16.917  0.0596 -0.2315  0.4165
 8378SOL    HW136767   3.973   0.034  16.904 -0.1720  1.5365  0.0548
 8378SOL    HW236768   4.103   0.009  16.838 -1.5669 -0.7420 -0.0753
 8379SOL     OW36769   1.023   0.904   5.326  0.0361  0.4755 -0.8306
 8379SOL    HW136770   0.998   0.906   5.234 -1.5758 -2.6341 -0.4527
 8379SOL    HW236771   0.994   0.993   5.344  1.4337  1.0649 -1.4881
 8380SOL     OW36772   0.729   3.420   6.937 -0.1873 -0.1849 -0.1700
 8380SOL    HW136773   0.694   3.444   7.023  0.8055  0.6431 -0.0067
 8380SOL    HW236774   0.752   3.506   6.902 -1.8300 -0.7978 -2.7473
 8381SOL     OW36775   1.065   1.010   9.815 -0.2377 -0.1452 -0.1537
 8381SOL    HW136776   1.144   1.062   9.829 -0.0130 -0.7480  0.8127
 8381SOL    HW236777   1.037   0.978   9.901 -0.0446 -1.1498 -0.4657
 8382SOL     OW36778   2.655   2.225   2.503  0.3822  0.3288 -0.2489
 8382SOL    HW136779   2.702   2.255   2.425 -1.7381  2.4424 -0.6771
 8382SOL    HW236780   2.574   2.272   2.487  0.1450  0.0513  0.1424
 8383SOL     OW36781   0.285   4.668   8.203  0.4489 -0.5792 -0.1366
 8383SOL    HW136782   0.297   4.696   8.112 -0.0768  2.7763  0.8046
 8383SOL    HW236783   0.269   0.015   8.245 -1.4713 -0.5163 -1.0009
 8384SOL     OW36784   2.988   4.655   7.929  0.0352  0.2181  0.0863
 8384SOL    HW136785   3.081   4.673   7.915 -0.6344  2.2162 -1.9439
 8384SOL    HW236786   2.954   4.731   7.977  1.2264 -0.0902  1.4127
 8385SOL     OW36787   2.918   1.985  10.611 -0.3018  0.4919  0.0648
 8385SOL    HW136788   2.922   1.889  10.616 -0.2156  0.5122  0.3952
 8385SOL    HW236789   2.888   2.017  10.696 -0.5596 -0.3922  0.3117
 8386SOL     OW36790   2.211   4.148   0.153 -0.1243 -0.1263 -0.0617
 8386SOL    HW136791   2.226   4.200   0.233 -1.2145 -0.9708  0.6985
 8386SOL    HW236792   2.121   4.116   0.165  0.5724 -1.9208  0.3147
 8387SOL     OW36793   0.985   4.240   4.264 -0.3756 -0.3637  0.3960
 8387SOL    HW136794   0.987   4.265   4.356 -0.7214 -0.2535  0.3703
 8387SOL    HW236795   1.071   4.268   4.230 -0.6694 -0.8329 -0.7328
 8388SOL     OW36796   4.287   0.424   9.381  0.2924  0.4053  0.0494
 8388SOL    HW136797   4.381   0.405   9.391 -0.4204 -1.8424  2.6274
 8388SOL    HW236798   4.285   0.515   9.410 -0.4948  0.3948  0.0168
 8389SOL     OW36799   1.779   1.650  15.017 -0.2165  0.0154 -0.0136
 8389SOL    HW136800   1.808   1.727  14.967 -2.1661  1.0976  0.5527
 8389SOL    HW236801   1.743   1.598  14.945 -0.2291  0.1744 -0.1221
 8390SOL     OW36802   3.811   2.809   8.565 -0.1804  0.4135 -0.6167
 8390SOL    HW136803   3.725   2.851   8.567 -0.4480 -0.1353 -0.6937
 8390SOL    HW236804   3.780   2.727   8.527  0.8460  0.3318 -1.2960
 8391SOL     OW36805   2.431   3.078   8.366 -0.2623 -0.0936 -0.3209
 8391SOL    HW136806   2.438   3.139   8.292 -1.0449  0.2948 -0.0731
 8391SOL    HW236807   2.375   3.009   8.333 -0.6469  0.6389 -1.2003
 8392SOL     OW36808   4.379   3.797   7.468 -0.0805 -0.5954 -0.2373
 8392SOL    HW136809   4.342   3.755   7.546 -2.8478  1.8799 -0.2007
 8392SOL    HW236810   4.380   3.889   7.493 -0.0181 -0.6084 -0.1911
 8393SOL     OW36811   4.313   2.627   4.190 -0.1888  0.0396 -0.2684
 8393SOL    HW136812   4.372   2.558   4.158  0.7487  0.1294  1.2310
 8393SOL    HW236813   4.341   2.699   4.134  0.7837  1.1392  1.6418
 8394SOL     OW36814   4.484   2.907  11.063  0.0771  0.3662  0.3358
 8394SOL    HW136815   4.455   2.832  11.115  1.7068 -0.8541 -0.4953
 8394SOL    HW236816   4.398   2.946  11.048 -0.3018 -0.8242 -0.6233
 8395SOL     OW36817   2.211   2.682   7.216 -0.1506 -0.4132  0.4823
 8395SOL    HW136818   2.172   2.752   7.267 -2.9453 -2.7718  1.5896
 8395SOL    HW236819   2.205   2.610   7.279 -1.4536  0.0590  0.8862
 8396SOL     OW36820   3.433   1.729   9.113  0.3639 -0.1243 -0.5937
 8396SOL    HW136821   3.434   1.819   9.081  0.6833 -0.5256 -1.7029
 8396SOL    HW236822   3.353   1.723   9.166  0.6240  1.0924 -0.0601
 8397SOL     OW36823   3.106   3.739  15.285 -0.2085 -0.0710  0.6154
 8397SOL    HW136824   3.173   3.674  15.306 -0.5373  0.1947  2.5556
 8397SOL    HW236825   3.156   3.792  15.223 -0.3503 -0.7929 -0.1129
 8398SOL     OW36826   2.927   2.259   8.033 -0.1341  0.5844  0.3601
 8398SOL    HW136827   2.863   2.330   8.024 -2.9206 -1.9174  0.4857
 8398SOL    HW236828   2.859   2.193   8.043  0.6415 -0.2081  0.3656
 8399SOL     OW36829   0.408   2.879   5.412  0.2807  0.3173 -0.3127
 8399SOL    HW136830   0.318   2.904   5.392  0.0019 -0.7034 -0.3540
 8399SOL    HW236831   0.453   2.959   5.384 -0.8465  0.3204 -2.1138
 8400SOL     OW36832   1.889   2.382   4.632  0.4175  0.0589  0.3316
 8400SOL    HW136833   1.794   2.372   4.644  0.4580  1.4147  1.8890
 8400SOL    HW236834   1.911   2.290   4.616 -2.6580 -0.5593 -0.4137
 8401SOL     OW36835   4.731   3.928   0.861 -0.2288 -0.3718  0.4169
 8401SOL    HW136836   0.048   3.902   0.786 -0.9331 -0.1227 -0.1823
 8401SOL    HW236837   4.709   4.016   0.829  1.9928 -0.1005 -0.3628
 8402SOL     OW36838   2.153   1.954  13.511 -0.0066 -0.3317  0.4656
 8402SOL    HW136839   2.148   2.035  13.462 -0.4396 -0.1636  0.7884
 8402SOL    HW236840   2.127   1.887  13.447 -1.1472  1.0109 -0.4625
 8403SOL     OW36841   1.116   2.688   5.470 -0.2427  0.1688  0.0541
 8403SOL    HW136842   1.181   2.734   5.418  1.2662  0.8879  2.5923
 8403SOL    HW236843   1.073   2.629   5.408 -1.1410  1.1148 -0.2416
 8404SOL     OW36844   1.350   2.585   7.472 -0.5244  0.4319 -0.4506
 8404SOL    HW136845   1.356   2.511   7.533  1.4031  0.1526 -0.9641
 8404SOL    HW236846   1.372   2.544   7.389 -1.1153  3.1157 -1.9102
 8405SOL     OW36847   4.149   0.737   3.776 -0.2415 -0.4563  0.1543
 8405SOL    HW136848   4.139   0.802   3.706 -1.1299 -0.8657 -0.0927
 8405SOL    HW236849   4.108   0.664   3.730  0.2876  0.6447 -2.0736
 8406SOL     OW36850   4.683   0.095   5.482  0.5467  0.0684  0.0559
 8406SOL    HW136851   4.593   0.075   5.508  1.7361 -2.6292  2.1240
 8406SOL    HW236852   4.676   0.065   5.391  1.2262 -0.0573  0.0489
 8407SOL     OW36853   3.445   0.753  16.543  0.1251 -0.9305 -0.2603
 8407SOL    HW136854   3.458   0.678  16.485  0.3462 -1.1868  0.1181
 8407SOL    HW236855   3.356   0.776  16.517  0.1147 -0.9125 -0.2082
 8408SOL     OW36856   4.041   1.728   8.615 -0.4532 -0.3788 -0.2704
 8408SOL    HW136857   4.025   1.634   8.609 -0.0295 -0.4495 -0.2850
 8408SOL    HW236858   3.973   1.744   8.680  0.4891  1.8384  0.1579
 8409SOL     OW36859   0.679   3.207   8.578 -0.0388  0.4677 -0.0144
 8409SOL    HW136860   0.611   3.166   8.524 -1.1177  1.7494  0.3595
 8409SOL    HW236861   0.670   3.297   8.547  1.4794  0.3351 -0.7985
 8410SOL     OW36862   1.048   2.496   4.732 -0.4137 -0.0548 -1.0193
 8410SOL    HW136863   1.113   2.430   4.757  0.3930  1.2024  0.1685
 8410SOL    HW236864   1.037   2.458   4.645  1.2906 -0.4015 -1.0893
 8411SOL     OW36865   0.924   2.217  11.430  0.2300  0.8239 -0.4341
 8411SOL    HW136866   0.995   2.157  11.456 -0.4658 -0.7587 -2.2216
 8411SOL    HW236867   0.952   2.288  11.488 -1.2411  1.2907 -0.2997
 8412SOL     OW36868   0.231   3.028  16.502  0.6196  0.2796  0.0873
 8412SOL    HW136869   0.246   3.120  16.521 -0.1770  0.5262 -0.4805
 8412SOL    HW236870   0.317   2.989  16.481 -0.8958 -1.2587 -3.2273
 8413SOL     OW36871   1.998   2.265   8.337  0.4547 -0.2418 -0.1515
 8413SOL    HW136872   2.069   2.327   8.321 -1.5597  2.1582  0.2047
 8413SOL    HW236873   1.946   2.278   8.258  2.2921  0.3494 -1.2553
 8414SOL     OW36874   1.472   0.121   0.556  0.1096  0.0276 -0.0570
 8414SOL    HW136875   1.507   0.209   0.543 -0.3670  0.3603  0.9470
 8414SOL    HW236876   1.397   0.139   0.612  1.6711  1.1828  1.6480
 8415SOL     OW36877   3.984   4.412   3.494 -0.1330 -0.0090  0.5121
 8415SOL    HW136878   3.992   4.466   3.414  0.6854 -0.7788  0.0806
 8415SOL    HW236879   3.954   4.474   3.560 -0.6712 -0.1724  0.4168
 8416SOL     OW36880   0.223   2.734   1.877 -0.2780  0.2734  0.4417
 8416SOL    HW136881   0.142   2.683   1.887 -0.6506  0.3808 -2.0597
 8416SOL    HW236882   0.203   2.819   1.916  1.1682  0.1816  1.3623
 8417SOL     OW36883   1.277   3.123  15.526 -0.1143 -0.2083  0.3455
 8417SOL    HW136884   1.292   3.030  15.506 -0.6634 -0.4245  0.9236
 8417SOL    HW236885   1.204   3.144  15.467 -0.5119 -1.4542  0.3874
 8418SOL     OW36886   0.266   3.292   7.296  0.4604 -0.6508  0.3684
 8418SOL    HW136887   0.261   3.353   7.369 -0.0810  1.4642 -1.4445
 8418SOL    HW236888   0.198   3.238   7.335  0.3696 -2.8260 -2.7658
 8419SOL     OW36889   1.199   0.826   5.593  0.7531  0.1277 -0.2941
 8419SOL    HW136890   1.103   0.823   5.593  0.8169 -2.0454  0.5328
 8419SOL    HW236891   1.226   0.913   5.620 -0.9642  1.0411 -1.5120
 8420SOL     OW36892   3.238   1.584   3.978  0.0945 -0.2332 -0.3418
 8420SOL    HW136893   3.280   1.669   3.966 -1.3131  0.4044 -0.8029
 8420SOL    HW236894   3.237   1.577   4.074  0.1911 -3.1503 -0.5431
 8421SOL     OW36895   0.699   4.615   1.921  1.0691  0.1213 -0.4191
 8421SOL    HW136896   0.749   4.694   1.943 -0.3404  0.7172  0.6423
 8421SOL    HW236897   0.734   4.587   1.837  0.3526  2.0044 -1.3456
 8422SOL     OW36898   1.219   4.421  15.969 -0.4524 -0.1118 -0.3293
 8422SOL    HW136899   1.284   4.446  15.904  0.8060 -2.4996 -0.0064
 8422SOL    HW236900   1.185   4.337  15.936  1.1197 -0.8338 -0.1309
 8423SOL     OW36901   3.602   3.698  11.658  0.1286  0.1837 -0.6508
 8423SOL    HW136902   3.595   3.611  11.696 -1.4479  0.1206 -1.0659
 8423SOL    HW236903   3.621   3.750  11.737 -0.1099 -1.7126  0.6390
 8424SOL     OW36904   0.273   1.692   7.519 -0.2458  0.3875  0.2773
 8424SOL    HW136905   0.285   1.781   7.486  0.2847 -1.1813 -3.8488
 8424SOL    HW236906   0.183   1.672   7.492 -0.5770  0.5060  1.3018
 8425SOL     OW36907   0.648   2.340   7.537  0.0273 -0.8059 -0.5306
 8425SOL    HW136908   0.610   2.259   7.503 -1.5381 -0.7397  1.0449
 8425SOL    HW236909   0.666   2.382   7.453  0.6994 -2.1972 -1.0801
 8426SOL     OW36910   0.387   1.192   5.155 -0.3567 -0.5507 -0.0975
 8426SOL    HW136911   0.407   1.282   5.179 -2.1723  0.4913 -2.5187
 8426SOL    HW236912   0.363   1.149   5.237  0.4072  0.9537  0.9128
 8427SOL     OW36913   0.149   3.898   4.573 -0.1944 -0.4075  0.4292
 8427SOL    HW136914   0.163   3.822   4.630  1.5420 -0.8295 -0.5613
 8427SOL    HW236915   0.199   3.873   4.495  0.5904  1.5401  0.3272
 8428SOL     OW36916   1.342   3.351   3.715  0.2415 -0.1488 -0.6097
 8428SOL    HW136917   1.399   3.423   3.690  1.6525 -0.9501  0.2619
 8428SOL    HW236918   1.381   3.294   3.648  1.0131 -0.6852  0.2879
 8429SOL     OW36919   0.650   2.745   9.455 -0.0795 -0.3507  0.0320
 8429SOL    HW136920   0.734   2.699   9.460  1.1746  2.4314  4.6535
 8429SOL    HW236921   0.631   2.743   9.549  0.4309  1.0050  0.1703
 8430SOL     OW36922   4.511   0.136   3.809 -0.3139 -0.1856  0.1862
 8430SOL    HW136923   4.534   0.130   3.901  0.4195  1.6342  0.1146
 8430SOL    HW236924   4.432   0.191   3.809 -0.1189  0.0921  0.5044
 8431SOL     OW36925   0.334   4.245   4.799  0.4701  0.2758  0.9356
 8431SOL    HW136926   0.308   4.254   4.891 -0.0421 -2.3071  1.0320
 8431SOL    HW236927   0.290   4.322   4.763  0.0882  1.0985  3.1228
 8432SOL     OW36928   1.392   3.280   4.266 -0.1415  0.6934  0.3463
 8432SOL    HW136929   1.476   3.300   4.309 -0.6694 -1.1613  2.2331
 8432SOL    HW236930   1.417   3.232   4.187  1.1467  3.1860 -0.7756
 8433SOL     OW36931   3.523   3.624   2.394  0.1114  0.5713  0.1505
 8433SOL    HW136932   3.505   3.681   2.319  0.9998  2.5712  1.4642
 8433SOL    HW236933   3.610   3.591   2.372  0.5345  0.7376  1.5562
 8434SOL     OW36934   3.497   0.578   1.779 -0.5279 -0.5165 -0.1078
 8434SOL    HW136935   3.515   0.500   1.831  0.9753 -0.4997 -0.6036
 8434SOL    HW236936   3.443   0.549   1.706 -0.4490  1.7814 -1.1003
 8435SOL     OW36937   2.872   4.631   4.864  0.1286  0.2702  0.3998
 8435SOL    HW136938   2.941   4.676   4.814 -0.3324 -0.2083 -0.6589
 8435SOL    HW236939   2.878   4.541   4.832 -2.7237 -0.3064  1.5449
 8436SOL     OW36940   0.953   0.124   9.213  0.5967  0.1499 -0.2381
 8436SOL    HW136941   0.984   0.214   9.221 -0.5092  0.7454 -2.4511
 8436SOL    HW236942   0.887   0.141   9.145 -1.2157 -0.7787  1.2711
 8437SOL     OW36943   2.693   2.915   4.804 -0.0980  0.4636 -0.4116
 8437SOL    HW136944   2.635   2.955   4.869 -2.1710  0.9743 -2.5419
 8437SOL    HW236945   2.665   2.823   4.812 -0.3566  0.5317 -0.5066
 8438SOL     OW36946   2.213   2.028  12.866 -0.0959 -0.3678 -0.1147
 8438SOL    HW136947   2.234   2.104  12.920 -4.0757 -0.5662  1.7906
 8438SOL    HW236948   2.207   1.954  12.926 -0.3217  0.7450  1.2389
 8439SOL     OW36949   3.165   1.235   2.846 -0.3187 -0.3200  0.5937
 8439SOL    HW136950   3.098   1.299   2.821  0.2657 -0.1540 -0.5329
 8439SOL    HW236951   3.239   1.294   2.856 -1.9491  1.9027 -0.4740
 8440SOL     OW36952   0.243   3.807  16.409  0.0470  0.0331  0.8147
 8440SOL    HW136953   0.172   3.860  16.373  1.3538 -0.5175 -2.5928
 8440SOL    HW236954   0.210   3.719  16.395 -2.1357  0.7113  1.6495
 8441SOL     OW36955   2.882   1.836  17.431  0.0994 -0.0718  0.0818
 8441SOL    HW136956   2.894   1.880  17.347 -0.7997 -0.5347 -0.2888
 8441SOL    HW236957   2.958   1.870  17.479 -0.4903  1.3435  0.0117
 8442SOL     OW36958   3.114   3.084   4.572 -0.1593  0.5951 -0.6293
 8442SOL    HW136959   3.031   3.120   4.540  1.5520  2.9927 -2.3030
 8442SOL    HW236960   3.093   3.056   4.661 -0.7965 -0.1234 -1.0084
 8443SOL     OW36961   2.751   2.420   7.904  0.7871 -0.3209  0.2176
 8443SOL    HW136962   2.749   2.509   7.938 -1.3855  0.5654 -2.2745
 8443SOL    HW236963   2.666   2.412   7.862  1.1526  0.2497 -0.6320
 8444SOL     OW36964   4.731   0.443   8.266  0.0467 -0.6452  0.1807
 8444SOL    HW136965   0.069   0.440   8.324 -0.6013  0.8599  1.1070
 8444SOL    HW236966   4.724   0.537   8.249  1.7842 -0.0894  2.5987
 8445SOL     OW36967   3.146   3.315   8.641 -0.2823  0.0508  0.5024
 8445SOL    HW136968   3.139   3.290   8.549 -1.5443  1.0812  0.3080
 8445SOL    HW236969   3.085   3.389   8.646 -0.6314 -0.2450  0.6053
 8446SOL     OW36970   2.356   3.075  14.749  0.1346 -0.6633  0.0674
 8446SOL    HW136971   2.406   3.084  14.668 -0.4262  1.8252 -0.0036
 8446SOL    HW236972   2.283   3.136  14.736 -0.8859 -1.2872  2.8276
 8447SOL     OW36973   1.973   3.947   8.289 -0.0479  0.0731  0.0236
 8447SOL    HW136974   2.049   3.946   8.347 -2.0357 -0.7122  2.6034
 8447SOL    HW236975   1.987   3.882   8.221 -0.9001  0.0905 -0.1651
 8448SOL     OW36976   0.438   1.900   3.182  0.5213 -0.2812  0.3678
 8448SOL    HW136977   0.440   1.996   3.188 -0.8834 -0.1574 -0.9174
 8448SOL    HW236978   0.343   1.890   3.195  0.7142 -3.6824 -0.8143
 8449SOL     OW36979   1.610   4.585   4.215  0.0869 -0.5077  0.6267
 8449SOL    HW136980   1.696   4.547   4.232  0.5088  0.2486  0.1625
 8449SOL    HW236981   1.558   4.558   4.291 -1.3222  0.1507 -0.1150
 8450SOL     OW36982   2.306   0.336  13.120 -0.3591 -0.1188 -0.3316
 8450SOL    HW136983   2.391   0.301  13.149 -0.1467  0.1286 -0.6512
 8450SOL    HW236984   2.248   0.263  13.139  1.4432 -1.3447  0.4832
 8451SOL     OW36985   4.002   1.614  17.141 -0.2143 -0.0571  0.1355
 8451SOL    HW136986   4.076   1.671  17.121  0.0404 -0.5273 -0.2680
 8451SOL    HW236987   4.040   1.527  17.128  2.5193  1.1889 -0.2012
 8452SOL     OW36988   0.329   3.620   4.250  0.2712 -0.2778  0.0853
 8452SOL    HW136989   0.402   3.574   4.290  0.5289  0.5451  0.5788
 8452SOL    HW236990   0.257   3.620   4.313 -0.7901  3.1241 -1.0927
 8453SOL     OW36991   0.168   2.014  17.579  0.2132 -0.4174  0.1743
 8453SOL    HW136992   0.101   2.067  17.536  0.5995 -0.7202 -0.7974
 8453SOL    HW236993   0.165   2.051  17.668  1.5143 -0.4730  0.2425
 8454SOL     OW36994   2.972   2.005   5.115 -0.0710  0.6715  0.3599
 8454SOL    HW136995   3.018   1.923   5.097  1.6099  1.3482  1.5330
 8454SOL    HW236996   2.880   1.980   5.111  0.3556 -0.7573 -0.5183
 8455SOL     OW36997   0.716   1.963   8.457 -0.1779  0.0155  0.0360
 8455SOL    HW136998   0.756   1.976   8.543 -2.0342  0.9582  0.7570
 8455SOL    HW236999   0.680   2.051   8.446  1.8760  1.0281  1.4765
 8456SOL     OW37000   4.064   1.154   4.398  0.0644  0.0631  0.2429
 8456SOL    HW137001   4.116   1.229   4.426  1.9457 -0.4861 -1.7829
 8456SOL    HW237002   4.083   1.092   4.469 -0.5020 -0.8688 -0.4142
 8457SOL     OW37003   2.062   0.169   4.401  0.4129  0.4020 -0.1464
 8457SOL    HW137004   2.005   0.143   4.329 -1.1677 -3.0418  2.3073
 8457SOL    HW237005   2.150   0.138   4.382  0.1458 -1.2084  1.2643
 8458SOL     OW37006   3.677   1.168   5.553 -0.5258 -0.6613  0.6901
 8458SOL    HW137007   3.606   1.140   5.611  0.6186  0.2549  2.5236
 8458SOL    HW237008   3.733   1.209   5.619  0.0396 -0.3735  0.0406
 8459SOL     OW37009   1.027   0.235   6.488  0.6406  0.1032 -0.1981
 8459SOL    HW137010   1.033   0.318   6.536  0.1228  0.4496 -0.7363
 8459SOL    HW237011   1.120   0.215   6.474  0.9344  2.8712 -2.2162
 8460SOL     OW37012   3.035   1.000   1.962  0.0858  0.2115  0.4601
 8460SOL    HW137013   3.129   0.994   1.947 -0.0443  2.4170 -1.2400
 8460SOL    HW237014   3.034   1.021   2.055 -0.0421  0.7734  0.3365
 8461SOL     OW37015   3.719   4.452   8.146 -0.2515  0.4960  0.4708
 8461SOL    HW137016   3.790   4.505   8.111  0.1781  0.1458  0.8119
 8461SOL    HW237017   3.652   4.451   8.077 -0.7702  1.7577  0.9595
 8462SOL     OW37018   2.445   2.571   8.832 -0.1483  0.8113  0.2679
 8462SOL    HW137019   2.434   2.626   8.909 -1.7560  1.5782 -0.5047
 8462SOL    HW237020   2.488   2.490   8.861  1.2390  0.7949 -1.8258
 8463SOL     OW37021   1.086   0.416   2.270  0.0786 -0.2296  0.4596
 8463SOL    HW137022   1.158   0.362   2.303 -1.0765 -0.7811  2.0457
 8463SOL    HW237023   1.134   0.484   2.223  1.0030  0.0164  1.7453
 8464SOL     OW37024   0.231   0.695  15.717 -0.1431 -0.1921 -0.2874
 8464SOL    HW137025   0.214   0.782  15.753 -0.3909  0.1140 -1.1267
 8464SOL    HW237026   0.168   0.644  15.767 -0.4456  0.0869 -0.3805
 8465SOL     OW37027   0.377   2.851   7.459  0.1445  0.2161  0.3848
 8465SOL    HW137028   0.469   2.838   7.484  0.5685  3.4121  0.4376
 8465SOL    HW237029   0.346   2.778   7.513  1.7374 -0.4771  0.3826
 8466SOL     OW37030   1.649   2.810   9.441 -0.2166  0.0734 -0.3863
 8466SOL    HW137031   1.699   2.732   9.462  3.2192  2.0323 -1.3390
 8466SOL    HW237032   1.571   2.774   9.399 -1.2466  2.5934 -0.6340
 8467SOL     OW37033   2.898   3.020   8.707  0.2809 -0.4748 -0.0627
 8467SOL    HW137034   2.891   3.069   8.625  2.6544 -1.9405 -1.1329
 8467SOL    HW237035   2.835   2.950   8.688  0.0935 -0.0971 -0.8488
 8468SOL     OW37036   2.503   2.256   4.366  0.3023  0.0753 -0.4221
 8468SOL    HW137037   2.459   2.245   4.283  0.7630 -0.7050 -0.5697
 8468SOL    HW237038   2.437   2.261   4.436 -0.2986  1.0697 -1.0738
 8469SOL     OW37039   3.889   1.500  11.548 -0.7695  0.0265  0.4554
 8469SOL    HW137040   3.924   1.546  11.624 -1.1452 -0.3270  0.8420
 8469SOL    HW237041   3.902   1.574  11.488  1.8525  0.6734  1.8351
 8470SOL     OW37042   1.517   4.286   3.497  0.1797  0.8074  0.3290
 8470SOL    HW137043   1.478   4.240   3.423  1.2561 -2.3360  1.7254
 8470SOL    HW237044   1.546   4.208   3.544 -0.9966 -0.1236 -0.4949
 8471SOL     OW37045   0.688   2.849   7.551  0.7469  0.7787 -0.4327
 8471SOL    HW137046   0.720   2.836   7.640  0.2713  1.3796 -0.1689
 8471SOL    HW237047   0.750   2.791   7.508  1.5025  0.8119  0.6322
 8472SOL     OW37048   1.900   0.967   6.712  0.3084 -0.4628  0.0630
 8472SOL    HW137049   1.866   0.888   6.671  1.2078 -1.3529  1.0479
 8472SOL    HW237050   1.854   1.031   6.657  0.3187  0.8609  1.5931
 8473SOL     OW37051   1.771   1.926   3.523 -0.0563 -0.3432  0.4051
 8473SOL    HW137052   1.819   1.894   3.447 -1.6602 -1.7776  0.0194
 8473SOL    HW237053   1.692   1.958   3.481  0.7025  0.1550 -0.6567
 8474SOL     OW37054   3.929   4.183   4.321 -0.2615  0.1324 -0.5920
 8474SOL    HW137055   3.938   4.112   4.384 -0.4021 -0.0738 -0.8038
 8474SOL    HW237056   3.986   4.251   4.357 -0.7794  0.7101 -0.8680
 8475SOL     OW37057   2.522   0.916   4.785  0.5435  0.1311 -0.4668
 8475SOL    HW137058   2.507   0.974   4.711 -1.5255 -3.0266 -2.4896
 8475SOL    HW237059   2.430   0.917   4.812  0.5168  0.9766 -0.5685
 8476SOL     OW37060   0.463   4.643   7.083  0.5192 -0.0345 -0.1848
 8476SOL    HW137061   0.457   4.602   6.996 -3.2245  1.1937 -0.4789
 8476SOL    HW237062   0.537   4.590   7.112 -0.5223 -0.6709  1.2663
 8477SOL     OW37063   4.479   2.188   5.038 -0.4926  0.0924 -0.6652
 8477SOL    HW137064   4.553   2.162   4.984 -0.4228  1.0623 -1.0452
 8477SOL    HW237065   4.445   2.103   5.066 -1.8326  0.6396 -0.6444
 8478SOL     OW37066   4.304   4.241   2.282  0.3447  0.3864 -0.5033
 8478SOL    HW137067   4.259   4.195   2.211 -0.7821  0.4677  0.1759
 8478SOL    HW237068   4.272   4.331   2.285 -1.6547 -0.3134 -0.9354
 8479SOL     OW37069   1.869   0.393  11.706  0.3658  0.1636 -0.0821
 8479SOL    HW137070   1.776   0.412  11.720  0.4633 -0.4251  1.4473
 8479SOL    HW237071   1.870   0.301  11.734 -1.2149 -0.1899 -1.1795
 8480SOL     OW37072   1.709   0.166   4.403 -0.1552  0.8599  0.3186
 8480SOL    HW137073   1.745   0.252   4.383  0.2912  0.4045 -0.8405
 8480SOL    HW237074   1.772   0.103   4.367 -0.2367  0.8740  0.1485
 8481SOL     OW37075   2.083   4.447   4.931  0.0786  0.1103  0.1320
 8481SOL    HW137076   2.148   4.413   4.992 -0.1182  0.7599  0.7033
 8481SOL    HW237077   2.028   4.369   4.931  0.7529 -0.3629  1.1543
 8482SOL     OW37078   1.521   0.634   1.939  0.4346  0.4030  0.2953
 8482SOL    HW137079   1.505   0.696   2.010  1.8845  0.8256  0.2462
 8482SOL    HW237080   1.443   0.580   1.956  1.8158 -1.6146  0.2564
 8483SOL     OW37081   2.411   3.102   8.822  0.1617  0.6467  0.3933
 8483SOL    HW137082   2.496   3.118   8.862 -0.3636  0.3671  1.6286
 8483SOL    HW237083   2.424   3.014   8.786  1.5614  0.8454  0.4024
 8484SOL     OW37084   1.507   4.129   6.213  0.1391 -0.3485 -0.1687
 8484SOL    HW137085   1.552   4.122   6.129 -2.0408  0.8341 -1.4423
 8484SOL    HW237086   1.508   4.039   6.245  3.2208 -0.2884 -0.1465
 8485SOL     OW37087   3.310   2.440   2.320 -0.3380  0.3942 -0.4074
 8485SOL    HW137088   3.215   2.444   2.332 -0.4255 -0.2693 -0.9082
 8485SOL    HW237089   3.327   2.526   2.282 -1.0210  1.3591  1.4741
 8486SOL     OW37090   3.504   0.053   7.739  0.0518  0.1154  0.0121
 8486SOL    HW137091   3.571   0.017   7.797  1.1839  0.5997 -0.9933
 8486SOL    HW237092   3.542   0.132   7.701 -2.3226  0.2739 -2.0256
 8487SOL     OW37093   0.558   3.795   6.755  0.3036  0.0326 -0.2276
 8487SOL    HW137094   0.529   3.804   6.846  0.5745  2.5772 -0.3731
 8487SOL    HW237095   0.629   3.733   6.773 -0.1255  0.2275  2.1586
 8488SOL     OW37096   3.721   0.749  15.766  0.4309  0.6140 -0.7660
 8488SOL    HW137097   3.648   0.804  15.738 -0.5334  0.5971  1.6662
 8488SOL    HW237098   3.751   0.717  15.681 -0.0157  0.3393 -0.8257
 8489SOL     OW37099   3.141   2.299  15.804  0.2052 -0.1735  0.0894
 8489SOL    HW137100   3.127   2.326  15.895  2.2159 -0.7591  0.5729
 8489SOL    HW237101   3.174   2.385  15.782  2.0832 -0.8855  0.1157
 8490SOL     OW37102   2.512   1.224   6.254  0.7828 -0.1672  0.1554
 8490SOL    HW137103   2.439   1.179   6.297  0.0110  0.1470 -0.8432
 8490SOL    HW237104   2.479   1.309   6.227  0.8717 -0.8246 -1.9876
 8491SOL     OW37105   2.871   1.092   8.703 -0.5463  0.4413 -0.4277
 8491SOL    HW137106   2.805   1.024   8.706 -2.4027  2.2426 -0.6634
 8491SOL    HW237107   2.950   1.052   8.739 -0.7008  1.2413  0.8096
 8492SOL     OW37108   1.277   1.406   3.070  0.0391  0.2107 -0.1771
 8492SOL    HW137109   1.287   1.323   3.023 -0.2221  0.2547 -0.3077
 8492SOL    HW237110   1.280   1.379   3.161 -1.1804 -2.9021 -1.0543
 8493SOL     OW37111   3.844   1.972   4.545  0.7463  0.1768  0.6099
 8493SOL    HW137112   3.788   1.894   4.547  0.6456  0.2401  0.0991
 8493SOL    HW237113   3.785   2.029   4.595  0.5394 -0.3214  0.9378
 8494SOL     OW37114   2.609   3.403   3.413  0.3178  0.3389 -0.7575
 8494SOL    HW137115   2.567   3.468   3.356 -0.8474  1.0603  0.9103
 8494SOL    HW237116   2.693   3.397   3.368  1.9327  0.4138  2.2719
 8495SOL     OW37117   0.471   2.409   2.272 -0.2256  0.6541 -0.3743
 8495SOL    HW137118   0.547   2.397   2.214  1.2068  2.0135  1.1945
 8495SOL    HW237119   0.459   2.327   2.319 -0.5238 -1.2532 -3.7637
 8496SOL     OW37120   3.981   4.139   6.261  0.1828 -0.2003  0.1698
 8496SOL    HW137121   4.047   4.084   6.218  0.7062 -0.2804  1.0659
 8496SOL    HW237122   3.926   4.173   6.192  1.6165 -0.7326 -1.2412
 8497SOL     OW37123   0.715   1.590   8.513 -0.3855  0.0194  0.4463
 8497SOL    HW137124   0.673   1.563   8.432  1.2610  2.2612 -1.1351
 8497SOL    HW237125   0.809   1.580   8.506 -0.3362  1.1726 -0.5175
 8498SOL     OW37126   2.702   1.752  17.621 -0.1987 -0.0735  0.2948
 8498SOL    HW137127   2.689   1.824  17.682 -0.5311 -0.6928  0.9448
 8498SOL    HW237128   2.765   1.797  17.563 -0.7043 -0.3087 -0.4395
 8499SOL     OW37129   1.569   1.539   8.883 -0.2515 -0.3123 -0.0028
 8499SOL    HW137130   1.646   1.491   8.909 -0.2837 -2.1717 -3.3564
 8499SOL    HW237131   1.601   1.576   8.801 -2.7705 -1.7655 -1.6499
 8500SOL     OW37132   3.867   3.304  11.435 -0.3125 -0.2689  0.3290
 8500SOL    HW137133   3.786   3.253  11.440  0.8466 -2.3093 -1.3913
 8500SOL    HW237134   3.879   3.302  11.340  2.1212 -0.5783  0.6186
 8501SOL     OW37135   1.450   1.986   9.008 -0.0212 -0.3130 -0.1818
 8501SOL    HW137136   1.369   2.031   9.032  0.3268 -0.6710  1.6656
 8501SOL    HW237137   1.500   2.064   8.984 -0.1485 -1.1097 -3.0453
 8502SOL     OW37138   1.492   1.498   3.744  0.1447  0.2249 -0.0706
 8502SOL    HW137139   1.407   1.501   3.699  0.4435  0.5463 -0.6236
 8502SOL    HW237140   1.548   1.474   3.671  0.9992  1.8866  0.0265
 8503SOL     OW37141   0.431   4.572   2.086 -0.2424  0.6247  0.3999
 8503SOL    HW137142   0.503   4.568   2.023  0.9226 -0.2796  1.8041
 8503SOL    HW237143   0.450   4.643   2.147 -1.6519  0.1720  1.3747
 8504SOL     OW37144   4.648   4.318  17.061 -0.2738 -0.7329 -0.0215
 8504SOL    HW137145   4.689   4.242  17.101  2.3871  0.7878  0.1231
 8504SOL    HW237146   4.682   4.378  17.127  0.2334 -0.8040 -0.2125
 8505SOL     OW37147   2.096   3.424   9.950 -0.4766 -0.1609  0.1326
 8505SOL    HW137148   2.043   3.462  10.020  1.6636  1.9820  0.5656
 8505SOL    HW237149   2.111   3.336   9.985 -0.3839 -0.6207 -1.0592
 8506SOL     OW37150   1.293   0.189   6.457 -0.2286  0.6719  0.3237
 8506SOL    HW137151   1.343   0.196   6.375  1.3537 -1.6844  1.0832
 8506SOL    HW237152   1.324   0.101   6.479 -0.1867  1.0460  1.7527
 8507SOL     OW37153   3.703   3.256  10.645  0.0207  0.5814 -0.2497
 8507SOL    HW137154   3.758   3.324  10.607 -0.8713 -0.5454 -3.5599
 8507SOL    HW237155   3.727   3.175  10.601 -1.4366 -0.1761  0.3209
 8508SOL     OW37156   1.350   2.407   4.102  0.3966 -0.0342 -0.1158
 8508SOL    HW137157   1.333   2.376   4.013  0.2631  2.1792 -0.8696
 8508SOL    HW237158   1.445   2.418   4.105  0.4230 -0.5579  0.9228
 8509SOL     OW37159   4.099   1.379   9.115  0.3054 -0.0112 -0.1031
 8509SOL    HW137160   4.142   1.462   9.093  0.7622 -0.3393 -0.4708
 8509SOL    HW237161   4.011   1.395   9.082  0.4557  1.2161  0.0947
 8510SOL     OW37162   2.128   1.416   2.407 -0.0171  0.2347  0.8671
 8510SOL    HW137163   2.079   1.381   2.481  4.0688 -1.9437  2.5778
 8510SOL    HW237164   2.063   1.430   2.339  0.9778 -1.4987 -0.4485
 8511SOL     OW37165   0.128   4.279   6.001  0.0590  0.2648  0.1457
 8511SOL    HW137166   0.148   4.281   5.908  0.0992  2.0516  0.1799
 8511SOL    HW237167   0.148   4.188   6.021 -0.7047 -0.2359 -1.4094
 8512SOL     OW37168   1.388   1.239   8.242 -0.1100  0.1080  0.3125
 8512SOL    HW137169   1.468   1.194   8.272 -0.0105 -0.9435 -1.5268
 8512SOL    HW237170   1.396   1.225   8.148  0.2192 -2.3643  0.7059
 8513SOL     OW37171   3.906   3.282   2.468 -0.4752 -0.1932  0.1914
 8513SOL    HW137172   3.995   3.307   2.493 -0.5328  2.9297 -2.7596
 8513SOL    HW237173   3.917   3.194   2.433  0.4061 -0.0549  0.1259
 8514SOL     OW37174   1.144   4.587   8.044  0.5375 -0.4001  0.3162
 8514SOL    HW137175   1.185   4.506   8.014 -1.2335 -1.3523  0.4935
 8514SOL    HW237176   1.173   4.637   7.968  2.8087 -1.7845  0.2756
 8515SOL     OW37177   4.679   2.723   7.410  1.0274  0.4896  0.6021
 8515SOL    HW137178   4.608   2.787   7.422  0.3787 -0.3691  1.3064
 8515SOL    HW237179   4.629   2.643   7.396  2.2326 -0.1386 -0.1362
 8516SOL     OW37180   2.203   4.333   2.986 -0.3162  0.0250 -0.1611
 8516SOL    HW137181   2.212   4.392   2.910  1.9139 -2.7529 -2.0337
 8516SOL    HW237182   2.115   4.352   3.019  0.7168  0.9162  2.0402
 8517SOL     OW37183   1.442   3.906   0.999  0.4562 -0.4280 -0.0170
 8517SOL    HW137184   1.347   3.919   0.994  0.6468  1.2525  0.4776
 8517SOL    HW237185   1.469   3.899   0.908 -2.2921  1.4373 -1.0044
 8518SOL     OW37186   0.507   2.711  15.911 -0.3350  0.3254  0.0273
 8518SOL    HW137187   0.466   2.770  15.848  0.5523  2.1026  1.1189
 8518SOL    HW237188   0.541   2.781  15.966 -2.0085  1.2197 -0.0777
 8519SOL     OW37189   1.772   3.754   5.355 -0.1846  0.0446 -0.7455
 8519SOL    HW137190   1.702   3.773   5.294  1.6086 -2.4826 -3.5670
 8519SOL    HW237191   1.808   3.841   5.375 -0.8441  0.0767  0.3323
 8520SOL     OW37192   2.666   3.829   8.474 -0.1086 -0.0590  0.1508
 8520SOL    HW137193   2.671   3.734   8.472  0.5913 -0.0510  1.7818
 8520SOL    HW237194   2.702   3.842   8.386 -0.9753  1.1924 -0.0179
 8521SOL     OW37195   0.011   2.374   0.290  1.4526 -0.4200 -0.5030
 8521SOL    HW137196   4.726   2.322   0.213 -0.9854 -0.1763  0.0323
 8521SOL    HW237197   0.088   2.423   0.261  0.5844  0.4876 -1.2306
 8522SOL     OW37198   0.734   2.463  15.169  0.5200 -0.1922 -0.3124
 8522SOL    HW137199   0.768   2.445  15.257  0.7759  0.4476 -0.2816
 8522SOL    HW237200   0.807   2.518  15.140  0.6771 -0.9330 -1.3390
 8523SOL     OW37201   1.457   1.705   1.939 -0.0740  0.4570  0.2905
 8523SOL    HW137202   1.507   1.787   1.936  1.2941 -0.4688 -2.4967
 8523SOL    HW237203   1.456   1.689   1.844  0.6009 -0.2397  0.4092
 8524SOL     OW37204   2.663   1.001   7.442  0.4408  0.1189  0.6039
 8524SOL    HW137205   2.622   0.916   7.429  0.8280  0.1496 -0.8298
 8524SOL    HW237206   2.756   0.983   7.426 -0.0887 -0.4888 -1.7685
 8525SOL     OW37207   0.522   0.488   4.904  0.2712  0.3361 -0.3374
 8525SOL    HW137208   0.525   0.562   4.964 -1.3836  0.4481 -0.4040
 8525SOL    HW237209   0.613   0.486   4.874  0.4913 -0.4911  0.3816
 8526SOL     OW37210   0.039   3.125   8.603  0.5184  0.1398 -0.4880
 8526SOL    HW137211   0.073   3.069   8.673  0.3558 -0.1482 -0.6397
 8526SOL    HW237212   4.719   3.056   8.570  0.1044 -0.6902  1.9477
 8527SOL     OW37213   1.297   1.145   9.221  0.1859  0.6055 -0.9769
 8527SOL    HW137214   1.355   1.168   9.149  3.0698  1.4996  1.6380
 8527SOL    HW237215   1.366   1.139   9.286  0.4912  1.3754 -1.2251
 8528SOL     OW37216   2.912   1.119   3.331 -0.2287  0.3028  0.1402
 8528SOL    HW137217   2.933   1.093   3.242 -0.8001  1.1177 -0.2350
 8528SOL    HW237218   2.852   1.193   3.327 -0.7520 -0.1046  0.5208
 8529SOL     OW37219   1.085   0.248   8.787  0.2139  0.0462 -0.3095
 8529SOL    HW137220   1.050   0.335   8.770 -1.4330 -0.3055  1.3474
 8529SOL    HW237221   1.164   0.278   8.831  0.6580 -2.4837  0.6110
 8530SOL     OW37222   4.625   2.323   7.717  0.0322 -0.2416  0.3538
 8530SOL    HW137223   4.659   2.405   7.753  0.7712 -0.5384  0.3481
 8530SOL    HW237224   4.534   2.331   7.745  0.0024  1.5029 -0.2225
 8531SOL     OW37225   3.267   3.221   4.241  0.7445 -0.2136 -0.4093
 8531SOL    HW137226   3.315   3.232   4.323  2.3286  1.1300 -1.5295
 8531SOL    HW237227   3.290   3.131   4.218  1.4064 -0.2184  0.2667
 8532SOL     OW37228   1.897   1.569   6.033 -0.0378  0.5539 -0.7949
 8532SOL    HW137229   1.974   1.575   5.976  1.3717 -2.2095  0.8157
 8532SOL    HW237230   1.833   1.621   5.983 -0.6173 -0.2250 -0.8677
 8533SOL     OW37231   0.174   3.086   7.656 -0.0022  0.4480 -0.3103
 8533SOL    HW137232   0.249   3.131   7.616  1.6574  0.5454  2.8436
 8533SOL    HW237233   0.208   3.054   7.740  0.5345  0.6958 -0.4329
 8534SOL     OW37234   2.234   0.981   2.779 -0.8090  0.2626  0.2733
 8534SOL    HW137235   2.180   1.010   2.852 -2.1136  1.4659 -1.1805
 8534SOL    HW237236   2.218   0.887   2.786  1.1568 -0.1535 -0.6046
 8535SOL     OW37237   1.072   1.982   3.031 -0.5150  0.0112  0.1535
 8535SOL    HW137238   1.024   1.901   3.049  1.0147 -1.4699 -2.4132
 8535SOL    HW237239   1.044   1.991   2.940  0.5609 -0.0191 -0.1712
 8536SOL     OW37240   0.153   4.588   3.567  0.3068 -0.3827 -0.0792
 8536SOL    HW137241   0.165   4.660   3.505  0.0748  0.0275  0.3505
 8536SOL    HW237242   0.096   4.629   3.632  2.7939  0.5961  1.5135
 8537SOL     OW37243   4.065   3.071   4.592 -0.4373 -0.1620 -0.8568
 8537SOL    HW137244   4.104   3.128   4.526  0.2058  1.2248  0.7251
 8537SOL    HW237245   4.103   2.992   4.554 -1.7333 -0.8528 -0.7343
 8538SOL     OW37246   0.005   4.610  17.132 -0.3360 -0.2798  0.5246
 8538SOL    HW137247   0.096   4.640  17.139 -0.8792  2.1725 -3.3708
 8538SOL    HW237248   4.713   4.619  17.223 -0.8225 -0.9805  0.4366
 8539SOL     OW37249   0.833   3.317   8.307 -0.7039 -0.2669  0.2878
 8539SOL    HW137250   0.837   3.358   8.221  0.8635 -1.1684 -0.0607
 8539SOL    HW237251   0.792   3.391   8.352 -2.5853 -1.2710  0.2510
 8540SOL     OW37252   3.914   3.257   6.676 -0.4795  0.0927 -0.1862
 8540SOL    HW137253   3.907   3.331   6.736  1.8297 -1.6105  2.1842
 8540SOL    HW237254   3.951   3.200   6.743 -1.3928  1.0802  1.1561
 8541SOL     OW37255   1.578   2.408   7.169  0.0964  0.6785 -0.0133
 8541SOL    HW137256   1.593   2.339   7.234  0.3061  0.7869  0.0531
 8541SOL    HW237257   1.596   2.367   7.084 -0.5578 -0.0820  0.2065
 8542SOL     OW37258   2.149   1.493  11.025 -0.2091 -0.2988 -0.1772
 8542SOL    HW137259   2.176   1.567  11.080  2.8368  0.2880 -2.4002
 8542SOL    HW237260   2.198   1.499  10.942 -1.8742 -0.2103 -1.1526
 8543SOL     OW37261   4.577   1.778   5.559  0.0528 -0.6803  0.2263
 8543SOL    HW137262   4.524   1.858   5.563  0.7938 -0.2976  2.2323
 8543SOL    HW237263   4.551   1.728   5.636 -0.0787 -0.2841  0.4423
 8544SOL     OW37264   3.469   1.327  17.690 -0.0667 -0.4142 -0.0152
 8544SOL    HW137265   3.411   1.252  17.684  1.8285 -2.0344  1.7227
 8544SOL    HW237266   3.484   1.345  17.597 -1.9030 -1.6121 -0.5319
 8545SOL     OW37267   1.360   3.831   5.245  1.0176  0.3949  0.1479
 8545SOL    HW137268   1.371   3.925   5.237  1.3898  0.3462  0.1031
 8545SOL    HW237269   1.318   3.832   5.331  2.4170 -0.9559  0.8619
 8546SOL     OW37270   3.899   3.636   4.560 -0.0707 -0.1114 -0.4838
 8546SOL    HW137271   3.826   3.672   4.509 -0.4315  0.7451  0.6365
 8546SOL    HW237272   3.867   3.594   4.639 -0.0149  0.2899 -0.2499
 8547SOL     OW37273   4.453   1.884   8.039 -0.3559  0.8583  0.5352
 8547SOL    HW137274   4.387   1.836   7.990 -0.4171  2.0259 -0.5328
 8547SOL    HW237275   4.472   1.822   8.110 -0.0131  2.4861  1.8762
 8548SOL     OW37276   2.082   4.116   3.469  0.2348  0.3772 -0.1805
 8548SOL    HW137277   2.042   4.052   3.410 -0.9181  1.7487 -0.8793
 8548SOL    HW237278   2.090   4.192   3.412  2.0047  1.3909  1.4014
 8549SOL     OW37279   1.816   1.649   3.686 -0.8043  0.3140  0.0710
 8549SOL    HW137280   1.864   1.628   3.766  0.5583  1.0525 -0.5506
 8549SOL    HW237281   1.813   1.744   3.692 -0.0396  0.3234  0.4008
 8550SOL     OW37282   2.327   0.461   9.028 -0.4010 -0.2347  0.5470
 8550SOL    HW137283   2.415   0.428   9.047  0.6677  2.4492  0.2428
 8550SOL    HW237284   2.350   0.554   9.022  1.4079 -0.8312 -2.1712
 8551SOL     OW37285   3.314   1.190   2.415  0.1265  0.3136  0.0161
 8551SOL    HW137286   3.403   1.222   2.408 -0.3855  2.2852  2.6960
 8551SOL    HW237287   3.271   1.274   2.432  0.7655  0.5422  0.4617
 8552SOL     OW37288   3.561   3.843  14.822 -0.0673 -0.4851  0.0339
 8552SOL    HW137289   3.508   3.887  14.888  0.7129 -1.0651  1.0608
 8552SOL    HW237290   3.593   3.768  14.872 -1.8241 -1.1330  0.1907
 8553SOL     OW37291   1.547   4.159   2.988  0.7100 -0.0043 -0.3434
 8553SOL    HW137292   1.523   4.241   2.944  1.0222  1.1689  1.6605
 8553SOL    HW237293   1.642   4.172   2.993  0.8710 -2.5171  2.6159
 8554SOL     OW37294   4.641   1.564  12.727  0.0908 -0.1459  0.2038
 8554SOL    HW137295   4.674   1.487  12.772 -1.5518 -0.9259  0.0719
 8554SOL    HW237296   4.594   1.610  12.796  1.8937  1.1798  0.5327
 8555SOL     OW37297   3.743   3.450  12.000  0.7420 -0.2210  0.0297
 8555SOL    HW137298   3.772   3.412  11.917  1.5859  1.3054 -0.3652
 8555SOL    HW237299   3.663   3.495  11.971  0.8340  1.1979  2.0071
 8556SOL     OW37300   0.134   4.055  12.026 -0.2099 -0.3046  0.1467
 8556SOL    HW137301   0.183   4.036  12.106 -1.4360 -0.9798  0.7410
 8556SOL    HW237302   0.144   3.966  11.991  4.7256 -0.1462  1.1259
 8557SOL     OW37303   4.344   1.740   3.451  0.0969  0.4570 -0.1371
 8557SOL    HW137304   4.397   1.712   3.525  1.0040  0.2734 -0.8479
 8557SOL    HW237305   4.315   1.654   3.419  0.6550 -0.9700  3.2213
 8558SOL     OW37306   0.116   2.750   4.922  0.5377  0.1709 -0.0418
 8558SOL    HW137307   0.021   2.754   4.912  0.5018  0.5548  0.4651
 8558SOL    HW237308   0.134   2.691   4.848  0.9899  0.2358  0.0148
 8559SOL     OW37309   4.444   3.771  10.392 -0.4433 -0.3911  0.5541
 8559SOL    HW137310   4.416   3.790  10.302 -1.8751 -1.4649  0.7830
 8559SOL    HW237311   4.517   3.711  10.375  0.8391  0.4576  3.0425
 8560SOL     OW37312   1.061   3.129   2.069 -0.0438  0.0884 -0.4470
 8560SOL    HW137313   1.053   3.125   1.973 -0.6439 -0.1695 -0.3853
 8560SOL    HW237314   0.990   3.068   2.087  0.2888  0.0003  0.5636
 8561SOL     OW37315   3.519   1.927   6.646 -0.7587 -0.2925  0.3439
 8561SOL    HW137316   3.542   1.838   6.619  1.6131  0.1255  1.0307
 8561SOL    HW237317   3.429   1.934   6.614 -0.1960  0.8076 -1.0121
 8562SOL     OW37318   2.680   2.659   3.826 -0.1717 -0.5468  1.0305
 8562SOL    HW137319   2.615   2.669   3.896  0.6756 -0.2127  1.7632
 8562SOL    HW237320   2.721   2.745   3.832  1.0999 -0.9443 -2.0240
 8563SOL     OW37321   0.355   0.679  13.511  0.1848 -0.3664 -0.4278
 8563SOL    HW137322   0.287   0.632  13.463 -1.5188 -1.9236  3.5063
 8563SOL    HW237323   0.435   0.634  13.486  0.8413  0.3717  0.3702
 8564SOL     OW37324   1.411   0.319   2.922 -0.0172 -0.4871 -0.2300
 8564SOL    HW137325   1.326   0.311   2.878 -0.5848  2.5501  0.3565
 8564SOL    HW237326   1.462   0.367   2.857  2.0494  0.7174  2.3139
 8565SOL     OW37327   0.825   1.285   6.473 -1.0196 -0.0984  0.2874
 8565SOL    HW137328   0.913   1.313   6.496 -0.4102  0.5705 -2.8951
 8565SOL    HW237329   0.816   1.331   6.389  2.2515 -0.5442 -0.3263
 8566SOL     OW37330   0.222   2.728   3.122 -0.0931 -0.1778 -0.2464
 8566SOL    HW137331   0.134   2.763   3.138  0.6132  1.5914 -0.1650
 8566SOL    HW237332   0.278   2.780   3.179 -0.3628  1.0506 -1.0766
 8567SOL     OW37333   0.313   3.807  14.189  0.6010  0.3950  0.1263
 8567SOL    HW137334   0.337   3.854  14.268 -0.6499  2.2151 -0.5735
 8567SOL    HW237335   0.235   3.851  14.157 -0.3019 -1.4591 -0.2386
 8568SOL     OW37336   3.210   0.032   4.501 -0.1578  0.4980  0.2019
 8568SOL    HW137337   3.279   4.731   4.556 -1.5400 -2.6146 -0.2870
 8568SOL    HW237338   3.256   0.115   4.487  0.2670  0.2102 -0.0985
 8569SOL     OW37339   3.575   3.615   9.117 -0.1118  0.5976  0.2220
 8569SOL    HW137340   3.579   3.658   9.203  0.4215  2.5120 -0.7509
 8569SOL    HW237341   3.540   3.531   9.146  2.6386 -1.4513 -2.4081
 8570SOL     OW37342   2.318   2.080   8.159 -0.3627  0.6132  0.2968
 8570SOL    HW137343   2.294   2.101   8.249 -2.0142  1.8800 -0.4474
 8570SOL    HW237344   2.384   2.014   8.181  0.5373 -0.0159 -4.2194
 8571SOL     OW37345   1.129   3.237   3.076 -0.5549  0.2167 -0.0156
 8571SOL    HW137346   1.134   3.141   3.084 -1.4195  0.3195  1.6736
 8571SOL    HW237347   1.104   3.252   3.167 -1.3662  0.2873 -0.2471
 8572SOL     OW37348   1.311   0.270   2.466  0.0775 -0.3836 -0.3622
 8572SOL    HW137349   1.265   0.340   2.511 -0.4793 -0.2761 -1.0910
 8572SOL    HW237350   1.396   0.313   2.451 -0.4135  0.0828 -1.8979
 8573SOL     OW37351   3.969   0.946  13.314  0.0327  0.1063 -0.2930
 8573SOL    HW137352   3.922   1.028  13.301  1.0205  0.6952 -0.1615
 8573SOL    HW237353   4.060   0.976  13.310 -0.3684  1.5266  1.5154
 8574SOL     OW37354   2.088   0.278  16.950 -0.1073 -0.0252  0.2347
 8574SOL    HW137355   1.997   0.262  16.974 -0.0482  0.6582  0.9128
 8574SOL    HW237356   2.080   0.324  16.866  0.9958  0.2286  0.2680
 8575SOL     OW37357   0.581   1.866  14.164  1.1802 -0.0095 -0.1952
 8575SOL    HW137358   0.507   1.858  14.224  1.9280 -0.2920  0.6815
 8575SOL    HW237359   0.546   1.901  14.082 -4.0355 -1.3710  1.4328
 8576SOL     OW37360   3.672   0.426   8.152  0.2958 -0.3790  0.0779
 8576SOL    HW137361   3.640   0.493   8.213  1.1808 -0.3006  0.4514
 8576SOL    HW237362   3.700   0.355   8.210 -1.3139 -1.3124 -0.2696
 8577SOL     OW37363   4.000   3.411   7.947  0.1097 -0.1899 -0.2067
 8577SOL    HW137364   4.091   3.430   7.925  0.2360  0.6560  1.0751
 8577SOL    HW237365   4.003   3.446   8.036 -2.2070 -0.7778  0.1017
 8578SOL     OW37366   3.374   0.390   2.401  0.5913  0.2005 -0.6521
 8578SOL    HW137367   3.427   0.467   2.421 -0.8288  1.5415 -2.0542
 8578SOL    HW237368   3.316   0.416   2.329 -1.8900 -0.8078  0.9988
 8579SOL     OW37369   3.178   4.055   1.027 -0.3290 -0.1869  0.0958
 8579SOL    HW137370   3.135   4.119   0.969 -1.3918 -0.7214  0.2944
 8579SOL    HW237371   3.265   4.048   0.987  0.0989 -0.4107  1.0755
 8580SOL     OW37372   3.782   4.625   6.989  0.0822 -0.2229 -0.1588
 8580SOL    HW137373   3.726   4.551   6.964 -1.0486  0.4247  0.4599
 8580SOL    HW237374   3.752   4.691   6.927 -0.7155  0.4069  0.9057
 8581SOL     OW37375   3.630   1.292   8.676  0.2132 -0.8095  0.0465
 8581SOL    HW137376   3.585   1.207   8.676  0.2522 -0.8300 -1.5939
 8581SOL    HW237377   3.573   1.353   8.629 -1.1062 -0.2899  2.3302
 8582SOL     OW37378   0.937   3.851   8.614  0.3770  0.2495  0.5826
 8582SOL    HW137379   1.025   3.813   8.606 -0.0402 -0.3914 -0.9504
 8582SOL    HW237380   0.951   3.945   8.607 -3.0439  0.8218  1.2622
 8583SOL     OW37381   3.191   1.164   3.878  0.5569  0.0875 -0.7026
 8583SOL    HW137382   3.283   1.162   3.855  1.0446 -2.1680  1.3982
 8583SOL    HW237383   3.185   1.222   3.954  0.9946  0.6655 -1.1133
 8584SOL     OW37384   3.635   2.265   9.792  0.3627  0.3234 -0.7060
 8584SOL    HW137385   3.703   2.282   9.857  1.1695  0.7063 -1.6496
 8584SOL    HW237386   3.607   2.177   9.815  0.6325 -0.1407 -2.1885
 8585SOL     OW37387   4.006   4.156   2.803  0.3741 -0.1196  0.0166
 8585SOL    HW137388   4.025   4.197   2.718  2.2342 -0.2502  0.3594
 8585SOL    HW237389   3.913   4.134   2.799  0.6492 -1.1572 -0.7730
 8586SOL     OW37390   1.353   1.556   6.273  0.3910 -0.0223  0.0151
 8586SOL    HW137391   1.385   1.586   6.358  0.7002  0.0685 -0.1326
 8586SOL    HW237392   1.267   1.523   6.298 -0.8697  2.8006 -0.5692
 8587SOL     OW37393   3.507   0.854   1.736 -0.3446  0.0642 -0.2968
 8587SOL    HW137394   3.528   0.763   1.758 -1.4022 -0.8343 -2.9659
 8587SOL    HW237395   3.412   0.840   1.736 -0.2438 -0.6391 -1.0206
 8588SOL     OW37396   0.830   4.297   5.403  0.5207 -0.3200 -0.1152
 8588SOL    HW137397   0.910   4.342   5.377 -0.5001  1.0989 -0.8105
 8588SOL    HW237398   0.783   4.290   5.319 -0.2019 -0.5565  0.3027
 8589SOL     OW37399   3.291   1.477   4.500 -0.0508 -0.2164 -0.0188
 8589SOL    HW137400   3.239   1.494   4.422 -0.6243 -2.0368 -0.0294
 8589SOL    HW237401   3.241   1.406   4.541 -1.2182  0.1705 -0.7823
 8590SOL     OW37402   1.045   1.257   3.485 -0.1095 -0.0178 -0.1699
 8590SOL    HW137403   0.963   1.220   3.518 -0.0218  0.4799  0.6013
 8590SOL    HW237404   1.065   1.206   3.407  0.8673  1.0349 -0.6045
 8591SOL     OW37405   2.050   2.013   2.152 -0.4888  0.8158  0.5560
 8591SOL    HW137406   2.105   2.042   2.080 -0.7707  1.2779  0.5273
 8591SOL    HW237407   1.978   1.965   2.110  0.7627  0.9950 -1.7617
 8592SOL     OW37408   0.691   3.658   3.525 -0.0309  0.6019  0.2382
 8592SOL    HW137409   0.663   3.600   3.596  2.0755 -0.9172 -0.1509
 8592SOL    HW237410   0.674   3.609   3.445  2.5643 -0.6248  0.4248
 8593SOL     OW37411   4.608   2.424  10.782 -0.8744  0.6694 -0.2691
 8593SOL    HW137412   4.560   2.472  10.850 -2.7034  0.2035 -1.2142
 8593SOL    HW237413   4.696   2.419  10.817 -0.5721  0.8905 -0.9871
 8594SOL     OW37414   1.677   1.032   9.496  0.3931  0.1698  1.0626
 8594SOL    HW137415   1.634   0.948   9.514  2.2196 -1.2592 -1.1852
 8594SOL    HW237416   1.724   1.044   9.578  0.1728 -0.2937  1.2614
 8595SOL     OW37417   2.702   3.231   8.624 -0.4647 -0.6704 -0.5077
 8595SOL    HW137418   2.655   3.294   8.570 -0.1042  0.8453  0.9501
 8595SOL    HW237419   2.655   3.151   8.601  2.0011 -1.8526 -1.5483
 8596SOL     OW37420   0.292   2.803   3.891 -0.0971  0.0771 -0.5344
 8596SOL    HW137421   0.199   2.794   3.915  0.5522 -0.5421  1.7590
 8596SOL    HW237422   0.295   2.763   3.804  0.7846 -1.9165  0.3979
 8597SOL     OW37423   0.594   0.733  15.062  0.8360  0.5702  0.0718
 8597SOL    HW137424   0.600   0.701  15.152 -1.5862  1.4761  0.5655
 8597SOL    HW237425   0.545   0.815  15.070  4.1484  2.5268  0.4546
 8598SOL     OW37426   1.379   0.462   9.152  0.1936 -0.0332 -0.4226
 8598SOL    HW137427   1.333   0.545   9.140 -0.5096 -0.3940 -0.1822
 8598SOL    HW237428   1.391   0.457   9.247  2.1068 -0.1848 -0.6724
 8599SOL     OW37429   0.589   1.733  13.094 -0.0639  0.5339  0.3511
 8599SOL    HW137430   0.640   1.723  13.174  0.4109  0.7918  0.0752
 8599SOL    HW237431   0.520   1.793  13.123 -2.1094 -1.9739  0.7095
 8600SOL     OW37432   1.635   0.158  17.178 -0.4329 -0.3058  0.4504
 8600SOL    HW137433   1.672   0.192  17.097  0.3372 -1.1980  0.4285
 8600SOL    HW237434   1.612   0.243  17.216 -2.2490  0.9101 -3.3303
 8601SOL     OW37435   2.217   2.759  16.074  0.4519  0.0805  0.1451
 8601SOL    HW137436   2.235   2.783  16.164 -1.8975 -1.5417  1.0561
 8601SOL    HW237437   2.144   2.696  16.081  0.2484  0.4023  0.8177
 8602SOL     OW37438   1.702   0.064  16.794 -0.0099 -0.3694  0.1612
 8602SOL    HW137439   1.747   0.020  16.721 -0.7380  0.5131 -0.8317
 8602SOL    HW237440   1.625   0.008  16.791  0.6402 -1.3634  2.4861
 8603SOL     OW37441   0.050   3.854   5.504  0.2095 -0.9782 -0.5938
 8603SOL    HW137442   0.140   3.873   5.476 -0.3254  2.5327  0.1142
 8603SOL    HW237443   0.059   3.773   5.553  0.2994  0.3852  1.6378
 8604SOL     OW37444   3.290   4.473   5.188 -0.3982 -0.0753 -0.0423
 8604SOL    HW137445   3.296   4.434   5.100 -1.5257 -0.7155  0.1604
 8604SOL    HW237446   3.268   4.396   5.240  0.5587 -1.4885 -1.6950
 8605SOL     OW37447   4.550   4.569   3.512 -1.0591 -0.3979  0.2532
 8605SOL    HW137448   4.480   4.518   3.470 -0.7420 -1.9611  1.6366
 8605SOL    HW237449   4.497   4.598   3.586  1.8531  0.2940  2.0439
 8606SOL     OW37450   3.200   2.942   3.145  0.1049 -0.2846  0.0097
 8606SOL    HW137451   3.200   2.849   3.167  0.9751 -0.6119 -1.3639
 8606SOL    HW237452   3.243   2.939   3.060 -0.5686 -1.0934 -0.3101
 8607SOL     OW37453   0.614   0.670   3.394 -0.2321  0.0789 -0.7715
 8607SOL    HW137454   0.578   0.646   3.479  4.6420 -1.4128  0.8382
 8607SOL    HW237455   0.694   0.618   3.382  0.4637  0.6188  1.5476
 8608SOL     OW37456   1.293   3.664   4.066 -0.6476  0.4763  0.3303
 8608SOL    HW137457   1.283   3.719   3.988 -1.9223 -0.2037  0.0188
 8608SOL    HW237458   1.299   3.578   4.025 -3.0191 -0.7215  2.5899
 8609SOL     OW37459   3.252   3.785   2.848  0.6894 -0.1392 -0.4073
 8609SOL    HW137460   3.298   3.705   2.821  0.0773 -0.5492 -0.2234
 8609SOL    HW237461   3.179   3.788   2.786  1.4939  2.4950 -1.2300
 8610SOL     OW37462   4.289   2.797   3.587  0.2928  0.5397  0.0186
 8610SOL    HW137463   4.262   2.888   3.586 -1.7187 -0.0755 -1.0092
 8610SOL    HW237464   4.219   2.759   3.534  1.2823 -1.7545  0.3293
 8611SOL     OW37465   2.423   2.959   5.515 -0.1673  0.8640 -0.0636
 8611SOL    HW137466   2.489   2.996   5.457  0.6466 -1.0562 -0.3649
 8611SOL    HW237467   2.338   2.991   5.483 -1.4716 -1.1255  1.4470
 8612SOL     OW37468   3.935   3.966   4.548 -0.6022  0.0444 -0.2557
 8612SOL    HW137469   3.919   3.872   4.552  1.2059 -0.3743 -2.6903
 8612SOL    HW237470   3.973   3.996   4.631 -2.5360 -0.7270  0.8988
 8613SOL     OW37471   3.083   4.145   8.558  0.0667  0.5235  0.2665
 8613SOL    HW137472   3.006   4.092   8.580 -0.2850  0.8629 -0.1297
 8613SOL    HW237473   3.147   4.101   8.613  1.4771  1.0387 -0.9905
 8614SOL     OW37474   1.171   1.498   9.777  0.0679 -0.2487  0.4769
 8614SOL    HW137475   1.217   1.565   9.827 -0.1931 -0.4685  1.0035
 8614SOL    HW237476   1.238   1.489   9.709  1.3131  1.2252  1.5266
 8615SOL     OW37477   2.111   3.441  14.919 -0.0015  0.4283 -0.7436
 8615SOL    HW137478   2.116   3.362  14.865  1.7531  1.1431 -1.6226
 8615SOL    HW237479   2.024   3.473  14.895 -0.1926  1.4522  1.3413
 8616SOL     OW37480   3.131   1.410   2.466  0.1304  0.0439  0.0263
 8616SOL    HW137481   3.055   1.467   2.464 -0.2154 -0.3340  1.8201
 8616SOL    HW237482   3.089   1.324   2.470 -0.5944  0.4672  1.8013
 8617SOL     OW37483   1.832   0.331   6.278  0.3621  0.1547  0.8761
 8617SOL    HW137484   1.753   0.344   6.225  1.3235  2.0673 -0.0815
 8617SOL    HW237485   1.895   0.356   6.211 -0.1985 -0.9574 -0.0748
 8618SOL     OW37486   4.410   4.214   3.924  0.0202 -0.1250  0.1256
 8618SOL    HW137487   4.472   4.202   3.996  0.9836 -0.2634 -0.7306
 8618SOL    HW237488   4.328   4.218   3.974  0.1099 -0.7889  0.3286
 8619SOL     OW37489   1.638   1.462   3.974 -0.0352 -0.1250 -0.2093
 8619SOL    HW137490   1.703   1.531   3.961 -2.4357  1.8652 -1.4576
 8619SOL    HW237491   1.582   1.464   3.896  0.6838 -2.0028 -0.7896
 8620SOL     OW37492   3.668   3.095   3.502 -0.0694  0.0265  0.6298
 8620SOL    HW137493   3.594   3.057   3.455  0.1038  0.0062  0.3785
 8620SOL    HW237494   3.687   3.026   3.566 -3.1967 -1.5515 -0.1726
 8621SOL     OW37495   2.583   1.303  11.170 -0.5224 -0.8692  0.9638
 8621SOL    HW137496   2.501   1.311  11.120  0.4544  2.0401 -0.1551
 8621SOL    HW237497   2.601   1.210  11.157  1.2295 -0.1526 -1.6778
 8622SOL     OW37498   2.222   2.051   1.958  0.0835  0.1362 -0.2555
 8622SOL    HW137499   2.282   2.100   2.014 -0.5473 -1.4804  1.8136
 8622SOL    HW237500   2.284   1.993   1.913  0.6060 -0.0411  0.6776
 8623SOL     OW37501   1.990   1.663   8.962  0.7062 -0.0302 -0.1204
 8623SOL    HW137502   1.927   1.599   8.993  0.3878  0.3676  0.0502
 8623SOL    HW237503   2.032   1.605   8.898  3.2931 -1.5720  2.9877
 8624SOL     OW37504   3.938   3.513   8.211 -0.0524 -0.0067 -1.0259
 8624SOL    HW137505   4.006   3.545   8.270 -1.9753  0.6764  0.8276
 8624SOL    HW237506   3.898   3.597   8.186 -2.7976 -1.5403 -1.7943
 8625SOL     OW37507   1.326   0.921   4.982 -0.0277 -0.4768 -0.0735
 8625SOL    HW137508   1.413   0.905   5.019 -0.3587  0.9853  1.3498
 8625SOL    HW237509   1.268   0.864   5.032  0.5773 -0.8671  0.1809
 8626SOL     OW37510   3.493   2.585  11.528 -0.6355 -0.1517  0.0796
 8626SOL    HW137511   3.421   2.632  11.568 -0.8208 -0.2411 -0.1462
 8626SOL    HW237512   3.478   2.625  11.442  2.0386  0.7412  0.0233
 8627SOL     OW37513   1.389   2.337  11.847  0.1649 -0.2441 -0.0797
 8627SOL    HW137514   1.456   2.269  11.833 -1.0574 -1.5815  0.6416
 8627SOL    HW237515   1.411   2.402  11.780  2.1465 -1.0106 -0.1873
 8628SOL     OW37516   0.038   3.870  16.086  0.4488 -0.0614 -0.0092
 8628SOL    HW137517   0.084   3.953  16.095  0.0041  0.1120  0.7170
 8628SOL    HW237518   0.091   3.826  16.020 -1.9735 -1.9138 -0.7179
 8629SOL     OW37519   3.584   0.114   8.582 -0.5045  0.0960 -0.1089
 8629SOL    HW137520   3.521   0.180   8.555 -0.8605 -0.8115 -1.4808
 8629SOL    HW237521   3.652   0.171   8.617 -2.5596  1.4822  1.6311
 8630SOL     OW37522   1.208   4.258   2.071 -0.0402  0.2215  0.1994
 8630SOL    HW137523   1.241   4.277   2.159  0.5961 -1.1771  0.2739
 8630SOL    HW237524   1.291   4.245   2.026 -1.3975  0.2988 -2.3065
 8631SOL     OW37525   2.433   0.110   7.562  0.0214 -0.5171  0.2319
 8631SOL    HW137526   2.398   0.125   7.474  1.4365  1.7401  0.0493
 8631SOL    HW237527   2.460   0.018   7.554  0.1224 -0.6279  1.8985
 8632SOL     OW37528   3.616   4.017  15.452  0.4126  0.4752 -0.3671
 8632SOL    HW137529   3.614   4.043  15.544  0.7608 -0.6700 -0.0342
 8632SOL    HW237530   3.707   4.040  15.434  0.4248  0.8961  0.2199
 8633SOL     OW37531   2.281   0.028  10.892 -0.3400  0.5804  0.5633
 8633SOL    HW137532   2.200   0.024  10.943 -0.9535  0.1306 -0.4509
 8633SOL    HW237533   2.321   0.107  10.929  2.1095 -0.1265 -0.5830
 8634SOL     OW37534   2.301   1.395   3.128  0.1267  0.0102 -0.1869
 8634SOL    HW137535   2.343   1.434   3.051  1.5949  1.7025  1.4864
 8634SOL    HW237536   2.281   1.469   3.186 -4.2668  0.2044 -1.8922
 8635SOL     OW37537   0.553   1.999   2.375 -0.4957  0.2186 -0.4721
 8635SOL    HW137538   0.494   2.019   2.303 -0.5223 -2.0764 -1.1060
 8635SOL    HW237539   0.510   2.068   2.426  0.7026 -1.0769  2.3114
 8636SOL     OW37540   1.767   0.386   6.763  0.0324  0.4407  0.3003
 8636SOL    HW137541   1.761   0.291   6.755  0.2881  0.4492  0.0151
 8636SOL    HW237542   1.862   0.392   6.764  0.0881 -0.1023 -1.7255
 8637SOL     OW37543   4.711   3.595   3.217  0.2957 -0.4602 -0.3608
 8637SOL    HW137544   4.664   3.674   3.192  0.2240 -0.6777 -0.8911
 8637SOL    HW237545   0.051   3.605   3.161 -0.9149 -0.1887 -1.9612
 8638SOL     OW37546   4.174   1.643   9.054  0.3847  0.0592  0.0636
 8638SOL    HW137547   4.216   1.715   9.100  0.1670  0.3662 -0.2152
 8638SOL    HW237548   4.101   1.702   9.035 -1.8137 -2.7491 -0.2295
 8639SOL     OW37549   4.614   4.178   7.662  0.4260  0.4707  0.5163
 8639SOL    HW137550   4.700   4.219   7.667  0.0189  1.6756 -2.2385
 8639SOL    HW237551   4.576   4.208   7.579  1.5577 -1.9385 -0.8789
 8640SOL     OW37552   2.620   1.929   6.603  0.6892 -0.0500 -0.0514
 8640SOL    HW137553   2.601   1.957   6.693 -1.3159  0.7788 -0.7277
 8640SOL    HW237554   2.595   1.838   6.616  2.4878 -0.8930 -2.5474
 8641SOL     OW37555   2.242   3.183   7.593  0.8758 -0.1098 -0.1413
 8641SOL    HW137556   2.200   3.127   7.658 -1.4169  2.1551  0.3471
 8641SOL    HW237557   2.168   3.188   7.532 -0.2520  1.6269  1.3636
 8642SOL     OW37558   2.268   3.645   8.211 -0.4606 -1.1998 -0.6124
 8642SOL    HW137559   2.248   3.726   8.163  0.4095 -0.8903 -0.4658
 8642SOL    HW237560   2.340   3.598   8.168 -0.7653 -1.0928 -1.2414
 8643SOL     OW37561   4.729   3.629   9.320  0.4713 -0.2587 -0.0812
 8643SOL    HW137562   4.709   3.687   9.394  1.0960 -0.0535 -0.0752
 8643SOL    HW237563   4.676   3.670   9.252  0.8378  2.2944  1.1731
 8644SOL     OW37564   3.498   1.984   9.301 -0.2578 -0.6680 -0.3048
 8644SOL    HW137565   3.429   1.929   9.338 -1.0363  0.5235  0.0236
 8644SOL    HW237566   3.455   2.069   9.316 -0.8571 -0.8197 -1.1831
 8645SOL     OW37567   3.312   4.579  14.231 -0.3024  0.6518  0.8642
 8645SOL    HW137568   3.217   4.570  14.232 -0.3537  0.7518 -1.5246
 8645SOL    HW237569   3.330   4.668  14.260 -0.2668  1.0558 -0.3997
 8646SOL     OW37570   3.687   2.306   2.191  0.0750 -0.1035  0.5121
 8646SOL    HW137571   3.687   2.310   2.096 -1.2414 -1.9515  0.4240
 8646SOL    HW237572   3.779   2.323   2.208 -0.5204  2.9641  0.5890
 8647SOL     OW37573   4.325   4.300  12.058  0.3993 -0.0166  0.0262
 8647SOL    HW137574   4.270   4.222  12.055  0.7464 -0.2282 -0.9029
 8647SOL    HW237575   4.361   4.283  11.971  1.7119  1.4476  0.2863
 8648SOL     OW37576   1.131   3.365   5.914 -0.5539 -0.4352  0.3529
 8648SOL    HW137577   1.222   3.390   5.930 -0.4259  0.1116 -1.2666
 8648SOL    HW237578   1.142   3.273   5.890  1.3699 -0.3149  0.7326
 8649SOL     OW37579   4.463   1.227   1.138  1.3611 -0.4563  0.2004
 8649SOL    HW137580   4.486   1.248   1.229 -0.9217  1.5329  0.3254
 8649SOL    HW237581   4.405   1.300   1.118  1.4726 -0.1427  1.0396
 8650SOL     OW37582   4.105   2.690   5.697 -0.3282 -0.3825  0.8470
 8650SOL    HW137583   4.167   2.750   5.655 -0.4765 -1.0221 -0.2797
 8650SOL    HW237584   4.084   2.643   5.617  1.2810 -0.2539  0.3512
 8651SOL     OW37585   0.091   3.631   6.395 -0.2561  0.1690  0.3091
 8651SOL    HW137586   0.124   3.706   6.445  0.6534 -2.0119  2.9905
 8651SOL    HW237587   0.004   3.618   6.433  0.3280 -1.3455  1.1133
 8652SOL     OW37588   0.246   3.948   1.754 -0.6390 -0.6736  0.3548
 8652SOL    HW137589   0.341   3.940   1.763 -0.2545  2.4598 -0.9623
 8652SOL    HW237590   0.243   4.044   1.751  0.7686 -0.6098  0.8953
 8653SOL     OW37591   0.722   1.216   8.699  0.7335  0.3294  0.1819
 8653SOL    HW137592   0.768   1.293   8.734  0.4724  0.8302 -0.5700
 8653SOL    HW237593   0.637   1.213   8.744  0.5767  1.8255 -0.0217
 8654SOL     OW37594   2.952   0.244   8.336 -0.1339  0.0272 -0.2761
 8654SOL    HW137595   2.973   0.168   8.389 -1.4040 -0.6397 -0.7339
 8654SOL    HW237596   2.992   0.312   8.391 -1.4093  0.3640  0.2486
 8655SOL     OW37597   3.351   2.581  13.892  0.6646  0.7570 -0.1421
 8655SOL    HW137598   3.332   2.664  13.848  0.0167  1.0211  0.6247
 8655SOL    HW237599   3.444   2.600  13.892  0.6207  0.9873 -0.7045
 8656SOL     OW37600   3.786   4.129   6.442  0.5821  0.2078 -0.2278
 8656SOL    HW137601   3.870   4.129   6.397  0.0891 -1.8062 -1.1585
 8656SOL    HW237602   3.771   4.035   6.454 -0.3033  0.4200  0.3677
 8657SOL     OW37603   1.371   2.334   7.602 -0.1669  0.2248 -0.0539
 8657SOL    HW137604   1.300   2.270   7.606 -1.0026  1.1456 -0.1556
 8657SOL    HW237605   1.446   2.275   7.604 -0.9016 -0.6979  0.6923
 8658SOL     OW37606   0.798   2.337  13.399 -0.5062  0.0531 -0.1125
 8658SOL    HW137607   0.751   2.419  13.381  1.5695  1.6926  2.0311
 8658SOL    HW237608   0.867   2.374  13.454 -0.4919 -3.2277  2.0769
 8659SOL     OW37609   2.803   2.857   9.560  0.3168 -0.0601  0.7383
 8659SOL    HW137610   2.832   2.818   9.642 -1.7052 -1.2540  0.8929
 8659SOL    HW237611   2.742   2.928   9.579  0.8516  1.0895 -1.7710
 8660SOL     OW37612   1.962   0.137   3.274  0.2020 -0.1481 -0.1942
 8660SOL    HW137613   1.869   0.117   3.265  0.1740 -0.1221  0.0273
 8660SOL    HW237614   1.957   0.213   3.216 -2.4127 -0.9499 -0.9975
 8661SOL     OW37615   4.446   4.591   9.044 -0.0785 -0.0259  0.6380
 8661SOL    HW137616   4.351   4.592   9.031 -0.2325 -0.5200  1.7698
 8661SOL    HW237617   4.476   4.558   8.959 -0.7465 -0.9603  0.7672
 8662SOL     OW37618   3.114   1.389   8.206 -0.2524  0.4922 -0.3807
 8662SOL    HW137619   3.134   1.327   8.136  0.5639  0.4367 -0.1038
 8662SOL    HW237620   3.019   1.389   8.198 -0.0907 -1.6112 -2.5300
 8663SOL     OW37621   1.847   0.814   3.950  0.4748 -0.5375 -0.2076
 8663SOL    HW137622   1.853   0.771   3.865 -0.9136 -0.6345 -0.2540
 8663SOL    HW237623   1.936   0.849   3.945  0.6518 -1.2025 -1.5099
 8664SOL     OW37624   2.778   4.307   9.207  0.0341  0.0673  0.4862
 8664SOL    HW137625   2.794   4.365   9.132 -1.5121  0.7363  0.6772
 8664SOL    HW237626   2.864   4.270   9.227  1.2236  1.5518 -1.9614
 8665SOL     OW37627   3.848   0.494   6.166  0.2229 -0.0111  0.5033
 8665SOL    HW137628   3.844   0.540   6.082 -0.8738 -1.1275 -0.0560
 8665SOL    HW237629   3.762   0.526   6.194 -0.6335 -1.5908 -0.3535
 8666SOL     OW37630   3.761   4.445   8.813 -0.0750  0.4770 -0.4831
 8666SOL    HW137631   3.691   4.394   8.773  0.4319 -0.2205 -0.4593
 8666SOL    HW237632   3.775   4.514   8.748 -1.9182  2.1199  0.8585
 8667SOL     OW37633   3.670   2.475   5.470 -0.4476  0.3882 -0.5565
 8667SOL    HW137634   3.650   2.555   5.519  0.0177  0.2728 -0.1773
 8667SOL    HW237635   3.708   2.520   5.395 -0.1175  0.2060 -0.4998
 8668SOL     OW37636   4.443   0.875  12.219  0.1727 -0.2333 -0.3817
 8668SOL    HW137637   4.406   0.896  12.305  0.8793  1.1258 -0.4207
 8668SOL    HW237638   4.522   0.928  12.229  0.2222 -0.8804  2.7177
 8669SOL     OW37639   3.983   2.472   8.522 -0.3775 -0.1464  0.3352
 8669SOL    HW137640   4.030   2.413   8.464  1.5434  0.5858  1.1763
 8669SOL    HW237641   4.038   2.483   8.600 -3.0116  0.5351  2.1234
 8670SOL     OW37642   3.503   1.051  12.806 -0.1722  0.1309 -0.4900
 8670SOL    HW137643   3.459   0.983  12.856 -2.5963  0.4220 -2.1771
 8670SOL    HW237644   3.570   0.999  12.761 -1.5833  1.2622 -3.9400
 8671SOL     OW37645   3.695   2.187  17.654  0.4387 -0.4013 -0.4266
 8671SOL    HW137646   3.790   2.175  17.651  0.5235  0.1427  0.0739
 8671SOL    HW237647   3.661   2.158  17.738  0.9463 -2.4108 -0.9032
 8672SOL     OW37648   0.309   1.050   7.633 -0.2442 -0.2285 -0.2312
 8672SOL    HW137649   0.368   1.037   7.559  0.3626  1.9129 -0.1167
 8672SOL    HW237650   0.291   1.143   7.622 -1.7884 -0.4450  0.4664
 8673SOL     OW37651   0.868   1.643   6.567  0.6588  0.0054 -0.3231
 8673SOL    HW137652   0.940   1.586   6.540  1.1810  0.5701 -0.1234
 8673SOL    HW237653   0.818   1.588   6.627  0.6860  0.3075 -0.0246
 8674SOL     OW37654   0.555   2.739  13.936  0.4957 -0.1121 -0.4480
 8674SOL    HW137655   0.588   2.813  13.987  0.3333 -0.7922  0.6406
 8674SOL    HW237656   0.635   2.709  13.893  1.2688  2.3859 -0.7826
 8675SOL     OW37657   0.025   3.950   7.586  0.1430  0.1786 -0.3766
 8675SOL    HW137658   0.116   3.920   7.595 -0.2600 -1.6703 -2.6228
 8675SOL    HW237659   0.031   4.031   7.638 -2.6732  0.3855 -0.3925
 8676SOL     OW37660   3.933   1.417   5.450  0.0370  0.1952  0.4595
 8676SOL    HW137661   3.945   1.325   5.474 -0.5749 -0.1517 -0.5744
 8676SOL    HW237662   3.977   1.463   5.522  2.0225 -1.3460  0.2603
 8677SOL     OW37663   3.259   3.019   5.527 -1.0216 -0.0419  0.0611
 8677SOL    HW137664   3.306   3.068   5.459  0.9357 -0.8594  0.7962
 8677SOL    HW237665   3.207   3.083   5.576 -0.5488  0.1729  0.2848
 8678SOL     OW37666   0.722   0.675   0.328 -0.2048  0.4179 -0.0228
 8678SOL    HW137667   0.693   0.695   0.417  1.7870  1.2045  0.4503
 8678SOL    HW237668   0.710   0.759   0.284  2.2946  0.1903 -1.1038
 8679SOL     OW37669   3.353   2.878   4.565 -0.1197  1.0274  0.6548
 8679SOL    HW137670   3.367   2.807   4.628 -1.3972 -0.6888 -0.9982
 8679SOL    HW237671   3.310   2.839   4.489 -1.2655  0.1887  1.7375
 8680SOL     OW37672   3.607   3.992   3.795 -0.6115 -0.2311  0.0302
 8680SOL    HW137673   3.674   3.925   3.805  0.2690  0.6180 -0.0812
 8680SOL    HW237674   3.656   4.063   3.753  1.1888 -0.0867  2.3215
 8681SOL     OW37675   2.244   2.355  17.335 -0.1178 -0.3280 -0.5908
 8681SOL    HW137676   2.187   2.322  17.405  1.4401 -0.8589  0.4244
 8681SOL    HW237677   2.279   2.437  17.369  0.4104 -0.0228 -1.8615
 8682SOL     OW37678   3.417   3.980   7.531  0.3216  0.1947 -0.0035
 8682SOL    HW137679   3.365   3.902   7.549 -0.6106  0.8962  0.3492
 8682SOL    HW237680   3.498   3.961   7.483  0.7724 -1.5419  1.4531
 8683SOL     OW37681   2.997   1.776  16.999 -0.5443 -0.8140  0.3233
 8683SOL    HW137682   2.921   1.727  17.029 -1.5163 -0.4424 -1.5317
 8683SOL    HW237683   2.960   1.829  16.928  2.1990  0.0985 -0.3984
 8684SOL     OW37684   3.810   0.478  11.991  0.1587 -0.0571  0.7100
 8684SOL    HW137685   3.786   0.571  11.996  0.6060  0.1970 -1.7593
 8684SOL    HW237686   3.767   0.451  11.909  0.0975  0.8401  0.4509
 8685SOL     OW37687   2.070   1.794  13.304 -0.2125  0.1373  0.0664
 8685SOL    HW137688   1.984   1.819  13.269  0.5684  2.4251 -0.2152
 8685SOL    HW237689   2.115   1.814  13.222  0.0357  2.1342  0.6943
 8686SOL     OW37690   3.084   2.063   5.410  0.2486  0.3520  0.1814
 8686SOL    HW137691   3.047   2.029   5.329  0.1822  0.7670  0.0388
 8686SOL    HW237692   3.070   1.991   5.471 -2.6013  1.6598  1.0543
 8687SOL     OW37693   3.819   2.999   7.282  0.4427  0.0920  0.0999
 8687SOL    HW137694   3.892   3.058   7.300 -0.0598  0.2515  1.5932
 8687SOL    HW237695   3.743   3.050   7.310  2.4164  1.3508  3.1240
 8688SOL     OW37696   2.770   2.196   7.712  0.1220 -0.5761  1.0679
 8688SOL    HW137697   2.808   2.111   7.735 -1.0978 -1.8167 -1.5358
 8688SOL    HW237698   2.808   2.259   7.773  2.0594 -0.7868  0.0931
 8689SOL     OW37699   2.553   2.098   2.827 -0.1999 -0.3704 -0.2371
 8689SOL    HW137700   2.469   2.086   2.782 -0.6434 -1.4674  0.8876
 8689SOL    HW237701   2.570   2.005   2.841  1.1550 -0.0142  0.4320
 8690SOL     OW37702   4.661   2.209   5.925 -0.1404  0.2027 -0.6621
 8690SOL    HW137703   4.576   2.195   5.884 -0.1787 -0.7718 -0.2510
 8690SOL    HW237704   4.631   2.254   6.004  0.5134  0.4724 -0.5691
 8691SOL     OW37705   3.227   1.863  17.146  0.4208 -0.1233  0.3364
 8691SOL    HW137706   3.166   1.813  17.093 -0.7540  0.1737  1.4182
 8691SOL    HW237707   3.300   1.803  17.166 -0.5443 -1.8409 -1.3358
 8692SOL     OW37708   0.565   0.397   5.263  0.1897 -0.3899  0.4205
 8692SOL    HW137709   0.548   0.478   5.215  1.3580 -0.2866  0.1754
 8692SOL    HW237710   0.539   0.416   5.353  0.1984  3.3653 -0.3758
 8693SOL     OW37711   1.069   3.174   3.357 -0.3010 -0.5596 -0.7456
 8693SOL    HW137712   1.000   3.108   3.368 -1.0938  0.2347 -0.9425
 8693SOL    HW237713   1.066   3.200   3.449 -1.2514  0.0421 -0.9401
 8694SOL     OW37714   2.707   1.070  17.610  0.6542  0.0054 -0.2562
 8694SOL    HW137715   2.784   1.116  17.577  0.6579 -0.8016 -1.3919
 8694SOL    HW237716   2.655   1.149  17.626  4.7644  2.5621  0.2209
 8695SOL     OW37717   1.303   1.417   1.726  0.4559 -0.1541  0.1655
 8695SOL    HW137718   1.232   1.360   1.755  1.6199 -0.9855  1.3787
 8695SOL    HW237719   1.261   1.478   1.665 -0.6491  0.7009  1.7745
 8696SOL     OW37720   3.190   4.280   1.899 -0.0456  0.5283  1.1919
 8696SOL    HW137721   3.251   4.304   1.829 -0.6411  0.5009  0.6591
 8696SOL    HW237722   3.250   4.245   1.965 -0.8903 -0.2873  1.5336
 8697SOL     OW37723   1.810   3.324   0.938  0.3273 -0.4124  0.6293
 8697SOL    HW137724   1.803   3.413   0.972  1.9370 -0.6019  1.4546
 8697SOL    HW237725   1.735   3.325   0.878 -0.8802 -0.3189  2.1495
 8698SOL     OW37726   4.161   0.003   1.336  0.0138 -0.6293 -0.1860
 8698SOL    HW137727   4.227   4.671   1.347  0.4384 -0.1408  0.3459
 8698SOL    HW237728   4.091   4.687   1.374 -0.9888  0.9166  0.1317
 8699SOL     OW37729   1.399   3.915   4.401 -0.3883  0.2630  0.0716
 8699SOL    HW137730   1.388   3.982   4.334  3.6074 -0.5964 -1.4353
 8699SOL    HW237731   1.345   3.845   4.365  1.7820 -0.5508 -1.5444
 8700SOL     OW37732   4.512   0.792   4.771  0.4581  0.2942  0.3516
 8700SOL    HW137733   4.507   0.875   4.723 -0.8416 -0.9614 -1.6830
 8700SOL    HW237734   4.424   0.779   4.806  0.5116 -2.9313 -0.7083
 8701SOL     OW37735   3.410   1.069   8.532 -0.0674 -0.0880  0.2386
 8701SOL    HW137736   3.347   1.127   8.488  0.0477 -1.1878 -1.3945
 8701SOL    HW237737   3.483   1.067   8.469  0.1141  1.3350  0.4021
 8702SOL     OW37738   1.378   3.689   2.136  0.1555  0.8891  0.1225
 8702SOL    HW137739   1.337   3.775   2.126 -3.0280 -0.8572 -2.0632
 8702SOL    HW237740   1.454   3.703   2.080 -0.2396 -0.1903 -0.6941
 8703SOL     OW37741   1.149   1.059  13.479  0.1329  0.1297  0.3212
 8703SOL    HW137742   1.190   1.088  13.398 -0.7594  0.2240 -0.0893
 8703SOL    HW237743   1.059   1.064  13.449  0.8854  0.5665 -1.8542
 8704SOL     OW37744   4.626   1.057   5.197  0.0558 -0.1854  0.2785
 8704SOL    HW137745   4.656   1.147   5.210  0.4859 -0.2958  0.0458
 8704SOL    HW237746   4.565   1.038   5.267 -1.5339  0.0434 -1.0401
 8705SOL     OW37747   2.022   3.085   5.256  1.0276  0.1440 -0.2219
 8705SOL    HW137748   2.035   3.178   5.239 -0.4788  0.4157  0.0825
 8705SOL    HW237749   1.960   3.068   5.185  2.7445 -0.5152 -1.5452
 8706SOL     OW37750   4.318   1.805   1.153  0.0283 -0.2263 -0.5221
 8706SOL    HW137751   4.268   1.730   1.186 -1.0617  0.9658  0.5299
 8706SOL    HW237752   4.245   1.866   1.144 -1.5496 -2.0048  0.1739
 8707SOL     OW37753   1.624   0.608   2.236 -0.1297  0.1232 -0.0285
 8707SOL    HW137754   1.652   0.667   2.166  2.8142  0.5280  1.4835
 8707SOL    HW237755   1.619   0.673   2.306 -1.1653  0.6913 -0.6339
 8708SOL     OW37756   0.499   0.946   8.358 -0.3156  0.2187 -0.2703
 8708SOL    HW137757   0.472   0.886   8.289 -0.9790 -0.6450  0.7415
 8708SOL    HW237758   0.460   0.906   8.436  0.8716  0.3263  0.3860
 8709SOL     OW37759   0.852   0.614   5.096 -0.7980 -0.1253  0.3659
 8709SOL    HW137760   0.760   0.597   5.117 -0.6843 -4.1812 -2.3398
 8709SOL    HW237761   0.858   0.572   5.011  0.4166 -0.1019  0.4347
 8710SOL     OW37762   3.928   3.146   5.319 -0.2030  0.3701 -0.1664
 8710SOL    HW137763   3.956   3.076   5.259  0.9515  0.8028 -0.1159
 8710SOL    HW237764   3.845   3.117   5.357  0.1096  0.4095  0.5395
 8711SOL     OW37765   3.645   1.609   2.948 -0.2853  0.2669  0.1171
 8711SOL    HW137766   3.592   1.661   2.887  1.5524  0.8319 -0.9950
 8711SOL    HW237767   3.640   1.521   2.909  0.8266  0.9036 -1.4700
 8712SOL     OW37768   0.445   0.694   7.905 -0.5752  0.2549 -0.3376
 8712SOL    HW137769   0.467   0.728   7.818  2.9895  0.9332  0.8588
 8712SOL    HW237770   0.485   0.608   7.896  0.1029  0.4006  1.3789
 8713SOL     OW37771   2.540   4.175   9.075  0.3468  0.6766  0.5606
 8713SOL    HW137772   2.621   4.125   9.074 -0.2323 -0.2416 -0.1740
 8713SOL    HW237773   2.567   4.259   9.037 -1.1478  0.9771  0.1738
 8714SOL     OW37774   4.134   0.102   1.621 -0.2452  0.0441  0.7550
 8714SOL    HW137775   4.220   0.131   1.591  0.5224 -2.0623  0.9456
 8714SOL    HW237776   4.092   0.077   1.538 -2.4205 -1.1562  2.2151
 8715SOL     OW37777   2.376   1.431   5.748  0.2378 -0.4478 -0.3111
 8715SOL    HW137778   2.437   1.476   5.690  0.6841  0.2720  0.7274
 8715SOL    HW237779   2.431   1.417   5.824 -1.5668 -2.2169  0.6750
 8716SOL     OW37780   0.203   0.215  14.640 -0.0984 -0.0524  0.3002
 8716SOL    HW137781   0.258   0.275  14.690 -1.7220  1.3274  0.3959
 8716SOL    HW237782   0.239   0.228  14.552 -1.7292 -2.3310 -0.6924
 8717SOL     OW37783   0.975   4.498   5.812 -0.2627  0.7049  0.2752
 8717SOL    HW137784   1.060   4.541   5.815 -0.9184  1.8815  1.8912
 8717SOL    HW237785   1.004   4.409   5.830  1.3006  1.4108  1.1692
 8718SOL     OW37786   0.977   4.172   7.296  0.3120 -0.3969 -0.7168
 8718SOL    HW137787   1.049   4.226   7.263  0.2936  0.5895  0.8705
 8718SOL    HW237788   0.913   4.189   7.227  2.4101  1.8327 -2.1216
 8719SOL     OW37789   4.125   0.252   8.695  0.2813  0.6913 -0.3900
 8719SOL    HW137790   4.182   0.323   8.725 -0.3405  0.7804  0.5597
 8719SOL    HW237791   4.051   0.253   8.756 -0.4628  0.2791 -1.3015
 8720SOL     OW37792   2.305   0.605  17.589  0.1185  0.7084 -0.1585
 8720SOL    HW137793   2.216   0.572  17.574  1.2137 -1.7775 -1.1400
 8720SOL    HW237794   2.328   0.605  17.496 -1.1263  1.1169 -0.4679
 8721SOL     OW37795   2.761   0.449   8.245  0.1211 -0.3431 -0.1048
 8721SOL    HW137796   2.846   0.460   8.287  1.1811  0.0599 -2.3637
 8721SOL    HW237797   2.725   0.364   8.270  0.7427 -0.4045  0.5833
 8722SOL     OW37798   2.445   4.198  10.283  0.2732  0.0829 -0.1203
 8722SOL    HW137799   2.366   4.228  10.238  0.1431  0.9943  0.7376
 8722SOL    HW237800   2.492   4.180  10.201 -2.1471 -3.9031 -0.6366
 8723SOL     OW37801   2.314   3.817   5.809  0.2463  0.2750  0.1176
 8723SOL    HW137802   2.243   3.806   5.871  0.4338  1.5919  0.5632
 8723SOL    HW237803   2.379   3.750   5.830 -1.5326 -0.8965  1.8453
 8724SOL     OW37804   0.104   1.853   6.185 -0.7855  0.2993 -0.1920
 8724SOL    HW137805   0.077   1.857   6.277 -0.5884  0.9857 -0.1651
 8724SOL    HW237806   0.116   1.947   6.170  1.2433 -0.0348 -0.7017
 8725SOL     OW37807   1.401   2.951   3.680 -0.0295 -0.0511  0.1756
 8725SOL    HW137808   1.450   2.903   3.612 -0.2434  1.3251 -0.9625
 8725SOL    HW237809   1.322   2.963   3.628  0.6931 -1.1938 -1.2025
 8726SOL     OW37810   2.250   2.282   3.802  0.8164 -0.1901  0.0402
 8726SOL    HW137811   2.188   2.326   3.744 -1.4144 -0.7489  1.9940
 8726SOL    HW237812   2.255   2.351   3.868 -0.4556 -1.0115  0.9941
 8727SOL     OW37813   2.631   0.218  15.281  0.2670 -0.2030  0.3354
 8727SOL    HW137814   2.585   0.238  15.362  0.5928 -0.1321  0.5042
 8727SOL    HW237815   2.591   0.279  15.220  1.0034 -1.4408 -1.4045
 8728SOL     OW37816   4.008   2.328   8.298  0.6763  0.7004  0.6526
 8728SOL    HW137817   4.000   2.233   8.285 -1.5379  0.6895  2.1040
 8728SOL    HW237818   3.992   2.361   8.210 -1.3986  1.0593  1.1496
 8729SOL     OW37819   1.820   3.918   1.096 -0.2010 -0.5307 -0.4280
 8729SOL    HW137820   1.804   4.004   1.136  1.5033 -0.1730 -0.5091
 8729SOL    HW237821   1.840   3.866   1.174  1.7114  0.1445 -0.4565
 8730SOL     OW37822   2.608   3.448   7.666  0.7325  0.1140 -0.3727
 8730SOL    HW137823   2.641   3.449   7.576 -0.1028 -3.4156 -0.7149
 8730SOL    HW237824   2.559   3.366   7.659  2.1572 -0.8628  1.2498
 8731SOL     OW37825   4.093   1.551   7.984  0.5442 -0.5835 -0.2377
 8731SOL    HW137826   4.036   1.574   7.911 -0.0993 -1.4671 -0.0191
 8731SOL    HW237827   4.031   1.544   8.056 -0.6165  1.3308 -1.0658
 8732SOL     OW37828   4.191   2.307   6.348  0.6112 -0.2597 -0.2406
 8732SOL    HW137829   4.185   2.380   6.285 -1.0800 -0.4317 -0.2764
 8732SOL    HW237830   4.111   2.319   6.398  0.6696 -1.8446  0.2238
 8733SOL     OW37831   3.574   1.214   3.217  0.1985 -0.5484  0.2718
 8733SOL    HW137832   3.481   1.228   3.236  0.4882  1.8412 -0.0496
 8733SOL    HW237833   3.585   1.120   3.232  1.0141 -0.0184  2.9148
 8734SOL     OW37834   2.879   4.659  16.637  0.1589 -0.4155 -0.2141
 8734SOL    HW137835   2.787   4.681  16.656  0.7650  3.0743 -1.2893
 8734SOL    HW237836   2.893   4.700  16.552 -0.6182  1.6004  0.6091
 8735SOL     OW37837   0.826   1.650   9.738  0.5925 -0.2407  0.6250
 8735SOL    HW137838   0.855   1.732   9.778  1.9859 -0.2146 -0.4064
 8735SOL    HW237839   0.897   1.643   9.673 -1.5301 -0.2680 -1.7015
 8736SOL     OW37840   0.674   2.245   5.560  0.0039 -0.6555 -0.5117
 8736SOL    HW137841   0.739   2.202   5.615 -0.9128 -1.2031  0.1383
 8736SOL    HW237842   0.599   2.185   5.560 -0.8243  0.3793 -0.3532
 8737SOL     OW37843   2.786   2.226   4.852 -0.1739  0.2791  0.2729
 8737SOL    HW137844   2.773   2.318   4.874  0.2889  0.0436  1.5002
 8737SOL    HW237845   2.705   2.187   4.886 -0.0072  1.1380  1.6663
 8738SOL     OW37846   1.373   4.628   8.546 -0.2191  0.3660  0.8195
 8738SOL    HW137847   1.344   4.652   8.458 -0.0311  1.3053  1.0155
 8738SOL    HW237848   1.295   4.580   8.573  0.4985  0.1720  2.5846
 8739SOL     OW37849   3.134   0.109   8.133 -0.1738 -0.0311 -0.3756
 8739SOL    HW137850   3.099   0.071   8.214 -1.0785  1.4145 -0.0943
 8739SOL    HW237851   3.218   0.132   8.173 -0.2609  1.8835 -1.3342
 8740SOL     OW37852   1.973   0.828   2.397  0.4729  0.0700  0.0361
 8740SOL    HW137853   2.060   0.852   2.428  0.4938 -1.3008  1.0235
 8740SOL    HW237854   1.974   0.878   2.315 -1.7899  1.7796  1.0378
 8741SOL     OW37855   4.423   3.001   0.778 -0.2431  0.2343 -0.3204
 8741SOL    HW137856   4.348   3.059   0.766  0.1474  1.7112  4.1385
 8741SOL    HW237857   4.500   3.057   0.764 -0.4935  0.7427  0.3089
 8742SOL     OW37858   1.201   1.037   4.145 -0.1603 -0.3342 -0.0402
 8742SOL    HW137859   1.161   0.956   4.175  0.0859 -0.7232 -0.7650
 8742SOL    HW237860   1.147   1.039   4.066 -1.1723 -1.4832  0.6173
 8743SOL     OW37861   1.996   2.747   5.243  0.3397 -0.6375  0.4382
 8743SOL    HW137862   1.938   2.803   5.192 -0.6808 -1.0260  1.1704
 8743SOL    HW237863   2.009   2.811   5.314  5.3509 -1.8041  0.6253
 8744SOL     OW37864   2.987   3.042  16.100 -0.3290  0.0617  0.1136
 8744SOL    HW137865   2.985   3.082  16.012 -2.2908  2.0494  1.0683
 8744SOL    HW237866   2.901   3.000  16.104 -0.3564 -0.0062 -1.1814
 8745SOL     OW37867   1.708   1.707   5.859 -0.2800 -0.1271  0.7393
 8745SOL    HW137868   1.637   1.744   5.910 -2.7420 -2.7654 -0.8085
 8745SOL    HW237869   1.685   1.734   5.770  0.0866 -0.3393  0.5784
 8746SOL     OW37870   1.339   2.306   8.029 -0.9344  0.2347  0.4301
 8746SOL    HW137871   1.246   2.328   8.036 -1.0117 -0.2459  0.9097
 8746SOL    HW237872   1.352   2.245   8.102  3.1637 -0.9355 -1.2289
 8747SOL     OW37873   2.462   0.505   7.697  0.7755  0.1384 -0.8233
 8747SOL    HW137874   2.382   0.556   7.680  0.5365  0.1948  0.4914
 8747SOL    HW237875   2.492   0.556   7.772 -0.0775 -0.8799  0.2281
 8748SOL     OW37876   2.728   4.649   6.222 -0.9068  0.0960 -0.8139
 8748SOL    HW137877   2.792   4.718   6.236  0.4716 -1.4412  0.4489
 8748SOL    HW237878   2.652   4.704   6.241 -0.3237  0.0870  1.5168
 8749SOL     OW37879   4.216   3.707   9.976 -0.1959 -0.2914 -0.3325
 8749SOL    HW137880   4.140   3.684  10.029 -0.3768  1.0922  0.0004
 8749SOL    HW237881   4.213   3.635   9.913 -0.4205 -1.0935  0.6107
 8750SOL     OW37882   1.006   4.398   6.954  0.2126  0.3682  0.1540
 8750SOL    HW137883   1.018   4.437   7.041  1.4657  0.5748 -0.1146
 8750SOL    HW237884   1.058   4.318   6.951 -1.2936 -0.6153  0.1691
 8751SOL     OW37885   2.947   0.815   6.423  0.2139  0.4538 -0.5965
 8751SOL    HW137886   3.018   0.763   6.460  0.5137  1.9429  0.8969
 8751SOL    HW237887   2.906   0.833   6.507  1.8757 -0.0697  0.3184
 8752SOL     OW37888   0.829   1.487  12.866 -0.4992 -0.0209 -0.1476
 8752SOL    HW137889   0.870   1.407  12.832 -0.5032  0.9639 -2.4452
 8752SOL    HW237890   0.833   1.477  12.961  1.5010  1.3724 -0.0923
 8753SOL     OW37891   3.104   2.257   8.265 -0.2736 -0.3498 -0.0466
 8753SOL    HW137892   3.040   2.246   8.195 -0.9850  1.1583  0.3729
 8753SOL    HW237893   3.120   2.351   8.256 -0.4401 -0.2556  0.6839
 8754SOL     OW37894   2.113   1.218   3.231 -0.0791 -0.3788  0.1625
 8754SOL    HW137895   2.184   1.261   3.183 -0.2726 -0.2270  0.0166
 8754SOL    HW237896   2.077   1.292   3.279  2.2100 -0.2892  1.7694
 8755SOL     OW37897   2.274   4.224  12.714 -0.2727 -0.6603  0.3866
 8755SOL    HW137898   2.317   4.309  12.703 -2.6235  0.5916  0.9288
 8755SOL    HW237899   2.306   4.218  12.804  0.2710  3.0551  0.4400
 8756SOL     OW37900   3.160   4.683   2.930 -0.0758  0.5558 -0.5163
 8756SOL    HW137901   3.225   4.728   2.876 -1.2434  3.5288  0.5823
 8756SOL    HW237902   3.182   4.707   3.020 -1.2336  0.5798 -0.2474
 8757SOL     OW37903   2.922   4.544   6.391 -0.1746 -0.3172 -0.0843
 8757SOL    HW137904   3.013   4.549   6.363  0.5159 -0.5432  2.1439
 8757SOL    HW237905   2.880   4.578   6.311  0.8234  2.6808  0.6820
 8758SOL     OW37906   3.917   2.240   4.993  0.2488  0.4372  0.0987
 8758SOL    HW137907   3.992   2.182   5.006 -0.3174 -0.0766  1.0501
 8758SOL    HW237908   3.856   2.211   5.060  2.1870 -0.3654  1.5214
 8759SOL     OW37909   0.724   2.933  16.984 -0.6259 -0.0823 -0.4696
 8759SOL    HW137910   0.816   2.941  17.009 -1.5166  2.2383  2.1014
 8759SOL    HW237911   0.699   2.857  17.037 -0.7703  0.4185  0.1708
 8760SOL     OW37912   3.828   1.496   0.050  0.1411  0.8217 -0.1995
 8760SOL    HW137913   3.737   1.522   0.060  0.0479  0.4432 -0.0523
 8760SOL    HW237914   3.845   1.421   0.107  1.1029 -0.3138 -1.9642
 8761SOL     OW37915   3.834   0.360  15.306 -0.4065  0.1371 -0.1362
 8761SOL    HW137916   3.804   0.384  15.394 -0.5546 -2.9565  0.6650
 8761SOL    HW237917   3.893   0.430  15.282  1.4646 -1.0335  1.0025
 8762SOL     OW37918   0.630   3.621  11.268  0.2195  0.6406  0.2697
 8762SOL    HW137919   0.563   3.624  11.336 -1.6533 -1.8928 -1.4563
 8762SOL    HW237920   0.707   3.644  11.319  0.8150 -1.4289  0.3321
 8763SOL     OW37921   4.732   1.066   8.733 -0.2366 -0.1435  0.0326
 8763SOL    HW137922   0.083   1.078   8.699  0.5810  0.1639  2.2370
 8763SOL    HW237923   4.683   1.062   8.651  0.5310  1.3773 -0.4876
 8764SOL     OW37924   3.531   1.625  14.403 -0.2091 -0.3350 -0.9750
 8764SOL    HW137925   3.453   1.625  14.460  0.0262  0.1008 -0.6514
 8764SOL    HW237926   3.598   1.665  14.459 -0.3371 -2.2877  0.5641
 8765SOL     OW37927   2.403   4.136   1.726  0.0560  0.3962  0.3676
 8765SOL    HW137928   2.497   4.127   1.711  0.1149 -1.4615  1.8365
 8765SOL    HW237929   2.402   4.225   1.760  0.8468  0.6191 -0.1772
 8766SOL     OW37930   2.286   1.326   7.263  0.6566  0.2000 -0.1991
 8766SOL    HW137931   2.213   1.266   7.253  0.7653 -0.1935  1.4000
 8766SOL    HW237932   2.355   1.262   7.281  1.9020  1.1939 -1.3888
 8767SOL     OW37933   0.577   2.401   1.341  0.5750 -0.1310 -0.0400
 8767SOL    HW137934   0.597   2.412   1.248 -0.4469 -2.2352 -0.5123
 8767SOL    HW237935   0.613   2.313   1.350  0.7074 -0.0012  0.6592
 8768SOL     OW37936   3.504   4.731   3.371 -0.2383  0.3203  0.4747
 8768SOL    HW137937   3.437   4.709   3.436 -1.6957  0.3447 -1.0181
 8768SOL    HW237938   3.546   4.646   3.353  0.4221  0.3286  1.9282
 8769SOL     OW37939   1.873   4.023   2.065 -0.2403  0.3340  0.2542
 8769SOL    HW137940   1.807   4.088   2.090 -3.0599 -2.7768  0.9576
 8769SOL    HW237941   1.947   4.076   2.095 -0.1647  0.2007  0.3039
 8770SOL     OW37942   3.694   1.837   2.422 -0.1126  0.1922  0.6882
 8770SOL    HW137943   3.700   1.754   2.469  2.0023 -0.2927 -0.4498
 8770SOL    HW237944   3.691   1.801   2.334  0.7423 -0.4900  0.9375
 8771SOL     OW37945   4.576   4.029   9.722 -0.1945  0.0468  0.5231
 8771SOL    HW137946   4.533   4.110   9.696 -0.4073 -0.9058 -2.0893
 8771SOL    HW237947   4.635   4.063   9.790  0.4684  1.2800 -0.6898
 8772SOL     OW37948   1.921   0.979  13.362 -0.2183  0.2813 -0.2473
 8772SOL    HW137949   1.921   1.052  13.300 -0.6832 -0.4811 -1.1500
 8772SOL    HW237950   1.986   0.926  13.316  0.3676  1.5330 -0.8604
 8773SOL     OW37951   1.279   1.626   2.483  0.0324 -0.4007 -0.1575
 8773SOL    HW137952   1.207   1.684   2.454  0.1632  1.4940  3.3817
 8773SOL    HW237953   1.247   1.539   2.459  0.4568 -1.2677  2.4790
 8774SOL     OW37954   1.672   3.006   3.822 -1.2326 -0.7840 -0.0627
 8774SOL    HW137955   1.691   3.095   3.792 -1.0326 -0.6616  0.4344
 8774SOL    HW237956   1.602   2.987   3.760 -1.3343  0.0905 -0.2199
 8775SOL     OW37957   3.433   2.849   5.046  0.4978  0.0885  0.8436
 8775SOL    HW137958   3.484   2.930   5.051  0.4844  0.0691  1.2902
 8775SOL    HW237959   3.350   2.876   5.086  0.0743  1.3831 -0.8975
 8776SOL     OW37960   2.863   3.607   2.574  0.2822 -0.3832  0.5770
 8776SOL    HW137961   2.932   3.571   2.630  0.1408 -2.6308 -0.7295
 8776SOL    HW237962   2.791   3.547   2.593 -1.1303  1.0854 -0.1259
 8777SOL     OW37963   4.600   0.721  12.021 -0.3034 -0.5733  0.3234
 8777SOL    HW137964   4.649   0.756  11.947 -0.1536 -0.7508  0.3364
 8777SOL    HW237965   4.549   0.796  12.052  3.2954  2.5066 -1.1371
 8778SOL     OW37966   3.752   2.886  15.380 -0.0695  0.4763 -0.1031
 8778SOL    HW137967   3.793   2.878  15.466 -2.9284 -1.0331  1.1000
 8778SOL    HW237968   3.827   2.900  15.322  0.9124 -1.5251  0.6631
 8779SOL     OW37969   1.874   0.236   0.987  0.1069 -0.0191  0.4940
 8779SOL    HW137970   1.824   0.256   0.908  2.3371 -1.0468 -1.1843
 8779SOL    HW237971   1.963   0.250   0.953 -1.4640  1.7607 -2.8525
 8780SOL     OW37972   3.842   1.931   5.323  0.7123  0.1491 -0.5903
 8780SOL    HW137973   3.889   1.848   5.315 -0.0246 -0.3276 -0.0036
 8780SOL    HW237974   3.865   1.974   5.241  0.1250  1.0909 -0.2634
 8781SOL     OW37975   1.243   2.157  14.733 -0.6640  0.1546 -0.3148
 8781SOL    HW137976   1.189   2.181  14.658  0.0539 -0.0598 -0.8948
 8781SOL    HW237977   1.223   2.064  14.743 -0.7261  0.0742 -1.2103
 8782SOL     OW37978   4.371   0.452   3.621  0.3677 -0.1449  0.0154
 8782SOL    HW137979   4.335   0.540   3.611  1.1703  0.2536  0.5933
 8782SOL    HW237980   4.417   0.464   3.538 -1.8724  3.7463 -0.6392
 8783SOL     OW37981   4.051   3.515   7.519  0.0717 -0.2284  0.1303
 8783SOL    HW137982   4.027   3.525   7.611  0.6334 -0.7083  0.3270
 8783SOL    HW237983   4.103   3.435   7.524 -0.1968 -0.4454 -0.5573
 8784SOL     OW37984   1.472   0.328   4.040  0.1895 -0.0541 -0.0188
 8784SOL    HW137985   1.523   0.255   4.075 -1.9203 -1.5340 -0.0311
 8784SOL    HW237986   1.415   0.279   3.980 -0.0609 -0.7026  0.7458
 8785SOL     OW37987   3.554   0.094   1.569 -0.2631 -0.0545 -0.0228
 8785SOL    HW137988   3.549   0.025   1.634 -0.0791  1.4704  1.5954
 8785SOL    HW237989   3.613   0.158   1.607  1.2810 -0.9090 -0.9934
 8786SOL     OW37990   0.116   3.705   5.895  0.2417 -0.3105  0.2854
 8786SOL    HW137991   0.125   3.800   5.902 -2.6530 -0.1747  1.9673
 8786SOL    HW237992   0.181   3.686   5.828 -1.5153  0.1446 -1.5352
 8787SOL     OW37993   1.553   1.802   3.214 -0.1866  0.3776 -0.0325
 8787SOL    HW137994   1.494   1.833   3.283  0.2217 -1.3396  1.0982
 8787SOL    HW237995   1.494   1.798   3.139  0.6628  2.1138 -0.7997
 8788SOL     OW37996   3.451   1.882   6.285 -0.2381  0.0294 -0.3523
 8788SOL    HW137997   3.534   1.922   6.256 -0.6743  1.0740 -0.1573
 8788SOL    HW237998   3.481   1.793   6.266 -2.2021 -0.3789 -1.4675
 8789SOL     OW37999   0.288   0.765  11.546  0.5386  0.2073  0.3327
 8789SOL    HW138000   0.306   0.837  11.486  0.0398  1.1460  1.3023
 8789SOL    HW238001   0.335   0.687  11.517 -0.2533 -0.7497  1.6219
 8790SOL     OW38002   3.866   0.047   4.445 -0.2890 -0.3512  0.0194
 8790SOL    HW138003   3.832   0.136   4.429  0.2747 -0.1931 -0.3089
 8790SOL    HW238004   3.898   0.034   4.356  0.8860  2.6837 -0.0292
 8791SOL     OW38005   1.570   2.822   5.698 -0.4673  0.2822 -0.4234
 8791SOL    HW138006   1.521   2.897   5.732  0.6007 -0.4691  2.7466
 8791SOL    HW238007   1.542   2.828   5.607  0.3542 -0.7820 -0.7419
 8792SOL     OW38008   1.780   2.132   9.107 -0.0025  0.4878  0.3215
 8792SOL    HW138009   1.857   2.139   9.052 -0.9742  0.8858 -0.9677
 8792SOL    HW238010   1.787   2.040   9.132  0.2802  0.1271 -1.1110
 8793SOL     OW38011   0.616   4.186   4.275  0.3563 -0.0327 -0.1935
 8793SOL    HW138012   0.702   4.171   4.237  0.5926  1.2184 -0.1484
 8793SOL    HW238013   0.563   4.119   4.231  2.0497 -1.1785 -0.4870
 8794SOL     OW38014   4.022   3.101  10.714  0.0060 -0.3306  0.3396
 8794SOL    HW138015   3.963   3.069  10.646  2.1015 -0.9509 -1.1768
 8794SOL    HW238016   4.096   3.041  10.711  0.2107 -0.0843  0.4459
 8795SOL     OW38017   3.960   2.048  16.541 -0.3036  0.0517 -0.3178
 8795SOL    HW138018   3.999   2.105  16.475  0.7505  0.1490  0.3804
 8795SOL    HW238019   4.044   2.017  16.576 -1.2757 -0.3859  1.6119
 8796SOL     OW38020   3.887   3.580  11.617 -0.1538  0.4126 -0.2628
 8796SOL    HW138021   3.818   3.644  11.599  0.7152  1.8295  1.4411
 8796SOL    HW238022   3.963   3.632  11.642  1.6307 -0.9703 -2.8856
 8797SOL     OW38023   0.705   2.920   1.119 -0.0258 -0.4614  0.1107
 8797SOL    HW138024   0.764   2.931   1.045 -0.7277 -3.2663 -0.8716
 8797SOL    HW238025   0.665   3.007   1.116 -1.4297 -1.1520 -1.8768
 8798SOL     OW38026   1.253   0.123   5.650 -0.1834  0.5407  0.0707
 8798SOL    HW138027   1.220   0.146   5.564  0.3106  2.1455  0.3218
 8798SOL    HW238028   1.237   0.208   5.689 -0.8994  0.6284 -0.4167
 8799SOL     OW38029   4.454   2.134   5.779 -0.3562 -0.0602 -0.4279
 8799SOL    HW138030   4.469   2.053   5.731 -0.7967  0.5583 -1.6059
 8799SOL    HW238031   4.403   2.180   5.713 -0.4283  0.8990  0.2944
 8800SOL     OW38032   3.668   0.677  14.061  0.0439  0.7563  0.4089
 8800SOL    HW138033   3.732   0.675  13.990 -0.3421 -2.3207  0.1438
 8800SOL    HW238034   3.620   0.596  14.044 -0.6537  0.9690  1.3821
 8801SOL     OW38035   0.392   4.679   2.625 -0.0180 -0.1963 -0.4531
 8801SOL    HW138036   0.388   4.651   2.534  0.0937  2.2900 -1.2043
 8801SOL    HW238037   0.312   4.638   2.657 -0.0210  0.2418  0.0944
 8802SOL     OW38038   1.344   2.786  10.689 -0.1910  0.2799  0.0695
 8802SOL    HW138039   1.319   2.765  10.779 -1.7340 -0.7425 -0.5881
 8802SOL    HW238040   1.292   2.866  10.694  0.5026  0.8052 -1.3500
 8803SOL     OW38041   3.332   3.709  11.148 -0.3218 -0.0226  0.2680
 8803SOL    HW138042   3.393   3.642  11.180  0.2316  1.1171  1.6036
 8803SOL    HW238043   3.336   3.690  11.055  0.0414  0.4766  0.1849
 8804SOL     OW38044   2.665   0.105   1.905 -0.4036  0.4171 -0.7915
 8804SOL    HW138045   2.668   0.074   1.814  1.0703  0.5693 -0.7922
 8804SOL    HW238046   2.691   0.021   1.943 -0.4022  0.3128 -1.0229
 8805SOL     OW38047   4.299   4.567  12.090 -0.0254  0.1754 -0.3645
 8805SOL    HW138048   4.329   4.476  12.083  2.8823  1.2110 -1.3878
 8805SOL    HW238049   4.324   4.595  12.178 -0.7023  0.6878 -0.3314
 8806SOL     OW38050   1.930   3.774   7.204 -0.1663 -0.5404 -0.6098
 8806SOL    HW138051   1.891   3.687   7.210  0.0870 -0.8426 -3.4301
 8806SOL    HW238052   2.003   3.776   7.266 -1.0124 -0.9569  0.4042
 8807SOL     OW38053   3.341   1.935   8.334 -0.1048 -0.5406  0.1524
 8807SOL    HW138054   3.349   1.986   8.253  2.0434 -0.2888  0.5250
 8807SOL    HW238055   3.298   2.003   8.385  1.2005 -0.3618  0.9989
 8808SOL     OW38056   1.270   2.187   2.169 -0.1133 -0.1233 -0.2579
 8808SOL    HW138057   1.305   2.231   2.091  0.2141  3.8031  2.0746
 8808SOL    HW238058   1.338   2.120   2.176 -0.1606 -0.0839  0.6405
 8809SOL     OW38059   0.606   0.494   8.351 -0.7524 -0.1512 -0.2329
 8809SOL    HW138060   0.616   0.453   8.437  2.7825  0.6074 -0.2917
 8809SOL    HW238061   0.635   0.426   8.290 -1.5671  0.5061 -1.3431
 8810SOL     OW38062   3.073   4.676  14.136  0.1968 -0.0380 -0.4333
 8810SOL    HW138063   3.011   4.736  14.095 -1.7568 -1.9424 -0.2724
 8810SOL    HW238064   3.140   4.677  14.067  0.5201 -1.0946 -0.1403
 8811SOL     OW38065   2.877   3.242   8.231 -0.1903  0.7354  0.3057
 8811SOL    HW138066   2.783   3.260   8.242 -0.7835 -1.0631 -1.7874
 8811SOL    HW238067   2.910   3.325   8.197 -2.8549  1.6218 -0.1231
 8812SOL     OW38068   3.598   0.585   8.365  0.0250 -0.1235 -0.0656
 8812SOL    HW138069   3.606   0.575   8.460  0.4499  1.5354  0.0776
 8812SOL    HW238070   3.569   0.676   8.354 -0.2719 -0.1230  0.6855
 8813SOL     OW38071   2.398   1.893   1.799  0.4645  0.5945  0.1682
 8813SOL    HW138072   2.457   1.848   1.860 -2.4665 -1.4162  1.4799
 8813SOL    HW238073   2.459   1.962   1.772  1.3996 -0.1989  0.2086
 8814SOL     OW38074   4.199   2.369   8.638  0.0430 -0.1940 -0.0092
 8814SOL    HW138075   4.205   2.315   8.717 -0.5613  1.7631  1.3785
 8814SOL    HW238076   4.202   2.292   8.582  0.5643  0.8431 -1.3817
 8815SOL     OW38077   1.505   1.373   8.004  0.2518 -0.1589 -0.3177
 8815SOL    HW138078   1.419   1.414   7.998  0.8941  1.1705 -0.4128
 8815SOL    HW238079   1.561   1.436   7.959  1.4645  0.6191  2.2958
 8816SOL     OW38080   3.642   4.213   8.601  0.6078  1.0253  0.2935
 8816SOL    HW138081   3.597   4.154   8.662 -0.4826 -1.0864 -2.5345
 8816SOL    HW238082   3.575   4.221   8.533  2.6816  1.0613 -1.7427
 8817SOL     OW38083   1.171   2.461  11.330 -0.4360 -0.0372 -0.4677
 8817SOL    HW138084   1.214   2.375  11.327  0.4973  0.3954  0.8087
 8817SOL    HW238085   1.251   2.511  11.312  0.9320 -1.8207  0.6846
 8818SOL     OW38086   3.188   1.468   0.332  0.0597  0.0784 -0.3233
 8818SOL    HW138087   3.145   1.440   0.413  1.7419  3.8150  1.8427
 8818SOL    HW238088   3.115   1.479   0.270  0.5187  1.2022 -0.6615
 8819SOL     OW38089   0.604   0.153   8.784  0.4514 -0.4785  0.6306
 8819SOL    HW138090   0.621   0.247   8.783 -3.1601  0.1645  0.5171
 8819SOL    HW238091   0.523   0.142   8.833  1.5240 -3.2486  1.7802
 8820SOL     OW38092   2.583   0.764   3.155 -0.7897 -0.1462  0.3233
 8820SOL    HW138093   2.590   0.669   3.168  0.6884  0.1242  1.5695
 8820SOL    HW238094   2.598   0.774   3.061 -1.8397  0.3208  0.2083
 8821SOL     OW38095   1.452   0.851  11.394 -0.4025 -0.3525 -0.3254
 8821SOL    HW138096   1.512   0.889  11.329 -1.0787  1.7441  0.2810
 8821SOL    HW238097   1.514   0.779  11.408 -0.2701  0.1712  1.7960
 8822SOL     OW38098   3.028   0.212  14.289 -0.1915  0.0432  0.1085
 8822SOL    HW138099   2.973   0.148  14.335 -0.2082  0.0055  0.0360
 8822SOL    HW238100   3.064   0.258  14.365 -0.1366 -1.4990  1.0169
 8823SOL     OW38101   0.357   3.985   4.907  0.2836  0.2722  0.3496
 8823SOL    HW138102   0.423   3.928   4.868 -0.9435  0.3697 -1.9177
 8823SOL    HW238103   0.336   4.043   4.834 -2.0937 -0.0153  0.8097
 8824SOL     OW38104   1.234   1.634   3.409 -0.1139 -0.2344  0.9454
 8824SOL    HW138105   1.283   1.596   3.482  0.6017  1.2530  1.2465
 8824SOL    HW238106   1.150   1.660   3.446 -1.4700 -3.4399  0.1223
 8825SOL     OW38107   4.287   0.350   2.791 -0.5176 -0.2021  0.4220
 8825SOL    HW138108   4.261   0.396   2.870  0.7500  0.5605  0.3893
 8825SOL    HW238109   4.215   0.289   2.777  0.6070 -1.1216 -1.3781
 8826SOL     OW38110   1.316   0.029   2.984  0.3349 -0.7872  0.4885
 8826SOL    HW138111   1.351   0.118   2.978 -0.4079 -0.8244 -4.0525
 8826SOL    HW238112   1.293   0.034   3.077 -4.0473 -2.4946 -0.5104
 8827SOL     OW38113   1.015   2.910  16.717 -0.0379 -0.1045 -0.6186
 8827SOL    HW138114   0.975   2.981  16.767  1.8005 -1.8807  3.4122
 8827SOL    HW238115   1.103   2.910  16.756 -0.2167 -0.3332 -0.2263
 8828SOL     OW38116   4.674   2.787   2.943 -0.9065  0.2953 -0.3035
 8828SOL    HW138117   4.659   2.694   2.959 -0.9842  0.6875  1.9582
 8828SOL    HW238118   4.691   2.825   3.029 -2.0776  3.7950 -1.6152
 8829SOL     OW38119   0.568   1.823   6.044  0.1056 -0.1835 -0.2186
 8829SOL    HW138120   0.630   1.840   6.115 -1.3317 -0.5014  1.1390
 8829SOL    HW238121   0.559   1.728   6.051 -1.4483  0.0905  1.5564
 8830SOL     OW38122   3.273   2.896   4.214  0.3897  0.1427 -0.0480
 8830SOL    HW138123   3.195   2.917   4.264  0.1735  0.4175 -0.5065
 8830SOL    HW238124   3.245   2.815   4.172  0.0076 -0.5166  1.4722
 8831SOL     OW38125   3.239   0.728   4.888 -0.0122 -0.3903 -0.1152
 8831SOL    HW138126   3.253   0.633   4.893 -1.7909 -0.5828  1.3137
 8831SOL    HW238127   3.318   0.766   4.925  0.8115 -0.9490 -1.2939
 8832SOL     OW38128   4.091   3.587   8.399  0.1941 -0.4114  0.4305
 8832SOL    HW138129   4.073   3.617   8.488  0.2556  0.7699  0.0389
 8832SOL    HW238130   4.175   3.631   8.384  1.2129 -2.8044 -0.9461
 8833SOL     OW38131   3.568   2.957   5.627 -0.3609  0.3247  0.6533
 8833SOL    HW138132   3.560   2.870   5.588 -1.4740  0.3342  0.8642
 8833SOL    HW238133   3.475   2.979   5.621 -0.6441 -0.6152  1.7565
 8834SOL     OW38134   2.399   0.600  16.996 -0.4334  0.1074  0.7897
 8834SOL    HW138135   2.433   0.535  17.057 -4.1548  0.1456  2.8278
 8834SOL    HW238136   2.469   0.607  16.930 -1.2514  2.7756  0.1854
 8835SOL     OW38137   1.970   2.846   3.186 -0.3707 -0.0672 -0.9253
 8835SOL    HW138138   1.951   2.758   3.219  0.0524  0.1954  0.0193
 8835SOL    HW238139   2.040   2.821   3.126  0.4242  0.2287 -0.1145
 8836SOL     OW38140   0.829   1.151  13.071  0.0344  0.1086 -0.5961
 8836SOL    HW138141   0.828   1.090  13.145  0.7505  2.3811  1.2625
 8836SOL    HW238142   0.751   1.121  13.024  0.5335 -0.2865 -1.1893
 8837SOL     OW38143   3.018   2.260   5.157 -0.2621  0.2895  0.0742
 8837SOL    HW138144   2.994   2.168   5.148 -0.1690  0.1129  1.5751
 8837SOL    HW238145   3.113   2.252   5.171  0.1485  0.1714 -2.6466
 8838SOL     OW38146   2.429   3.389   4.596 -0.3471 -0.1367  0.1048
 8838SOL    HW138147   2.512   3.435   4.593 -0.7444  0.3499 -3.6610
 8838SOL    HW238148   2.407   3.397   4.689  0.0511  1.4769  0.0612
 8839SOL     OW38149   4.596   2.064   2.777 -0.0291 -0.1771 -0.0889
 8839SOL    HW138150   4.634   2.132   2.833 -3.5285  1.6283  0.1072
 8839SOL    HW238151   4.672   2.025   2.735  1.0234 -0.1200  1.7837
 8840SOL     OW38152   4.359   4.319  14.810  0.4262 -0.3109  1.0658
 8840SOL    HW138153   4.452   4.329  14.831  0.6123  0.2305  0.0111
 8840SOL    HW238154   4.342   4.227  14.828 -1.4825 -0.0580  0.5315
 8841SOL     OW38155   4.115   2.559   6.876 -0.1887 -0.1661 -0.0415
 8841SOL    HW138156   4.073   2.635   6.835 -0.4686  0.2163  0.9485
 8841SOL    HW238157   4.110   2.497   6.803  0.6609 -2.0141  1.4526
 8842SOL     OW38158   4.559   1.136   3.665 -0.2202 -0.4710 -0.1264
 8842SOL    HW138159   4.640   1.129   3.614 -0.2754 -3.8492  0.2872
 8842SOL    HW238160   4.585   1.184   3.743 -1.1901 -0.9900  0.5214
 8843SOL     OW38161   3.259   3.147  15.535  0.0264 -0.3776  0.1294
 8843SOL    HW138162   3.307   3.087  15.592 -1.3071 -0.7012  0.9342
 8843SOL    HW238163   3.176   3.100  15.524  0.0773 -0.6291  0.7666
 8844SOL     OW38164   2.237   4.460   8.090  0.4371  0.0707 -0.3356
 8844SOL    HW138165   2.303   4.471   8.158  2.1927  0.6521 -2.1107
 8844SOL    HW238166   2.162   4.506   8.128  0.5027 -0.8491  0.8813
 8845SOL     OW38167   2.600   1.906  10.742  0.2301 -0.2709 -1.1323
 8845SOL    HW138168   2.626   1.828  10.790 -0.8374 -0.4471 -0.8335
 8845SOL    HW238169   2.533   1.869  10.683  0.6942 -2.1705 -0.4754
 8846SOL     OW38170   3.643   0.033   3.716  0.3773  0.0045  0.0292
 8846SOL    HW138171   3.723   0.086   3.715  0.1896  0.3394  2.7196
 8846SOL    HW238172   3.670   4.717   3.791  0.1157 -0.4511 -0.2007
 8847SOL     OW38173   2.715   0.184   7.328  0.0863  0.1219  0.0748
 8847SOL    HW138174   2.678   0.247   7.266 -0.7870 -1.4102 -0.9574
 8847SOL    HW238175   2.639   0.127   7.335  1.3400 -1.5782 -0.1055
 8848SOL     OW38176   3.232   3.332  10.489 -0.0784  0.1866  0.4427
 8848SOL    HW138177   3.222   3.327  10.394  0.4127  1.1208  0.3371
 8848SOL    HW238178   3.324   3.360  10.483  0.0223  0.9112  5.4574
 8849SOL     OW38179   1.202   1.833  15.002  0.2455  0.2480 -0.6599
 8849SOL    HW138180   1.224   1.859  14.912 -0.7873 -0.5783 -1.1439
 8849SOL    HW238181   1.268   1.765  15.017 -0.2393 -0.3473 -1.2386
 8850SOL     OW38182   3.581   3.620   6.565 -0.6076  0.8710  0.1379
 8850SOL    HW138183   3.586   3.570   6.484  0.8087  0.0014  0.7467
 8850SOL    HW238184   3.513   3.569   6.610  0.7318 -0.4340  0.6960
 8851SOL     OW38185   0.426   0.395   1.120  0.9715 -0.3187 -0.1503
 8851SOL    HW138186   0.386   0.394   1.033 -1.6810 -0.3996  1.0687
 8851SOL    HW238187   0.482   0.317   1.115  0.6865 -0.4849 -0.8000
 8852SOL     OW38188   2.912   1.729  16.234 -0.5437  0.6072 -0.2428
 8852SOL    HW138189   2.875   1.816  16.218 -0.1317  0.8698  0.2765
 8852SOL    HW238190   2.835   1.672  16.237  0.2189 -0.4651 -1.1338
 8853SOL     OW38191   1.534   0.462   8.471 -0.1703  0.5390  0.5786
 8853SOL    HW138192   1.544   0.417   8.555  0.9847  0.6800  0.5109
 8853SOL    HW238193   1.615   0.434   8.429 -1.6147 -0.3018 -1.5891
 8854SOL     OW38194   2.881   4.193   0.973  0.4130 -0.1585 -0.6595
 8854SOL    HW138195   2.873   4.098   0.978 -1.5572 -0.0214 -1.1116
 8854SOL    HW238196   2.878   4.230   0.884 -0.5250  0.1769 -0.4886
 8855SOL     OW38197   0.340   1.911  16.418  0.2475 -0.0097 -0.4975
 8855SOL    HW138198   0.390   1.929  16.498 -0.4646 -0.6951  0.0898
 8855SOL    HW238199   0.332   1.990  16.364  1.6193 -0.9101 -2.0096
 8856SOL     OW38200   3.135   1.687  14.681  0.6674 -0.8519 -0.0456
 8856SOL    HW138201   3.141   1.592  14.687  3.5953 -0.6676  0.2527
 8856SOL    HW238202   3.078   1.700  14.605  0.0597  0.3565  0.6133
 8857SOL     OW38203   0.237   4.109   3.650  0.5502  0.4471 -0.4381
 8857SOL    HW138204   0.268   4.120   3.560  0.1764 -0.1775 -0.6452
 8857SOL    HW238205   0.181   4.032   3.637  0.6232  0.4234 -0.6137
 8858SOL     OW38206   4.406   3.791   3.441 -0.3422  0.4874 -0.4299
 8858SOL    HW138207   4.438   3.775   3.529  0.7454  0.8495 -0.7533
 8858SOL    HW238208   4.402   3.704   3.403  0.3168  1.3697 -2.5515
 8859SOL     OW38209   2.760   3.645   2.322  0.1614  0.1439 -0.6966
 8859SOL    HW138210   2.780   3.631   2.415  3.3511  2.9798 -0.9390
 8859SOL    HW238211   2.711   3.567   2.294 -2.4262  0.0164  4.1121
 8860SOL     OW38212   4.108   2.267  14.244 -0.1710  0.1044  0.1011
 8860SOL    HW138213   4.045   2.198  14.224 -0.8411  1.1396 -1.3873
 8860SOL    HW238214   4.173   2.258  14.175 -0.8072 -0.6851 -0.3952
 8861SOL     OW38215   2.347   4.373  14.219  0.1079  0.4639  0.2755
 8861SOL    HW138216   2.437   4.379  14.189  0.1748 -0.4022  0.2860
 8861SOL    HW238217   2.324   4.281  14.205 -1.7936  0.7189  1.7509
 8862SOL     OW38218   0.745   1.553   3.091  0.5010  0.1638 -0.4357
 8862SOL    HW138219   0.752   1.469   3.136 -1.2819 -0.0552 -0.5674
 8862SOL    HW238220   0.732   1.517   3.004 -1.2662  0.2420 -0.1933
 8863SOL     OW38221   0.758   0.840   7.693  0.0723 -0.6329 -0.4041
 8863SOL    HW138222   0.819   0.806   7.759 -1.2139 -2.2464 -0.0317
 8863SOL    HW238223   0.682   0.871   7.743  2.5041 -0.2351  3.0517
 8864SOL     OW38224   0.581   2.078   1.620  0.0186  0.0523  0.1861
 8864SOL    HW138225   0.509   2.129   1.657 -0.4189 -1.0372  0.8349
 8864SOL    HW238226   0.525   2.052   1.547  0.6448  1.2570 -0.7261
 8865SOL     OW38227   1.309   0.992   4.726  0.5302  0.4475  0.3630
 8865SOL    HW138228   1.298   0.966   4.818  1.7090  0.9197  0.6332
 8865SOL    HW238229   1.358   0.916   4.697 -1.5770 -0.9690  0.5297
 8866SOL     OW38230   4.391   1.242   7.510 -0.2638  0.3451  0.0651
 8866SOL    HW138231   4.471   1.198   7.479 -0.6733  0.4924 -1.1909
 8866SOL    HW238232   4.430   1.325   7.536  0.4128 -0.5202  1.8378
 8867SOL     OW38233   1.480   2.471  11.606  0.2338  0.0098  0.4827
 8867SOL    HW138234   1.430   2.552  11.609  0.5575  0.2134  0.3856
 8867SOL    HW238235   1.550   2.492  11.545 -0.8081  0.9973 -0.3643
 8868SOL     OW38236   3.315   4.335   4.958 -0.9261 -0.0433 -0.1128
 8868SOL    HW138237   3.245   4.269   4.961 -1.2301  0.3522  1.2684
 8868SOL    HW238238   3.308   4.352   4.864 -0.6274 -0.6796 -0.2511
 8869SOL     OW38239   3.725   2.981  12.187  0.0291  0.2197 -0.0659
 8869SOL    HW138240   3.775   2.922  12.243  3.1533  4.2717  1.3624
 8869SOL    HW238241   3.640   2.993  12.230  0.3203 -0.4839  0.6952
 8870SOL     OW38242   1.769   3.845   2.619 -0.1330 -0.0004 -0.5574
 8870SOL    HW138243   1.784   3.783   2.548  1.6364 -1.8296  1.4146
 8870SOL    HW238244   1.850   3.825   2.667 -0.4951 -1.8253 -0.7085
 8871SOL     OW38245   3.055   1.730   8.476  0.1516  0.0526  0.3766
 8871SOL    HW138246   3.008   1.753   8.396  0.1438 -2.2976 -0.2653
 8871SOL    HW238247   3.026   1.792   8.543  0.1422  0.3122  0.1369
 8872SOL     OW38248   0.284   2.882  10.097 -0.2269 -0.5454  0.0145
 8872SOL    HW138249   0.371   2.896  10.059 -1.3940  1.0125 -2.0952
 8872SOL    HW238250   0.231   2.892  10.018 -1.0423 -2.1448  0.3666
 8873SOL     OW38251   1.602   1.528   4.244 -0.1469 -0.2642  0.1704
 8873SOL    HW138252   1.596   1.518   4.149 -2.3478  1.0201  0.1941
 8873SOL    HW238253   1.591   1.438   4.276 -1.5924 -0.4277 -0.8144
 8874SOL     OW38254   2.068   0.296  14.526 -0.0104 -0.1494 -0.2678
 8874SOL    HW138255   2.060   0.213  14.573 -2.3953 -0.0238 -0.4625
 8874SOL    HW238256   2.017   0.286  14.446  0.1865  0.9605 -0.5344
 8875SOL     OW38257   2.751   1.637   7.396  0.5269 -0.2250  0.5199
 8875SOL    HW138258   2.827   1.581   7.375  2.1995  2.1779  0.2064
 8875SOL    HW238259   2.796   1.703   7.449  1.2764 -1.2296  1.1486
 8876SOL     OW38260   3.114   4.496   2.507  0.2479  0.6024  0.6419
 8876SOL    HW138261   3.101   4.587   2.534 -0.3350  1.6038 -3.0165
 8876SOL    HW238262   3.204   4.491   2.540  0.7694  0.8196 -0.7555
 8877SOL     OW38263   2.718   2.914   7.743  0.5290 -0.4521  0.8512
 8877SOL    HW138264   2.735   2.981   7.676 -0.6741 -0.2827  0.7256
 8877SOL    HW238265   2.653   2.858   7.702  0.1932 -0.3499  1.2338
 8878SOL     OW38266   2.233   2.953   4.639 -0.0031  0.0715  0.2900
 8878SOL    HW138267   2.291   3.016   4.595  0.4147 -0.8862 -0.5188
 8878SOL    HW238268   2.284   2.875   4.618 -2.1617 -1.2959  0.0664
 8879SOL     OW38269   3.557   2.974   7.806  0.0245 -0.1931 -0.2022
 8879SOL    HW138270   3.640   2.955   7.850 -0.3708  0.8851  1.0057
 8879SOL    HW238271   3.596   3.014   7.728  0.9322  0.6945  0.6996
 8880SOL     OW38272   0.682   1.605   5.058 -0.6231  0.0721 -0.1251
 8880SOL    HW138273   0.712   1.647   4.977  1.2245 -0.2304  0.4039
 8880SOL    HW238274   0.744   1.534   5.075 -1.0766 -0.3693 -0.3409
 8881SOL     OW38275   1.588   1.261   1.412  0.2359  0.4875 -0.2245
 8881SOL    HW138276   1.575   1.318   1.488  2.6601  0.8820 -0.0899
 8881SOL    HW238277   1.665   1.294   1.365  1.1389  0.4988  1.2726
 8882SOL     OW38278   4.704   1.264   2.090 -0.3801  0.3528  0.3117
 8882SOL    HW138279   4.610   1.261   2.073 -0.5587  2.4948  0.8883
 8882SOL    HW238280   4.706   1.193   2.154 -0.8308  0.6893  0.6935
 8883SOL     OW38281   4.696   3.423  11.870  0.0840 -0.3334 -0.1217
 8883SOL    HW138282   4.612   3.382  11.846 -0.6059 -0.2368  2.1096
 8883SOL    HW238283   4.663   3.507  11.901 -1.9519 -1.6941  1.4314
 8884SOL     OW38284   3.190   1.714   7.282 -0.3160  0.0284  0.2721
 8884SOL    HW138285   3.230   1.679   7.362 -2.3297 -0.9780  0.8505
 8884SOL    HW238286   3.139   1.787   7.315  0.3740  1.5648 -2.0490
 8885SOL     OW38287   1.801   0.778   8.914 -0.1547 -0.0495  0.0091
 8885SOL    HW138288   1.732   0.760   8.978 -1.4682  1.2686 -1.0335
 8885SOL    HW238289   1.784   0.711   8.848  0.8884  0.7214 -1.0446
 8886SOL     OW38290   2.488   0.756   0.970 -0.1680 -0.4240 -0.5075
 8886SOL    HW138291   2.526   0.705   0.899  3.4582  2.8299 -0.8546
 8886SOL    HW238292   2.524   0.719   1.051  0.3292 -1.2458 -1.1089
 8887SOL     OW38293   1.040   4.450   6.487  0.3845  0.3241  0.4160
 8887SOL    HW138294   0.982   4.423   6.415 -0.2250 -1.1433  1.4667
 8887SOL    HW238295   1.069   4.532   6.446 -2.2182  0.8871 -0.3062
 8888SOL     OW38296   3.119   2.054   2.549 -0.2628  0.0697 -0.2454
 8888SOL    HW138297   3.026   2.032   2.551 -0.2337 -0.3122 -2.5736
 8888SOL    HW238298   3.109   2.103   2.467  1.0119  0.5471 -0.1148
 8889SOL     OW38299   1.074   1.976   4.892  0.1121  0.6374  0.0921
 8889SOL    HW138300   1.032   1.902   4.848  3.6744 -1.0778 -0.4118
 8889SOL    HW238301   1.165   1.977   4.862  0.1472 -0.4096  0.1714
 8890SOL     OW38302   0.633   4.189   6.884  0.0232  0.9260 -0.0813
 8890SOL    HW138303   0.553   4.216   6.839 -0.1046  3.4304  1.6848
 8890SOL    HW238304   0.695   4.203   6.813 -0.1763  0.5776 -0.3236
 8891SOL     OW38305   1.896   4.296   7.788  0.1525 -0.2746 -0.0239
 8891SOL    HW138306   1.925   4.205   7.778  1.1714 -0.0012  0.4502
 8891SOL    HW238307   1.939   4.316   7.871 -0.6462  0.7824  0.1292
 8892SOL     OW38308   4.583   1.386   8.747 -0.1642  0.4777 -0.7717
 8892SOL    HW138309   4.641   1.461   8.735  0.5171 -0.7000 -4.7632
 8892SOL    HW238310   4.568   1.397   8.841 -0.6366  0.3317 -0.8329
 8893SOL     OW38311   1.574   4.406   9.976 -0.2095 -0.0287 -0.0227
 8893SOL    HW138312   1.664   4.438   9.976 -0.6314  1.1762  3.7872
 8893SOL    HW238313   1.543   4.427  10.065 -0.3202 -0.7452  0.1082
 8894SOL     OW38314   0.051   3.016   2.577 -0.0430 -0.0317 -0.0497
 8894SOL    HW138315   4.699   3.019   2.613  0.4930  4.6233  1.0137
 8894SOL    HW238316   0.091   2.972   2.652 -3.6827 -0.4484  1.6726
 8895SOL     OW38317   1.419   3.397  13.615 -0.2454  0.0141  0.4921
 8895SOL    HW138318   1.432   3.391  13.710 -0.3320 -0.9512  0.4477
 8895SOL    HW238319   1.496   3.441  13.581  0.6085 -2.7695 -1.2037
 8896SOL     OW38320   1.550   1.242   4.085 -0.3622 -0.4382  0.3705
 8896SOL    HW138321   1.607   1.223   4.159  1.9719 -1.5186 -1.7063
 8896SOL    HW238322   1.587   1.326   4.057 -1.1343 -0.0779  0.4344
 8897SOL     OW38323   4.655   2.518   2.975  0.6189 -0.1461 -0.5481
 8897SOL    HW138324   0.005   2.478   2.970  2.1816  3.4614 -2.2218
 8897SOL    HW238325   4.603   2.440   2.992  1.1132 -0.8032 -1.9731
 8898SOL     OW38326   1.481   1.852   7.507  0.1450  0.2485 -0.2829
 8898SOL    HW138327   1.522   1.828   7.424 -2.2313  0.2004 -1.4507
 8898SOL    HW238328   1.397   1.806   7.515 -0.0100  0.3885 -1.0928
 8899SOL     OW38329   4.080   2.709   3.327  0.0229 -0.1252 -0.4269
 8899SOL    HW138330   4.043   2.624   3.350 -2.6291  0.9349 -0.7186
 8899SOL    HW238331   4.003   2.760   3.353  0.0326 -0.5147  0.3639
 8900SOL     OW38332   4.479   3.618   5.951  0.4503 -0.1467 -0.0360
 8900SOL    HW138333   4.534   3.540   5.954 -0.6578 -1.0160 -1.9119
 8900SOL    HW238334   4.492   3.644   5.860  1.4111  0.1404  0.1812
 8901SOL     OW38335   1.405   4.175   9.076  0.1407  0.3125  0.3573
 8901SOL    HW138336   1.432   4.203   9.163  0.6683  0.6208  0.0980
 8901SOL    HW238337   1.492   4.198   9.041  0.7918 -0.8294  1.2146
 8902SOL     OW38338   0.376   4.397  17.558  0.0605 -0.2624  0.8053
 8902SOL    HW138339   0.373   4.486  17.591  1.2400  0.2852 -0.5615
 8902SOL    HW238340   0.456   4.372  17.604  0.0099 -0.2739  0.8872
 8903SOL     OW38341   1.246   2.525   1.521  0.6225  0.6792 -0.1747
 8903SOL    HW138342   1.225   2.598   1.579  2.0963 -0.1151  1.3555
 8903SOL    HW238343   1.174   2.536   1.459  0.1500  0.4785  0.3424
 8904SOL     OW38344   2.602   3.155  14.104 -0.0152 -0.1660  0.3620
 8904SOL    HW138345   2.669   3.105  14.056 -1.2225 -0.9667 -0.4920
 8904SOL    HW238346   2.553   3.191  14.029 -0.2939 -0.5892  0.3424
 8905SOL     OW38347   3.125   2.070   9.319  0.2766  0.6205  0.4959
 8905SOL    HW138348   3.032   2.063   9.298  0.5182  1.3809 -0.8128
 8905SOL    HW238349   3.128   2.138   9.387 -0.3906 -0.2399  1.3953
 8906SOL     OW38350   3.265   0.603   0.995 -0.3041 -0.0275 -0.1805
 8906SOL    HW138351   3.212   0.656   1.056 -1.2306 -1.3105  0.1281
 8906SOL    HW238352   3.202   0.542   0.956 -0.1720  0.8083 -1.6927
 8907SOL     OW38353   0.399   1.561   2.574  0.4450  0.1602 -0.1186
 8907SOL    HW138354   0.432   1.475   2.546 -0.4141 -0.6005  1.2464
 8907SOL    HW238355   0.442   1.615   2.508 -1.1801 -0.1752 -1.4539
 8908SOL     OW38356   2.458   2.374   7.307  0.3515 -0.2923  0.1065
 8908SOL    HW138357   2.547   2.340   7.311 -0.3544 -2.1796 -0.5882
 8908SOL    HW238358   2.409   2.317   7.248 -1.1045  1.5128 -0.4125
 8909SOL     OW38359   3.711   3.953   6.834 -0.4670 -0.0441  0.0796
 8909SOL    HW138360   3.706   3.858   6.840  1.5791 -0.1993 -0.4653
 8909SOL    HW238361   3.716   3.962   6.738  1.6897  0.9782  0.2972
 8910SOL     OW38362   2.739   3.773  13.355 -0.0776 -0.8272  1.0662
 8910SOL    HW138363   2.799   3.739  13.290 -1.5521 -0.0256 -0.7057
 8910SOL    HW238364   2.664   3.809  13.308 -0.2678 -4.0962 -1.0856
 8911SOL     OW38365   2.865   0.387  14.602 -0.2387  0.0477  0.1395
 8911SOL    HW138366   2.789   0.328  14.609 -0.0816  0.1405  2.9168
 8911SOL    HW238367   2.828   0.456  14.547  0.3936  0.0473 -0.2847
 8912SOL     OW38368   0.770   0.635   8.699  0.4021  0.4618 -0.9181
 8912SOL    HW138369   0.808   0.629   8.611  0.8479 -0.0755 -0.6887
 8912SOL    HW238370   0.770   0.730   8.714  0.8140  0.2927  0.0936
 8913SOL     OW38371   3.340   3.541  12.086 -0.0949  0.5560 -0.1961
 8913SOL    HW138372   3.358   3.596  12.163  0.6852 -1.3114  0.9674
 8913SOL    HW238373   3.246   3.544  12.066 -0.2735 -0.1776  0.5371
 8914SOL     OW38374   3.542   4.434   6.631 -0.0436  0.4442  0.6157
 8914SOL    HW138375   3.546   4.394   6.544  0.8453 -0.0730  0.8889
 8914SOL    HW238376   3.450   4.429   6.657  0.6791 -0.7101  2.9869
 8915SOL     OW38377   1.322   3.531   6.427 -0.2557  0.0860  0.2313
 8915SOL    HW138378   1.234   3.545   6.392 -0.9061  0.1630  1.9115
 8915SOL    HW238379   1.356   3.476   6.357  1.6028  0.4212  0.8638
 8916SOL     OW38380   0.187   2.345   2.500 -0.0624  1.1411  0.1363
 8916SOL    HW138381   0.147   2.428   2.529  0.0057  1.8561 -1.8361
 8916SOL    HW238382   0.107   2.294   2.487  2.7467 -3.0053 -0.7317
 8917SOL     OW38383   3.337   0.222   2.020 -0.1223  0.3239 -0.2390
 8917SOL    HW138384   3.352   0.273   1.941 -2.2177  0.8588 -0.2838
 8917SOL    HW238385   3.257   0.185   1.983 -0.7446  0.1917  1.2675
 8918SOL     OW38386   3.526   0.176   9.075 -0.5862 -0.0576  0.5202
 8918SOL    HW138387   3.463   0.166   9.003  0.6682 -1.3234 -0.3989
 8918SOL    HW238388   3.474   0.239   9.126  0.8346  1.1400  0.4795
 8919SOL     OW38389   2.088   3.672  15.392 -0.2527 -0.1209 -0.6177
 8919SOL    HW138390   2.029   3.690  15.318  3.9098  0.1050 -3.9226
 8919SOL    HW238391   2.148   3.609  15.351  2.2524  0.6173  1.8582
 8920SOL     OW38392   1.516   4.204   9.313  0.6122 -0.5142 -0.5320
 8920SOL    HW138393   1.478   4.218   9.400 -2.3691  0.1186 -1.9622
 8920SOL    HW238394   1.603   4.167   9.332  0.7727  0.7788  1.3412
 8921SOL     OW38395   1.670   3.881   7.917  0.0837  0.1268 -0.0502
 8921SOL    HW138396   1.714   3.804   7.953  2.1142  0.5355 -1.6707
 8921SOL    HW238397   1.721   3.950   7.959  0.0831  0.3869 -0.4888
 8922SOL     OW38398   2.564   0.792  10.288 -0.3318  0.1892 -0.3995
 8922SOL    HW138399   2.592   0.868  10.236  0.5149 -0.0818 -0.3294
 8922SOL    HW238400   2.636   0.731  10.273  0.5679  1.0467  0.4290
 8923SOL     OW38401   1.748   1.962   5.503  0.3101 -0.0363  0.1007
 8923SOL    HW138402   1.746   1.989   5.595  2.9463  2.0040 -0.4314
 8923SOL    HW238403   1.816   2.019   5.468 -1.4137  1.1712 -1.2561
 8924SOL     OW38404   3.281   3.785   7.675 -0.2907 -0.5538 -0.1385
 8924SOL    HW138405   3.350   3.797   7.740 -1.6002  2.3525  0.7477
 8924SOL    HW238406   3.231   3.712   7.712  0.0564 -0.4376  0.5479
 8925SOL     OW38407   3.651   1.383   7.199  0.1335 -0.2285  0.0956
 8925SOL    HW138408   3.668   1.474   7.174  0.5637  0.0904  1.5071
 8925SOL    HW238409   3.741   1.354   7.216 -0.1752  0.2648  2.6022
 8926SOL     OW38410   0.410   2.372   4.828 -0.5698  0.0640  0.2970
 8926SOL    HW138411   0.384   2.454   4.869  1.6092  0.6017  0.6216
 8926SOL    HW238412   0.486   2.349   4.882  0.9162  1.3710 -1.2551
 8927SOL     OW38413   4.216   3.004   4.163 -0.8834 -0.0267  0.4681
 8927SOL    HW138414   4.234   3.094   4.137 -0.9252 -0.9132 -2.5777
 8927SOL    HW238415   4.294   2.956   4.136  0.2567  2.5529 -0.8699
 8928SOL     OW38416   4.035   1.124   0.574 -0.3872 -0.5776 -0.1433
 8928SOL    HW138417   4.050   1.052   0.636  1.8099 -1.8765 -2.2399
 8928SOL    HW238418   4.115   1.173   0.592  0.1896 -2.4276  2.3761
 8929SOL     OW38419   0.629   1.948   9.035  0.1690  0.3095  0.2595
 8929SOL    HW138420   0.639   1.988   9.121 -0.2580  0.2856  0.3186
 8929SOL    HW238421   0.706   1.891   9.041 -0.2649 -0.1013  1.9468
 8930SOL     OW38422   3.507   3.772  12.202 -0.6634 -0.1191  0.7305
 8930SOL    HW138423   3.463   3.838  12.148  1.2753  1.3297  0.9407
 8930SOL    HW238424   3.427   3.750  12.250 -1.2797  0.0132 -0.2255
 8931SOL     OW38425   2.417   0.882   5.250  0.2732  0.4466 -0.1089
 8931SOL    HW138426   2.503   0.922   5.258  0.1653  1.0236 -1.9375
 8931SOL    HW238427   2.369   0.956   5.214 -1.0169 -0.5226 -0.4060
 8932SOL     OW38428   0.493   3.923   7.833 -0.2716  0.5482  0.3245
 8932SOL    HW138429   0.480   4.015   7.859  2.1742  0.0813  3.2387
 8932SOL    HW238430   0.579   3.943   7.796  0.8602 -2.0032  1.5826
 8933SOL     OW38431   3.379   0.182  15.585  0.4840 -0.2899  0.1153
 8933SOL    HW138432   3.302   0.235  15.605 -0.1990 -0.7614 -1.3044
 8933SOL    HW238433   3.407   0.221  15.503  2.2498 -3.0596 -0.5852
 8934SOL     OW38434   0.918   0.032   6.827 -0.4997 -0.6211 -0.1989
 8934SOL    HW138435   1.007   4.737   6.817  0.4303  1.8305  0.3411
 8934SOL    HW238436   0.887   4.679   6.843 -0.2740 -0.7434 -0.4549
 8935SOL     OW38437   1.067   3.187  15.358  0.1175 -0.1591 -0.1183
 8935SOL    HW138438   0.974   3.164  15.366  0.4554 -1.5862 -0.3481
 8935SOL    HW238439   1.104   3.132  15.290 -2.9428 -1.7971 -0.4490
 8936SOL     OW38440   3.330   3.814  10.728  0.0133 -0.1868  0.1679
 8936SOL    HW138441   3.286   3.749  10.674 -0.6798 -0.5671  1.2184
 8936SOL    HW238442   3.359   3.749  10.792  0.3336  1.1862  1.4258
 8937SOL     OW38443   3.232   2.882   5.852 -0.5937  0.2529 -0.2875
 8937SOL    HW138444   3.192   2.795   5.848 -1.8112  0.7508  1.1425
 8937SOL    HW238445   3.203   2.915   5.767 -2.3622  0.2667  0.3324
 8938SOL     OW38446   4.642   3.420   5.419  0.4611 -0.5033 -0.1611
 8938SOL    HW138447   4.626   3.425   5.513 -0.8535 -2.5009 -0.2835
 8938SOL    HW238448   4.607   3.502   5.384  3.4500  0.6474 -0.5053
 8939SOL     OW38449   1.332   0.158  16.884  0.0850  0.5948 -0.3122
 8939SOL    HW138450   1.254   0.198  16.922 -0.1200  1.0297 -1.2088
 8939SOL    HW238451   1.393   0.231  16.893  1.7988 -0.6800 -1.4156
 8940SOL     OW38452   0.770   4.079   1.679  0.4044  0.9673 -0.6579
 8940SOL    HW138453   0.812   4.023   1.613 -2.2554 -0.2012 -1.3662
 8940SOL    HW238454   0.817   4.162   1.677  1.1578  0.4603 -3.8679
 8941SOL     OW38455   1.442   0.756   4.629  0.7397  0.0179  0.0272
 8941SOL    HW138456   1.534   0.737   4.614  0.0233 -1.5741 -2.3024
 8941SOL    HW238457   1.394   0.704   4.564 -0.4313  0.0956  0.8146
 8942SOL     OW38458   1.792   2.608   5.530 -0.8518 -0.0597 -0.2119
 8942SOL    HW138459   1.835   2.666   5.592 -0.1929 -0.0856 -0.6507
 8942SOL    HW238460   1.725   2.576   5.591  1.2451  0.6109  2.4371
 8943SOL     OW38461   4.317   2.252  16.119 -0.0893 -0.2850  0.7626
 8943SOL    HW138462   4.255   2.192  16.077  0.3039 -0.6775  0.7441
 8943SOL    HW238463   4.385   2.270  16.054  1.0713  0.2929  2.1321
 8944SOL     OW38464   3.899   2.942  11.761 -0.3110 -0.3465 -0.0351
 8944SOL    HW138465   3.865   2.908  11.843  0.9968  1.0183  1.0719
 8944SOL    HW238466   3.859   2.880  11.700  0.7627 -0.4508 -0.6319
 8945SOL     OW38467   4.385   4.126   2.538 -0.3319 -0.1409  0.2054
 8945SOL    HW138468   4.377   4.173   2.455 -2.9242 -2.5996 -0.9399
 8945SOL    HW238469   4.292   4.106   2.548 -0.6151  0.1338 -1.7860
 8946SOL     OW38470   4.574   1.707   3.919 -0.0517 -0.0307  0.0501
 8946SOL    HW138471   4.594   1.739   3.830 -1.3736  1.2746  0.2214
 8946SOL    HW238472   4.635   1.635   3.934 -0.2274  0.0198  0.9570
 8947SOL     OW38473   3.137   0.942  15.788  0.1815 -0.5643  0.1453
 8947SOL    HW138474   3.102   0.914  15.703  0.9706 -0.6541 -0.1549
 8947SOL    HW238475   3.185   1.021  15.764 -0.8492 -0.8015 -2.7323
 8948SOL     OW38476   2.912   2.656  15.089 -0.4844 -0.0334  0.0737
 8948SOL    HW138477   2.998   2.615  15.099 -0.3970  0.2407  0.4466
 8948SOL    HW238478   2.891   2.634  14.998 -0.3322 -0.7609  0.2080
 8949SOL     OW38479   3.409   1.938   9.895  0.1566  0.4464 -0.0687
 8949SOL    HW138480   3.345   1.951   9.965  0.6066 -0.8712  0.5845
 8949SOL    HW238481   3.394   2.023   9.852 -2.6234  0.4381  0.8857
 8950SOL     OW38482   4.366   4.091   4.984 -0.4509 -0.1116 -0.2593
 8950SOL    HW138483   4.402   4.039   4.912  1.9513  0.4957  0.5241
 8950SOL    HW238484   4.421   4.168   4.975 -3.0332  1.6570 -1.0235
 8951SOL     OW38485   1.390   0.690   8.817  0.8392  0.0666  0.1409
 8951SOL    HW138486   1.456   0.636   8.860 -1.0494 -1.3419  1.2461
 8951SOL    HW238487   1.324   0.624   8.795 -1.3097  1.7731  1.5052
 8952SOL     OW38488   1.258   1.186   5.508 -0.6338  0.2193  0.1011
 8952SOL    HW138489   1.292   1.145   5.428  0.2725  1.5393 -0.1957
 8952SOL    HW238490   1.193   1.242   5.466  0.0076  1.6824  1.0456
 8953SOL     OW38491   2.609   0.469   1.739 -0.0407 -0.5134 -0.4610
 8953SOL    HW138492   2.641   0.440   1.824  0.4585 -1.7828 -1.0752
 8953SOL    HW238493   2.538   0.530   1.757  0.6915 -0.3760  1.9992
 8954SOL     OW38494   3.818   1.616   4.997 -0.1333 -0.1269 -0.2294
 8954SOL    HW138495   3.761   1.541   5.017 -0.9271  0.3552 -0.6916
 8954SOL    HW238496   3.768   1.684   5.041 -2.7227 -0.4303 -2.7143
 8955SOL     OW38497   1.073   1.581   6.084  0.4921 -0.0928 -0.2828
 8955SOL    HW138498   1.014   1.628   6.025 -1.1713 -1.5220  0.2621
 8955SOL    HW238499   1.129   1.652   6.116  1.4277  0.2625 -2.7049
 8956SOL     OW38500   2.762   4.573   3.592  0.1601  0.2014  0.2085
 8956SOL    HW138501   2.834   4.567   3.655 -0.8095 -1.9234  1.1273
 8956SOL    HW238502   2.709   4.495   3.608 -2.0143  1.3909 -1.1856
 8957SOL     OW38503   0.033   4.143   6.960  0.0227 -0.2468  0.1572
 8957SOL    HW138504   0.111   4.189   6.928 -1.0031  1.1099 -0.3741
 8957SOL    HW238505   4.714   4.218   6.978 -0.3536 -0.9631  1.9677
 8958SOL     OW38506   1.065   3.560   6.333  0.2555 -0.4734  0.3120
 8958SOL    HW138507   1.052   3.554   6.238 -0.9166  1.9213  0.3229
 8958SOL    HW238508   0.977   3.582   6.364  1.3239 -0.1927  3.1529
 8959SOL     OW38509   2.792   4.217   6.441 -0.3736 -0.1146 -0.3612
 8959SOL    HW138510   2.850   4.259   6.378  0.8764 -0.2652  0.6745
 8959SOL    HW238511   2.711   4.237   6.394 -1.1240 -0.1434  0.9217
 8960SOL     OW38512   4.522   0.514  11.010 -0.1550 -0.3403 -0.5432
 8960SOL    HW138513   4.593   0.494  11.071  0.2268  0.5557 -0.6935
 8960SOL    HW238514   4.482   0.428  10.996 -3.0663  0.8147  0.6130
 8961SOL     OW38515   1.180   2.978  17.224  0.0676 -0.2016 -0.4239
 8961SOL    HW138516   1.143   3.018  17.302 -0.4856 -3.1987  0.8416
 8961SOL    HW238517   1.263   2.937  17.250  2.2643  3.0946 -2.1027
 8962SOL     OW38518   3.712   1.089   5.053 -0.2769  0.0746  0.0708
 8962SOL    HW138519   3.717   1.119   4.963 -1.4385 -2.3072 -0.7964
 8962SOL    HW238520   3.619   1.107   5.065 -0.7967 -0.6957 -3.0033
 8963SOL     OW38521   0.382   1.080  16.172 -0.2001 -0.2536  0.0952
 8963SOL    HW138522   0.373   1.160  16.121 -1.7193  1.0323  2.3884
 8963SOL    HW238523   0.406   1.018  16.103  2.2217 -0.1453  0.8213
 8964SOL     OW38524   0.970   3.134   7.390 -0.2233 -0.1637 -0.0428
 8964SOL    HW138525   0.912   3.210   7.396  0.9101  0.8944 -2.5796
 8964SOL    HW238526   0.909   3.083   7.337  1.4938 -1.6930 -0.5346
 8965SOL     OW38527   2.091   4.188  16.808 -0.3360 -0.4021  0.2623
 8965SOL    HW138528   2.178   4.212  16.776 -0.5195  2.3337  1.8360
 8965SOL    HW238529   2.031   4.218  16.739 -0.5414 -1.1257  0.1224
 8966SOL     OW38530   1.209   1.494  15.922 -0.5242  0.9873 -0.5165
 8966SOL    HW138531   1.193   1.432  15.851 -1.0928  1.1914 -0.5652
 8966SOL    HW238532   1.301   1.478  15.943 -1.2475 -0.8529  1.2847
 8967SOL     OW38533   2.650   4.207   7.975  0.1265  0.6376  0.7088
 8967SOL    HW138534   2.579   4.220   7.913 -1.3091  4.7018  3.1845
 8967SOL    HW238535   2.684   4.296   7.992  0.4241  0.2892  1.9370
 8968SOL     OW38536   3.129   3.975  11.052 -0.1626  0.0005 -0.3816
 8968SOL    HW138537   3.167   3.891  11.026 -0.8662  0.1424 -1.8741
 8968SOL    HW238538   3.094   3.952  11.138 -0.0151  1.1245 -0.0160
 8969SOL     OW38539   1.991   4.266   5.973 -0.1043  0.1043 -0.1054
 8969SOL    HW138540   1.996   4.239   6.065  0.1802  0.5698  0.0181
 8969SOL    HW238541   2.002   4.361   5.978  4.1188 -0.3609 -0.0908
 8970SOL     OW38542   2.965   2.941   4.780 -0.0189 -0.3019  0.6337
 8970SOL    HW138543   2.873   2.949   4.753 -0.3632  1.2056  2.2785
 8970SOL    HW238544   2.957   2.909   4.870 -0.6194 -2.8014 -0.3164
 8971SOL     OW38545   2.849   2.330   7.082  0.1318  0.5245  0.5596
 8971SOL    HW138546   2.824   2.399   7.020 -1.8483  0.1164  0.8997
 8971SOL    HW238547   2.868   2.389   7.155  3.2523 -0.7879  0.7820
 8972SOL     OW38548   1.289   1.441   4.428  0.7824  0.3476 -0.8935
 8972SOL    HW138549   1.354   1.507   4.451  0.3561  0.8911 -1.2493
 8972SOL    HW238550   1.303   1.385   4.505 -0.5403  0.6776 -0.4109
 8973SOL     OW38551   2.595   0.378   7.146 -0.3534  0.4697 -0.2453
 8973SOL    HW138552   2.580   0.397   7.053  1.6462 -0.1499 -0.6960
 8973SOL    HW238553   2.506   0.368   7.181  0.1163 -0.6745  0.6199
 8974SOL     OW38554   1.395   2.852   9.061 -0.5755 -0.2981  0.4870
 8974SOL    HW138555   1.449   2.928   9.085  0.5488 -0.9171 -0.1103
 8974SOL    HW238556   1.396   2.859   8.965  2.7914 -1.0419  0.4688
 8975SOL     OW38557   1.745   3.022   6.179 -0.1913  0.5511 -0.3449
 8975SOL    HW138558   1.759   3.110   6.215  1.3016  1.0657 -2.1948
 8975SOL    HW238559   1.682   3.035   6.108 -0.4823 -1.5560 -0.4613
 8976SOL     OW38560   0.909   4.390   6.273  0.2417  0.8577 -0.0808
 8976SOL    HW138561   0.853   4.314   6.283 -1.5518  2.1016 -0.7666
 8976SOL    HW238562   0.944   4.359   6.189  2.2996 -1.8591  1.7888
 8977SOL     OW38563   1.180   0.911   5.940 -0.0574  0.1995  0.2244
 8977SOL    HW138564   1.275   0.909   5.927 -0.0445  0.6807  0.2462
 8977SOL    HW238565   1.178   0.932   6.034  0.8234 -0.8711  0.4768
 8978SOL     OW38566   0.430   2.690   2.401  0.5995  0.1318  0.1612
 8978SOL    HW138567   0.518   2.713   2.371  1.3406 -1.4615  1.1352
 8978SOL    HW238568   0.427   2.606   2.356  0.8998 -0.1658  0.6978
 8979SOL     OW38569   1.292   1.396   6.638 -0.1114 -0.0791  0.0034
 8979SOL    HW138570   1.276   1.397   6.732 -2.4646 -0.0577 -0.3825
 8979SOL    HW238571   1.328   1.484   6.627  0.1855 -0.3173 -0.9403
 8980SOL     OW38572   0.196   3.830   2.320 -0.3033 -0.0286 -0.2881
 8980SOL    HW138573   0.130   3.772   2.358 -0.3197  1.1658  1.5296
 8980SOL    HW238574   0.182   3.902   2.382  1.7392  0.9638 -0.9844
 8981SOL     OW38575   3.721   2.090  14.753  0.5498  0.4670  0.3433
 8981SOL    HW138576   3.776   2.042  14.691  0.5432 -1.1250  1.5731
 8981SOL    HW238577   3.652   2.130  14.700  2.4543  3.1064 -0.1437
 8982SOL     OW38578   4.103   3.666  16.066 -0.2852 -0.0873 -0.6070
 8982SOL    HW138579   4.163   3.617  16.010  2.1894 -0.4362  2.3683
 8982SOL    HW238580   4.048   3.596  16.103  0.9906  0.9646  3.3254
 8983SOL     OW38581   4.231   2.117  13.670 -0.5181 -0.3515  0.7476
 8983SOL    HW138582   4.146   2.147  13.702 -1.6445  1.1836 -3.6110
 8983SOL    HW238583   4.270   2.204  13.662 -0.9146 -0.2055  0.3755
 8984SOL     OW38584   0.001   4.426   6.384  0.3511  0.7531  0.5221
 8984SOL    HW138585   0.010   4.345   6.434  2.6544  0.7729  0.1212
 8984SOL    HW238586   4.649   4.420   6.350  2.0234  0.6341 -3.8217
 8985SOL     OW38587   2.607   3.746   4.755 -0.5382  0.1154 -0.0804
 8985SOL    HW138588   2.676   3.699   4.708  0.8314  1.0832  1.0015
 8985SOL    HW238589   2.592   3.818   4.693  0.6864  0.9165  0.5676
 8986SOL     OW38590   2.182   1.980   5.644 -0.0076 -0.4447 -0.4454
 8986SOL    HW138591   2.250   2.046   5.630  0.0106  0.1674  2.7100
 8986SOL    HW238592   2.237   1.905   5.622 -1.1953 -1.4599  0.0792
 8987SOL     OW38593   2.011   2.662   8.777  0.3390 -0.2492  0.0345
 8987SOL    HW138594   2.080   2.613   8.732  0.6062 -1.8880  2.2229
 8987SOL    HW238595   2.050   2.673   8.864  1.1010  1.1696 -0.4820
 8988SOL     OW38596   0.785   3.675   7.340  0.2625  0.2030 -0.1964
 8988SOL    HW138597   0.750   3.718   7.417 -0.7526 -0.4170 -0.3200
 8988SOL    HW238598   0.850   3.619   7.381  1.6435  0.0954 -2.4992
 8989SOL     OW38599   3.759   4.404   5.800 -0.1720  0.0134 -0.0188
 8989SOL    HW138600   3.741   4.498   5.799 -1.5424 -0.2433 -0.0301
 8989SOL    HW238601   3.669   4.370   5.800  0.2637 -1.1689  0.6175
 8990SOL     OW38602   1.885   4.361   9.298 -0.4513 -0.1016  0.6643
 8990SOL    HW138603   1.813   4.395   9.244 -0.2128 -0.7693 -0.0677
 8990SOL    HW238604   1.870   4.396   9.386  0.3653  0.9435  0.3860
 8991SOL     OW38605   2.492   0.736  15.126  0.5883  0.2649 -0.5062
 8991SOL    HW138606   2.580   0.699  15.127  0.1433 -0.7912 -0.5893
 8991SOL    HW238607   2.449   0.689  15.197 -0.3210  2.4424  0.3855
 8992SOL     OW38608   2.506   2.079   4.934  0.1318  0.1711  0.1523
 8992SOL    HW138609   2.545   2.012   4.877 -1.3905  0.2336 -0.9776
 8992SOL    HW238610   2.430   2.106   4.882 -0.7056 -1.4937  0.5113
 8993SOL     OW38611   4.095   2.438  14.499 -0.1837 -1.0558  0.2975
 8993SOL    HW138612   4.130   2.525  14.477 -0.4651 -1.1115 -0.3906
 8993SOL    HW238613   4.112   2.393  14.416 -2.5555 -1.8230  0.2413
 8994SOL     OW38614   4.427   3.210   9.072  0.2559  0.4348 -0.2118
 8994SOL    HW138615   4.464   3.231   8.986  1.4202  0.4671  0.3086
 8994SOL    HW238616   4.404   3.117   9.060 -1.7805  1.0114 -0.8799
 8995SOL     OW38617   2.668   3.060   8.974 -0.1491  0.2685  0.1034
 8995SOL    HW138618   2.637   2.976   8.939 -0.4673  0.0849  0.8124
 8995SOL    HW238619   2.738   3.028   9.031  0.8068  0.3709 -1.0276
 8996SOL     OW38620   4.214   3.072   3.553  0.6801  0.7781  0.4931
 8996SOL    HW138621   4.121   3.066   3.530 -0.1327 -0.6666  4.2070
 8996SOL    HW238622   4.215   3.098   3.645  1.6879 -1.6038  1.1640
 8997SOL     OW38623   0.410   3.745  10.764 -0.6938 -0.3013 -0.0942
 8997SOL    HW138624   0.437   3.725  10.674 -0.2271 -2.6983  0.5808
 8997SOL    HW238625   0.337   3.806  10.751  1.1920  1.8812 -0.4464
 8998SOL     OW38626   0.119   3.758  12.008  0.0644  0.2996  0.0871
 8998SOL    HW138627   0.139   3.670  12.039  1.8740  0.7471  0.2415
 8998SOL    HW238628   0.045   3.785  12.062 -0.1872  2.0669 -1.1561
 8999SOL     OW38629   4.351   2.498   2.242  0.0012  0.2133 -0.0048
 8999SOL    HW138630   4.379   2.441   2.313 -2.3387 -2.2085 -1.0305
 8999SOL    HW238631   4.391   2.579   2.273  1.6091  0.0174 -1.5510
 9000SOL     OW38632   3.226   4.527  15.238 -0.2643  0.1432 -0.2085
 9000SOL    HW138633   3.150   4.526  15.179 -0.4593  2.9319 -0.0121
 9000SOL    HW238634   3.210   4.611  15.282 -1.1997 -0.0998 -0.0715
 9001SOL     OW38635   2.932   1.488   3.068  0.7075  0.1145 -0.1970
 9001SOL    HW138636   2.941   1.579   3.038  0.9763 -0.0091 -0.4997
 9001SOL    HW238637   2.946   1.442   2.985 -0.6360 -1.6074  0.5414
 9002SOL     OW38638   4.529   0.646   2.292  0.0748  0.5959 -0.4858
 9002SOL    HW138639   4.615   0.684   2.276  0.1718  1.2665  1.5924
 9002SOL    HW238640   4.524   0.566   2.240  0.5098 -1.1231  2.1005
 9003SOL     OW38641   2.452   4.374  14.476  0.0723 -0.2739  0.3779
 9003SOL    HW138642   2.459   4.280  14.494  0.0191 -0.1233  1.2092
 9003SOL    HW238643   2.442   4.377  14.381  0.6057  3.8051  0.4470
 9004SOL     OW38644   0.955   2.219   7.459 -0.1621 -0.6704 -0.2032
 9004SOL    HW138645   0.930   2.171   7.537 -1.9568 -0.8062 -0.8741
 9004SOL    HW238646   0.890   2.288   7.449  0.3887  0.3544  3.2753
 9005SOL     OW38647   0.413   2.416   4.146 -0.3429  0.1698 -0.1123
 9005SOL    HW138648   0.498   2.414   4.102 -0.9328 -3.1076 -1.0410
 9005SOL    HW238649   0.347   2.422   4.077  1.3495 -1.9095 -1.9408
 9006SOL     OW38650   2.634   2.360   6.153  0.3171 -0.2786 -0.3675
 9006SOL    HW138651   2.675   2.300   6.091 -3.2192 -1.4129 -1.5849
 9006SOL    HW238652   2.544   2.330   6.154  0.6696 -1.2426  1.9850
 9007SOL     OW38653   2.350   1.722   2.103 -0.0689  0.0598 -0.1779
 9007SOL    HW138654   2.425   1.695   2.050  0.2137 -0.1151  0.3179
 9007SOL    HW238655   2.393   1.765   2.176 -1.7047 -2.7735  2.4323
 9008SOL     OW38656   3.077   3.157   5.703 -0.2921  0.4114 -0.3810
 9008SOL    HW138657   3.007   3.100   5.735  0.1699 -0.6456 -1.2541
 9008SOL    HW238658   3.030   3.219   5.647 -0.4847 -0.0038 -0.6854
 9009SOL     OW38659   3.926   1.967  17.502  0.7305  0.4204  0.2731
 9009SOL    HW138660   3.862   1.952  17.433  0.6824 -1.4934  0.7387
 9009SOL    HW238661   3.999   1.909  17.480  1.2471  0.5403  1.6429
 9010SOL     OW38662   4.674   2.751   5.516  0.0236  0.1042  0.3647
 9010SOL    HW138663   4.723   2.805   5.455 -0.8631 -1.7081 -1.9340
 9010SOL    HW238664   4.722   2.775   5.595  2.5371  0.0386 -1.1716
 9011SOL     OW38665   1.645   3.397  10.409  0.3366  0.4199  0.0131
 9011SOL    HW138666   1.711   3.467  10.410  0.8201 -0.0536  1.7523
 9011SOL    HW238667   1.641   3.378  10.503  0.5649 -0.3567 -0.1353
 9012SOL     OW38668   1.586   0.582   8.978 -0.9155  0.1315  0.1109
 9012SOL    HW138669   1.558   0.499   9.014 -1.6394  1.0434  1.6408
 9012SOL    HW238670   1.681   0.566   8.981 -0.8028  0.8936  0.5701
 9013SOL     OW38671   0.141   2.576   7.803  0.6715  0.3525 -0.0465
 9013SOL    HW138672   0.160   2.584   7.897 -0.3394  2.0175  0.0125
 9013SOL    HW238673   0.047   2.595   7.805  0.9455  1.6895  0.2898
 9014SOL     OW38674   4.060   0.191   7.886 -0.6860  0.1257  0.3477
 9014SOL    HW138675   4.143   0.239   7.893 -0.5490  0.1899 -1.8806
 9014SOL    HW238676   4.084   0.117   7.831 -1.1109  0.9268 -0.9164
 9015SOL     OW38677   3.106   2.939  10.181 -0.3971  0.1878 -1.0173
 9015SOL    HW138678   3.078   3.029  10.168 -1.0020 -0.0235 -1.1896
 9015SOL    HW238679   3.198   2.954  10.202 -0.5234 -0.9871  0.3919
 9016SOL     OW38680   4.636   1.779   2.992 -0.1906 -0.3455 -0.0486
 9016SOL    HW138681   4.577   1.710   3.021 -2.0223  1.8626  1.5066
 9016SOL    HW238682   4.716   1.755   3.040 -1.2344  1.2154  2.4819
 9017SOL     OW38683   2.509   2.143   7.557  0.2826 -0.5975 -0.5080
 9017SOL    HW138684   2.544   2.231   7.542 -1.8270  0.7955  2.7729
 9017SOL    HW238685   2.575   2.114   7.620  0.5513 -1.8374 -1.3574
 9018SOL     OW38686   0.305   4.466  16.339 -0.4765 -0.2908  0.7801
 9018SOL    HW138687   0.322   4.438  16.429  1.4236 -2.0826 -0.1232
 9018SOL    HW238688   0.236   4.403  16.319 -1.3642  0.8515  0.2644
 9019SOL     OW38689   2.281   4.708   1.630  0.4540 -0.3504 -0.0833
 9019SOL    HW138690   2.323   4.680   1.711  0.7594 -0.7805 -0.3891
 9019SOL    HW238691   2.352   0.031   1.606  1.6157 -0.5081  2.9540
 9020SOL     OW38692   1.126   0.632  12.819  0.0470  0.2099 -0.6913
 9020SOL    HW138693   1.189   0.592  12.759  2.1691  2.8174 -0.2034
 9020SOL    HW238694   1.184   0.690  12.868 -0.4537  1.7439 -1.9344
 9021SOL     OW38695   0.746   4.083   8.918  0.0022  0.7169 -0.3752
 9021SOL    HW138696   0.829   4.123   8.894  0.4145  0.6147  0.8498
 9021SOL    HW238697   0.779   4.032   8.993 -2.0928 -0.4304 -0.2150
 9022SOL     OW38698   2.699   1.751   2.519  0.7657  0.3985  0.0687
 9022SOL    HW138699   2.648   1.672   2.536  0.4150  1.0222  1.9211
 9022SOL    HW238700   2.628   1.816   2.521 -1.0698 -1.6120  0.1216
 9023SOL     OW38701   0.086   0.182   7.960  0.6083  0.4470  0.1587
 9023SOL    HW138702   0.091   0.186   7.865  0.9198  0.9588  0.1954
 9023SOL    HW238703   0.036   0.263   7.972  0.9183  0.8567 -1.3311
 9024SOL     OW38704   3.109   0.493  17.141 -0.4951 -0.1422 -0.6596
 9024SOL    HW138705   3.120   0.505  17.235 -3.0052  1.0866 -0.5128
 9024SOL    HW238706   3.180   0.546  17.103 -0.7102  0.2690 -0.4913
 9025SOL     OW38707   1.082   2.836   3.309 -0.4732  0.3171 -0.1800
 9025SOL    HW138708   1.125   2.906   3.359  0.7976 -0.0551 -0.7505
 9025SOL    HW238709   0.996   2.876   3.320  0.6489  1.8286  3.2352
 9026SOL     OW38710   2.204   3.858   6.453 -0.7045 -0.4024 -0.4848
 9026SOL    HW138711   2.234   3.873   6.363 -2.4537 -1.2178 -1.2101
 9026SOL    HW238712   2.113   3.885   6.457 -0.8801 -1.0993  0.2574
 9027SOL     OW38713   1.591   0.835   2.719 -0.2327  0.0325  0.3854
 9027SOL    HW138714   1.560   0.878   2.799 -3.7426 -1.7771  0.0415
 9027SOL    HW238715   1.668   0.785   2.744 -0.0709 -1.5378 -3.2185
 9028SOL     OW38716   2.303   3.171   6.283  0.5649 -0.8032 -0.2467
 9028SOL    HW138717   2.246   3.105   6.244  0.1883 -0.8637  0.4191
 9028SOL    HW238718   2.370   3.179   6.214  1.2899  0.1558  0.5765
 9029SOL     OW38719   1.468   4.252   4.646 -0.1869  0.2820 -0.4550
 9029SOL    HW138720   1.521   4.309   4.701 -0.0164  0.1666 -0.4999
 9029SOL    HW238721   1.418   4.204   4.712  1.1357 -0.9579 -0.3410
 9030SOL     OW38722   1.725   2.721   6.941 -0.4148  0.4074 -0.1637
 9030SOL    HW138723   1.745   2.642   6.992 -0.1619  1.0538  0.7361
 9030SOL    HW238724   1.799   2.775   6.968  0.4091 -1.5046  1.4276
 9031SOL     OW38725   3.327   0.761   2.389  0.1043  0.1140 -0.2762
 9031SOL    HW138726   3.283   0.746   2.473  1.1198  0.2827  0.2791
 9031SOL    HW238727   3.388   0.832   2.408  0.5567 -0.3276 -0.0819
 9032SOL     OW38728   2.602   3.264  15.486 -0.2755 -0.7798  0.1695
 9032SOL    HW138729   2.642   3.349  15.464  1.2547 -1.4448  0.4043
 9032SOL    HW238730   2.589   3.270  15.580  1.6071 -0.4988  0.4175
 9033SOL     OW38731   4.566   4.026  10.166 -0.6857  0.0763 -0.4942
 9033SOL    HW138732   4.524   4.104  10.129  1.4745  1.7322  0.5649
 9033SOL    HW238733   4.496   3.962  10.150 -1.2811  0.6226 -0.0673
 9034SOL     OW38734   0.598   4.296   0.812  0.2977  0.2672  0.1783
 9034SOL    HW138735   0.575   4.265   0.900  1.8226  0.5243  0.6668
 9034SOL    HW238736   0.552   4.233   0.756 -0.6108  1.4644 -0.4110
 9035SOL     OW38737   4.612   0.486   6.898 -0.6517 -0.5082  0.0157
 9035SOL    HW138738   4.686   0.433   6.928 -0.8574  0.8057  2.8035
 9035SOL    HW238739   4.554   0.414   6.871 -0.9187 -0.5083  0.5832
 9036SOL     OW38740   3.620   0.498   5.268 -0.3180  0.3550  0.0382
 9036SOL    HW138741   3.698   0.549   5.243  1.9583 -2.1309  2.1227
 9036SOL    HW238742   3.555   0.563   5.297  0.0277 -0.1386  1.8995
 9037SOL     OW38743   2.550   2.644   7.324  0.6993  0.4717 -0.1082
 9037SOL    HW138744   2.562   2.648   7.229  1.2342 -0.7714 -0.0952
 9037SOL    HW238745   2.522   2.553   7.339  0.0727  0.8205  0.8255
 9038SOL     OW38746   0.010   4.605   3.287 -0.4157  0.0887  0.2442
 9038SOL    HW138747   4.674   4.579   3.344  0.4665 -0.0115  1.3487
 9038SOL    HW238748   0.062   4.656   3.349 -0.9347  1.1884 -0.2297
 9039SOL     OW38749   1.546   2.455   8.119  0.2089  0.4628 -0.1622
 9039SOL    HW138750   1.475   2.396   8.092 -0.5260  0.6468  1.3540
 9039SOL    HW238751   1.516   2.477   8.207  1.9878  0.4697  0.4512
 9040SOL     OW38752   1.225   1.698   4.225 -0.6688 -0.2457  0.3336
 9040SOL    HW138753   1.229   1.602   4.226  0.6727 -0.1779  1.1544
 9040SOL    HW238754   1.158   1.722   4.290 -0.3349  0.9655  0.2243
 9041SOL     OW38755   4.091   0.557   5.009  0.2055 -0.0891  0.1264
 9041SOL    HW138756   4.154   0.575   5.079 -0.9232  0.6038  0.9562
 9041SOL    HW238757   4.016   0.606   5.042 -1.1510 -0.5207 -2.3426
 9042SOL     OW38758   3.140   0.678   6.566  0.3671 -0.0627 -0.3295
 9042SOL    HW138759   3.212   0.736   6.592 -1.6373  0.9318  3.0065
 9042SOL    HW238760   3.112   0.645   6.651  1.4264  0.5472  0.2588
 9043SOL     OW38761   4.612   1.814   3.619 -0.2904 -0.2442  0.0200
 9043SOL    HW138762   4.680   1.753   3.590  1.7234  1.8121  0.4054
 9043SOL    HW238763   4.640   1.893   3.573 -3.3116  0.1600 -1.1069
 9044SOL     OW38764   2.968   1.299  15.029  0.2130 -0.3988 -0.2929
 9044SOL    HW138765   2.924   1.250  14.960  1.6004 -0.4814 -1.1076
 9044SOL    HW238766   2.903   1.303  15.099  0.0587 -1.2377 -0.3962
 9045SOL     OW38767   3.334   2.612   9.558 -0.3944 -0.3209  0.4346
 9045SOL    HW138768   3.403   2.588   9.620  1.0296 -2.6547 -2.0674
 9045SOL    HW238769   3.253   2.622   9.608 -0.7898 -2.3142  0.1842
 9046SOL     OW38770   3.104   2.791   0.747  0.1328 -0.5588  0.0101
 9046SOL    HW138771   3.060   2.866   0.706  0.1388  0.0368  1.1048
 9046SOL    HW238772   3.037   2.770   0.812  0.8784 -1.0557  0.6132
 9047SOL     OW38773   0.872   0.689   8.447  0.1801 -0.8422 -0.1561
 9047SOL    HW138774   0.966   0.701   8.435 -0.1907 -0.3649 -2.7814
 9047SOL    HW238775   0.830   0.733   8.373 -2.4728  1.2496  2.6007
 9048SOL     OW38776   3.043   4.222   1.191  0.3514  0.5588  0.3037
 9048SOL    HW138777   2.971   4.220   1.127  1.2116 -0.2205 -0.6383
 9048SOL    HW238778   3.107   4.168   1.144 -1.0668 -1.1418  0.3585
 9049SOL     OW38779   3.709   3.284   2.645  0.1431  0.1968  0.0806
 9049SOL    HW138780   3.773   3.271   2.575 -0.3413  1.7448 -0.6458
 9049SOL    HW238781   3.640   3.330   2.598  1.1934  1.2064 -0.4962
 9050SOL     OW38782   2.657   0.167   6.534 -0.2755  0.3604  0.4915
 9050SOL    HW138783   2.611   0.147   6.452  1.5867 -0.8888 -0.2637
 9050SOL    HW238784   2.724   0.226   6.499  2.5556 -2.1989  1.6475
 9051SOL     OW38785   3.852   4.654   6.567 -0.0024  0.2206 -0.2373
 9051SOL    HW138786   3.847   4.583   6.630 -0.4756  0.0995 -0.4112
 9051SOL    HW238787   3.873   4.603   6.489  1.1106  0.3328 -0.0188
 9052SOL     OW38788   3.708   1.992   6.267 -0.0852  0.4124  0.1272
 9052SOL    HW138789   3.759   2.064   6.305 -0.3019  0.3835  0.4772
 9052SOL    HW238790   3.743   1.919   6.317 -0.2677  0.0294 -0.3087
 9053SOL     OW38791   4.193   4.451   5.522  0.1804  0.1643 -0.0170
 9053SOL    HW138792   4.102   4.422   5.534  0.2943 -0.7662 -1.3759
 9053SOL    HW238793   4.229   4.434   5.609  0.5241  1.9697  0.1926
 9054SOL     OW38794   1.961   2.201   7.966 -0.1418  0.3079 -0.7492
 9054SOL    HW138795   1.901   2.254   8.017 -0.5106  1.0775 -1.9793
 9054SOL    HW238796   1.910   2.136   7.918 -1.0771 -0.6866  1.5937
 9055SOL     OW38797   1.540   2.123   7.631  0.6660 -0.0724  0.2516
 9055SOL    HW138798   1.538   2.031   7.604  1.9523  0.2007 -0.7840
 9055SOL    HW238799   1.506   2.109   7.719  0.8239 -1.1687  0.1328
 9056SOL     OW38800   0.491   2.822   4.081  0.0495 -0.3056 -0.2139
 9056SOL    HW138801   0.409   2.801   4.036  0.7177  0.6208 -1.8909
 9056SOL    HW238802   0.562   2.782   4.032  1.7173 -2.3773  3.9117
 9057SOL     OW38803   4.200   2.690  14.478 -0.6926 -0.3024  0.1268
 9057SOL    HW138804   4.154   2.758  14.429  2.9854 -0.4556 -3.5174
 9057SOL    HW238805   4.284   2.735  14.491 -0.4936 -0.5328 -0.3583
 9058SOL     OW38806   4.612   1.800  16.856 -0.0840  0.3673 -0.4201
 9058SOL    HW138807   4.655   1.735  16.911 -0.4853 -0.5600 -1.1949
 9058SOL    HW238808   4.667   1.786  16.779  1.2739  1.7774  0.3144
 9059SOL     OW38809   2.807   1.235   6.076 -0.2558  0.4142  0.0269
 9059SOL    HW138810   2.785   1.296   6.146  1.1194  0.5182  0.3689
 9059SOL    HW238811   2.898   1.218   6.101  0.0668  0.9228 -0.7816
 9060SOL     OW38812   2.835   1.351  17.540  0.5352  0.2424  0.0985
 9060SOL    HW138813   2.838   1.406  17.462  0.1891  0.0325 -0.0585
 9060SOL    HW238814   2.922   1.312  17.530  0.1923 -0.7780  1.0697
 9061SOL     OW38815   2.575   2.704  10.583  0.4161 -0.3845  0.2068
 9061SOL    HW138816   2.651   2.647  10.596 -0.8591 -1.4594  2.8599
 9061SOL    HW238817   2.525   2.657  10.517 -0.6107 -0.5366  1.1022
 9062SOL     OW38818   4.136   2.547  10.615  0.0364  1.0877 -0.3672
 9062SOL    HW138819   4.102   2.489  10.547  0.8749 -0.6125  0.6728
 9062SOL    HW238820   4.231   2.541  10.607 -0.1489 -1.9865 -0.1093
 9063SOL     OW38821   1.919   0.797   9.994 -0.7291 -0.9402  0.1115
 9063SOL    HW138822   2.008   0.805  10.028 -1.1634  0.0646  0.9947
 9063SOL    HW238823   1.916   0.715   9.944 -1.2361 -0.4222 -0.7059
 9064SOL     OW38824   0.561   0.124   9.222 -0.3276  0.3577 -0.5069
 9064SOL    HW138825   0.640   0.142   9.171  0.2051 -0.4447  0.0321
 9064SOL    HW238826   0.492   0.171   9.176 -0.5188 -0.0217 -0.6037
 9065SOL     OW38827   0.921   1.667  15.800  0.2723  0.5047 -0.4282
 9065SOL    HW138828   0.938   1.761  15.808 -0.8507  0.9073 -2.6293
 9065SOL    HW238829   0.844   1.670  15.743  0.7982  0.7408 -1.1254
 9066SOL     OW38830   1.214   3.178   7.957  0.1976  0.2770 -0.2698
 9066SOL    HW138831   1.283   3.245   7.966 -0.4878  0.9674 -0.1408
 9066SOL    HW238832   1.138   3.236   7.947  0.1184  0.1209 -0.5774
 9067SOL     OW38833   4.249   0.817   9.074  0.2736  0.1801  0.1610
 9067SOL    HW138834   4.317   0.847   9.134  1.4166 -1.0753 -0.5081
 9067SOL    HW238835   4.185   0.883   9.099  2.4501  1.5885  1.9614
 9068SOL     OW38836   3.035   3.166   7.694 -0.0637 -0.5466 -0.4387
 9068SOL    HW138837   3.128   3.146   7.706 -0.2738 -0.8989  0.6123
 9068SOL    HW238838   2.997   3.152   7.781 -1.2328 -1.3288 -1.0790
 9069SOL     OW38839   1.625   0.453  14.100  0.3072 -0.4505  0.0161
 9069SOL    HW138840   1.714   0.487  14.102 -0.3252  1.0647  1.8625
 9069SOL    HW238841   1.640   0.384  14.035 -1.1459 -0.2462 -0.5465
 9070SOL     OW38842   0.604   4.231   2.218  0.4112 -0.0468  0.6031
 9070SOL    HW138843   0.650   4.281   2.150  0.9589  1.5369  2.1213
 9070SOL    HW238844   0.666   4.230   2.291  2.5577 -1.1030 -1.2167
 9071SOL     OW38845   3.993   3.871   9.722  0.4725  0.1486 -0.5793
 9071SOL    HW138846   4.089   3.871   9.725  0.4190 -1.4999  0.7999
 9071SOL    HW238847   3.970   3.964   9.734  1.5558  0.5263 -1.4328
 9072SOL     OW38848   3.001   4.336   0.642 -0.5886 -0.1466 -0.0981
 9072SOL    HW138849   2.924   4.295   0.679 -0.3328 -0.9129 -0.4273
 9072SOL    HW238850   3.067   4.310   0.706  1.1304  0.0970 -1.7683
 9073SOL     OW38851   1.282   4.730   2.293  0.4597 -0.0031  0.8923
 9073SOL    HW138852   1.269   0.051   2.367 -2.1123  1.8657 -1.0240
 9073SOL    HW238853   1.196   4.692   2.269  1.5910 -0.8116 -1.9739
 9074SOL     OW38854   3.655   1.823  12.908  0.1744  0.1271  0.7678
 9074SOL    HW138855   3.601   1.748  12.882  1.1680 -0.4730  0.4259
 9074SOL    HW238856   3.591   1.887  12.939  1.6561  3.0575 -2.2170
 9075SOL     OW38857   4.682   0.385   7.430  0.4147  0.4145  0.0425
 9075SOL    HW138858   4.615   0.325   7.397 -0.5765  1.1681  0.6967
 9075SOL    HW238859   4.686   0.441   7.353  0.8571  1.6024  0.9256
 9076SOL     OW38860   0.012   3.936  11.332  0.3741 -0.0642 -0.1457
 9076SOL    HW138861   0.049   3.853  11.363 -2.8284 -1.3390  0.2013
 9076SOL    HW238862   4.722   3.909  11.244 -1.8010  1.0810  0.1725
 9077SOL     OW38863   3.909   2.692   2.181  0.0879 -0.1337  0.0527
 9077SOL    HW138864   3.937   2.604   2.209  0.0450 -0.7510 -1.8238
 9077SOL    HW238865   3.995   2.733   2.178 -0.5741  1.2302  0.1046
 9078SOL     OW38866   1.826   1.075  17.203 -0.7317  0.1110 -0.2286
 9078SOL    HW138867   1.906   1.064  17.151 -0.8334 -0.2508 -0.3073
 9078SOL    HW238868   1.793   1.145  17.146 -0.8649 -0.2103 -0.5432
 9079SOL     OW38869   4.464   2.980   4.470  0.2415  0.1167 -0.5307
 9079SOL    HW138870   4.525   2.944   4.404 -1.7052 -0.7814 -1.8334
 9079SOL    HW238871   4.471   3.070   4.439  1.1453  0.6266  1.1254
 9080SOL     OW38872   3.236   3.012   4.824  0.2691 -0.2603  0.1834
 9080SOL    HW138873   3.310   3.017   4.764  0.6712 -2.2183  0.5386
 9080SOL    HW238874   3.178   2.941   4.799 -2.1662  1.3294  1.2967
 9081SOL     OW38875   3.266   4.319   1.368 -0.0321  0.0437 -0.5692
 9081SOL    HW138876   3.235   4.341   1.456 -1.0520 -0.1830 -0.8742
 9081SOL    HW238877   3.181   4.312   1.325 -0.4408 -2.0210  0.5597
 9082SOL     OW38878   4.539   1.264   4.754 -0.8191  0.0570 -0.4786
 9082SOL    HW138879   4.543   1.358   4.771  0.0441 -0.3415  1.4128
 9082SOL    HW238880   4.602   1.236   4.820 -0.5146  1.2864 -0.2434
 9083SOL     OW38881   2.585   1.287   4.103 -0.1717 -0.1278  0.1856
 9083SOL    HW138882   2.625   1.347   4.040  0.9754  0.2365  1.2638
 9083SOL    HW238883   2.588   1.204   4.054  1.5961  0.7029 -1.1181
 9084SOL     OW38884   4.428   1.917   5.047  1.0282  0.2607  0.4662
 9084SOL    HW138885   4.493   1.853   5.019  0.3133 -0.0755 -0.4263
 9084SOL    HW238886   4.387   1.860   5.112  1.1244 -2.7883 -2.1321
 9085SOL     OW38887   2.739   0.213   2.591 -0.2926 -0.0300 -0.1944
 9085SOL    HW138888   2.803   0.257   2.535  0.8254  0.8576  1.7700
 9085SOL    HW238889   2.754   0.120   2.571  1.5705  0.4401 -1.0014
 9086SOL     OW38890   2.336   0.540   7.968  0.5288 -0.0987  0.6333
 9086SOL    HW138891   2.298   0.625   7.948 -1.5468 -1.6295 -1.9969
 9086SOL    HW238892   2.268   0.490   8.013  0.0971 -1.3375 -1.3490
 9087SOL     OW38893   1.123   3.333   4.329  0.3346  0.2996  0.1600
 9087SOL    HW138894   1.113   3.272   4.257  0.7572  0.6872 -0.2278
 9087SOL    HW238895   1.219   3.333   4.332  0.3681 -0.4414 -1.1540
 9088SOL     OW38896   0.695   2.384   6.572 -0.0691  0.0607 -0.2533
 9088SOL    HW138897   0.617   2.413   6.619  0.8688  0.5600  0.9872
 9088SOL    HW238898   0.732   2.324   6.637  1.1646  3.1776  1.8673
 9089SOL     OW38899   1.253   1.977   4.112  0.3346  0.5829  0.2343
 9089SOL    HW138900   1.274   1.888   4.081  0.4537  0.4506  0.6903
 9089SOL    HW238901   1.237   1.962   4.205 -0.3093  2.0141  0.3511
 9090SOL     OW38902   1.010   2.935   5.182  0.1158 -0.0926  0.4506
 9090SOL    HW138903   0.929   2.886   5.166  1.9250 -2.4324 -1.4462
 9090SOL    HW238904   1.032   2.956   5.091 -0.8398 -2.4864 -0.3378
 9091SOL     OW38905   4.205   0.060   4.905 -0.4491  0.3272  0.3477
 9091SOL    HW138906   4.184   0.119   4.976 -1.1029  0.1470  0.3080
 9091SOL    HW238907   4.155   4.724   4.942 -0.2941  0.4152  0.7215
 9092SOL     OW38908   0.859   2.851  14.950  0.2922  0.3795 -0.6223
 9092SOL    HW138909   0.864   2.946  14.958  1.2414  0.4272 -1.7322
 9092SOL    HW238910   0.783   2.837  15.005  0.7190 -0.1789 -0.1680
 9093SOL     OW38911   0.065   1.245   7.581 -0.6184 -0.2667 -0.2552
 9093SOL    HW138912   0.045   1.253   7.675  0.1765 -0.6555 -0.0488
 9093SOL    HW238913   0.148   1.289   7.561 -0.7327 -0.5032 -1.2593
 9094SOL     OW38914   2.762   2.389   6.437 -0.0096 -0.0294 -0.0272
 9094SOL    HW138915   2.764   2.293   6.435  0.1846 -0.0513  1.6400
 9094SOL    HW238916   2.843   2.405   6.388  1.6987  1.4878  3.2961
 9095SOL     OW38917   1.152   2.219   3.617 -0.0977 -0.4123  0.5864
 9095SOL    HW138918   1.058   2.212   3.636 -0.3234 -0.1232 -0.4103
 9095SOL    HW238919   1.175   2.127   3.631  0.9234 -0.3467 -0.6175
 9096SOL     OW38920   1.277   3.042   2.749 -0.3954 -0.4193 -0.0852
 9096SOL    HW138921   1.281   3.037   2.653  0.2509  0.4011 -0.0994
 9096SOL    HW238922   1.184   3.025   2.765  0.5668 -1.0999  4.7526
 9097SOL     OW38923   1.173   1.941   8.292  0.4382 -0.0222  0.0847
 9097SOL    HW138924   1.080   1.919   8.297  0.9235 -1.4126  2.7741
 9097SOL    HW238925   1.201   1.927   8.382  0.0369 -1.4941 -0.0075
 9098SOL     OW38926   1.239   0.115   4.473 -0.1266 -0.1967  0.1112
 9098SOL    HW138927   1.198   0.036   4.507  1.1784 -1.3493 -0.9880
 9098SOL    HW238928   1.332   0.103   4.494  0.1616  0.2023 -0.9046
 9099SOL     OW38929   4.001   0.470  13.526  0.4920  0.5389  0.1386
 9099SOL    HW138930   3.995   0.424  13.442  0.6759 -0.5700  0.7290
 9099SOL    HW238931   4.007   0.391  13.580  1.8805 -0.1457 -0.9983
 9100SOL     OW38932   3.887   2.226  14.495 -0.3021  0.6828  0.0496
 9100SOL    HW138933   3.819   2.165  14.466 -2.4015  2.2990  1.6198
 9100SOL    HW238934   3.957   2.160  14.499  0.2291  1.1042 -1.9762
 9101SOL     OW38935   2.165   0.610  16.863 -0.6713 -0.5944  0.4688
 9101SOL    HW138936   2.162   0.705  16.852 -0.5622 -0.5799  0.5587
 9101SOL    HW238937   2.214   0.597  16.944  2.6956 -0.4649 -1.5301
 9102SOL     OW38938   0.076   0.399  15.827  0.3249 -0.0871  0.3185
 9102SOL    HW138939   4.731   0.395  15.876 -0.1568 -0.7444 -0.5550
 9102SOL    HW238940   0.046   0.362  15.744  2.6574  0.3329 -0.7002
 9103SOL     OW38941   3.645   3.351   1.822 -0.5058  0.3956  0.4608
 9103SOL    HW138942   3.624   3.436   1.860 -1.1018  0.1175  0.7691
 9103SOL    HW238943   3.730   3.325   1.856  0.2179  4.2637  1.5868
 9104SOL     OW38944   2.706   2.837   4.121  0.4868 -0.3043  0.7247
 9104SOL    HW138945   2.621   2.880   4.133  1.1900  1.5849 -1.1272
 9104SOL    HW238946   2.770   2.906   4.139  0.7644 -0.1538 -0.8931
 9105SOL     OW38947   3.927   2.314   2.858  0.4217 -0.2857  0.0203
 9105SOL    HW138948   3.934   2.299   2.953  0.0436 -1.6251 -0.1597
 9105SOL    HW238949   3.934   2.409   2.869  0.9222 -0.4786  1.4452
 9106SOL     OW38950   0.560   0.825   3.144  0.3476  0.7446 -0.1394
 9106SOL    HW138951   0.551   0.785   3.230  1.3086 -1.4189 -1.0460
 9106SOL    HW238952   0.651   0.798   3.127 -0.2027 -1.9900  1.2689
 9107SOL     OW38953   3.860   1.293   0.225 -0.1057 -0.1360 -0.6830
 9107SOL    HW138954   3.886   1.361   0.287  1.0590 -1.0168 -0.2003
 9107SOL    HW238955   3.859   1.214   0.278 -0.1931 -1.2317 -2.3301
 9108SOL     OW38956   1.273   0.456   0.677 -0.0283  0.5421 -0.4602
 9108SOL    HW138957   1.361   0.493   0.670  1.0236 -1.5563  2.0020
 9108SOL    HW238958   1.280   0.371   0.720  0.0598 -0.2063 -1.9302
 9109SOL     OW38959   2.938   2.111   3.436  0.1156  0.0889 -0.0496
 9109SOL    HW138960   2.904   2.130   3.523 -1.4555  0.6544 -0.7960
 9109SOL    HW238961   2.865   2.053   3.416 -0.5088  1.2410 -1.1073
 9110SOL     OW38962   3.325   2.013   5.752 -0.0662  0.1825  0.2371
 9110SOL    HW138963   3.355   1.949   5.687  0.3512  2.0631 -1.4230
 9110SOL    HW238964   3.402   2.010   5.808  0.6647  2.2356 -0.6690
 9111SOL     OW38965   1.676   1.184   5.448 -0.0389 -0.3920 -0.1575
 9111SOL    HW138966   1.592   1.163   5.489  0.3782  1.6826  1.7832
 9111SOL    HW238967   1.719   1.098   5.452  0.4917 -0.1221 -0.0029
 9112SOL     OW38968   2.865   1.729  10.656  0.1377 -0.5801 -0.3388
 9112SOL    HW138969   2.806   1.695  10.724 -0.9468 -0.2904 -1.1185
 9112SOL    HW238970   2.933   1.662  10.646 -0.7267 -1.5437  0.2072
 9113SOL     OW38971   2.823   0.385   5.441  0.3502  0.4087  0.4553
 9113SOL    HW138972   2.774   0.344   5.369 -0.8199  0.2458  1.3428
 9113SOL    HW238973   2.841   0.311   5.499 -1.3852  0.4902  1.0937
 9114SOL     OW38974   3.587   2.950   8.599  0.4426  0.2020  0.3381
 9114SOL    HW138975   3.492   2.936   8.598  0.6156 -0.9374 -0.8061
 9114SOL    HW238976   3.598   3.045   8.609  0.6145  0.3404 -1.1369
 9115SOL     OW38977   1.643   1.207  17.048  0.0425 -0.5224 -0.8165
 9115SOL    HW138978   1.592   1.266  16.992  3.8881  1.3491 -2.3640
 9115SOL    HW238979   1.584   1.191  17.122  0.4508 -0.2547 -0.4288
 9116SOL     OW38980   4.109   1.384   7.617  0.1526  0.4628  0.6431
 9116SOL    HW138981   4.109   1.341   7.531  0.7612  0.4019  0.6690
 9116SOL    HW238982   4.130   1.302   7.663 -2.8537  0.3034  1.6808
 9117SOL     OW38983   0.806   2.044   3.896  0.0427  0.1908  0.6476
 9117SOL    HW138984   0.852   1.961   3.881  1.9099  1.8232 -2.6353
 9117SOL    HW238985   0.800   2.053   3.991 -0.5721 -1.0054  0.7228
 9118SOL     OW38986   3.693   3.403   7.613 -0.1942  0.0487  0.3295
 9118SOL    HW138987   3.786   3.383   7.622  0.1711  0.5738 -2.1112
 9118SOL    HW238988   3.694   3.492   7.577 -2.0686  0.3105  0.9432
 9119SOL     OW38989   4.478   2.801   3.772  0.8429  0.6003 -0.1102
 9119SOL    HW138990   4.466   2.709   3.794  0.3626  0.6529 -0.1528
 9119SOL    HW238991   4.391   2.820   3.737  0.4696  1.6007  1.3720
 9120SOL     OW38992   2.773   4.468   6.629 -0.0525 -0.2737  0.7543
 9120SOL    HW138993   2.858   4.462   6.671  0.0594 -0.0974  0.5535
 9120SOL    HW238994   2.809   4.462   6.540  1.1112  0.9531  1.1437
 9121SOL     OW38995   1.389   4.100   5.232 -0.6075 -0.8509  0.0198
 9121SOL    HW138996   1.349   4.186   5.218  1.0482  0.2361  2.0402
 9121SOL    HW238997   1.384   4.100   5.327 -0.6025  0.3479  0.0145
 9122SOL     OW38998   2.425   2.722   4.366 -0.3370  0.2033  0.8745
 9122SOL    HW138999   2.348   2.730   4.310  0.4770  1.3748 -0.0791
 9122SOL    HW239000   2.463   2.639   4.336 -1.8308 -0.0523 -0.2673
 9123SOL     OW39001   3.510   2.383   8.023  0.5562 -0.0167 -0.8650
 9123SOL    HW139002   3.501   2.363   7.930  0.6356  2.1015 -1.3163
 9123SOL    HW239003   3.523   2.477   8.011 -2.3064  0.6669  1.5945
 9124SOL     OW39004   0.083   3.583  16.617  0.7426  0.7627  0.7977
 9124SOL    HW139005   0.104   3.491  16.628 -1.0075  0.2655 -0.1097
 9124SOL    HW239006   0.083   3.617  16.707  0.7047  0.7910  0.7871
 9125SOL     OW39007   1.621   3.419   2.115  0.2541  0.0835  0.3665
 9125SOL    HW139008   1.630   3.368   2.196  3.2082 -0.5284 -0.3501
 9125SOL    HW239009   1.528   3.420   2.091  0.5178 -1.7761 -0.7524
 9126SOL     OW39010   0.516   1.912  16.638 -0.0918  0.0564  0.0772
 9126SOL    HW139011   0.503   2.004  16.664  0.5734  0.8601 -2.4945
 9126SOL    HW239012   0.572   1.883  16.710 -0.9621  0.2121  0.8317
 9127SOL     OW39013   2.077   0.445   4.438  0.6440  0.5331  0.7848
 9127SOL    HW139014   2.087   0.449   4.533 -0.6025  1.1071  0.8866
 9127SOL    HW239015   2.065   0.350   4.431 -0.2659  0.7040  0.1274
 9128SOL     OW39016   0.874   0.678   3.600 -0.4884  0.4422 -0.7079
 9128SOL    HW139017   0.872   0.756   3.544  0.6217  1.4172  0.6305
 9128SOL    HW239018   0.847   0.606   3.542  0.5523 -1.2205  0.8797
 9129SOL     OW39019   2.054   1.888   8.462 -0.2283  1.1161 -0.4043
 9129SOL    HW139020   2.032   1.906   8.371 -0.4707 -1.4664 -0.8471
 9129SOL    HW239021   1.987   1.930   8.517  2.2154  5.1770 -0.4872
 9130SOL     OW39022   4.447   4.468   3.800  0.4241  0.2172  0.6942
 9130SOL    HW139023   4.539   4.474   3.776  0.0860 -1.5403 -0.9969
 9130SOL    HW239024   4.442   4.375   3.823 -0.2017 -0.2482 -1.3659
 9131SOL     OW39025   2.420   2.277  11.460 -0.0254 -0.0395  0.1729
 9131SOL    HW139026   2.437   2.266  11.553  2.7711 -1.4717 -0.5019
 9131SOL    HW239027   2.329   2.306  11.470  0.2866  0.6145  1.0906
 9132SOL     OW39028   0.885   0.858  11.824 -0.3755  0.4548 -0.0758
 9132SOL    HW139029   0.850   0.813  11.747 -1.5112  1.0742  0.0738
 9132SOL    HW239030   0.837   0.941  11.823 -3.4554 -1.2939  1.5159
 9133SOL     OW39031   1.557   3.617  17.105 -0.4272  0.2436 -0.6544
 9133SOL    HW139032   1.480   3.662  17.072 -1.6905 -0.4470  1.3576
 9133SOL    HW239033   1.523   3.532  17.134  3.1707 -1.7251 -2.2106
 9134SOL     OW39034   2.440   1.404  13.483  0.1758 -0.2710 -0.5038
 9134SOL    HW139035   2.435   1.498  13.465  2.0568 -0.0167  0.2826
 9134SOL    HW239036   2.422   1.405  13.578  1.1509 -0.3808 -0.3165
 9135SOL     OW39037   2.207   1.286   4.399 -0.1366  0.0078  0.0722
 9135SOL    HW139038   2.226   1.289   4.493 -1.9064 -0.8752  0.4440
 9135SOL    HW239039   2.283   1.334   4.366  0.6402 -0.8405  0.6119
 9136SOL     OW39040   2.995   0.369   4.033 -0.2795 -0.0658 -0.5292
 9136SOL    HW139041   2.981   0.359   3.939 -1.1693  1.6062 -0.5693
 9136SOL    HW239042   3.048   0.448   4.032 -0.7159  0.2296 -0.0983
 9137SOL     OW39043   4.011   2.037   8.322 -0.4186  0.4554 -0.8394
 9137SOL    HW139044   3.932   2.017   8.373 -1.7367 -0.5883 -3.2779
 9137SOL    HW239045   4.068   1.968   8.355  0.4338  1.2499 -0.6502
 9138SOL     OW39046   4.108   3.944   8.866 -0.4941  0.2857  0.0413
 9138SOL    HW139047   4.059   3.997   8.804 -1.3671 -0.4974  0.0567
 9138SOL    HW239048   4.170   4.004   8.907 -1.3123  0.0626  1.6493
 9139SOL     OW39049   2.478   4.543  11.618 -0.1643  0.2021 -0.2819
 9139SOL    HW139050   2.560   4.592  11.620  0.8025 -1.4222 -0.6369
 9139SOL    HW239051   2.514   4.455  11.613  1.3727  0.7673  0.7551
 9140SOL     OW39052   0.956   2.583   8.603  0.5246  0.5304  0.1958
 9140SOL    HW139053   0.898   2.626   8.666 -0.2998  2.4943 -1.9017
 9140SOL    HW239054   0.926   2.620   8.520  1.0281 -0.0797 -0.2641
 9141SOL     OW39055   1.434   1.597  12.068 -0.1179  0.0793 -0.6212
 9141SOL    HW139056   1.376   1.595  12.144  0.9278  0.0913  0.1715
 9141SOL    HW239057   1.408   1.680  12.028 -0.8290  0.3439  0.3857
 9142SOL     OW39058   3.633   2.462   5.744  0.0083  0.1716  0.1575
 9142SOL    HW139059   3.658   2.436   5.655 -0.3292 -1.4023  0.5244
 9142SOL    HW239060   3.683   2.540   5.766 -1.7670  1.0120  1.1800
 9143SOL     OW39061   3.265   1.184   0.312  0.2771  0.1754 -0.5087
 9143SOL    HW139062   3.243   1.275   0.331  1.0687 -0.0946  1.7721
 9143SOL    HW239063   3.360   1.191   0.328  0.6080 -0.9413 -1.9635
 9144SOL     OW39064   1.572   2.201   7.347 -0.2376 -0.1207  0.1182
 9144SOL    HW139065   1.559   2.167   7.436 -0.7044  0.6082  0.3220
 9144SOL    HW239066   1.528   2.136   7.293  0.8544  0.2794 -1.2377
 9145SOL     OW39067   1.832   0.285   2.146  0.1979 -0.0556 -0.1297
 9145SOL    HW139068   1.897   0.317   2.084  0.3829 -0.3598 -0.0901
 9145SOL    HW239069   1.861   0.328   2.227  0.2355  0.4237 -0.3948
 9146SOL     OW39070   3.505   2.101  16.790 -0.5647  0.0349  0.2295
 9146SOL    HW139071   3.522   2.192  16.765 -1.8404  0.4818  1.0007
 9146SOL    HW239072   3.475   2.067  16.706  1.6084  1.1758 -1.0071
 9147SOL     OW39073   2.197   4.371   4.203 -0.2001  0.0726 -0.6385
 9147SOL    HW139074   2.196   4.441   4.138  1.1075 -0.4728 -1.2485
 9147SOL    HW239075   2.150   4.302   4.157  0.8478  0.9249 -3.0110
 9148SOL     OW39076   1.560   3.779  13.628  0.3331 -0.2281  0.4540
 9148SOL    HW139077   1.471   3.767  13.661  0.4092  0.5057  0.9382
 9148SOL    HW239078   1.585   3.688  13.618 -0.3922 -0.4934  1.0337
 9149SOL     OW39079   2.096   1.194  10.244 -0.1509  0.4752 -0.1016
 9149SOL    HW139080   2.170   1.140  10.275 -0.0432 -0.5825 -2.2276
 9149SOL    HW239081   2.111   1.218  10.153 -3.7650  0.2756 -0.7470
 9150SOL     OW39082   1.207   0.636   5.832 -0.3102 -0.5554  0.5348
 9150SOL    HW139083   1.256   0.698   5.779  1.3234 -0.6422  1.9528
 9150SOL    HW239084   1.129   0.690   5.847  0.5673  1.0323 -0.7076
 9151SOL     OW39085   3.975   1.560  13.885 -0.1054 -0.1772 -0.0688
 9151SOL    HW139086   3.989   1.644  13.841  0.6248 -0.6918 -0.8236
 9151SOL    HW239087   3.980   1.502  13.809 -1.4251  0.9739 -1.0434
 9152SOL     OW39088   0.147   2.736  11.578  0.3825  0.3286 -0.2573
 9152SOL    HW139089   0.136   2.780  11.662 -0.9998  0.7830 -0.6841
 9152SOL    HW239090   0.056   2.723  11.554  0.4209  0.6193 -0.5651
 9153SOL     OW39091   3.593   4.572   0.667  0.3892 -0.1771 -0.2523
 9153SOL    HW139092   3.616   4.499   0.610  1.3104 -1.9464  2.3299
 9153SOL    HW239093   3.501   4.587   0.645  1.1698  0.4991 -2.9690
 9154SOL     OW39094   0.157   1.510   0.614  0.4643 -0.5736 -0.0097
 9154SOL    HW139095   0.078   1.456   0.613 -0.8020  1.2911 -0.3422
 9154SOL    HW239096   0.137   1.571   0.685  0.0173 -0.5016 -0.1988
 9155SOL     OW39097   3.752   3.299   7.923 -0.5849  0.2181  0.0579
 9155SOL    HW139098   3.781   3.277   7.835  0.3400 -1.0821  0.6949
 9155SOL    HW239099   3.816   3.366   7.947  1.0886 -0.8365 -1.4928
 9156SOL     OW39100   0.429   0.321  13.502  0.2292 -0.0453  0.5000
 9156SOL    HW139101   0.463   0.408  13.483  2.3606 -0.7545  1.0682
 9156SOL    HW239102   0.443   0.265  13.426  1.2662 -1.1519  1.5076
 9157SOL     OW39103   1.368   3.834   3.190 -0.2287 -0.0978  0.1541
 9157SOL    HW139104   1.325   3.749   3.192 -0.3521 -0.0001  1.3938
 9157SOL    HW239105   1.318   3.900   3.237 -1.5246  0.1384 -1.5501
 9158SOL     OW39106   2.559   3.625  13.057 -0.2058 -0.8544  0.0943
 9158SOL    HW139107   2.582   3.697  12.998 -1.4992  0.0014  0.6415
 9158SOL    HW239108   2.478   3.656  13.097 -0.1837 -0.0468 -0.4784
 9159SOL     OW39109   2.845   3.675  15.248  0.1740 -0.4777 -0.0065
 9159SOL    HW139110   2.936   3.693  15.269  0.0503 -2.5215  2.3276
 9159SOL    HW239111   2.832   3.685  15.154  0.5743  0.8160  0.0817
 9160SOL     OW39112   3.837   2.297   4.710 -0.3517 -0.1433  0.1309
 9160SOL    HW139113   3.870   2.291   4.800  0.4582 -2.0348 -0.2867
 9160SOL    HW239114   3.764   2.236   4.707  0.7322 -1.4585  0.0535
 9161SOL     OW39115   1.721   0.613   3.287  0.1469  0.1278 -0.9521
 9161SOL    HW139116   1.715   0.703   3.319  1.5625  0.6369 -2.0956
 9161SOL    HW239117   1.799   0.581   3.332  0.1331 -1.0202 -1.7252
 9162SOL     OW39118   1.046   3.053   2.395  0.7333  0.4134  0.0398
 9162SOL    HW139119   1.052   3.144   2.367  0.4168  0.7056  0.8989
 9162SOL    HW239120   1.133   3.017   2.380  0.7358  1.1647 -1.7008
 9163SOL     OW39121   3.912   1.310   7.304  0.0650  0.1707  0.4394
 9163SOL    HW139122   4.003   1.296   7.331  0.0924 -0.7491 -0.1491
 9163SOL    HW239123   3.883   1.290   7.393  2.0735 -0.2271  1.0047
 9164SOL     OW39124   1.955   4.616   1.242  0.3455 -0.0187  0.1854
 9164SOL    HW139125   2.030   4.666   1.276  0.6013  0.1275 -0.6028
 9164SOL    HW239126   1.887   4.628   1.308 -1.1862  1.5550 -1.6695
 9165SOL     OW39127   1.080   1.606   8.828 -0.3989  0.5702 -0.1265
 9165SOL    HW139128   1.114   1.536   8.884 -0.6579  1.5078  1.2267
 9165SOL    HW239129   1.106   1.574   8.742 -1.1900 -1.8179  0.5156
 9166SOL     OW39130   1.340   3.624   7.387  0.2436  0.4049 -0.3308
 9166SOL    HW139131   1.305   3.710   7.364  2.8483  0.8486 -2.5436
 9166SOL    HW239132   1.260   3.581   7.418  1.9091 -0.9676  2.0726
 9167SOL     OW39133   4.236   2.748   8.132 -0.4905  0.5413  0.0797
 9167SOL    HW139134   4.145   2.722   8.123  0.2571 -2.1652  0.5491
 9167SOL    HW239135   4.243   2.825   8.075  2.2554 -1.0705 -1.7635
 9168SOL     OW39136   1.410   1.220   8.973  0.0971  0.2429  0.1326
 9168SOL    HW139137   1.503   1.226   8.953 -0.6159  2.1682 -2.6752
 9168SOL    HW239138   1.384   1.169   8.896 -0.2234  1.1501 -0.3584
 9169SOL     OW39139   1.996   0.924   7.126 -0.1046 -0.6999  0.4497
 9169SOL    HW139140   1.916   0.886   7.160 -0.8295  0.1435 -0.3114
 9169SOL    HW239141   2.018   0.848   7.072  1.4219 -0.8356  1.2423
 9170SOL     OW39142   4.110   4.646   6.665  0.0216  0.5801  0.5507
 9170SOL    HW139143   4.026   4.671   6.626  0.2815  0.1362 -0.2825
 9170SOL    HW239144   4.096   4.553   6.680 -2.9455  0.8314 -0.6060
 9171SOL     OW39145   2.940   1.553   0.234  0.1262 -0.9253  0.1474
 9171SOL    HW139146   2.893   1.540   0.152 -0.4392  1.0308  0.1701
 9171SOL    HW239147   2.865   1.538   0.292  0.2402 -1.4771  0.1550
 9172SOL     OW39148   0.487   0.968   9.549 -0.1107 -0.7074 -0.2171
 9172SOL    HW139149   0.443   0.915   9.615  1.6167  0.1150  1.5761
 9172SOL    HW239150   0.431   1.046   9.539 -0.8664 -1.0910  1.1044
 9173SOL     OW39151   0.639   3.511   7.184 -0.1567 -0.0216 -0.1365
 9173SOL    HW139152   0.549   3.541   7.190  0.1946  0.7539  1.1437
 9173SOL    HW239153   0.682   3.576   7.240 -1.7731  0.5165  0.4667
 9174SOL     OW39154   1.059   0.408  11.876 -0.4978 -0.0562 -0.3406
 9174SOL    HW139155   0.976   0.372  11.847 -0.5467 -0.1185 -0.1228
 9174SOL    HW239156   1.125   0.342  11.852 -2.7204 -1.6982 -1.8845
 9175SOL     OW39157   1.354   1.688   9.884 -0.4324 -0.1202  0.6894
 9175SOL    HW139158   1.340   1.773   9.925  0.5758  0.7172 -0.7003
 9175SOL    HW239159   1.428   1.703   9.825 -1.0925  0.2548 -0.0571
 9176SOL     OW39160   2.910   3.875   2.967  0.1041  0.1451 -0.2097
 9176SOL    HW139161   2.922   3.860   2.873 -1.7109 -1.0882 -0.2367
 9176SOL    HW239162   2.858   3.955   2.973 -1.5289 -0.9581  0.0927
 9177SOL     OW39163   3.110   2.663  15.817 -0.0847 -0.5725  0.0858
 9177SOL    HW139164   3.065   2.746  15.835  1.6791  0.4285 -0.1804
 9177SOL    HW239165   3.034   2.621  15.776 -0.4686  1.7946 -1.6026
 9178SOL     OW39166   0.019   2.378   6.451 -0.4757  0.6731  0.3331
 9178SOL    HW139167   0.104   2.334   6.440  0.9526  3.9355 -1.8660
 9178SOL    HW239168   4.734   2.351   6.540  0.4038 -2.1257 -0.3009
 9179SOL     OW39169   2.352   0.867  17.552 -0.0932  0.5211  0.1045
 9179SOL    HW139170   2.389   0.852  17.465  2.0352 -2.2059  1.4951
 9179SOL    HW239171   2.335   0.777  17.580 -1.1176  0.9883  0.9930
 9180SOL     OW39172   2.070   4.540   6.010 -0.0815 -0.1760  0.0381
 9180SOL    HW139173   1.992   4.595   6.006 -1.2879 -2.0277 -2.3155
 9180SOL    HW239174   2.095   4.542   6.102  0.8763  1.1804 -0.2523
 9181SOL     OW39175   3.966   0.178  13.533  0.1410 -0.2420 -0.3417
 9181SOL    HW139176   3.979   0.177  13.439  3.3655 -0.8243  0.1413
 9181SOL    HW239177   3.888   0.122  13.540 -1.6024  2.0963 -0.8609
 9182SOL     OW39178   4.243   1.380   4.536 -0.3912 -0.2541  0.0297
 9182SOL    HW139179   4.324   1.337   4.565 -1.4108 -2.5697 -0.5673
 9182SOL    HW239180   4.275   1.427   4.459 -2.8566  1.4406  0.0690
 9183SOL     OW39181   1.250   4.148   6.109 -0.7755 -0.2358 -0.1580
 9183SOL    HW139182   1.300   4.160   6.189 -1.9505  0.2703  0.5126
 9183SOL    HW239183   1.322   4.123   6.052 -1.2141  0.2541 -0.9311
 9184SOL     OW39184   0.758   0.533   3.077  0.3434 -0.0153 -0.1289
 9184SOL    HW139185   0.743   0.483   2.997 -0.5648  1.0771 -0.6504
 9184SOL    HW239186   0.749   0.462   3.140  1.9070  0.2026  0.3255
 9185SOL     OW39187   1.476   1.349   5.192  0.0569  0.2223  0.4942
 9185SOL    HW139188   1.418   1.412   5.235 -1.9240 -1.0067 -0.3945
 9185SOL    HW239189   1.417   1.322   5.122  2.0535 -1.2336 -0.6201
 9186SOL     OW39190   1.451   4.615   5.350 -0.0889 -0.6284 -0.0636
 9186SOL    HW139191   1.384   4.584   5.410 -0.6605 -1.0319 -0.9112
 9186SOL    HW239192   1.457   4.710   5.355  2.5074 -0.8441  1.1329
 9187SOL     OW39193   0.715   4.318  16.199 -0.4793  0.4951  0.3278
 9187SOL    HW139194   0.654   4.380  16.159 -0.2338  0.1066 -0.6436
 9187SOL    HW239195   0.663   4.254  16.248 -0.4190  0.6780  0.6307
 9188SOL     OW39196   4.286   2.393   3.189  0.3508  0.0503 -1.1412
 9188SOL    HW139197   4.207   2.364   3.234  0.4805  1.9426  0.2892
 9188SOL    HW239198   4.250   2.422   3.105  0.0225  0.5214 -0.8371
 9189SOL     OW39199   3.579   1.683   9.576  0.1853 -0.5905 -0.0486
 9189SOL    HW139200   3.618   1.770   9.561  2.8076 -1.2838  2.7350
 9189SOL    HW239201   3.645   1.621   9.547 -0.5838 -1.7230  0.6401
 9190SOL     OW39202   0.840   2.112   4.891 -0.6751 -0.4313  0.0907
 9190SOL    HW139203   0.785   2.035   4.906 -2.8199  0.5815 -2.6106
 9190SOL    HW239204   0.927   2.079   4.915 -0.5771 -1.1001 -1.2324
 9191SOL     OW39205   1.674   2.861   1.117  0.1356  0.3567  0.1784
 9191SOL    HW139206   1.616   2.794   1.082  0.0101 -0.5393  2.1010
 9191SOL    HW239207   1.650   2.871   1.209  0.9892 -2.8277  0.7610
 9192SOL     OW39208   1.268   3.821  15.866 -0.3033 -0.1733  0.5274
 9192SOL    HW139209   1.337   3.770  15.823  1.7670  2.0777  1.1785
 9192SOL    HW239210   1.261   3.892  15.802 -1.4119 -1.1584 -0.4668
 9193SOL     OW39211   2.625   3.385   5.267 -0.4571  0.0640 -0.0486
 9193SOL    HW139212   2.568   3.433   5.207 -2.5054 -0.0698  1.7598
 9193SOL    HW239213   2.673   3.346   5.195 -0.2846 -1.7091  1.0139
 9194SOL     OW39214   2.573   4.302   6.305 -0.3768  0.2944  0.3525
 9194SOL    HW139215   2.516   4.232   6.335 -0.3888 -0.2790 -0.9897
 9194SOL    HW239216   2.525   4.375   6.344 -0.1516  0.7773 -0.2712
 9195SOL     OW39217   0.300   3.096   1.471 -0.1418 -0.0258 -0.3067
 9195SOL    HW139218   0.208   3.068   1.472 -0.6871  1.8779  1.9257
 9195SOL    HW239219   0.330   3.038   1.541 -1.6357 -1.0006 -0.4624
 9196SOL     OW39220   0.684   2.820   5.670  0.0735  0.6157  0.0006
 9196SOL    HW139221   0.678   2.725   5.660  0.5247  0.4526  1.2020
 9196SOL    HW239222   0.692   2.839   5.577  1.3885  0.3742  0.0575
 9197SOL     OW39223   2.273   4.079   2.683  0.2545  0.1676 -0.0775
 9197SOL    HW139224   2.282   4.039   2.770  0.3884 -0.3420 -0.3222
 9197SOL    HW239225   2.273   4.006   2.621  1.7023 -0.2954  0.4707
 9198SOL     OW39226   1.978   2.049   3.236 -0.2557 -0.2921  0.5712
 9198SOL    HW139227   1.970   2.129   3.287  0.7179 -0.8396  1.6083
 9198SOL    HW239228   1.908   2.067   3.175  1.0607  1.5089 -0.3859
 9199SOL     OW39229   2.122   2.184   2.945  0.4698  0.0104 -0.5668
 9199SOL    HW139230   2.065   2.194   3.021 -0.4696 -0.7164 -1.1773
 9199SOL    HW239231   2.053   2.178   2.879  0.0127 -1.3476  0.0220
 9200SOL     OW39232   3.358   0.905   1.066  0.0203 -0.0837  0.0650
 9200SOL    HW139233   3.282   0.959   1.090 -0.2566  0.2520 -1.5713
 9200SOL    HW239234   3.349   0.831   1.126 -1.2633  0.2359  0.2550
 9201SOL     OW39235   4.670   2.727  10.971  0.1124  0.2703  0.0890
 9201SOL    HW139236   4.677   2.756  10.880  0.9142 -1.6976 -0.4545
 9201SOL    HW239237   4.610   2.799  10.993 -0.1021  0.4263 -1.0157
 9202SOL     OW39238   0.648   2.868   1.805 -0.1876  0.8514 -0.1808
 9202SOL    HW139239   0.590   2.795   1.825 -0.8671  1.1524 -1.0454
 9202SOL    HW239240   0.594   2.942   1.833 -0.4899 -0.0500  1.6475
 9203SOL     OW39241   1.144   4.604   6.734  0.3001  0.6074  0.3414
 9203SOL    HW139242   1.195   4.635   6.660 -0.7508  1.0342 -0.1931
 9203SOL    HW239243   1.150   4.508   6.728 -2.5948  0.5403 -1.5940
 9204SOL     OW39244   0.863   3.595   4.649  0.1983 -0.0560 -0.3949
 9204SOL    HW139245   0.897   3.579   4.562  0.8891  0.1305 -0.1562
 9204SOL    HW239246   0.902   3.680   4.667 -0.6914  0.1904  0.4029
 9205SOL     OW39247   3.546   1.991  11.862  0.4828 -0.3723 -0.2012
 9205SOL    HW139248   3.451   1.999  11.873  0.6966 -0.7061  1.8736
 9205SOL    HW239249   3.541   1.918  11.801 -0.0509 -0.2003 -0.3596
 9206SOL     OW39250   3.862   4.711   9.830  0.5078 -0.2779 -0.1854
 9206SOL    HW139251   3.935   4.684   9.887 -0.5431  0.3934  1.4742
 9206SOL    HW239252   3.878   4.659   9.751  2.1030  0.3033 -0.2602
 9207SOL     OW39253   1.724   4.636   7.691  0.1735 -0.5280  0.2618
 9207SOL    HW139254   1.710   4.541   7.683  2.8520 -0.9236  0.0344
 9207SOL    HW239255   1.717   4.654   7.785  2.8913 -0.8114  0.5107
 9208SOL     OW39256   4.394   0.696  17.496 -0.2831 -0.3125  0.3207
 9208SOL    HW139257   4.438   0.631  17.552  0.5626  0.1226  0.1690
 9208SOL    HW239258   4.313   0.653  17.469 -0.5649 -0.3833  1.2642
 9209SOL     OW39259   2.696   2.335   3.220 -0.0334 -0.4886  0.3427
 9209SOL    HW139260   2.693   2.431   3.219 -2.2553 -0.5877 -0.4195
 9209SOL    HW239261   2.646   2.308   3.297 -0.6843 -0.5327 -0.1027
 9210SOL     OW39262   0.043   4.150   8.426  0.6028 -0.0496  0.2991
 9210SOL    HW139263   0.077   4.153   8.515  0.1452 -2.2416  0.5411
 9210SOL    HW239264   4.736   4.235   8.425 -2.4870 -1.6484  1.1944
 9211SOL     OW39265   2.598   0.049   4.357 -0.0414 -0.2873 -0.2213
 9211SOL    HW139266   2.655   4.728   4.408  1.0963  0.7294 -0.3550
 9211SOL    HW239267   2.642   0.035   4.273 -0.5443 -2.6965 -0.0972
 9212SOL     OW39268   0.231   2.506   5.845  0.1382  0.5223  0.3327
 9212SOL    HW139269   0.311   2.495   5.794  0.0076  0.3019  0.1736
 9212SOL    HW239270   0.227   2.601   5.856  2.2780  0.5650  0.6401
 9213SOL     OW39271   2.835   0.692   4.593 -0.1622 -0.2677 -0.2852
 9213SOL    HW139272   2.780   0.766   4.566  0.2707  0.5221  1.0003
 9213SOL    HW239273   2.919   0.735   4.580 -0.4613 -0.0143 -1.4378
 9214SOL     OW39274   4.221   2.227   8.875 -0.7637 -0.2711 -1.0223
 9214SOL    HW139275   4.232   2.230   8.970 -0.0685 -0.7786 -1.0833
 9214SOL    HW239276   4.201   2.134   8.865 -0.3485 -0.2195 -2.3926
 9215SOL     OW39277   2.755   4.664   4.075  0.2093 -0.4949  0.7266
 9215SOL    HW139278   2.751   0.000   4.013 -0.4506 -2.8295 -1.9947
 9215SOL    HW239279   2.704   4.595   4.032 -0.6245 -1.6445  3.5783
 9216SOL     OW39280   3.533   3.130   0.689  0.4237  0.2726  0.1035
 9216SOL    HW139281   3.604   3.110   0.628 -1.1864 -1.5618 -1.1606
 9216SOL    HW239282   3.503   3.213   0.650  0.4191 -0.8564 -2.2827
 9217SOL     OW39283   0.936   2.436  14.289  0.0304  0.5654  0.1820
 9217SOL    HW139284   1.002   2.368  14.299 -1.3234 -0.9946 -1.4667
 9217SOL    HW239285   0.969   2.467  14.205  1.3738 -1.6845 -0.0997
 9218SOL     OW39286   1.110   0.554   7.572  0.1568 -0.0751  0.1580
 9218SOL    HW139287   1.200   0.587   7.576 -0.4438  1.6275 -0.4242
 9218SOL    HW239288   1.056   0.627   7.601  1.8104  0.8304  1.0072
 9219SOL     OW39289   2.898   4.724   7.061 -0.5774 -0.5417  0.1786
 9219SOL    HW139290   2.886   0.077   7.090 -1.1025 -0.7404  0.5961
 9219SOL    HW239291   2.835   4.710   6.990 -1.5367 -0.3978  1.0050
 9220SOL     OW39292   1.533   0.779   6.589  0.3171  0.0402 -1.4162
 9220SOL    HW139293   1.581   0.736   6.518  0.6575  0.7746 -1.6308
 9220SOL    HW239294   1.596   0.782   6.660 -0.3312  0.4195 -0.8554
 9221SOL     OW39295   1.848   1.251  14.065 -0.2558 -0.6574 -0.3112
 9221SOL    HW139296   1.762   1.287  14.045 -0.2335  0.0269  0.7756
 9221SOL    HW239297   1.876   1.263  13.975  2.0326  1.3501  0.6713
 9222SOL     OW39298   3.688   3.711   7.524  0.0596  0.0122 -0.1369
 9222SOL    HW139299   3.729   3.690   7.440 -0.9621 -1.0129 -0.3804
 9222SOL    HW239300   3.646   3.795   7.504 -0.4536 -0.2216 -0.0305
 9223SOL     OW39301   1.570   0.450  11.738  0.1340  0.1683 -0.2890
 9223SOL    HW139302   1.586   0.540  11.711  1.8060 -0.8913 -2.9535
 9223SOL    HW239303   1.488   0.425  11.695  0.8672 -2.3349 -0.2742
 9224SOL     OW39304   2.227   2.486   8.664 -0.4727  0.0048  0.1583
 9224SOL    HW139305   2.284   2.439   8.602  1.9601 -1.0208  3.1574
 9224SOL    HW239306   2.290   2.530   8.722 -0.2252 -1.3131  0.8726
 9225SOL     OW39307   0.439   0.238   6.575 -0.0963 -0.1344  0.5066
 9225SOL    HW139308   0.446   0.147   6.547  0.6394  0.0630  0.0481
 9225SOL    HW239309   0.489   0.280   6.505 -1.8253  0.2070 -0.5154
 9226SOL     OW39310   2.115   1.207   2.689 -0.4612  0.0456 -1.1549
 9226SOL    HW139311   2.061   1.154   2.630 -1.4076 -2.6249  2.1199
 9226SOL    HW239312   2.150   1.143   2.750 -0.5880  0.9806 -0.0906
 9227SOL     OW39313   3.106   3.968   6.350  0.0708 -0.3975  0.2328
 9227SOL    HW139314   3.100   3.906   6.278 -1.5914 -1.2333  1.0912
 9227SOL    HW239315   3.051   3.921   6.412 -0.3664 -2.1408 -1.5065
 9228SOL     OW39316   0.811   0.179   6.628  0.2385  0.0750 -0.2745
 9228SOL    HW139317   0.838   0.133   6.707  1.4320  0.4174 -0.4793
 9228SOL    HW239318   0.895   0.200   6.586 -0.0510  0.6522 -0.5633
 9229SOL     OW39319   4.560   3.718   1.797 -0.4378  0.3402  0.0272
 9229SOL    HW139320   4.639   3.710   1.743 -0.1362  0.6523  0.4283
 9229SOL    HW239321   4.582   3.797   1.846 -0.0106 -0.4004  1.0309
 9230SOL     OW39322   0.549   3.966   1.761  0.2229  0.1589  0.3877
 9230SOL    HW139323   0.632   4.012   1.748  0.1095  0.2453 -0.0358
 9230SOL    HW239324   0.532   3.965   1.855 -0.9594  0.5346  0.1854
 9231SOL     OW39325   3.441   2.854   6.513 -0.2321 -0.5817  0.3397
 9231SOL    HW139326   3.369   2.815   6.562  0.2970 -0.7974  0.9546
 9231SOL    HW239327   3.425   2.846   6.419  0.9186  0.0739  0.0823
 9232SOL     OW39328   4.433   2.853   4.082 -0.3801  0.1327  0.6116
 9232SOL    HW139329   4.507   2.837   4.140 -0.1934  0.4912  0.4673
 9232SOL    HW239330   4.464   2.921   4.022 -1.4323 -2.2384 -2.6573
 9233SOL     OW39331   4.046   3.895   9.395 -0.4395  0.0318 -0.3030
 9233SOL    HW139332   3.982   3.829   9.370  0.8889 -0.9438 -1.1683
 9233SOL    HW239333   4.104   3.842   9.450 -1.6439 -0.8422  0.1243
 9234SOL     OW39334   2.070   3.073   3.905 -0.3304  1.1672 -0.2783
 9234SOL    HW139335   2.032   2.988   3.884  3.5318 -0.6235 -0.0967
 9234SOL    HW239336   2.053   3.127   3.827  1.4097  1.6555 -0.3235
 9235SOL     OW39337   0.037   2.526  14.115 -0.2922  0.4844  0.2347
 9235SOL    HW139338   0.094   2.455  14.144 -0.7515 -0.4740 -1.2037
 9235SOL    HW239339   0.042   2.572  14.199 -0.3759  1.0584 -0.0786
 9236SOL     OW39340   2.877   1.231  15.417  0.5094 -0.1964 -0.8155
 9236SOL    HW139341   2.840   1.288  15.350  0.3089  0.0644 -0.4800
 9236SOL    HW239342   2.848   1.151  15.373  1.5710  0.4876 -2.7217
 9237SOL     OW39343   2.583   2.984   1.188 -0.2389 -0.7510  0.3025
 9237SOL    HW139344   2.656   2.932   1.221 -1.5017 -1.0201  2.6785
 9237SOL    HW239345   2.516   2.918   1.170  0.1539 -0.2878 -2.9016
 9238SOL     OW39346   3.415   3.431   9.942 -0.1409 -0.5449  0.2457
 9238SOL    HW139347   3.370   3.347   9.949 -0.9417  0.0379  2.0255
 9238SOL    HW239348   3.452   3.443  10.030  0.2810 -0.5107  0.0635
 9239SOL     OW39349   3.131   1.079   5.367 -0.1587  0.7553 -0.1686
 9239SOL    HW139350   3.107   1.051   5.279 -0.2341 -1.9686  0.7217
 9239SOL    HW239351   3.099   1.009   5.424  0.8617  0.1315 -0.3561
 9240SOL     OW39352   2.079   1.945   8.079  0.6962  0.2353  1.0003
 9240SOL    HW139353   2.155   1.969   8.026  0.8342  0.6683  1.3964
 9240SOL    HW239354   2.020   2.018   8.060 -0.2816 -0.9090 -0.3453
 9241SOL     OW39355   3.573   1.497  10.930 -0.4874 -0.7411 -0.0351
 9241SOL    HW139356   3.484   1.526  10.951 -1.3010 -0.9184 -3.0965
 9241SOL    HW239357   3.554   1.423  10.872 -1.3584 -0.4710 -0.0994
 9242SOL     OW39358   0.440   1.243   8.810  0.1292  0.5122 -0.0361
 9242SOL    HW139359   0.421   1.265   8.719  0.2903 -0.1924 -0.2426
 9242SOL    HW239360   0.475   1.328   8.839 -1.4422  1.1543 -0.0634
 9243SOL     OW39361   2.983   1.863   2.294  0.5619  1.1260  0.6907
 9243SOL    HW139362   3.010   1.786   2.344 -2.1849 -0.1113  0.3112
 9243SOL    HW239363   3.021   1.938   2.340  1.8600  0.8636  0.0452
 9244SOL     OW39364   3.832   0.186   5.488  0.0947  0.2271 -0.1331
 9244SOL    HW139365   3.747   0.216   5.455 -1.6181 -2.4741  1.7988
 9244SOL    HW239366   3.829   0.091   5.477  0.5322  0.1607  0.3003
 9245SOL     OW39367   1.211   1.639   8.208  0.0775 -0.4138 -0.0291
 9245SOL    HW139368   1.306   1.653   8.206  0.4676 -2.8510  1.2529
 9245SOL    HW239369   1.193   1.669   8.297 -0.6652  0.1219 -0.3589
 9246SOL     OW39370   1.916   0.515   6.477  0.0563  0.6208  0.3158
 9246SOL    HW139371   2.009   0.502   6.457 -0.0817 -0.7378  0.5439
 9246SOL    HW239372   1.878   0.446   6.423 -1.9805  0.3866  2.0434
 9247SOL     OW39373   4.726   4.384   3.070  0.0750  0.2207 -0.6301
 9247SOL    HW139374   0.053   4.357   3.137  0.3312 -0.2927 -1.0856
 9247SOL    HW239375   4.696   4.469   3.103  2.1152  0.4540  0.6116
 9248SOL     OW39376   0.253   2.312   6.105 -0.1509  0.1053 -0.2661
 9248SOL    HW139377   0.326   2.361   6.143 -1.4966  1.5157  0.5225
 9248SOL    HW239378   0.254   2.355   6.020  1.2952  1.6695  0.5411
 9249SOL     OW39379   0.191   1.091   6.830  0.1545 -0.2448 -0.6055
 9249SOL    HW139380   0.163   1.078   6.920  0.5905  1.1169 -0.2702
 9249SOL    HW239381   0.136   1.038   6.773  0.3021 -1.7760  0.7042
 9250SOL     OW39382   3.483   0.954   6.369 -0.0031  0.3162 -0.3855
 9250SOL    HW139383   3.444   0.976   6.284 -0.4374  2.1246  0.3076
 9250SOL    HW239384   3.540   1.029   6.381  0.1043 -0.0497  1.4194
 9251SOL     OW39385   3.552   1.682   6.498  0.7356 -0.1676  0.0862
 9251SOL    HW139386   3.573   1.629   6.422  0.3960  1.8576 -1.4148
 9251SOL    HW239387   3.505   1.613   6.545 -0.1652  0.9633  0.8498
 9252SOL     OW39388   3.830   0.999   3.546  0.3501 -0.1875  0.3274
 9252SOL    HW139389   3.920   0.972   3.530 -0.0827 -1.9853  0.9228
 9252SOL    HW239390   3.780   0.926   3.509  0.6295 -0.8394  1.2335
 9253SOL     OW39391   2.352   1.897  17.491  0.0218 -0.2394 -0.7831
 9253SOL    HW139392   2.431   1.898  17.437  1.8858 -3.6026  1.9317
 9253SOL    HW239393   2.319   1.809  17.471 -1.1332 -0.3237  1.6050
 9254SOL     OW39394   2.138   2.481   4.677 -0.2572 -0.2399  0.5868
 9254SOL    HW139395   2.045   2.456   4.672 -0.6557  1.5117 -0.7382
 9254SOL    HW239396   2.135   2.534   4.757  0.2593 -0.7366  0.9388
 9255SOL     OW39397   3.685   2.642   9.148 -0.2877  0.4092 -0.4125
 9255SOL    HW139398   3.669   2.683   9.063 -1.3629 -2.2976 -1.4956
 9255SOL    HW239399   3.602   2.661   9.192 -2.5174 -4.5312 -2.5386
 9256SOL     OW39400   3.396   4.638  16.178 -0.0944 -0.3797  0.3930
 9256SOL    HW139401   3.433   4.696  16.111  0.8710  0.5532  1.7246
 9256SOL    HW239402   3.425   4.550  16.154  3.4235  0.1570  2.7063
 9257SOL     OW39403   3.694   0.230   3.444  0.4016 -0.2529  0.0359
 9257SOL    HW139404   3.624   0.166   3.428  1.1753 -0.6574 -1.6709
 9257SOL    HW239405   3.672   0.263   3.532  1.5158  1.6578 -0.3944
 9258SOL     OW39406   2.527   1.757   4.165  0.3403 -0.0908  0.3896
 9258SOL    HW139407   2.559   1.756   4.075  0.0848 -2.6995  0.3181
 9258SOL    HW239408   2.444   1.804   4.157  0.1851 -0.4838 -0.2672
 9259SOL     OW39409   4.216   3.371   0.173  0.0419 -0.5536 -0.4698
 9259SOL    HW139410   4.268   3.372   0.254 -1.3623  1.2086  0.4086
 9259SOL    HW239411   4.126   3.361   0.202  0.7267 -0.5465  1.6936
 9260SOL     OW39412   2.882   0.617   6.115  0.7856 -0.2730 -0.1715
 9260SOL    HW139413   2.819   0.582   6.052 -0.4610  2.1169 -0.2436
 9260SOL    HW239414   2.825   0.673   6.167  0.6781 -0.4293 -0.1187
 9261SOL     OW39415   2.348   0.499  17.299  0.3895  0.2278  0.1488
 9261SOL    HW139416   2.403   0.428  17.331 -0.3646  0.0604  1.0622
 9261SOL    HW239417   2.291   0.456  17.235 -0.5309  1.6057  0.0344
 9262SOL     OW39418   2.732   1.409  10.048  0.4911  0.0133 -0.1656
 9262SOL    HW139419   2.772   1.490  10.079  0.7116 -1.4954  3.4138
 9262SOL    HW239420   2.763   1.416   9.957 -0.8819  0.3218 -0.6105
 9263SOL     OW39421   0.091   0.090  15.938 -0.0128  0.3530  0.0846
 9263SOL    HW139422   0.032   0.084  15.863  1.8840 -3.0245 -1.1284
 9263SOL    HW239423   0.170   0.125  15.897 -0.5313  0.4207 -0.8512
 9264SOL     OW39424   4.380   2.202   7.629  0.4165 -0.0770 -0.2352
 9264SOL    HW139425   4.393   2.127   7.688  1.3860 -0.2219 -0.6389
 9264SOL    HW239426   4.291   2.232   7.647  0.9032  2.0319 -1.3780
 9265SOL     OW39427   0.245   2.761   5.659 -0.0728  0.3978  0.5182
 9265SOL    HW139428   0.307   2.831   5.678  0.9046 -0.5914  0.9880
 9265SOL    HW239429   0.275   2.749   5.569  0.7309  0.0423  0.8386
 9266SOL     OW39430   2.924   2.447  14.615  0.2027  0.1768 -0.1856
 9266SOL    HW139431   2.993   2.483  14.560 -0.6788 -0.7335 -1.9168
 9266SOL    HW239432   2.877   2.402  14.545  1.2678  1.9329 -2.0176
 9267SOL     OW39433   0.263   2.641   6.403 -0.2190  0.4577  0.0096
 9267SOL    HW139434   0.352   2.663   6.373 -0.0930  3.0541  2.2534
 9267SOL    HW239435   0.284   2.598   6.486  1.1275 -0.9359 -1.0510
 9268SOL     OW39436   4.429   2.895   1.607 -0.2023 -0.8070  0.1486
 9268SOL    HW139437   4.409   2.806   1.577 -0.1557 -0.6006 -0.4908
 9268SOL    HW239438   4.356   2.945   1.571  1.4069  2.7552  1.8653
 9269SOL     OW39439   4.172   3.713   4.164  0.2087 -0.3858  0.0295
 9269SOL    HW139440   4.257   3.702   4.121  0.4045 -1.1889  0.6263
 9269SOL    HW239441   4.143   3.804   4.162 -0.3855 -0.5622  0.8791
 9270SOL     OW39442   0.689   2.636   3.312  0.2003  0.2097  0.1674
 9270SOL    HW139443   0.727   2.707   3.364  0.6759 -0.0345  0.1543
 9270SOL    HW239444   0.598   2.641   3.342  0.1488  1.7471 -0.2397
 9271SOL     OW39445   3.663   0.535   9.388  0.2833  0.1307 -0.2006
 9271SOL    HW139446   3.590   0.593   9.408  0.8057 -0.0488  2.2684
 9271SOL    HW239447   3.609   0.458   9.375 -0.0144  0.0792  1.2471
 9272SOL     OW39448   1.126   1.374   4.887 -0.0572 -0.5335 -0.0865
 9272SOL    HW139449   1.062   1.322   4.838 -0.6844  1.2268 -1.1124
 9272SOL    HW239450   1.175   1.403   4.810  0.6736 -2.4992 -0.3852
 9273SOL     OW39451   2.650   4.152   1.613 -0.1612  0.1092 -0.0516
 9273SOL    HW139452   2.733   4.172   1.656  1.0461 -1.8948 -1.5295
 9273SOL    HW239453   2.688   4.160   1.526  2.4414  0.0914  1.0761
 9274SOL     OW39454   1.702   0.234   1.192 -0.1171  0.1449 -0.1127
 9274SOL    HW139455   1.770   0.250   1.127  0.1170 -1.6271 -0.2969
 9274SOL    HW239456   1.647   0.311   1.176  0.8347  0.5965 -1.2256
 9275SOL     OW39457   0.473   0.671  15.917  0.3107  0.0873 -0.1848
 9275SOL    HW139458   0.425   0.634  15.843 -3.8927  0.5378  2.3234
 9275SOL    HW239459   0.470   0.596  15.976 -0.7462 -1.3437 -2.1085
 9276SOL     OW39460   4.451   2.389   4.104  0.1706 -0.6310  0.2207
 9276SOL    HW139461   4.363   2.362   4.079 -0.8171  2.1240  0.7183
 9276SOL    HW239462   4.480   2.310   4.148  1.1762  1.6586  3.6749
 9277SOL     OW39463   0.856   2.844   1.639  0.5914  0.5238 -0.1336
 9277SOL    HW139464   0.780   2.870   1.691  1.2310 -0.3996  1.2942
 9277SOL    HW239465   0.823   2.841   1.550 -0.9713 -1.4437  0.5025
 9278SOL     OW39466   4.087   1.097   4.110  0.0823  0.1700  0.0381
 9278SOL    HW139467   4.114   1.117   4.200  0.5448 -0.4289  0.0348
 9278SOL    HW239468   4.107   1.177   4.063  0.4254 -0.4941 -0.9549
 9279SOL     OW39469   1.327   2.279   5.081 -0.2532 -0.0353  0.3531
 9279SOL    HW139470   1.360   2.189   5.082 -4.2103 -1.4543  1.3030
 9279SOL    HW239471   1.396   2.340   5.107 -0.1191 -0.3065  0.6340
 9280SOL     OW39472   3.503   0.407   3.850  0.0382 -0.1815 -0.2693
 9280SOL    HW139473   3.584   0.366   3.880 -0.6829 -1.9977 -0.8382
 9280SOL    HW239474   3.475   0.362   3.771 -2.0646 -0.0071  0.3625
 9281SOL     OW39475   1.508   0.010   5.907 -0.3046  0.3978 -0.0604
 9281SOL    HW139476   1.494   0.066   5.984  0.3386  0.7779 -0.2253
 9281SOL    HW239477   1.549   0.064   5.840 -0.3622  0.1384 -0.2996
 9282SOL     OW39478   2.837   4.696   1.481 -0.5278 -0.3668  0.4937
 9282SOL    HW139479   2.855   0.053   1.480  1.0342 -0.6581 -0.0169
 9282SOL    HW239480   2.854   4.684   1.388 -4.6880 -0.0691 -0.2975
 9283SOL     OW39481   1.228   1.649   4.634  0.1648 -0.2208 -0.1154
 9283SOL    HW139482   1.267   1.614   4.554  0.1305 -1.0362  0.2205
 9283SOL    HW239483   1.303   1.644   4.693  0.8942 -2.4523 -1.2177
 9284SOL     OW39484   2.524   4.703  16.115  0.0980  0.2489 -0.1567
 9284SOL    HW139485   2.526   4.625  16.059  0.3526 -0.4679  0.8567
 9284SOL    HW239486   2.461   0.009  16.057 -1.2876 -1.6330 -0.0654
 9285SOL     OW39487   1.467   0.634   7.035 -0.0150 -0.7144 -0.1711
 9285SOL    HW139488   1.404   0.675   7.095 -0.3641  0.1717 -1.1629
 9285SOL    HW239489   1.473   0.703   6.969  1.8826 -2.7347 -2.0966
 9286SOL     OW39490   4.283   3.181   2.786 -0.0334  0.0963 -0.1387
 9286SOL    HW139491   4.297   3.243   2.857 -0.2735  1.4473 -1.2713
 9286SOL    HW239492   4.305   3.100   2.832  0.1426  0.6864  0.8085
 9287SOL     OW39493   4.685   3.428  15.366  0.4471  0.2831  0.6131
 9287SOL    HW139494   4.704   3.455  15.277 -1.4628  1.3809  0.5530
 9287SOL    HW239495   4.660   3.336  15.365 -1.7729  0.9604 -2.3742
 9288SOL     OW39496   3.518   4.506  15.080  0.3017  0.9567  0.0924
 9288SOL    HW139497   3.517   4.411  15.068  0.7280  0.9805 -0.1157
 9288SOL    HW239498   3.442   4.525  15.024  0.7710 -0.3897 -1.0123
 9289SOL     OW39499   4.160   0.535  13.057 -0.2813  0.1160  0.3917
 9289SOL    HW139500   4.158   0.561  13.149  0.7391  0.7525  0.2327
 9289SOL    HW239501   4.255   0.538  13.045 -0.6028 -0.6815 -2.4148
 9290SOL     OW39502   4.481   3.664   5.683 -0.2103  0.2972  0.3285
 9290SOL    HW139503   4.407   3.658   5.623  1.7740  0.5636 -2.1602
 9290SOL    HW239504   4.483   3.759   5.684  1.1063  0.2611  0.9302
 9291SOL     OW39505   2.274   3.378  14.029 -0.3503  0.1899  0.0739
 9291SOL    HW139506   2.332   3.322  13.977 -3.4454 -1.1910 -1.9197
 9291SOL    HW239507   2.308   3.463  14.002  1.3573 -0.7089 -0.6058
 9292SOL     OW39508   1.939   1.723   8.126 -0.5565  0.2394 -0.0279
 9292SOL    HW139509   1.852   1.730   8.087 -1.0764 -1.0667  0.9051
 9292SOL    HW239510   1.986   1.801   8.097  1.1302  0.1749  2.4788
 9293SOL     OW39511   3.896   4.189   8.724  0.6653 -0.9805  0.1684
 9293SOL    HW139512   3.814   4.167   8.680 -0.0905  0.3123  0.9251
 9293SOL    HW239513   3.883   4.282   8.743 -1.5542 -0.9646 -1.4223
 9294SOL     OW39514   2.115   1.492   1.224  0.1469 -0.4129 -0.5494
 9294SOL    HW139515   2.151   1.579   1.242 -0.1524 -0.4008 -0.0373
 9294SOL    HW239516   2.115   1.454   1.311  0.5285 -1.1204 -0.8560
 9295SOL     OW39517   4.596   2.986   2.770 -0.0514 -0.5349 -0.3343
 9295SOL    HW139518   4.634   2.932   2.839 -1.7028 -0.4763  0.6194
 9295SOL    HW239519   4.558   3.058   2.821  1.4520  0.9040 -1.2653
 9296SOL     OW39520   0.324   1.274   1.383  0.3479 -0.2711 -0.7540
 9296SOL    HW139521   0.410   1.313   1.371  0.6679 -0.9087 -0.5368
 9296SOL    HW239522   0.280   1.300   1.302 -1.3161  0.3770  0.3584
 9297SOL     OW39523   3.786   0.914   2.748 -0.3511  0.2008 -0.0401
 9297SOL    HW139524   3.867   0.898   2.700 -0.1730 -0.3664  0.4423
 9297SOL    HW239525   3.754   0.825   2.739  1.3437 -0.4754  0.6321
 9298SOL     OW39526   1.367   0.325  11.601  0.0535  0.3529  0.5153
 9298SOL    HW139527   1.353   0.393  11.535 -0.2117 -1.2900 -1.1409
 9298SOL    HW239528   1.414   0.255  11.555 -1.0277  0.4761 -0.7648
 9299SOL     OW39529   1.920   0.458   1.734 -0.0277  0.2019  0.0701
 9299SOL    HW139530   1.841   0.448   1.788  1.5610 -2.0749  1.9641
 9299SOL    HW239531   1.957   0.370   1.723 -0.7146 -0.0903  0.0761
 9300SOL     OW39532   1.183   1.889   1.765  0.0070  0.4677 -0.4855
 9300SOL    HW139533   1.149   1.957   1.823  1.1531 -0.5937  1.4367
 9300SOL    HW239534   1.257   1.927   1.717  1.7924 -0.9623  1.1504
 9301SOL     OW39535   2.899   0.530   5.110  0.1914  0.2042 -0.1163
 9301SOL    HW139536   2.848   0.569   5.181 -0.8053 -1.0566 -0.1525
 9301SOL    HW239537   2.880   0.585   5.034  0.4685 -1.5819 -1.4776
 9302SOL     OW39538   2.934   3.026   4.154  0.2456  0.6209 -0.3500
 9302SOL    HW139539   2.955   2.960   4.221  2.1333  0.7646 -0.7805
 9302SOL    HW239540   3.008   3.087   4.158 -0.5257  1.3503  2.3596
 9303SOL     OW39541   2.365   2.324   2.858  0.7873  0.2451  0.2692
 9303SOL    HW139542   2.299   2.264   2.893 -0.4138  0.6153 -1.3266
 9303SOL    HW239543   2.433   2.267   2.824 -0.9801 -2.1339  0.7369
 9304SOL     OW39544   0.440   0.322  16.188 -0.4816  0.1478 -0.0211
 9304SOL    HW139545   0.467   0.408  16.219  0.9420 -0.4534  0.4010
 9304SOL    HW239546   0.417   0.354  16.100 -0.3906 -0.0668 -0.1220
 9305SOL     OW39547   0.069   1.106   9.361  0.0069 -0.1985  0.4362
 9305SOL    HW139548   0.022   1.189   9.365  0.2291 -0.0107 -1.0504
 9305SOL    HW239549   0.140   1.134   9.303  0.0036 -0.4664  0.3037
 9306SOL     OW39550   1.216   3.834   0.004 -0.2349  0.1781 -0.2658
 9306SOL    HW139551   1.260   3.876   0.077  0.8409 -0.5739 -0.4835
 9306SOL    HW239552   1.258   3.748   0.003  1.5273  1.0409 -0.1839
 9307SOL     OW39553   4.380   0.566   7.111 -0.4274 -0.3487  0.8187
 9307SOL    HW139554   4.472   0.569   7.136 -0.4314  2.0351  0.5408
 9307SOL    HW239555   4.367   0.658   7.131 -1.3051 -0.2335 -0.2537
 9308SOL     OW39556   3.542   0.973   9.329 -0.6825  0.2312  0.3452
 9308SOL    HW139557   3.478   0.908   9.300  0.4571 -0.9340  0.3882
 9308SOL    HW239558   3.545   0.938   9.418  1.1136 -1.6114 -0.4293
 9309SOL     OW39559   4.260   3.837   7.956  0.3696 -0.0580  0.0194
 9309SOL    HW139560   4.320   3.911   7.947  1.0881 -0.7598 -0.9044
 9309SOL    HW239561   4.271   3.829   8.050  3.3766 -0.8979 -0.4166
 9310SOL     OW39562   2.652   3.581   1.995 -0.3979  0.1699 -0.2957
 9310SOL    HW139563   2.651   3.488   2.015 -0.2119  0.3899  0.7165
 9310SOL    HW239564   2.566   3.609   2.025 -0.2834  0.4840 -0.2632
 9311SOL     OW39565   1.734   2.773   4.875  0.1585  0.3564  0.3365
 9311SOL    HW139566   1.687   2.713   4.817  1.9984  1.0568 -1.8729
 9311SOL    HW239567   1.818   2.727   4.885 -0.9578 -1.8234 -0.4506
 9312SOL     OW39568   0.781   1.161   7.151  0.0265 -0.1885 -0.2740
 9312SOL    HW139569   0.686   1.157   7.162  0.3617 -1.4740  2.3413
 9312SOL    HW239570   0.810   1.159   7.243  1.3069 -1.0914 -0.7021
 9313SOL     OW39571   2.309   4.494   2.336 -0.3383  0.2778  0.0918
 9313SOL    HW139572   2.296   4.456   2.424  2.1532  1.1551  0.8274
 9313SOL    HW239573   2.264   4.578   2.346 -2.0733 -0.6698  0.2926
 9314SOL     OW39574   2.279   2.107   4.733  0.6694  0.1219  0.1377
 9314SOL    HW139575   2.292   2.138   4.643  0.7856 -3.2438 -0.9912
 9314SOL    HW239576   2.243   2.021   4.710 -2.1957  1.8399 -1.7548
 9315SOL     OW39577   4.060   1.129   5.574 -0.1132 -0.0052  0.1931
 9315SOL    HW139578   4.124   1.065   5.606 -2.2926 -1.3931  1.7518
 9315SOL    HW239579   4.000   1.066   5.535 -0.3781  0.6679 -0.4769
 9316SOL     OW39580   3.105   0.188   2.183 -0.3449 -0.0869  0.0596
 9316SOL    HW139581   3.130   0.145   2.264 -0.8367 -0.9832 -0.2593
 9316SOL    HW239582   3.096   0.112   2.125  2.1856 -0.3687  0.0453
 9317SOL     OW39583   2.116   0.634  12.857  0.0129  0.4352  0.2493
 9317SOL    HW139584   2.183   0.657  12.793 -1.8236  0.0647 -1.7938
 9317SOL    HW239585   2.045   0.624  12.794 -0.2050 -0.0672  0.5764
 9318SOL     OW39586   4.296   1.001  13.296  0.1079  0.4473  0.1151
 9318SOL    HW139587   4.290   0.949  13.377 -2.6316 -3.4550 -2.6143
 9318SOL    HW239588   4.238   1.077  13.304  0.9258  1.1687 -0.7933
 9319SOL     OW39589   3.454   1.790   3.564 -0.2965  0.3833 -0.5162
 9319SOL    HW139590   3.407   1.777   3.483  1.6142  0.5270 -1.6522
 9319SOL    HW239591   3.387   1.761   3.626  1.3522 -2.3510 -0.0412
 9320SOL     OW39592   0.452   0.463   6.720  0.1956 -0.6240  0.3203
 9320SOL    HW139593   0.531   0.510   6.692 -3.4167  3.1870 -3.4945
 9320SOL    HW239594   0.456   0.381   6.670  0.4125 -1.1511  1.2138
 9321SOL     OW39595   3.468   3.547   6.848 -0.2142  0.4896  0.2255
 9321SOL    HW139596   3.397   3.520   6.906 -1.1017  0.3554 -0.9018
 9321SOL    HW239597   3.429   3.526   6.762 -0.8185 -3.1239  1.3695
 9322SOL     OW39598   4.202   2.153   8.479 -0.1029  0.0204 -0.5758
 9322SOL    HW139599   4.223   2.072   8.526  1.4895  0.8623  0.1509
 9322SOL    HW239600   4.129   2.115   8.429 -0.1724 -1.0172  0.2837
 9323SOL     OW39601   2.627   3.975   7.649 -0.3410  0.0745  0.9209
 9323SOL    HW139602   2.711   4.000   7.611 -0.0350 -1.2216  0.7394
 9323SOL    HW239603   2.591   4.057   7.684 -0.2380  0.4953  0.0346
 9324SOL     OW39604   1.664   2.250  16.629  0.0731 -0.0195  0.5717
 9324SOL    HW139605   1.603   2.298  16.685 -0.4801  0.5962 -0.5602
 9324SOL    HW239606   1.732   2.317  16.616  0.0201  0.0185  0.4892
 9325SOL     OW39607   4.706   0.542   7.213 -0.1322 -0.3663 -1.0445
 9325SOL    HW139608   4.714   0.637   7.211  0.2615 -0.3457  1.4544
 9325SOL    HW239609   0.018   0.506   7.140 -0.8269  0.5428 -1.9642
 9326SOL     OW39610   4.432   1.032   9.229  0.0798 -0.0268 -0.3510
 9326SOL    HW139611   4.517   1.005   9.194  0.2673 -0.8994  0.7707
 9326SOL    HW239612   4.439   0.988   9.314  0.0700  1.4783  0.4245
 9327SOL     OW39613   4.084   1.763   0.910  0.1028  1.0589  0.1528
 9327SOL    HW139614   3.994   1.773   0.877  0.3836 -3.1277 -1.9327
 9327SOL    HW239615   4.126   1.833   0.861  0.9024 -0.2029 -0.9871
 9328SOL     OW39616   3.568   3.890   6.263  0.0327  0.5468 -0.3321
 9328SOL    HW139617   3.493   3.832   6.280  2.7627 -1.6538  4.1679
 9328SOL    HW239618   3.630   3.865   6.332 -0.9259  1.8829  1.0121
 9329SOL     OW39619   0.771   1.941   2.551 -1.3486  0.5592 -0.1885
 9329SOL    HW139620   0.851   1.974   2.509 -0.2332 -2.1099 -0.1250
 9329SOL    HW239621   0.711   1.953   2.478 -3.1250  0.0563  1.2036
 9330SOL     OW39622   3.686   3.904  15.087 -0.8113 -0.3632  0.4827
 9330SOL    HW139623   3.774   3.873  15.104 -1.0063 -1.1781  0.0152
 9330SOL    HW239624   3.631   3.860  15.152 -1.3245 -2.5200 -1.4182
 9331SOL     OW39625   3.669   4.507   3.347  0.0019  0.3315  0.3291
 9331SOL    HW139626   3.730   4.484   3.277 -0.9720  0.3614 -0.5267
 9331SOL    HW239627   3.640   4.422   3.378  2.6769 -0.5975  0.2693
 9332SOL     OW39628   2.708   4.512   8.791 -0.5285 -0.1586 -0.6599
 9332SOL    HW139629   2.627   4.472   8.761 -0.9081 -2.0294  2.7998
 9332SOL    HW239630   2.768   4.445   8.758 -0.1453 -0.0248 -0.2370
 9333SOL     OW39631   4.584   3.300  10.440 -0.1103  0.0011  0.0253
 9333SOL    HW139632   4.534   3.250  10.376  0.7056  0.2315 -0.7855
 9333SOL    HW239633   4.644   3.231  10.470 -0.5730  0.4243  1.9664
 9334SOL     OW39634   1.347   3.770  17.033 -0.1890 -0.7904 -0.0697
 9334SOL    HW139635   1.289   3.837  16.996 -1.2606 -1.2156  0.8562
 9334SOL    HW239636   1.318   3.772  17.124  1.4009 -0.5943  0.4159
 9335SOL     OW39637   0.603   4.317   8.951 -0.0457 -0.2174 -0.0186
 9335SOL    HW139638   0.666   4.247   8.935  0.0492 -0.0111 -0.5545
 9335SOL    HW239639   0.546   4.284   9.020  0.8762  0.2301  0.9606
 9336SOL     OW39640   2.294   2.149   3.388  0.3198  0.4244  0.1212
 9336SOL    HW139641   2.204   2.170   3.411  0.8239  0.6168  1.9332
 9336SOL    HW239642   2.290   2.186   3.300 -2.6511 -0.6212 -0.1552
 9337SOL     OW39643   4.481   2.223   3.622 -0.1383 -0.5817 -0.0247
 9337SOL    HW139644   4.424   2.293   3.652  1.7588  0.5898  0.8774
 9337SOL    HW239645   4.426   2.145   3.631 -1.5079  0.1046 -2.5974
 9338SOL     OW39646   4.733   0.248   7.690 -0.1616  0.0683  0.6812
 9338SOL    HW139647   4.725   0.297   7.608  0.3102 -1.8671 -0.5109
 9338SOL    HW239648   4.654   0.195   7.702 -0.3965  0.1419 -0.5169
 9339SOL     OW39649   1.401   2.598   3.605  0.1207 -0.4988  0.7388
 9339SOL    HW139650   1.371   2.679   3.563  1.8084 -0.5397 -0.5525
 9339SOL    HW239651   1.440   2.634   3.685 -0.0578  1.8509 -0.2469
 9340SOL     OW39652   4.053   1.732   0.267  0.0675  0.2492 -0.6999
 9340SOL    HW139653   3.998   1.654   0.277  1.2576 -0.3499  1.1689
 9340SOL    HW239654   4.072   1.726   0.173 -0.3287  1.0095 -0.8312
 9341SOL     OW39655   0.888   3.970  12.408  0.6887  0.1078  0.0048
 9341SOL    HW139656   0.818   3.962  12.472  0.8611 -0.0794  0.1690
 9341SOL    HW239657   0.899   4.065  12.414 -2.0791  0.4643 -0.8313
 9342SOL     OW39658   3.560   4.244  15.296 -0.3310 -0.6904  0.1354
 9342SOL    HW139659   3.630   4.285  15.346 -0.0586  0.6066 -1.2950
 9342SOL    HW239660   3.532   4.167  15.345  0.8508 -1.5745 -0.6147
 9343SOL     OW39661   0.862   4.523  16.267  0.0502 -0.4935  0.1540
 9343SOL    HW139662   0.915   4.564  16.198 -0.3443 -1.2079 -0.5748
 9343SOL    HW239663   0.821   4.447  16.228 -1.8302  0.9917 -0.7715
 9344SOL     OW39664   2.526   0.378  17.693 -0.0015 -0.2033 -0.1502
 9344SOL    HW139665   2.472   0.355  17.617  0.6643 -2.8284  0.1830
 9344SOL    HW239666   2.569   0.457  17.661 -0.4203  0.5636  1.1975
 9345SOL     OW39667   3.605   2.158   8.444  0.0533  0.2019 -0.5524
 9345SOL    HW139668   3.542   2.177   8.514 -0.6536  1.5031 -1.5343
 9345SOL    HW239669   3.570   2.222   8.381  0.1307  0.5300 -0.2652
 9346SOL     OW39670   0.606   1.278   7.636  0.2014 -0.5639 -0.0433
 9346SOL    HW139671   0.615   1.256   7.544  0.6215  0.7052 -0.3027
 9346SOL    HW239672   0.676   1.339   7.656 -0.1505 -0.1737  0.0039
 9347SOL     OW39673   4.524   4.297  17.409 -0.2467  0.1388  0.9240
 9347SOL    HW139674   4.568   4.330  17.487 -0.6880  0.6308  0.9648
 9347SOL    HW239675   4.601   4.263  17.363 -0.8129 -0.8710  0.7221
 9348SOL     OW39676   2.787   3.032   2.334  0.6007 -0.4249 -0.6652
 9348SOL    HW139677   2.802   3.082   2.254  1.6699 -0.1858 -0.3115
 9348SOL    HW239678   2.873   3.028   2.374  0.7216 -0.6166 -0.9414
 9349SOL     OW39679   2.833   0.553   1.564 -0.2287  0.8365 -0.2461
 9349SOL    HW139680   2.768   0.624   1.565 -2.9303 -1.6121 -0.7176
 9349SOL    HW239681   2.777   0.487   1.604 -0.7524  0.7958 -1.0439
 9350SOL     OW39682   1.308   0.589   2.154  0.5054  0.1657  0.0307
 9350SOL    HW139683   1.345   0.506   2.124  1.3999  0.1269  1.2638
 9350SOL    HW239684   1.374   0.657   2.166  0.2964  0.9676 -3.2336
 9351SOL     OW39685   2.790   0.034  16.129  0.1976  0.1939  0.3558
 9351SOL    HW139686   2.711   4.720  16.111  1.0942 -1.1109  0.1014
 9351SOL    HW239687   2.812   0.050  16.037 -1.0753  0.0873  0.0274
 9352SOL     OW39688   3.047   2.738   2.627  0.0808 -0.1983  0.3122
 9352SOL    HW139689   3.021   2.657   2.670  1.0352 -0.0855  1.0798
 9352SOL    HW239690   2.979   2.736   2.559  2.1440 -1.1893 -1.6953
 9353SOL     OW39691   0.846   2.893   2.298 -0.2618 -0.2292  0.7030
 9353SOL    HW139692   0.921   2.950   2.315 -0.2008 -1.2123  3.8319
 9353SOL    HW239693   0.802   2.939   2.227  2.1656  0.4447 -0.3416
 9354SOL     OW39694   4.033   0.039   3.249 -0.0069 -0.6926 -0.2042
 9354SOL    HW139695   3.940   0.051   3.229 -0.6662 -3.4202  1.1330
 9354SOL    HW239696   4.037   4.681   3.245 -0.9841 -0.6946 -1.1046
 9355SOL     OW39697   3.753   0.620   2.900 -0.0042  0.3712  0.4237
 9355SOL    HW139698   3.827   0.597   2.957 -1.2775  1.1114  2.3808
 9355SOL    HW239699   3.716   0.686   2.958  1.9821  0.7627  1.2529
 9356SOL     OW39700   1.508   3.486   8.716 -0.1372  0.3535  0.3164
 9356SOL    HW139701   1.426   3.500   8.763 -0.0160 -1.7880  1.1939
 9356SOL    HW239702   1.539   3.573   8.693 -1.4528  0.8072  0.2958
 9357SOL     OW39703   0.667   1.381   4.131 -0.0440 -0.5681  0.0913
 9357SOL    HW139704   0.634   1.450   4.188 -0.7572 -0.8793  0.0519
 9357SOL    HW239705   0.675   1.434   4.052  2.4785  0.9771  1.3643
 9358SOL     OW39706   0.831   0.519  13.505 -0.1850 -0.6527  0.0170
 9358SOL    HW139707   0.812   0.426  13.489 -0.3707 -0.9051  1.7020
 9358SOL    HW239708   0.855   0.520  13.597 -1.3819 -0.2447  0.3275
 9359SOL     OW39709   3.901   3.218   4.237  0.2186 -0.1697 -0.7751
 9359SOL    HW139710   3.815   3.189   4.209 -0.0877 -0.0092 -0.0126
 9359SOL    HW239711   3.892   3.216   4.332 -0.4664 -1.5471 -0.8708
 9360SOL     OW39712   4.541   1.439   9.024  0.1808  0.2387 -0.1533
 9360SOL    HW139713   4.548   1.509   9.089  1.1339 -1.3633  1.4782
 9360SOL    HW239714   4.602   1.376   9.063 -1.1341  0.3778  2.1687
 9361SOL     OW39715   3.334   0.895   8.767  0.1935  0.4846  0.6377
 9361SOL    HW139716   3.347   0.941   8.684  3.0994  0.9714  1.3703
 9361SOL    HW239717   3.407   0.927   8.820 -1.4482  3.4937  1.0841
 9362SOL     OW39718   3.579   3.363   9.368  0.2417 -0.6443  0.0241
 9362SOL    HW139719   3.485   3.371   9.355  0.3200  0.1251 -0.1098
 9362SOL    HW239720   3.609   3.311   9.293  0.3156  0.2753 -0.5948
 9363SOL     OW39721   1.265   3.587  12.601 -0.3920 -0.1700  0.2829
 9363SOL    HW139722   1.205   3.654  12.571  0.2772  0.0710 -0.5028
 9363SOL    HW239723   1.346   3.638  12.597 -0.1853 -0.3579  1.8234
 9364SOL     OW39724   1.518   1.117   9.961 -0.3468  0.6762 -0.2601
 9364SOL    HW139725   1.576   1.193   9.953 -0.4989  1.0564  2.0501
 9364SOL    HW239726   1.440   1.145   9.913 -1.9175 -1.8900  0.8052
 9365SOL     OW39727   4.217   3.025   9.955  0.0695 -0.0965 -0.1317
 9365SOL    HW139728   4.296   3.071   9.927  0.2376 -0.0791  0.3688
 9365SOL    HW239729   4.246   2.937   9.931 -1.1490 -0.2509 -1.0250
 9366SOL     OW39730   2.696   3.573   4.339 -0.0608 -0.6757  0.2798
 9366SOL    HW139731   2.756   3.647   4.344 -1.8317  0.7824 -0.0211
 9366SOL    HW239732   2.612   3.617   4.323  0.0651 -0.4558  0.2235
 9367SOL     OW39733   0.950   3.407   8.697 -0.2098 -0.4273  0.1794
 9367SOL    HW139734   0.969   3.500   8.709  1.1286 -0.7377  0.4074
 9367SOL    HW239735   1.030   3.373   8.660 -0.0626  0.1665 -0.0495
 9368SOL     OW39736   1.595   3.936   0.778  0.4012  0.0831  0.0871
 9368SOL    HW139737   1.629   3.880   0.708 -2.3962  0.1797 -1.3440
 9368SOL    HW239738   1.662   4.003   0.786 -1.5153  1.8621  1.2031
 9369SOL     OW39739   0.904   3.385   4.021 -0.2358  0.4267  0.0753
 9369SOL    HW139740   0.870   3.411   3.935 -0.9928  0.0073  0.2431
 9369SOL    HW239741   0.985   3.434   4.031 -1.7838  2.8414  0.7875
 9370SOL     OW39742   1.519   4.688  12.180 -0.5736  0.0137  0.3552
 9370SOL    HW139743   1.491   0.042  12.170 -1.5997 -0.3234  0.1666
 9370SOL    HW239744   1.604   4.691  12.225 -1.0427 -0.5426  1.2895
 9371SOL     OW39745   4.012   0.666   0.248 -0.3620 -0.5531 -0.1684
 9371SOL    HW139746   4.063   0.611   0.308 -2.2338  1.1265  2.9314
 9371SOL    HW239747   3.988   0.605   0.178 -0.0273 -0.6060 -0.2420
 9372SOL     OW39748   1.908   0.408   2.937 -0.0584  0.1318 -0.6234
 9372SOL    HW139749   1.889   0.315   2.949  0.3836  0.2836  1.2671
 9372SOL    HW239750   1.902   0.408   2.842 -0.0926  2.0131 -0.6313
 9373SOL     OW39751   4.481   1.429   6.261 -0.5119 -0.5064  0.0707
 9373SOL    HW139752   4.560   1.392   6.221  0.6723  1.0078  1.0311
 9373SOL    HW239753   4.442   1.353   6.305 -1.3841  1.0579  1.9828
 9374SOL     OW39754   4.208   1.926   9.693  0.5982  0.2003  0.1057
 9374SOL    HW139755   4.201   1.831   9.704 -0.4380  0.4488  1.6854
 9374SOL    HW239756   4.176   1.945   9.781  1.9858 -0.1696  0.6934
 9375SOL     OW39757   3.831   4.489   1.230  0.0581 -0.3930  0.2109
 9375SOL    HW139758   3.878   4.495   1.312 -3.2985  0.8660  2.0397
 9375SOL    HW239759   3.785   4.405   1.238 -0.3097 -0.0779  1.3727
 9376SOL     OW39760   2.770   3.632   7.150  0.9271  0.2670  0.2366
 9376SOL    HW139761   2.709   3.612   7.221 -1.2997 -0.8312 -1.9873
 9376SOL    HW239762   2.852   3.623   7.199  1.3053  0.1694 -0.4180
 9377SOL     OW39763   2.742   2.252   5.514 -0.3335  0.3705  0.0706
 9377SOL    HW139764   2.654   2.251   5.551  0.1052  1.6451  1.1689
 9377SOL    HW239765   2.791   2.302   5.579  1.5600 -0.4303 -0.7503
 9378SOL     OW39766   0.761   0.270   7.320  0.1650  0.5513 -0.0329
 9378SOL    HW139767   0.704   0.207   7.274 -0.1339 -1.2286  2.7983
 9378SOL    HW239768   0.763   0.351   7.269  1.7140  1.2311  1.1412
 9379SOL     OW39769   4.298   2.722   0.191  0.1178  0.1416 -0.6028
 9379SOL    HW139770   4.361   2.702   0.122 -0.0946 -0.5075 -0.6120
 9379SOL    HW239771   4.356   2.731   0.267 -2.0144 -0.5416  1.0939
 9380SOL     OW39772   2.059   3.469   6.048 -0.5534 -0.1311  0.3505
 9380SOL    HW139773   2.150   3.449   6.024 -0.7243 -0.4680 -0.0139
 9380SOL    HW239774   2.033   3.379   6.070 -1.2717  0.5676  2.2960
 9381SOL     OW39775   1.713   4.212   4.472 -0.3142 -0.6761  0.3673
 9381SOL    HW139776   1.676   4.137   4.426 -1.2975 -0.2044  0.3965
 9381SOL    HW239777   1.634   4.241   4.518 -1.3285  0.2628 -1.9438
 9382SOL     OW39778   0.397   4.559   1.170 -0.7693  0.4459  0.3732
 9382SOL    HW139779   0.361   4.647   1.175  0.0479  0.9334 -2.1817
 9382SOL    HW239780   0.365   4.520   1.089  3.5092  0.2254 -1.2280
 9383SOL     OW39781   2.969   3.885  14.083 -0.1146  0.2507  0.4375
 9383SOL    HW139782   2.972   3.965  14.030  1.5711  0.2573  0.5476
 9383SOL    HW239783   3.010   3.911  14.165  0.2004  1.2683 -0.0373
 9384SOL     OW39784   3.277   4.493   1.622  0.0802 -0.4158 -0.3381
 9384SOL    HW139785   3.311   4.541   1.698  0.1431 -0.4897 -0.3196
 9384SOL    HW239786   3.197   4.543   1.609 -0.8277 -1.8248 -0.1203
 9385SOL     OW39787   0.736   3.454   7.804  0.2370  0.3146  0.1680
 9385SOL    HW139788   0.666   3.411   7.755 -0.3094  1.5300 -0.1189
 9385SOL    HW239789   0.684   3.527   7.839 -0.2112 -0.6487  1.5413
 9386SOL     OW39790   1.891   2.685  14.190  0.2955 -0.0524 -0.9504
 9386SOL    HW139791   1.919   2.730  14.270  0.4152 -1.7194 -0.0591
 9386SOL    HW239792   1.887   2.602  14.238 -0.8328  0.6462  0.1454
 9387SOL     OW39793   1.399   2.408   6.367  0.5369  0.4854  0.5395
 9387SOL    HW139794   1.461   2.482   6.373  0.5793  0.4489  0.5538
 9387SOL    HW239795   1.396   2.371   6.455 -1.8944  0.1622  0.2990
 9388SOL     OW39796   0.176   4.695   5.616 -0.2420 -0.7134 -0.1865
 9388SOL    HW139797   0.231   0.019   5.567  0.7765 -2.2798 -0.9727
 9388SOL    HW239798   0.086   4.728   5.606  0.2438  0.8226  0.5740
 9389SOL     OW39799   2.854   1.018   2.459 -0.3006  0.3413 -0.4186
 9389SOL    HW139800   2.923   0.954   2.476 -1.5787 -0.4101  2.0224
 9389SOL    HW239801   2.777   0.967   2.485  0.2026 -0.0381  0.3186
 9390SOL     OW39802   1.120   4.367   3.411  0.1318 -0.3664  0.3052
 9390SOL    HW139803   1.094   4.341   3.500  1.6413  0.0494  0.8698
 9390SOL    HW239804   1.178   4.442   3.428 -1.9930  1.4301 -0.3985
 9391SOL     OW39805   2.480   3.483   8.965  0.5526 -0.2167  0.3548
 9391SOL    HW139806   2.405   3.543   8.971  0.4183 -0.3464  0.0085
 9391SOL    HW239807   2.461   3.416   9.030 -0.2564 -0.5412 -0.2190
 9392SOL     OW39808   3.461   4.498  14.439 -0.5486  0.1926  0.3096
 9392SOL    HW139809   3.504   4.422  14.400 -2.5516 -0.9130  0.2321
 9392SOL    HW239810   3.409   4.531  14.366  0.3836 -0.3090 -0.5885
 9393SOL     OW39811   1.389   3.558   4.639  0.1331  0.3393 -0.0916
 9393SOL    HW139812   1.382   3.463   4.633  2.2086 -0.0335  3.4823
 9393SOL    HW239813   1.454   3.582   4.572 -1.1303  0.0824 -1.4172
 9394SOL     OW39814   4.006   1.673   7.114 -0.1470 -0.3444 -0.3091
 9394SOL    HW139815   3.916   1.652   7.139 -0.0470  2.3658  2.4127
 9394SOL    HW239816   4.047   1.687   7.200 -0.2025 -2.7496  0.1110
 9395SOL     OW39817   4.156   4.303  11.716 -0.0403  0.5768 -0.0299
 9395SOL    HW139818   4.249   4.283  11.707 -0.0816 -1.0439  3.2700
 9395SOL    HW239819   4.115   4.228  11.672  0.4984  0.7879 -0.8879
 9396SOL     OW39820   1.698   1.411   8.197  0.0612  0.3653 -0.2283
 9396SOL    HW139821   1.650   1.358   8.133 -0.4897  1.1300 -0.4536
 9396SOL    HW239822   1.704   1.343   8.264 -0.1743  1.5549  1.0081
 9397SOL     OW39823   1.899   4.340   3.761 -0.1091  0.2834 -0.4849
 9397SOL    HW139824   1.897   4.349   3.857  0.8390  0.9252 -0.5230
 9397SOL    HW239825   1.822   4.397   3.756 -0.3497  0.0510  0.5155
 9398SOL     OW39826   2.880   0.066  16.390  0.3916 -0.3268  0.3188
 9398SOL    HW139827   2.912   0.149  16.354  1.0991  0.1941  2.1920
 9398SOL    HW239828   2.802   0.059  16.335 -1.0734 -2.9725  2.7322
 9399SOL     OW39829   2.411   2.404  15.263 -0.1090 -0.1043  0.3943
 9399SOL    HW139830   2.507   2.405  15.262 -0.1036  2.6448  2.3172
 9399SOL    HW239831   2.390   2.496  15.282 -0.0238  0.3474 -1.7540
 9400SOL     OW39832   3.431   3.268  13.652 -0.1096 -0.1166  0.2837
 9400SOL    HW139833   3.399   3.180  13.675  1.1117 -0.8014 -0.6225
 9400SOL    HW239834   3.453   3.311  13.734  0.1784 -0.0441  0.1659
 9401SOL     OW39835   1.653   3.332   5.369 -0.2755  0.6946 -0.2779
 9401SOL    HW139836   1.603   3.401   5.413  0.2966  1.1535 -0.3488
 9401SOL    HW239837   1.656   3.364   5.278  2.7443  2.3464  0.4125
 9402SOL     OW39838   0.543   2.037   3.814 -0.1022  0.2978  0.5416
 9402SOL    HW139839   0.541   2.118   3.764  1.9259  1.4713  2.3470
 9402SOL    HW239840   0.630   2.039   3.855 -0.2578 -0.5533  0.9167
 9403SOL     OW39841   4.280   1.644   8.170  0.3004 -0.1197  0.0822
 9403SOL    HW139842   4.244   1.627   8.083 -0.2876 -1.6485  0.6251
 9403SOL    HW239843   4.350   1.579   8.176  0.0700 -0.4114 -0.3368
 9404SOL     OW39844   1.525   0.180  14.471  0.0616  0.2246  0.8010
 9404SOL    HW139845   1.494   0.148  14.386 -1.6875  0.1645  1.4713
 9404SOL    HW239846   1.534   0.272  14.447  1.8832 -0.6452 -1.8707
 9405SOL     OW39847   4.527   0.127  16.677  0.2157  0.0473 -0.1468
 9405SOL    HW139848   4.617   0.117  16.647  0.4093  0.8097  0.1652
 9405SOL    HW239849   4.536   0.098  16.768 -0.1546 -0.0672 -0.1466
 9406SOL     OW39850   3.742   2.945   0.560  0.4132  0.0340  0.2309
 9406SOL    HW139851   3.679   2.875   0.544  0.4310 -0.0492  0.5260
 9406SOL    HW239852   3.821   2.897   0.585 -0.1643 -0.3936  1.2367
 9407SOL     OW39853   0.385   2.588   9.311 -0.3796  0.2031  0.6159
 9407SOL    HW139854   0.399   2.614   9.402  1.1809 -4.2597  1.6310
 9407SOL    HW239855   0.294   2.610   9.290 -0.5973 -1.8227 -0.6611
 9408SOL     OW39856   2.297   3.762   7.174 -0.8239 -0.0024 -0.1770
 9408SOL    HW139857   2.365   3.829   7.172  0.7291 -1.5365  0.6015
 9408SOL    HW239858   2.275   3.762   7.081 -2.0803 -0.2917  0.1224
 9409SOL     OW39859   2.579   0.614   8.093  0.3426  0.1967  0.5936
 9409SOL    HW139860   2.623   0.541   8.135 -0.1840 -1.0421 -1.0223
 9409SOL    HW239861   2.493   0.575   8.074  1.4379 -1.1547 -1.5596
 9410SOL     OW39862   4.228   2.210  14.007 -0.1001  0.3005 -0.2806
 9410SOL    HW139863   4.162   2.150  13.972  2.2797 -0.3159 -3.6866
 9410SOL    HW239864   4.264   2.246  13.925 -1.2277  1.9287 -0.0546
 9411SOL     OW39865   2.133   3.213   7.360 -0.4381  0.7702  0.2799
 9411SOL    HW139866   2.094   3.253   7.282 -0.0232  3.2670  1.3601
 9411SOL    HW239867   2.225   3.228   7.340 -1.0016  0.9907 -2.1643
 9412SOL     OW39868   3.662   3.434  10.995  0.4161 -0.3249  0.2439
 9412SOL    HW139869   3.732   3.382  11.035  1.5909 -0.1465 -1.5754
 9412SOL    HW239870   3.655   3.492  11.071  1.7608  0.6919 -0.4051
 9413SOL     OW39871   3.312   2.400   7.059 -0.5073 -0.0097  0.3469
 9413SOL    HW139872   3.263   2.458   7.000  1.2204  0.3400 -0.7711
 9413SOL    HW239873   3.265   2.417   7.140  0.1529 -2.1451  1.1770
 9414SOL     OW39874   2.637   3.339  10.596  0.3354 -0.1111 -0.2609
 9414SOL    HW139875   2.566   3.274  10.597 -0.4629  0.7629 -1.3500
 9414SOL    HW239876   2.600   3.401  10.658 -0.8928 -1.5108  0.4174
 9415SOL     OW39877   2.197   1.269  12.087 -0.1084  1.0305  0.0291
 9415SOL    HW139878   2.159   1.346  12.044 -0.6260  1.1554  0.7048
 9415SOL    HW239879   2.288   1.284  12.061  0.9101 -2.6764  1.5466
 9416SOL     OW39880   2.072   0.435   4.725  0.7780  0.0587  0.5435
 9416SOL    HW139881   2.055   0.523   4.758  1.4476  0.0862  0.8250
 9416SOL    HW239882   2.006   0.384   4.772  0.4220  1.1278  1.2044
 9417SOL     OW39883   2.959   0.776  15.244  0.0038 -0.3879 -0.4338
 9417SOL    HW139884   2.961   0.682  15.262  0.7509 -0.2792  0.0520
 9417SOL    HW239885   3.049   0.802  15.226  0.1030 -0.6134 -0.2623
 9418SOL     OW39886   0.810   1.718  14.138 -0.3692  0.7326 -0.0821
 9418SOL    HW139887   0.740   1.781  14.155 -0.6221  0.2191  0.7588
 9418SOL    HW239888   0.769   1.634  14.156  1.0084  0.1407  0.2840
 9419SOL     OW39889   4.146   4.508   4.185 -0.0572 -0.1794  0.4168
 9419SOL    HW139890   4.196   4.529   4.265 -0.0915  0.2329  0.3296
 9419SOL    HW239891   4.059   4.520   4.221 -0.3321 -1.4124  0.1365
 9420SOL     OW39892   3.695   1.996  13.775  0.5562 -0.0287  0.5910
 9420SOL    HW139893   3.712   2.013  13.868 -1.2337  1.4694  0.6467
 9420SOL    HW239894   3.743   2.070  13.738 -0.2261  1.9786  3.5627
 9421SOL     OW39895   4.455   1.779   6.039  0.2827  0.1100 -0.2880
 9421SOL    HW139896   4.467   1.858   6.093 -1.7473  0.9457 -1.0666
 9421SOL    HW239897   4.543   1.776   6.002 -0.5503  1.9632 -2.3721
 9422SOL     OW39898   3.868   1.592  11.153  0.0445 -0.5799  0.0593
 9422SOL    HW139899   3.898   1.615  11.064  2.0728 -2.0455  0.3529
 9422SOL    HW239900   3.865   1.497  11.138 -0.2829 -0.7691  1.3313
 9423SOL     OW39901   2.684   2.045   7.314 -0.5575  0.1135  0.3469
 9423SOL    HW139902   2.680   1.957   7.353 -0.4188  0.3772  0.9651
 9423SOL    HW239903   2.675   2.094   7.396  0.9645  0.9130  0.0488
 9424SOL     OW39904   4.099   3.913   2.295 -0.5520 -0.5806  0.0656
 9424SOL    HW139905   4.078   3.979   2.229  2.0442  0.2033  0.0177
 9424SOL    HW239906   4.021   3.857   2.301  0.9830 -2.7515 -0.3908
 9425SOL     OW39907   1.924   3.460   4.347  0.7577  0.2848  0.5398
 9425SOL    HW139908   1.973   3.535   4.314  1.9945 -0.1003  1.5300
 9425SOL    HW239909   1.868   3.508   4.408  1.2652  1.2760  0.2360
 9426SOL     OW39910   1.930   0.330  14.303 -0.7484  0.1422  0.4307
 9426SOL    HW139911   1.911   0.312  14.211  0.5266  0.4237  0.1141
 9426SOL    HW239912   1.912   0.423  14.317  0.6303  0.2915  1.2176
 9427SOL     OW39913   1.899   3.988   7.450 -0.3600  0.4334 -0.2681
 9427SOL    HW139914   1.858   3.983   7.364 -2.1917  1.1507  0.5534
 9427SOL    HW239915   1.970   4.051   7.443 -0.3724  0.5440  0.5970
 9428SOL     OW39916   4.270   0.832  13.507 -0.3835 -0.4494  0.1484
 9428SOL    HW139917   4.326   0.827  13.585 -0.9182 -3.6925  0.3095
 9428SOL    HW239918   4.186   0.837  13.553  0.6431  2.3813  1.7557
 9429SOL     OW39919   4.556   0.812   9.396  0.0065  0.0968 -0.5313
 9429SOL    HW139920   4.481   0.784   9.448  1.2124  3.0764  2.8058
 9429SOL    HW239921   4.555   0.737   9.335 -0.5812 -0.9866  0.8116
 9430SOL     OW39922   0.274   0.242   5.405 -0.2449  0.4180  0.2265
 9430SOL    HW139923   0.340   0.183   5.369  0.1027  1.6197 -1.1350
 9430SOL    HW239924   0.230   0.263   5.323  0.4383 -1.2072 -0.5479
 9431SOL     OW39925   2.527   3.691   9.200  0.3956 -0.6065 -0.0570
 9431SOL    HW139926   2.457   3.658   9.143 -0.8208 -0.1948  1.1864
 9431SOL    HW239927   2.610   3.667   9.159  0.0146  0.3019 -1.3538
 9432SOL     OW39928   0.060   2.691   8.706 -0.1914  0.2054 -0.1501
 9432SOL    HW139929   0.122   2.621   8.687 -0.3811 -0.2796  1.0235
 9432SOL    HW239930   0.033   2.652   8.789  0.5448 -0.1758 -0.0939
 9433SOL     OW39931   3.090   2.314   5.503 -0.1591  0.3175 -0.4210
 9433SOL    HW139932   3.079   2.223   5.474  0.9484 -0.4942  1.6857
 9433SOL    HW239933   3.170   2.312   5.556  0.1649 -0.1952 -0.9282
 9434SOL     OW39934   1.769   1.265   7.788  0.6815 -0.3975  0.1392
 9434SOL    HW139935   1.794   1.305   7.872 -1.4815  2.2005 -0.4459
 9434SOL    HW239936   1.843   1.309   7.746  2.5090 -2.1287  1.5371
 9435SOL     OW39937   3.326   0.937   4.354  0.5814 -0.4785  0.2708
 9435SOL    HW139938   3.251   0.884   4.325 -1.0657  2.2730 -0.4341
 9435SOL    HW239939   3.364   0.885   4.425  0.4973 -1.8055 -0.6570
 9436SOL     OW39940   4.115   3.446  11.810  0.5846  0.1704  0.1689
 9436SOL    HW139941   4.121   3.420  11.902 -1.0648  0.1279  0.2742
 9436SOL    HW239942   4.164   3.528  11.816  0.1374  0.2726  2.5662
 9437SOL     OW39943   2.397   1.565   3.861 -0.4438  0.0952  0.4197
 9437SOL    HW139944   2.448   1.641   3.833  0.9659 -0.5474  1.2442
 9437SOL    HW239945   2.462   1.495   3.864 -0.1516  0.3671  0.4551
 9438SOL     OW39946   3.663   3.110  17.082  0.1627 -0.1034 -0.8494
 9438SOL    HW139947   3.694   3.192  17.119  0.3759  1.7722 -5.1156
 9438SOL    HW239948   3.598   3.089  17.149 -0.8404  0.1145 -1.7557
 9439SOL     OW39949   1.112   2.156   3.973  0.4000  0.3509  0.0365
 9439SOL    HW139950   1.090   2.106   3.893  2.0250  1.3389 -1.0241
 9439SOL    HW239951   1.168   2.098   4.024  0.2639  0.6493  0.5195
 9440SOL     OW39952   4.101   4.670  12.925  0.5479  0.3266 -0.2208
 9440SOL    HW139953   4.168   4.717  12.874  0.7965 -0.4797 -0.6346
 9440SOL    HW239954   4.071   4.611  12.856  1.2918  0.5116 -0.7069
 9441SOL     OW39955   3.940   1.762  10.942 -0.5318  0.2408  0.3092
 9441SOL    HW139956   3.904   1.835  10.890 -2.3426 -0.3352  0.7364
 9441SOL    HW239957   4.022   1.799  10.975  0.2022 -0.9405 -0.1896
 9442SOL     OW39958   2.433   2.844   8.720 -0.0026 -0.3037 -0.3223
 9442SOL    HW139959   2.461   2.755   8.741 -0.4926 -0.5856 -0.8484
 9442SOL    HW239960   2.509   2.877   8.670  0.2987 -0.5507 -0.0262
 9443SOL     OW39961   3.250   1.189   4.838 -0.1618  0.3745 -0.2597
 9443SOL    HW139962   3.210   1.104   4.823 -1.3734  0.9150 -0.1497
 9443SOL    HW239963   3.208   1.245   4.773 -0.9301 -0.4949 -0.5010
 9444SOL     OW39964   0.198   1.175  12.073  0.3970  1.1166 -0.6119
 9444SOL    HW139965   0.105   1.156  12.061 -0.0238  2.3291  0.7206
 9444SOL    HW239966   0.214   1.233  11.999 -0.7330  1.1226 -0.8479
 9445SOL     OW39967   3.779   4.569  15.133 -0.2909  0.0947 -0.3178
 9445SOL    HW139968   3.780   4.571  15.229  0.3024 -2.4497 -0.2848
 9445SOL    HW239969   3.695   4.527  15.116 -0.7592  1.5426 -1.6396
 9446SOL     OW39970   0.370   3.393   8.006 -0.0393  0.7052 -0.3074
 9446SOL    HW139971   0.408   3.430   8.086 -0.7942  2.2383 -0.6658
 9446SOL    HW239972   0.429   3.319   7.990 -0.8605  0.2750 -1.3304
 9447SOL     OW39973   2.761   2.353   1.830  0.5320 -0.3860  0.5879
 9447SOL    HW139974   2.791   2.438   1.799 -0.7256  0.5630  1.9372
 9447SOL    HW239975   2.799   2.296   1.763  0.2509 -1.3453  1.2421
 9448SOL     OW39976   1.389   2.961  11.391  0.0422  0.6356 -0.0246
 9448SOL    HW139977   1.335   2.994  11.320 -0.4287 -1.5721 -0.6951
 9448SOL    HW239978   1.363   3.019  11.463 -0.6869  1.0646 -0.6401
 9449SOL     OW39979   2.644   2.771  15.211 -0.5022 -0.1832  0.3687
 9449SOL    HW139980   2.678   2.792  15.124 -0.5564  4.1072  1.3663
 9449SOL    HW239981   2.614   2.857  15.240 -0.8585 -0.0628 -0.3575
 9450SOL     OW39982   3.297   4.198  16.409  0.8264 -0.6247 -0.6617
 9450SOL    HW139983   3.216   4.246  16.391  2.0393  1.6823  0.0345
 9450SOL    HW239984   3.335   4.270  16.459 -1.8883  0.7965 -0.6359
 9451SOL     OW39985   0.795   1.310   3.229 -0.3572 -0.2821 -0.0900
 9451SOL    HW139986   0.737   1.234   3.221  0.9022 -1.1402 -0.9820
 9451SOL    HW239987   0.881   1.272   3.245 -1.1062 -2.0136 -0.2392
 9452SOL     OW39988   4.480   1.971   8.564  0.1983  0.4336 -0.4412
 9452SOL    HW139989   4.396   1.965   8.609  0.0335  0.4177 -0.7570
 9452SOL    HW239990   4.507   2.060   8.588  1.6444  0.9456 -4.0161
 9453SOL     OW39991   2.653   4.677   2.436 -0.3651 -0.2923 -0.2681
 9453SOL    HW139992   2.591   4.607   2.458  0.7128 -0.6056  1.7574
 9453SOL    HW239993   2.742   4.650   2.459  0.5042  0.1681 -3.1018
 9454SOL     OW39994   4.082   2.003   1.146  0.2088 -0.3783 -0.4074
 9454SOL    HW139995   3.997   2.002   1.102 -0.9392 -1.6215  1.8847
 9454SOL    HW239996   4.131   2.054   1.081  0.5278 -0.2210 -0.0403
 9455SOL     OW39997   2.837   1.730   5.519 -0.0816 -0.2140 -0.1262
 9455SOL    HW139998   2.837   1.823   5.541  0.6586 -0.5330  1.2223
 9455SOL    HW239999   2.813   1.733   5.426  0.2973 -3.5446 -0.3566
 9456SOL     OW40000   1.167   3.000  10.712  0.5088 -0.0830 -0.9518
 9456SOL    HW140001   1.117   2.940  10.768 -0.2769 -0.1904 -1.7637
 9456SOL    HW240002   1.107   3.011  10.638 -0.0945  0.3548 -0.3900
 9457SOL     OW40003   0.253   2.537   0.854  0.3950  0.2200 -0.1785
 9457SOL    HW140004   0.207   2.484   0.919 -1.0074 -0.0945 -1.4077
 9457SOL    HW240005   0.265   2.616   0.907 -1.0270  0.3678 -0.0750
 9458SOL     OW40006   1.096   1.485   2.029  0.2342  0.1283  0.3672
 9458SOL    HW140007   1.052   1.422   2.087 -1.9247  1.6123  0.3744
 9458SOL    HW240008   1.129   1.559   2.081  1.6645 -0.4027  0.2018
 9459SOL     OW40009   3.101   0.543   3.201  0.1946  0.1372 -0.5196
 9459SOL    HW140010   3.190   0.568   3.224 -0.2338  1.3056 -0.1265
 9459SOL    HW240011   3.051   0.575   3.277  0.5789  2.0315 -1.0533
 9460SOL     OW40012   1.376   0.203   3.433 -0.6932 -0.2414  0.5922
 9460SOL    HW140013   1.384   0.244   3.347 -2.2810  0.7000  0.8989
 9460SOL    HW240014   1.307   0.250   3.479  0.6446  2.0058  0.2886
 9461SOL     OW40015   3.201   1.421   7.004 -0.2302  0.8232  0.0647
 9461SOL    HW140016   3.216   1.512   6.981  1.5375  0.4278 -0.3220
 9461SOL    HW240017   3.158   1.390   6.924 -0.0866  2.7783 -0.7732
 9462SOL     OW40018   0.214   3.161   5.256  0.1813  0.1195 -0.0721
 9462SOL    HW140019   0.119   3.167   5.252  0.3209  0.7318 -2.2938
 9462SOL    HW240020   0.237   3.078   5.214 -0.3384 -0.1701  0.2117
 9463SOL     OW40021   2.630   0.568   6.392  0.2504  0.7763  0.3386
 9463SOL    HW140022   2.654   0.639   6.333  0.1367  0.2686 -0.3212
 9463SOL    HW240023   2.575   0.615   6.454 -1.0644 -0.2860 -0.0348
 9464SOL     OW40024   0.585   3.649   7.893  0.1913  0.0263 -0.0444
 9464SOL    HW140025   0.515   3.710   7.870 -0.6021 -0.3690  1.3342
 9464SOL    HW240026   0.631   3.692   7.965 -0.6001  0.7874  0.0059
 9465SOL     OW40027   0.076   2.894  13.466 -0.1479 -0.4809  0.0026
 9465SOL    HW140028   0.156   2.923  13.509 -0.7601 -0.2398  0.9969
 9465SOL    HW240029   0.043   2.835  13.535  2.3274 -1.0901  0.6503
 9466SOL     OW40030   1.105   1.048  12.799  0.5090 -0.3718  0.3937
 9466SOL    HW140031   1.109   1.017  12.890  4.4393 -0.6551  0.1126
 9466SOL    HW240032   1.188   1.031  12.754  1.5034  3.2211  0.8753
 9467SOL     OW40033   4.669   4.048   3.493  0.4014 -0.6008 -0.2651
 9467SOL    HW140034   4.594   4.034   3.551  0.3086 -0.5009 -0.3597
 9467SOL    HW240035   4.630   4.074   3.409  1.5319 -0.3899 -0.7284
 9468SOL     OW40036   0.549   1.463   4.568 -0.3292  0.1656 -0.8368
 9468SOL    HW140037   0.519   1.440   4.656  3.9061  1.1075  0.8146
 9468SOL    HW240038   0.468   1.448   4.519 -2.0239 -0.3635  2.0965
 9469SOL     OW40039   3.567   1.772  13.669  0.4028  0.3744  0.9216
 9469SOL    HW140040   3.476   1.792  13.647 -0.2941 -3.5280  0.2509
 9469SOL    HW240041   3.596   1.850  13.716 -0.4138  0.2268  1.6620
 9470SOL     OW40042   1.884   3.585   5.886 -0.1254  0.4806 -0.0284
 9470SOL    HW140043   1.935   3.558   5.962 -0.9627  1.3158  0.8320
 9470SOL    HW240044   1.923   3.523   5.825  0.9336 -0.0409  1.1640
 9471SOL     OW40045   4.113   2.995  15.045  0.3910  0.0896 -0.1568
 9471SOL    HW140046   4.072   2.949  14.971  4.6159 -2.6159 -0.8557
 9471SOL    HW240047   4.157   3.069  15.003 -2.5270  1.1252 -1.3713
 9472SOL     OW40048   1.970   3.071   5.870  0.2140 -0.2567 -0.1132
 9472SOL    HW140049   2.013   3.014   5.805 -0.8120 -1.3174  0.1537
 9472SOL    HW240050   1.967   3.159   5.832  1.8222 -1.0714 -2.2188
 9473SOL     OW40051   0.765   3.304   7.314 -0.4962 -0.7180 -0.0862
 9473SOL    HW140052   0.725   3.217   7.301 -1.0467 -0.6025  0.7830
 9473SOL    HW240053   0.713   3.360   7.256  1.7181  1.3346 -0.0472
 9474SOL     OW40054   2.232   4.491  13.936 -0.5462 -0.2629 -0.1060
 9474SOL    HW140055   2.286   4.418  13.966 -0.7031 -0.7105 -0.9127
 9474SOL    HW240056   2.283   4.568  13.961 -1.0375  0.8294 -2.4627
 9475SOL     OW40057   1.580   0.722   7.272  0.4883  0.1346  0.5148
 9475SOL    HW140058   1.532   0.692   7.349 -0.2298 -2.6053 -0.9959
 9475SOL    HW240059   1.547   0.659   7.207  0.5955  1.7526 -1.1016
 9476SOL     OW40060   2.174   0.254  11.494  0.2429 -0.3126  0.0671
 9476SOL    HW140061   2.114   0.185  11.466  0.2988 -0.9973  1.6520
 9476SOL    HW240062   2.182   0.310  11.416  2.8427  1.0411  1.2849
 9477SOL     OW40063   3.099   4.006  15.113  0.0491  0.4504  0.4511
 9477SOL    HW140064   3.109   4.084  15.167  2.9487  0.5331 -0.1914
 9477SOL    HW240065   3.017   4.029  15.068 -1.4019 -0.8962  2.4056
 9478SOL     OW40066   0.306   0.572   8.437 -0.6418  0.3832 -0.0768
 9478SOL    HW140067   0.358   0.492   8.429 -1.6789 -0.7110  3.9926
 9478SOL    HW240068   0.277   0.594   8.349 -3.9481 -0.7436  0.7092
 9479SOL     OW40069   2.625   3.209   3.611  0.4316 -0.5335 -0.1580
 9479SOL    HW140070   2.606   3.276   3.545 -2.2972  0.5155  1.6857
 9479SOL    HW240071   2.652   3.266   3.684 -0.3133 -0.5431  0.1275
 9480SOL     OW40072   1.779   1.648   1.758 -0.0377  0.2610  0.6655
 9480SOL    HW140073   1.684   1.657   1.748  0.2252  0.2670 -1.6542
 9480SOL    HW240074   1.778   1.553   1.773 -0.4383  0.0053 -1.0694
 9481SOL     OW40075   3.997   0.472  15.074 -0.2377  0.5013 -0.1671
 9481SOL    HW140076   4.050   0.483  14.995  3.0922 -1.1620  1.8410
 9481SOL    HW240077   4.010   0.556  15.117  3.5380  0.5462 -1.3839
 9482SOL     OW40078   2.351   4.101   4.704 -0.1912  0.2519 -0.3760
 9482SOL    HW140079   2.332   4.192   4.726  1.6652  0.1487  1.6065
 9482SOL    HW240080   2.274   4.063   4.748  0.8117  0.2408  1.3696
 9483SOL     OW40081   1.388   1.405   9.432 -0.1298 -0.4052  0.0429
 9483SOL    HW140082   1.387   1.398   9.527 -2.0377 -1.0311 -0.0194
 9483SOL    HW240083   1.465   1.355   9.406 -0.0170  0.6217 -1.6273
 9484SOL     OW40084   1.997   3.152   4.907 -0.6024  0.6490  0.3570
 9484SOL    HW140085   1.997   3.190   4.819 -0.7882 -0.6940 -0.2218
 9484SOL    HW240086   1.937   3.216   4.945 -0.5300  1.7557 -1.3676
 9485SOL     OW40087   3.473   1.317   6.925  0.3730 -0.7356 -0.5815
 9485SOL    HW140088   3.505   1.406   6.913 -0.6220 -0.1469  1.2171
 9485SOL    HW240089   3.383   1.341   6.942  1.3698  0.9248  2.3805
 9486SOL     OW40090   2.361   0.307  14.834  0.3548 -0.2607 -0.0966
 9486SOL    HW140091   2.406   0.372  14.780  0.1553 -0.3128 -0.3225
 9486SOL    HW240092   2.344   0.244  14.764  1.0722  0.8749 -1.2881
 9487SOL     OW40093   0.809   1.114   3.594  0.1875 -0.3386 -0.5086
 9487SOL    HW140094   0.716   1.137   3.593  0.1124 -0.6153 -0.0420
 9487SOL    HW240095   0.811   1.071   3.680 -1.2453  0.2973 -0.1605
 9488SOL     OW40096   3.982   2.571   0.867  0.7015  0.0502  0.0758
 9488SOL    HW140097   3.978   2.635   0.938  1.4650  1.0370 -0.7837
 9488SOL    HW240098   3.893   2.578   0.833  0.4610 -0.7054  0.5347
 9489SOL     OW40099   2.905   3.456  11.332  0.2929  0.6904  0.4808
 9489SOL    HW140100   2.932   3.387  11.271  2.4111  1.1410  0.9212
 9489SOL    HW240101   2.972   3.520  11.308  1.8809 -0.9290  0.5860
 9490SOL     OW40102   0.165   2.888   7.284 -0.1010 -0.8029 -0.4335
 9490SOL    HW140103   0.081   2.846   7.302 -1.1339  1.8566  0.9725
 9490SOL    HW240104   0.216   2.841   7.351  1.5269  0.9808 -0.4233
 9491SOL     OW40105   0.146   3.910   6.166 -0.0783 -0.5692 -0.7118
 9491SOL    HW140106   0.076   3.847   6.151 -0.3312  0.0175 -1.9883
 9491SOL    HW240107   0.195   3.862   6.233 -1.5284 -0.1031  0.6487
 9492SOL     OW40108   1.504   3.743  16.082  0.5101  0.1900  0.1143
 9492SOL    HW140109   1.560   3.678  16.039  0.0728  1.1858 -1.9486
 9492SOL    HW240110   1.459   3.675  16.134 -0.6242  0.0883 -0.9928
 9493SOL     OW40111   1.842   3.355   4.974 -0.1802 -0.2220  0.0917
 9493SOL    HW140112   1.752   3.376   4.997  0.4373  0.9544  1.4193
 9493SOL    HW240113   1.873   3.439   4.942 -0.0675  0.1248  1.1196
 9494SOL     OW40114   3.160   3.258  15.025  0.1131 -0.1320 -0.1329
 9494SOL    HW140115   3.163   3.198  15.099 -2.1664  2.0550  1.7494
 9494SOL    HW240116   3.076   3.239  14.984  0.0765  0.7945 -0.4807
 9495SOL     OW40117   0.363   1.929   1.919  0.3258 -0.6443 -0.2856
 9495SOL    HW140118   0.279   1.896   1.889 -0.6357  1.1586  0.4006
 9495SOL    HW240119   0.366   2.005   1.860 -0.4270  0.5650  1.2337
 9496SOL     OW40120   2.360   1.448   9.897  0.1218 -0.6491  0.6560
 9496SOL    HW140121   2.309   1.368   9.911  2.2238 -2.3535 -1.3339
 9496SOL    HW240122   2.416   1.423   9.823  0.9431 -0.2619  1.1420
 9497SOL     OW40123   2.218   2.410  16.280 -0.8084  0.4779 -0.4971
 9497SOL    HW140124   2.217   2.485  16.219 -0.1585  0.4564 -0.5379
 9497SOL    HW240125   2.169   2.342  16.235 -2.0236  1.1217 -0.1604
 9498SOL     OW40126   1.043   3.921   7.897 -0.2170  0.1484  0.2043
 9498SOL    HW140127   1.064   3.857   7.966 -1.5471  0.5868  1.0042
 9498SOL    HW240128   1.001   3.873   7.826  0.1952  2.7906 -1.7857
 9499SOL     OW40129   0.677   4.124   3.350 -0.6495  0.3425  0.6642
 9499SOL    HW140130   0.741   4.088   3.289 -0.8175  0.0260  0.6713
 9499SOL    HW240131   0.638   4.053   3.402  0.5452 -0.6065  0.2536
 9500SOL     OW40132   2.218   2.693   2.556  0.2044 -0.1989  0.6152
 9500SOL    HW140133   2.136   2.669   2.512  1.0657 -1.3679 -0.3359
 9500SOL    HW240134   2.200   2.654   2.642  2.0167  0.3536  1.2438
 9501SOL     OW40135   0.417   3.142   7.500  0.2181 -0.3087 -1.0052
 9501SOL    HW140136   0.417   3.047   7.496 -0.7285 -0.3282 -0.5726
 9501SOL    HW240137   0.407   3.158   7.406 -1.6507  1.4441 -0.5065
 9502SOL     OW40138   3.188   1.693   3.460 -0.0062  0.4169 -0.0486
 9502SOL    HW140139   3.157   1.699   3.550 -0.0256  1.0484 -0.1003
 9502SOL    HW240140   3.183   1.783   3.428 -1.8484  0.5298  0.5981
 9503SOL     OW40141   1.889   4.615   5.441 -0.3820 -0.0770 -0.0406
 9503SOL    HW140142   1.919   4.635   5.530  0.8560  1.4484 -0.7917
 9503SOL    HW240143   1.831   4.541   5.456 -0.0353 -0.0149  1.6387
 9504SOL     OW40144   1.900   0.513   2.322  0.9068 -0.5473 -0.6196
 9504SOL    HW140145   1.817   0.559   2.312 -1.1988 -3.6964  2.6084
 9504SOL    HW240146   1.967   0.561   2.272  0.9047  0.3050  0.1852
 9505SOL     OW40147   2.266   3.208   4.444 -0.2915 -0.0834  0.0223
 9505SOL    HW140148   2.332   3.140   4.429  0.4047  0.7669 -0.8384
 9505SOL    HW240149   2.316   3.265   4.503 -2.0048  0.4934  0.9224
 9506SOL     OW40150   4.062   0.808   4.721 -0.2699  0.3610 -0.1135
 9506SOL    HW140151   4.062   0.744   4.650 -2.2313  0.8936 -0.5831
 9506SOL    HW240152   3.988   0.786   4.778  0.6552  0.2185  1.0394
 9507SOL     OW40153   4.724   2.629  17.303  0.6121 -0.9368  0.4146
 9507SOL    HW140154   4.725   2.724  17.320 -2.1862 -0.8516  0.0080
 9507SOL    HW240155   0.026   2.638  17.216  1.6781 -0.7692  0.9046
 9508SOL     OW40156   2.786   3.484  17.453  0.1382 -0.1543 -0.2225
 9508SOL    HW140157   2.861   3.468  17.511 -1.6176 -1.1825  1.7757
 9508SOL    HW240158   2.760   3.394  17.438 -2.9720  0.7245 -0.0364
 9509SOL     OW40159   4.392   3.217   4.056  0.0876 -0.4085 -0.1800
 9509SOL    HW140160   4.450   3.285   4.090 -1.2154  0.2244  0.7877
 9509SOL    HW240161   4.450   3.162   4.003 -0.5281 -0.9000 -0.3416
 9510SOL     OW40162   0.953   1.367   2.244  0.7531 -0.4294 -0.5674
 9510SOL    HW140163   0.874   1.314   2.235  0.2769 -0.1970  2.2245
 9510SOL    HW240164   0.933   1.415   2.325 -0.6108 -2.7515  0.4778
 9511SOL     OW40165   0.159   4.334   8.667  0.3543 -0.0890 -0.6554
 9511SOL    HW140166   0.220   4.270   8.703  0.2939  0.0464 -0.3168
 9511SOL    HW240167   0.105   4.355   8.742  1.2351  0.4007 -0.1534
 9512SOL     OW40168   3.757   2.958   4.010 -0.9727  0.6256 -0.0185
 9512SOL    HW140169   3.723   3.009   4.084  0.6145  0.4021  0.8537
 9512SOL    HW240170   3.832   2.912   4.047 -1.4363 -0.7554 -0.8001
 9513SOL     OW40171   3.330   3.744  16.010  0.2329 -0.5082  0.6006
 9513SOL    HW140172   3.308   3.834  15.989  1.2768 -0.4790 -0.3496
 9513SOL    HW240173   3.374   3.725  15.928 -1.6612 -0.6784 -0.3646
 9514SOL     OW40174   4.052   4.667   7.071 -0.1822 -0.2661 -0.3015
 9514SOL    HW140175   4.111   4.702   7.004 -0.9280  2.8954  0.6987
 9514SOL    HW240176   3.975   4.658   7.016 -0.6559 -2.6387  0.7160
 9515SOL     OW40177   1.706   3.876  14.385 -0.2283  0.0360  0.3516
 9515SOL    HW140178   1.783   3.851  14.436 -0.0786 -0.9684 -0.3679
 9515SOL    HW240179   1.725   3.969  14.376 -2.0514  0.2980 -0.9667
 9516SOL     OW40180   4.539   3.701   7.271  0.7720  0.1457 -0.1126
 9516SOL    HW140181   4.513   3.763   7.339 -2.4132  1.3725 -2.4522
 9516SOL    HW240182   4.521   3.750   7.191 -1.0391 -0.9426 -0.3705
 9517SOL     OW40183   2.109   4.606   7.357  0.0017 -0.8740  0.3319
 9517SOL    HW140184   2.060   4.568   7.284  0.4802  0.0620 -0.4766
 9517SOL    HW240185   2.068   4.692   7.367 -0.5181 -1.0031 -0.7288
 9518SOL     OW40186   1.881   0.116   0.474 -0.0487 -0.5357  0.0465
 9518SOL    HW140187   1.818   0.053   0.509 -0.1532 -0.5845 -0.2300
 9518SOL    HW240188   1.830   0.168   0.412  0.4075  0.1368  0.2367
 9519SOL     OW40189   4.569   0.965   5.950  0.0211 -0.2531  0.0159
 9519SOL    HW140190   4.517   0.885   5.955 -0.0747 -0.1946 -0.0521
 9519SOL    HW240191   4.496   1.026   5.950  0.4266  0.2273 -1.6119
 9520SOL     OW40192   4.656   1.715   6.622  0.5873 -0.4469 -0.6695
 9520SOL    HW140193   4.679   1.622   6.623  0.4493 -0.4876 -1.5131
 9520SOL    HW240194   4.561   1.702   6.616  0.2810  1.0343  0.7557
 9521SOL     OW40195   3.450   4.708   5.669 -0.0618  0.4846  0.1404
 9521SOL    HW140196   3.390   4.714   5.744 -1.4143  2.1938 -1.0827
 9521SOL    HW240197   3.407   4.635   5.624  0.2557  0.6194 -0.3772
 9522SOL     OW40198   1.593   1.294   4.692 -0.2794 -0.0943 -0.0824
 9522SOL    HW140199   1.642   1.217   4.720  1.6269  0.5964 -1.5349
 9522SOL    HW240200   1.606   1.354   4.765  1.5147 -0.6990  0.1052
 9523SOL     OW40201   1.285   1.382   3.557  0.3920 -0.0172  0.0011
 9523SOL    HW140202   1.294   1.297   3.599  0.4302 -0.6828 -1.3506
 9523SOL    HW240203   1.192   1.372   3.537  0.6943 -0.9646 -0.8983
 9524SOL     OW40204   2.463   0.773   8.627  0.2508  0.4510  0.7245
 9524SOL    HW140205   2.387   0.736   8.581  0.2801 -0.1855  1.1902
 9524SOL    HW240206   2.491   0.701   8.684 -1.1568 -1.1590 -0.6158
 9525SOL     OW40207   0.300   0.887  13.705 -0.1453  0.4253 -0.1458
 9525SOL    HW140208   0.327   0.846  13.623 -2.8633 -2.2169  0.3225
 9525SOL    HW240209   0.340   0.974  13.694 -2.4697  1.3564 -1.4187
 9526SOL     OW40210   0.579   0.136   7.174 -0.0177 -0.2791 -0.1997
 9526SOL    HW140211   0.554   0.189   7.097  2.1946  0.9115 -0.0919
 9526SOL    HW240212   0.557   0.050   7.140  0.2347  0.0914 -1.3186
 9527SOL     OW40213   2.386   3.653  13.962 -0.0369  0.0082 -0.1586
 9527SOL    HW140214   2.426   3.739  13.969  0.7904 -0.3787 -0.1229
 9527SOL    HW240215   2.445   3.603  14.018 -1.3681 -0.5983  0.7263
 9528SOL     OW40216   0.281   2.026  12.256  0.1944 -0.0900  1.1096
 9528SOL    HW140217   0.334   2.030  12.176 -2.0614  1.7894 -0.2999
 9528SOL    HW240218   0.194   2.025  12.216  0.6694 -0.7805  0.1063
 9529SOL     OW40219   4.310   0.856  13.039  0.1850 -0.6096 -0.6947
 9529SOL    HW140220   4.266   0.882  13.119  1.1521  0.0406 -0.3697
 9529SOL    HW240221   4.395   0.899  13.051 -0.0699 -0.7422  1.5626
 9530SOL     OW40222   2.785   3.898   2.244 -0.3611  0.2604 -0.4130
 9530SOL    HW140223   2.777   3.808   2.277  0.1003  0.5756  0.5616
 9530SOL    HW240224   2.851   3.937   2.300 -0.5146  1.8372 -1.3383
 9531SOL     OW40225   1.088   4.690   1.975 -0.0723  0.1717  0.0163
 9531SOL    HW140226   1.025   0.021   1.951 -0.2719  0.3176  0.9792
 9531SOL    HW240227   1.066   4.690   2.068  0.3760  0.2031  0.1220
 9532SOL     OW40228   1.846   2.979  15.999 -0.2701  0.4874 -0.2061
 9532SOL    HW140229   1.919   3.008  16.053  0.4089 -0.4443 -0.6330
 9532SOL    HW240230   1.877   3.039  15.931  2.9138  1.1567  1.8471
 9533SOL     OW40231   3.949   2.080   2.682 -0.9174  0.2123  0.4748
 9533SOL    HW140232   3.940   2.087   2.587  0.3753  1.1630  0.4107
 9533SOL    HW240233   3.961   2.169   2.713 -1.3362  0.4303 -0.0034
 9534SOL     OW40234   1.848   1.006   1.614  0.4007  0.7228  0.3943
 9534SOL    HW140235   1.810   1.019   1.700 -0.3720  0.2982  0.1183
 9534SOL    HW240236   1.889   1.091   1.594  1.3787  0.0022 -0.6814
 9535SOL     OW40237   3.870   2.448   3.995 -0.3173  0.3387  0.3587
 9535SOL    HW140238   3.906   2.394   4.065  1.1674  1.2056  0.2619
 9535SOL    HW240239   3.834   2.510   4.059  1.2740  0.7541  0.8320
 9536SOL     OW40240   0.946   1.684   4.295  0.1882 -0.0926 -0.4525
 9536SOL    HW140241   0.954   1.589   4.300 -0.6376 -0.0128  2.2714
 9536SOL    HW240242   0.857   1.689   4.260  1.1104  2.9780 -2.3277
 9537SOL     OW40243   2.855   4.553   8.393 -0.2627 -0.3197 -0.8508
 9537SOL    HW140244   2.769   4.554   8.350 -0.3349 -0.0125 -0.6970
 9537SOL    HW240245   2.899   4.489   8.337  1.7778  0.5222 -0.2089
 9538SOL     OW40246   3.201   3.138   3.882 -0.1918  0.1226 -0.2603
 9538SOL    HW140247   3.116   3.182   3.889  1.4379  3.1084  0.4308
 9538SOL    HW240248   3.214   3.128   3.788 -1.0185 -1.8350 -0.1715
 9539SOL     OW40249   1.364   4.065   0.627  0.1684 -0.6739  0.0759
 9539SOL    HW140250   1.379   4.153   0.593  0.4695 -0.4303  0.8280
 9539SOL    HW240251   1.427   4.058   0.699  0.4280 -2.3790 -0.3255
 9540SOL     OW40252   0.751   0.219   2.961 -0.0157 -0.0361  0.1977
 9540SOL    HW140253   0.818   0.205   2.894 -0.9786  2.3188 -1.2741
 9540SOL    HW240254   0.711   0.132   2.959  2.0916 -0.9988  0.6349
 9541SOL     OW40255   1.416   0.854   1.638  0.0955 -0.1283 -0.2174
 9541SOL    HW140256   1.494   0.908   1.624  1.1310 -0.5987  3.8079
 9541SOL    HW240257   1.457   0.768   1.653  1.6527  0.1306 -2.8592
 9542SOL     OW40258   1.729   0.356   1.873 -0.2148  0.1500 -0.1262
 9542SOL    HW140259   1.733   0.261   1.886  1.5212 -0.0925 -2.3991
 9542SOL    HW240260   1.687   0.384   1.954  1.5613  2.2204  0.0862
 9543SOL     OW40261   1.348   4.333   2.298  0.2797 -0.3239 -0.4707
 9543SOL    HW140262   1.413   4.264   2.313  1.1943  0.7191  0.3683
 9543SOL    HW240263   1.396   4.406   2.337 -0.4243  2.7871 -5.4229
 9544SOL     OW40264   0.672   2.647   6.448  0.1655  0.6951 -0.1343
 9544SOL    HW140265   0.620   2.631   6.369  1.3688 -1.0194 -0.5949
 9544SOL    HW240266   0.664   2.559   6.486 -0.4070  0.3111 -1.1372
 9545SOL     OW40267   2.671   1.892   8.750  0.5152  0.4357 -0.5107
 9545SOL    HW140268   2.659   1.848   8.666  4.3908 -2.8807  0.6960
 9545SOL    HW240269   2.589   1.941   8.739 -0.6778 -1.2994  0.6921
 9546SOL     OW40270   4.469   0.506   8.537 -0.7080  0.6770  0.2409
 9546SOL    HW140271   4.507   0.423   8.508  1.1989  1.5498  0.1853
 9546SOL    HW240272   4.374   0.496   8.536 -0.4523 -1.5216 -0.5783
 9547SOL     OW40273   2.614   3.769   0.175 -0.0994 -0.0390 -0.9480
 9547SOL    HW140274   2.550   3.836   0.203 -1.2578 -1.2212 -0.7680
 9547SOL    HW240275   2.604   3.775   0.080 -0.1938  0.7291 -0.8892
 9548SOL     OW40276   0.842   1.177   4.111  0.0776  0.7119  0.1845
 9548SOL    HW140277   0.763   1.231   4.105  0.9290  1.9982  0.4933
 9548SOL    HW240278   0.838   1.149   4.202  3.9038  2.9313  1.0119
 9549SOL     OW40279   0.016   1.517   3.786  0.3433  0.0784  0.1320
 9549SOL    HW140280   0.096   1.561   3.816  1.2227 -3.0913  2.4063
 9549SOL    HW240281   0.020   1.534   3.692  1.1786 -0.9032 -0.0042
 9550SOL     OW40282   1.677   0.131   6.694 -0.2874  0.2200  0.5223
 9550SOL    HW140283   1.600   0.085   6.726  1.0127 -2.3691 -0.0560
 9550SOL    HW240284   1.745   0.099   6.754 -0.7651  0.3499  1.1320
 9551SOL     OW40285   3.777   1.744   7.412  0.0574  0.0640  0.2890
 9551SOL    HW140286   3.872   1.753   7.408  0.0222 -0.0437 -0.7796
 9551SOL    HW240287   3.765   1.786   7.497 -1.7393 -0.8969  0.5077
 9552SOL     OW40288   0.733   2.658   2.306  0.1958 -0.6093  0.0539
 9552SOL    HW140289   0.749   2.660   2.211  2.8522 -0.1431  0.5033
 9552SOL    HW240290   0.769   2.745   2.321  2.7111 -2.1915  3.2650
 9553SOL     OW40291   4.603   3.151  15.733 -0.3884  0.1821  0.2836
 9553SOL    HW140292   4.580   3.094  15.659 -1.3475  2.0670 -0.8610
 9553SOL    HW240293   4.612   3.235  15.688 -0.1416  0.9994  1.8783
 9554SOL     OW40294   1.583   4.473   4.773 -0.5414 -0.0234 -0.4372
 9554SOL    HW140295   1.559   4.532   4.702 -0.4423  0.1834 -0.3005
 9554SOL    HW240296   1.667   4.503   4.807 -0.9200 -0.3034  0.7588
 9555SOL     OW40297   3.333   2.155   2.705  0.4739  0.1858  0.0876
 9555SOL    HW140298   3.404   2.106   2.662  2.1360  2.8980 -0.2523
 9555SOL    HW240299   3.258   2.121   2.657 -0.3359  1.3794  0.5174
 9556SOL     OW40300   2.289   2.097   6.422  0.3582  0.3893  0.1022
 9556SOL    HW140301   2.298   2.048   6.504  0.6722 -0.2207 -0.2999
 9556SOL    HW240302   2.215   2.055   6.378 -1.9539  1.0314  3.3528
 9557SOL     OW40303   1.205   1.391  15.114 -0.3617  0.0824  0.1351
 9557SOL    HW140304   1.292   1.370  15.149  0.9101  2.3327 -1.6901
 9557SOL    HW240305   1.162   1.387  15.199 -0.0498 -2.4075  0.1766
 9558SOL     OW40306   4.501   1.489   8.215  0.7639 -0.3201  0.4256
 9558SOL    HW140307   4.554   1.523   8.143  0.3538 -0.9051 -0.1528
 9558SOL    HW240308   4.503   1.563   8.276 -0.6494 -0.2784  0.4052
 9559SOL     OW40309   0.055   0.706   4.357 -0.4492  0.0655 -0.3446
 9559SOL    HW140310   4.716   0.749   4.320  0.3853  1.8920  0.0659
 9559SOL    HW240311   0.084   0.654   4.281  0.4301 -1.9853  1.3787
 9560SOL     OW40312   3.355   0.107  14.296 -0.2615 -0.0793 -0.2663
 9560SOL    HW140313   3.390   0.184  14.340 -1.8738  0.4158  0.1605
 9560SOL    HW240314   3.289   0.147  14.239  1.3522  0.8683 -1.4419
 9561SOL     OW40315   2.140   0.872   3.943 -0.0300 -0.4746 -0.1364
 9561SOL    HW140316   2.198   0.796   3.939  0.3935 -0.0648 -2.1408
 9561SOL    HW240317   2.188   0.931   3.885  1.0150 -1.2073 -0.0169
 9562SOL     OW40318   1.697   1.510  15.871  0.2194  0.1570 -0.4426
 9562SOL    HW140319   1.774   1.567  15.865 -0.8000  1.5689 -0.2403
 9562SOL    HW240320   1.710   1.470  15.785  2.4426 -1.1496  0.5059
 9563SOL     OW40321   3.467   1.042   5.682 -0.4425 -0.0849 -0.9688
 9563SOL    HW140322   3.465   0.951   5.713  0.9297 -0.7614 -2.8852
 9563SOL    HW240323   3.420   1.087   5.752  1.0715 -2.8716  1.8429
 9564SOL     OW40324   1.942   0.703  15.393 -0.1900  0.3520 -0.0921
 9564SOL    HW140325   1.980   0.664  15.315 -0.0645 -3.5343  1.9403
 9564SOL    HW240326   1.916   0.629  15.448  1.6848 -1.3704 -1.5191
 9565SOL     OW40327   0.952   2.247  14.610 -0.2328 -0.4105 -0.2465
 9565SOL    HW140328   0.911   2.185  14.670  1.1615 -2.7513 -1.6984
 9565SOL    HW240329   0.987   2.312  14.670  0.1213 -1.3764  0.5829
 9566SOL     OW40330   3.263   4.146  13.696 -0.0290  0.7036  0.6196
 9566SOL    HW140331   3.290   4.162  13.786  0.3973  3.1907  0.0342
 9566SOL    HW240332   3.191   4.085  13.715  0.0477  0.5057  0.2818
 9567SOL     OW40333   4.618   3.419   3.647  0.3009 -0.0297 -0.3885
 9567SOL    HW140334   4.622   3.426   3.742  0.4847  1.6691 -0.5218
 9567SOL    HW240335   4.527   3.392   3.633 -0.1499  0.9595  0.7266
 9568SOL     OW40336   3.045   4.198   0.038  0.0210  0.1085  0.3345
 9568SOL    HW140337   3.026   4.161  17.698 -2.2311 -0.1804  0.9534
 9568SOL    HW240338   2.953   4.205   0.065 -0.1240 -0.0286 -0.1200
 9569SOL     OW40339   3.920   0.713  12.791  0.0899  0.2283 -0.0866
 9569SOL    HW140340   4.011   0.742  12.792 -0.5021  1.9960  1.5249
 9569SOL    HW240341   3.901   0.685  12.880 -3.1985 -1.5769 -1.3303
 9570SOL     OW40342   3.584   3.492  15.585  0.0508  0.0737  0.0895
 9570SOL    HW140343   3.518   3.449  15.530  1.3655 -1.4978 -0.2597
 9570SOL    HW240344   3.545   3.579  15.596  1.6098  0.7300  0.4016
 9571SOL     OW40345   3.032   3.588   5.754  0.0343 -0.3520 -0.2667
 9571SOL    HW140346   2.955   3.551   5.798  0.2741  1.0054  1.3036
 9571SOL    HW240347   2.996   3.653   5.693  1.7434 -1.5357 -2.5008
   4.73715   4.73715  17.74697
